<event>
 9    1  0.4967932E-005  0.1030830E+03  0.7546771E-02  0.1273992E+00
         21   -1    0    0  501  502  0.00000000000E+00  0.00000000000E+00  0.24263314128E+03  0.24263314128E+03  0.00000000000E+00 0.  1.
         -2   -1    0    0    0  501 -0.00000000000E+00 -0.00000000000E+00 -0.22274724853E+03  0.22274724853E+03  0.00000000000E+00 0.  1.
        -24    2    1    2    0    0 -0.49696270709E+02 -0.61974940828E+01 -0.17893775946E+03  0.20668532189E+03  0.90509514805E+02 0.  0.
         23    2    1    2    0    0  0.46345279783E+02 -0.22549394416E+02  0.67074138566E+02  0.12380419691E+03  0.90400104874E+02 0.  0.
         13    1    3    3    0    0  0.94782795817E+01  0.31748717894E+02 -0.58788452125E+02  0.67482597572E+02  0.00000000000E+00 0. -1.
        -14    1    3    3    0    0 -0.59174550290E+02 -0.37946211977E+02 -0.12014930733E+03  0.13920272432E+03  0.00000000000E+00 0.  1.
        -11    1    4    4    0    0  0.56810684171E+02 -0.45573430943E+02  0.29649261491E+02  0.78635044038E+02  0.00000000000E+00 0.  1.
         11    1    4    4    0    0 -0.10465404388E+02  0.23024036528E+02  0.37424877075E+02  0.45169152871E+02  0.00000000000E+00 0. -1.
         -1    1    1    2    0  502  0.33509909260E+01  0.28746888498E+02  0.13174951364E+03  0.13489087102E+03  0.00000000000E+00 0.  1.
<scales pt_clust_5="13000.00000" pt_clust_6="13000.00000" pt_clust_7="13000.00000" pt_clust_8="13000.00000" pt_clust_9="28.94154"></scales>
<clustering>
<clus scale="   28.942">  1  9  2 -1</clus>
<clus scale="   90.400">  7  8 -1 -1</clus>
<clus scale="   90.510">  5  6 -1 -1</clus>
<clus scale="  102.987">  1  7  2 -1</clus>
<clus scale="   28.942">  1  5  2 -1</clus>
</clustering>
</event>
<event>
 9    1  0.4664604E-005  0.1429679E+03  0.7546771E-02  0.1211112E+00
          1   -1    0    0  502    0 -0.00000000000E+00  0.00000000000E+00  0.15258235561E+03  0.15258235561E+03  0.00000000000E+00 0. -1.
         21   -1    0    0  501  502  0.00000000000E+00 -0.00000000000E+00 -0.34395303741E+03  0.34395303741E+03  0.00000000000E+00 0.  1.
        -24    2    1    2    0    0  0.11546005384E+03 -0.32827447564E+02  0.91305994369E+02  0.17056619234E+03  0.79670421197E+02 0.  0.
         23    2    1    2    0    0 -0.71205665247E+02  0.20195385877E+02 -0.18410682474E+03  0.21718484748E+03  0.88294024062E+02 0.  0.
         13    1    3    3    0    0  0.89071908525E+02 -0.95788177057E+01  0.10008070602E+03  0.13431941913E+03  0.00000000000E+00 0. -1.
        -14    1    3    3    0    0  0.26388145315E+02 -0.23248629859E+02 -0.87747116515E+01  0.36246773209E+02  0.00000000000E+00 0.  1.
        -13    1    4    4    0    0 -0.33830642838E+02 -0.27609822535E+02 -0.12526985712E+03  0.13266254859E+03  0.00000000000E+00 0.  1.
         13    1    4    4    0    0 -0.37375022409E+02  0.47805208412E+02 -0.58836967626E+02  0.84522298897E+02  0.00000000000E+00 0. -1.
          2    1    1    2  501    0 -0.44254388594E+02  0.12632061687E+02 -0.98569851425E+02  0.10878435321E+03  0.00000000000E+00 0. -1.
<scales pt_clust_5="13000.00000" pt_clust_6="13000.00000" pt_clust_7="13000.00000" pt_clust_8="13000.00000" pt_clust_9="46.02195"></scales>
<clustering>
<clus scale="   46.022">  2  9  1 -1</clus>
<clus scale="   79.670">  5  6 -1 -1</clus>
<clus scale="   88.294">  7  8 -1 -1</clus>
<clus scale="  137.809">  1  5  2 -1</clus>
<clus scale="   46.022">  2  5  1 -1</clus>
</clustering>
</event>
<event>
 9    1  0.4664604E-005  0.1142086E+03  0.7546771E-02  0.1261917E+00
          3   -1    0    0  502    0 -0.00000000000E+00  0.00000000000E+00  0.78981209823E+02  0.78981209823E+02  0.00000000000E+00 0. -1.
         21   -1    0    0  501  502  0.00000000000E+00 -0.00000000000E+00 -0.43702969497E+03  0.43702969497E+03  0.00000000000E+00 0.  1.
         23    2    1    2    0    0  0.25328284770E+02  0.37436108567E+02  0.33979567843E+01  0.11035272761E+03  0.10061408523E+03 0.  0.
        -24    2    1    2    0    0 -0.20118245236E+02 -0.85132515294E+02 -0.16092415441E+03  0.19947554087E+03  0.79003917492E+02 0.  0.
         13    1    4    4    0    0 -0.18325127295E+02 -0.39608507336E+02 -0.14282902598E+02  0.45919989660E+02  0.00000000000E+00 0. -1.
        -14    1    4    4    0    0 -0.17931179404E+01 -0.45524007958E+02 -0.14664125182E+03  0.15355555121E+03  0.00000000000E+00 0.  1.
        -11    1    3    3    0    0  0.23854432184E+02  0.71918954326E+02  0.31567305117E+01  0.75837555826E+02  0.00000000000E+00 0. -1.
         11    1    3    3    0    0  0.14738525868E+01 -0.34482845760E+02  0.24122627261E+00  0.34515171784E+02  0.00000000000E+00 0.  1.
          4    1    1    2  501    0 -0.52100395346E+01  0.47696406727E+02 -0.20052228752E+03  0.20618263632E+03  0.00000000000E+00 0. -1.
<scales pt_clust_5="13000.00000" pt_clust_6="13000.00000" pt_clust_7="13000.00000" pt_clust_8="13000.00000" pt_clust_9="47.98012"></scales>
<clustering>
<clus scale="   47.980">  2  9  1 -1</clus>
<clus scale="   79.004">  5  6 -1 -1</clus>
<clus scale="   95.719">  2  5  1 -1</clus>
<clus scale="  100.614">  7  8 -1 -1</clus>
<clus scale="   47.980">  2  5  1 -1</clus>
</clustering>
</event>
<event>
 9    1  0.4664604E-005  0.1597830E+03  0.7546771E-02  0.1190588E+00
         -2   -1    0    0    0  501 -0.00000000000E+00  0.00000000000E+00  0.12599466180E+04  0.12599466180E+04  0.00000000000E+00 0.  1.
         21   -1    0    0  501  502  0.00000000000E+00 -0.00000000000E+00 -0.47809128283E+02  0.47809128283E+02  0.00000000000E+00 0.  1.
         23    2    1    2    0    0 -0.84743908467E+02 -0.62695316564E+01  0.32049216903E+03  0.34389947316E+03  0.91273107663E+02 0.  0.
        -24    2    1    2    0    0  0.18332676837E+03 -0.62081320397E+02  0.74723829815E+03  0.77612293190E+03  0.80863693115E+02 0.  0.
         13    1    4    4    0    0  0.11117571547E+03 -0.74158226213E+02  0.41749895368E+03  0.43836612387E+03  0.00000000000E+00 0. -1.
        -14    1    4    4    0    0  0.72151052896E+02  0.12076905816E+02  0.32973934446E+03  0.33775680804E+03  0.00000000000E+00 0.  1.
        -13    1    3    3    0    0 -0.80333672021E+02  0.29677128984E+02  0.25586077160E+03  0.26981283381E+03  0.00000000000E+00 0. -1.
         13    1    3    3    0    0 -0.44102364467E+01 -0.35946660640E+02  0.64631397424E+02  0.74086639346E+02  0.00000000000E+00 0.  1.
         -1    1    1    2    0  502 -0.98582859898E+02  0.68350852053E+02  0.14440702249E+03  0.18773334117E+03  0.00000000000E+00 0.  1.
<scales pt_clust_5="13000.00000" pt_clust_6="13000.00000" pt_clust_7="13000.00000" pt_clust_8="13000.00000" pt_clust_9="119.96007"></scales>
<clustering>
<clus scale="   80.864">  5  6 -1 -1</clus>
<clus scale="   91.273">  7  8 -1 -1</clus>
<clus scale="  119.960">  2  9  1 -1</clus>
<clus scale="  154.074">  2  5  1 -1</clus>
<clus scale="  119.960">  2  5  1 -1</clus>
</clustering>
</event>
<event>
 9    1  0.4664604E-005  0.9385943E+02  0.7546771E-02  0.1297342E+00
          1   -1    0    0  502    0 -0.00000000000E+00  0.00000000000E+00  0.35176588487E+03  0.35176588487E+03  0.00000000000E+00 0. -1.
         21   -1    0    0  501  502  0.00000000000E+00 -0.00000000000E+00 -0.16564856489E+03  0.16564856489E+03  0.00000000000E+00 0. -1.
         23    2    1    2    0    0  0.67602620619E+01 -0.20963217993E+02  0.31155654248E+03  0.32542232200E+03  0.91362195906E+02 0.  0.
        -24    2    1    2    0    0  0.38338387509E+02  0.24461145921E+02 -0.64517949654E+02  0.11611377000E+03  0.85156691688E+02 0.  0.
         11    1    4    4    0    0  0.73985964952E+01 -0.24424466251E+02  0.46495088717E+01  0.25940541908E+02  0.00000000000E+00 0. -1.
        -12    1    4    4    0    0  0.30939791014E+02  0.48885612171E+02 -0.69167458526E+02  0.90173228091E+02  0.00000000000E+00 0.  1.
        -13    1    3    3    0    0 -0.26864715321E+02 -0.36233910670E+02  0.24668927359E+03  0.25077919952E+03  0.00000000000E+00 0.  1.
         13    1    3    3    0    0  0.33624977383E+02  0.15270692677E+02  0.64867268893E+02  0.74643122473E+02  0.00000000000E+00 0. -1.
          2    1    1    2  501    0 -0.45098649571E+02 -0.34979279273E+01 -0.60921272841E+02  0.75878357767E+02  0.00000000000E+00 0. -1.
<scales pt_clust_5="13000.00000" pt_clust_6="13000.00000" pt_clust_7="13000.00000" pt_clust_8="13000.00000" pt_clust_9="45.23410"></scales>
<clustering>
<clus scale="   45.234">  2  9  1 -1</clus>
<clus scale="   85.157">  5  6 -1 -1</clus>
<clus scale="   87.831">  2  5  1 -1</clus>
<clus scale="   91.362">  7  8 -1 -1</clus>
<clus scale="   45.234">  2  5  1 -1</clus>
</clustering>
</event>
<event>
 9    1  0.4664604E-005  0.9611027E+02  0.7546771E-02  0.1296070E+00
         -2   -1    0    0    0  501 -0.00000000000E+00  0.00000000000E+00  0.38038997011E+03  0.38038997011E+03  0.00000000000E+00 0.  1.
         21   -1    0    0  501  502  0.00000000000E+00 -0.00000000000E+00 -0.24822676417E+03  0.24822676417E+03  0.00000000000E+00 0.  1.
         23    2    1    2    0    0 -0.12511512683E+02 -0.13823311934E+02  0.26243044993E+03  0.27934355531E+03  0.93890675476E+02 0.  0.
        -24    2    1    2    0    0 -0.42100946235E+02  0.38767465870E+02  0.81916921408E+02  0.12875821002E+03  0.81196604300E+02 0.  0.
         11    1    4    4    0    0  0.84712685487E+01 -0.19054462157E+02  0.27980947121E+02  0.34896537375E+02  0.00000000000E+00 0. -1.
        -12    1    4    4    0    0 -0.50572214784E+02  0.57821928027E+02  0.53935974287E+02  0.93861672642E+02  0.00000000000E+00 0.  1.
        -11    1    3    3    0    0  0.23816105189E+02 -0.42982752141E+02  0.13542481299E+03  0.14406458212E+03  0.00000000000E+00 0. -1.
         11    1    3    3    0    0 -0.36327617872E+02  0.29159440206E+02  0.12700563694E+03  0.13527897319E+03  0.00000000000E+00 0.  1.
         -1    1    1    2    0  502  0.54612458918E+02 -0.24944153935E+02 -0.21218416540E+03  0.22051496895E+03  0.00000000000E+00 0.  1.
<scales pt_clust_5="13000.00000" pt_clust_6="13000.00000" pt_clust_7="13000.00000" pt_clust_8="13000.00000" pt_clust_9="60.03942"></scales>
<clustering>
<clus scale="   60.039">  2  9  1 -1</clus>
<clus scale="   81.197">  5  6 -1 -1</clus>
<clus scale="   83.753">  2  5  1 -1</clus>
<clus scale="   93.891">  7  8 -1 -1</clus>
<clus scale="   60.039">  2  5  1 -1</clus>
</clustering>
</event>
<event>
 9    1  0.4664604E-005  0.1080430E+03  0.7546771E-02  0.1277118E+00
         -2   -1    0    0    0  501 -0.00000000000E+00  0.00000000000E+00  0.47066449426E+03  0.47066449426E+03  0.00000000000E+00 0.  1.
         21   -1    0    0  501  502  0.00000000000E+00 -0.00000000000E+00 -0.36867680311E+02  0.36867680311E+02  0.00000000000E+00 0.  1.
         23    2    1    2    0    0  0.31267990366E+02  0.43345302434E+00  0.25671893213E+03  0.27947804538E+03  0.10595042535E+03 0.  0.
        -24    2    1    2    0    0 -0.10896269530E+02 -0.12731869119E+02  0.18508720361E+03  0.20294621642E+03  0.81541796868E+02 0.  0.
         13    1    4    4    0    0 -0.26478706064E+02 -0.40803469685E+02  0.86196917920E+02  0.98974510214E+02  0.00000000000E+00 0. -1.
        -14    1    4    4    0    0  0.15582436534E+02  0.28071600566E+02  0.98890285695E+02  0.10397170621E+03  0.00000000000E+00 0.  1.
        -11    1    3    3    0    0  0.62698200427E+02 -0.13582291807E+02  0.98423512927E+02  0.11748502409E+03  0.00000000000E+00 0.  1.
         11    1    3    3    0    0 -0.31430210061E+02  0.14015744831E+02  0.15829541920E+03  0.16199302129E+03  0.00000000000E+00 0. -1.
         -1    1    1    2    0  502 -0.20371720836E+02  0.12298416095E+02 -0.80093217915E+01  0.25107912773E+02  0.00000000000E+00 0.  1.
<scales pt_clust_5="13000.00000" pt_clust_6="13000.00000" pt_clust_7="13000.00000" pt_clust_8="13000.00000" pt_clust_9="23.79618"></scales>
<clustering>
<clus scale="   23.796">  2  9  1 -1</clus>
<clus scale="   81.542">  5  6 -1 -1</clus>
<clus scale="   84.243">  2  5  1 -1</clus>
<clus scale="  105.950">  7  8 -1 -1</clus>
<clus scale="   23.796">  2  5  1 -1</clus>
</clustering>
</event>
<event>
 9    1  0.4664604E-005  0.9469640E+02  0.7546771E-02  0.1301464E+00
         21   -1    0    0  501  502  0.00000000000E+00  0.00000000000E+00  0.17043056697E+03  0.17043056697E+03  0.00000000000E+00 0. -1.
          3   -1    0    0  502    0 -0.00000000000E+00 -0.00000000000E+00 -0.14695989180E+03  0.14695989180E+03  0.00000000000E+00 0. -1.
         23    2    1    2    0    0  0.75208381903E+01  0.24652177091E+02 -0.81307156674E+02  0.12483890377E+03  0.91157036621E+02 0.  0.
        -24    2    1    2    0    0 -0.60612402463E+02  0.50373225169E+01  0.84852607335E+02  0.12854221853E+03  0.74992659788E+02 0.  0.
         11    1    4    4    0    0 -0.39649523205E+02  0.29725515676E+02  0.15372860295E+02  0.51884639405E+02  0.00000000000E+00 0. -1.
        -12    1    4    4    0    0 -0.20962879257E+02 -0.24688193159E+02  0.69479747040E+02  0.76657579122E+02  0.00000000000E+00 0.  1.
        -13    1    3    3    0    0 -0.37295445472E+02  0.50976725672E+00 -0.12685333774E+02  0.39397053298E+02  0.00000000000E+00 0.  1.
         13    1    3    3    0    0  0.44816283662E+02  0.24142409834E+02 -0.68621822900E+02  0.85441850472E+02  0.00000000000E+00 0. -1.
          4    1    1    2  501    0  0.53091564272E+02 -0.29689499608E+02  0.19925224513E+02  0.64009336473E+02  0.00000000000E+00 0. -1.
<scales pt_clust_5="13000.00000" pt_clust_6="13000.00000" pt_clust_7="13000.00000" pt_clust_8="13000.00000" pt_clust_9="60.82911"></scales>
<clustering>
<clus scale="   60.829">  1  9  2 -1</clus>
<clus scale="   74.993">  5  6 -1 -1</clus>
<clus scale="   79.257">  1  5  2 -1</clus>
<clus scale="   91.157">  7  8 -1 -1</clus>
<clus scale="   60.829">  1  5  2 -1</clus>
</clustering>
</event>
<event>
 9    1  0.4664604E-005  0.1310535E+03  0.7546771E-02  0.1244642E+00
         21   -1    0    0  501  502  0.00000000000E+00  0.00000000000E+00  0.41377732243E+02  0.41377732243E+02  0.00000000000E+00 0. -1.
         -2   -1    0    0    0  501 -0.00000000000E+00 -0.00000000000E+00 -0.65963872769E+03  0.65963872769E+03  0.00000000000E+00 0.  1.
         23    2    1    2    0    0 -0.58773328814E+01 -0.41075939506E+01 -0.23129387673E+03  0.24793310078E+03  0.89008705626E+02 0.  0.
        -24    2    1    2    0    0 -0.78133051108E+02 -0.61955156526E+02 -0.23206498718E+03  0.26489010217E+03  0.79808476125E+02 0.  0.
         13    1    4    4    0    0 -0.35008802398E+02 -0.13108021657E+02 -0.18702472815E+02  0.41799748403E+02  0.00000000000E+00 0. -1.
        -14    1    4    4    0    0 -0.43124248709E+02 -0.48847134869E+02 -0.21336251436E+03  0.22309035377E+03  0.00000000000E+00 0.  1.
        -13    1    3    3    0    0 -0.29040763364E+02 -0.22450687220E+02 -0.20537371598E+03  0.20862828789E+03  0.00000000000E+00 0. -1.
         13    1    3    3    0    0  0.23163430482E+02  0.18343093270E+02 -0.25920160749E+02  0.39304812881E+02  0.00000000000E+00 0.  1.
         -1    1    1    2    0  502  0.84010383989E+02  0.66062750476E+02 -0.15490213154E+03  0.18819325699E+03  0.00000000000E+00 0.  1.
<scales pt_clust_5="13000.00000" pt_clust_6="13000.00000" pt_clust_7="13000.00000" pt_clust_8="13000.00000" pt_clust_9="103.95012"></scales>
<clustering>
<clus scale="   79.808">  5  6 -1 -1</clus>
<clus scale="   89.009">  7  8 -1 -1</clus>
<clus scale="   89.297">  2  7  1 -1</clus>
<clus scale="  103.950">  1  9  2 -1</clus>
<clus scale="  103.950">  1  5  2 -1</clus>
</clustering>
</event>
<event>
 9    1  0.4664604E-005  0.9176597E+02  0.7546771E-02  0.1302036E+00
         -2   -1    0    0    0  501 -0.00000000000E+00  0.00000000000E+00  0.87070244115E+03  0.87070244115E+03  0.00000000000E+00 0.  1.
         21   -1    0    0  501  502  0.00000000000E+00 -0.00000000000E+00 -0.17425067178E+02  0.17425067178E+02  0.00000000000E+00 0.  1.
        -24    2    1    2    0    0 -0.16399322335E+02  0.25407347157E+02  0.33577677113E+03  0.34656225879E+03  0.80280060554E+02 0.  0.
         23    2    1    2    0    0 -0.38390070919E+02 -0.36272646534E+02  0.37807480460E+03  0.39136709523E+03  0.86244668943E+02 0.  0.
         13    1    3    3    0    0  0.19356369467E+02  0.12416565410E+02  0.27065928483E+02  0.35516258532E+02  0.00000000000E+00 0. -1.
        -14    1    3    3    0    0 -0.35755691802E+02  0.12990781748E+02  0.30871084265E+03  0.31104600025E+03  0.00000000000E+00 0.  1.
        -11    1    4    4    0    0 -0.22820544697E+02  0.21134404123E+02  0.58012560394E+02  0.65824748092E+02  0.00000000000E+00 0.  1.
         11    1    4    4    0    0 -0.15569526222E+02 -0.57407050657E+02  0.32006224421E+03  0.32554234714E+03  0.00000000000E+00 0. -1.
         -1    1    1    2    0  502  0.54789393254E+02  0.10865299377E+02  0.13942579824E+03  0.15019815431E+03  0.00000000000E+00 0.  1.
<scales pt_clust_5="13000.00000" pt_clust_6="13000.00000" pt_clust_7="13000.00000" pt_clust_8="13000.00000" pt_clust_9="55.85635"></scales>
<clustering>
<clus scale="   55.856">  2  9  1 -1</clus>
<clus scale="   80.280">  5  6 -1 -1</clus>
<clus scale="   86.184">  1  5  2 -1</clus>
<clus scale="   86.245">  7  8 -1 -1</clus>
<clus scale="   55.856">  2  5  1 -1</clus>
</clustering>
</event>
<event>
 9    1  0.4664604E-005  0.2944838E+03  0.7546771E-02  0.1130601E+00
          1   -1    0    0  502    0 -0.00000000000E+00  0.00000000000E+00  0.72490713284E+03  0.72490713284E+03  0.00000000000E+00 0. -1.
         21   -1    0    0  501  502  0.00000000000E+00 -0.00000000000E+00 -0.26555263810E+03  0.26555263810E+03  0.00000000000E+00 0. -1.
         23    2    1    2    0    0 -0.41429852214E+02  0.97800400053E+01  0.14065026744E+03  0.17222715121E+03  0.89819886704E+02 0.  0.
        -24    2    1    2    0    0 -0.48673334301E+02 -0.27806537531E+03  0.42409302270E+03  0.51623526286E+03  0.83393694646E+02 0.  0.
         11    1    4    4    0    0 -0.53148004085E+02 -0.11118385885E+03  0.13815196736E+03  0.18512840649E+03  0.00000000000E+00 0. -1.
        -12    1    4    4    0    0  0.44746697846E+01 -0.16688151646E+03  0.28594105534E+03  0.33110685637E+03  0.00000000000E+00 0.  1.
        -11    1    3    3    0    0  0.20861469780E+02  0.54679732835E+01  0.39272367876E+01  0.21920831235E+02  0.00000000000E+00 0. -1.
         11    1    3    3    0    0 -0.62291321994E+02  0.43120667218E+01  0.13672303065E+03  0.15030631998E+03  0.00000000000E+00 0.  1.
          2    1    1    2  501    0  0.90103186514E+02  0.26828533530E+03 -0.10538879539E+03  0.30199735686E+03  0.00000000000E+00 0. -1.
<scales pt_clust_5="13000.00000" pt_clust_6="13000.00000" pt_clust_7="13000.00000" pt_clust_8="13000.00000" pt_clust_9="282.42910"></scales>
<clustering>
<clus scale="   83.394">  5  6 -1 -1</clus>
<clus scale="   89.820">  7  8 -1 -1</clus>
<clus scale="   99.397">  1  7  2 -1</clus>
<clus scale="  282.429">  2  9  1 -1</clus>
<clus scale="  282.429">  2  5  1 -1</clus>
</clustering>
</event>
<event>
 9    1  0.4664604E-005  0.9287225E+02  0.7546771E-02  0.1304902E+00
         21   -1    0    0  501  502  0.00000000000E+00  0.00000000000E+00  0.31439865726E+03  0.31439865726E+03  0.00000000000E+00 0.  1.
          1   -1    0    0  502    0 -0.00000000000E+00 -0.00000000000E+00 -0.64189140613E+02  0.64189140613E+02  0.00000000000E+00 0. -1.
         23    2    1    2    0    0 -0.42778093699E+02 -0.19849177684E+02  0.99694942293E+02  0.14368466011E+03  0.92099103568E+02 0.  0.
        -24    2    1    2    0    0 -0.24807749206E+02 -0.17694808445E+02  0.13049513840E+03  0.15503966130E+03  0.77972974567E+02 0.  0.
         11    1    4    4    0    0  0.86375540041E+01  0.26496528656E+02  0.51258747921E+02  0.58344945012E+02  0.00000000000E+00 0. -1.
        -12    1    4    4    0    0 -0.33445303210E+02 -0.44191337101E+02  0.79236390483E+02  0.96694716290E+02  0.00000000000E+00 0.  1.
        -11    1    3    3    0    0 -0.67111498182E+02 -0.27068546265E+01  0.43290952534E+02  0.79908615440E+02  0.00000000000E+00 0. -1.
         11    1    3    3    0    0  0.24333404483E+02 -0.17142323058E+02  0.56403989759E+02  0.63776044674E+02  0.00000000000E+00 0.  1.
          2    1    1    2  501    0  0.67585842905E+02  0.37543986129E+02  0.20019435945E+02  0.79863476453E+02  0.00000000000E+00 0. -1.
<scales pt_clust_5="13000.00000" pt_clust_6="13000.00000" pt_clust_7="13000.00000" pt_clust_8="13000.00000" pt_clust_9="77.31367"></scales>
<clustering>
<clus scale="   77.314">  1  9  2 -1</clus>
<clus scale="   77.973">  5  6 -1 -1</clus>
<clus scale="   78.885">  1  5  2 -1</clus>
<clus scale="   92.099">  7  8 -1 -1</clus>
<clus scale="   77.314">  1  5  2 -1</clus>
</clustering>
</event>
<event>
 9    1  0.4734040E-005  0.1077084E+03  0.7546771E-02  0.1269027E+00
          1   -1    0    0  502    0 -0.00000000000E+00  0.00000000000E+00  0.33073866703E+03  0.33073866703E+03  0.00000000000E+00 0. -1.
         21   -1    0    0  501  502  0.00000000000E+00 -0.00000000000E+00 -0.28311473827E+03  0.28311473827E+03  0.00000000000E+00 0. -1.
        -24    2    1    2    0    0 -0.57628728191E+02  0.15138101183E+02  0.30428498747E+03  0.32043840259E+03  0.80877585517E+02 0.  0.
         23    2    1    2    0    0  0.21467124508E+02 -0.16308168580E+02 -0.12525237774E+03  0.15711653583E+03  0.90943135553E+02 0.  0.
         13    1    3    3    0    0 -0.75089367932E+02  0.17884758713E+02  0.19480222287E+03  0.20953802473E+03  0.00000000000E+00 0. -1.
        -14    1    3    3    0    0  0.17460639741E+02 -0.27466575297E+01  0.10948276459E+03  0.11090037787E+03  0.00000000000E+00 0.  1.
        -11    1    4    4    0    0 -0.30790717114E+02 -0.18039949157E+02 -0.23537298451E+02  0.42749414550E+02  0.00000000000E+00 0. -1.
         11    1    4    4    0    0  0.52257841622E+02  0.17317805768E+01 -0.10171507929E+03  0.11436712128E+03  0.00000000000E+00 0.  1.
          2    1    1    2  501    0  0.36161603683E+02  0.11700673968E+01 -0.13140868097E+03  0.13629846687E+03  0.00000000000E+00 0. -1.
<scales pt_clust_5="13000.00000" pt_clust_6="13000.00000" pt_clust_7="13000.00000" pt_clust_8="13000.00000" pt_clust_9="36.18053"></scales>
<clustering>
<clus scale="   36.181">  2  9  1 -1</clus>
<clus scale="   80.878">  5  6 -1 -1</clus>
<clus scale="   90.943">  7  8 -1 -1</clus>
<clus scale="   99.356">  1  5  2 -1</clus>
<clus scale="   36.181">  2  5  1 -1</clus>
</clustering>
</event>
<event>
 9    1  0.4664604E-005  0.1181522E+03  0.7546771E-02  0.1249892E+00
          1   -1    0    0  502    0 -0.00000000000E+00  0.00000000000E+00  0.45881167413E+03  0.45881167413E+03  0.00000000000E+00 0. -1.
         21   -1    0    0  501  502  0.00000000000E+00 -0.00000000000E+00 -0.91566314473E+02  0.91566314473E+02  0.00000000000E+00 0.  1.
         23    2    1    2    0    0 -0.61788075771E+02 -0.38534367487E+02  0.38436210050E+03  0.40168370497E+03  0.91175165245E+02 0.  0.
        -24    2    1    2    0    0  0.78686922079E+02  0.53203580357E+02 -0.21310053888E+02  0.12592718704E+03  0.79882947937E+02 0.  0.
         13    1    4    4    0    0  0.85582031613E+01 -0.20152410857E+02 -0.91017208919E+01  0.23710837773E+02  0.00000000000E+00 0. -1.
        -14    1    4    4    0    0  0.70128718917E+02  0.73355991213E+02 -0.12208332996E+02  0.10221634927E+03  0.00000000000E+00 0.  1.
        -13    1    3    3    0    0 -0.16375861676E+02  0.12122335762E+02  0.13061047629E+02  0.24201463491E+02  0.00000000000E+00 0.  1.
         13    1    3    3    0    0 -0.45412214095E+02 -0.50656703250E+02  0.37130105287E+03  0.37748224148E+03  0.00000000000E+00 0. -1.
          2    1    1    2  501    0 -0.16898846308E+02 -0.14669212869E+02  0.41933130503E+01  0.22767096589E+02  0.00000000000E+00 0. -1.
<scales pt_clust_5="13000.00000" pt_clust_6="13000.00000" pt_clust_7="13000.00000" pt_clust_8="13000.00000" pt_clust_9="22.37760"></scales>
<clustering>
<clus scale="   22.378">  2  9  1 -1</clus>
<clus scale="   79.883">  5  6 -1 -1</clus>
<clus scale="   91.175">  7  8 -1 -1</clus>
<clus scale="  109.674">  2  5  1 -1</clus>
<clus scale="   22.378">  2  5  1 -1</clus>
</clustering>
</event>
<event>
 9    1  0.4664604E-005  0.8968524E+02  0.7546771E-02  0.1308240E+00
         21   -1    0    0  501  502  0.00000000000E+00  0.00000000000E+00  0.40323177389E+02  0.40323177389E+02  0.00000000000E+00 0. -1.
          1   -1    0    0  502    0 -0.00000000000E+00 -0.00000000000E+00 -0.45373160736E+03  0.45373160736E+03  0.00000000000E+00 0. -1.
         23    2    1    2    0    0  0.25074516425E+02  0.23499269498E+02 -0.25554816406E+03  0.27267837524E+03  0.88699972527E+02 0.  0.
        -24    2    1    2    0    0  0.69205906509E+01  0.10709863590E+02 -0.15368198991E+03  0.17435078188E+03  0.81347681999E+02 0.  0.
         13    1    4    4    0    0 -0.12721176592E+02  0.42359710722E+02 -0.70742666396E+02  0.83430799320E+02  0.00000000000E+00 0. -1.
        -14    1    4    4    0    0  0.19641767242E+02 -0.31649847132E+02 -0.82939323518E+02  0.90919982564E+02  0.00000000000E+00 0.  1.
        -13    1    3    3    0    0  0.18016045686E+02 -0.23084401018E+02 -0.28746205831E+02  0.41034276188E+02  0.00000000000E+00 0.  1.
         13    1    3    3    0    0  0.70584707389E+01  0.46583670516E+02 -0.22680195823E+03  0.23164409905E+03  0.00000000000E+00 0. -1.
          2    1    1    2  501    0 -0.31995107076E+02 -0.34209133088E+02 -0.41782759970E+01  0.47025627628E+02  0.00000000000E+00 0. -1.
<scales pt_clust_5="13000.00000" pt_clust_6="13000.00000" pt_clust_7="13000.00000" pt_clust_8="13000.00000" pt_clust_9="46.83964"></scales>
<clustering>
<clus scale="   46.840">  1  9  2 -1</clus>
<clus scale="   81.348">  5  6 -1 -1</clus>
<clus scale="   82.421">  1  5  2 -1</clus>
<clus scale="   88.700">  7  8 -1 -1</clus>
<clus scale="   46.840">  1  5  2 -1</clus>
</clustering>
</event>
<event>
 9    1  0.4664604E-005  0.1218477E+03  0.7546771E-02  0.1245511E+00
         21   -1    0    0  501  502  0.00000000000E+00  0.00000000000E+00  0.47007953478E+03  0.47007953478E+03  0.00000000000E+00 0. -1.
          3   -1    0    0  502    0 -0.00000000000E+00 -0.00000000000E+00 -0.96076814327E+02  0.96076814327E+02  0.00000000000E+00 0. -1.
         23    2    1    2    0    0 -0.37826213355E+02 -0.28741723930E+00  0.50834056478E+02  0.11562296604E+03  0.96714342018E+02 0.  0.
        -24    2    1    2    0    0  0.10217971682E+03  0.43060678543E+02  0.20740053849E+02  0.13838920242E+03  0.80165484759E+02 0.  0.
         13    1    4    4    0    0  0.10072590451E+03  0.28535408460E+02 -0.91864258345E+01  0.10509218713E+03  0.00000000000E+00 0. -1.
        -14    1    4    4    0    0  0.14538123096E+01  0.14525270084E+02  0.29926479683E+02  0.33297015293E+02  0.00000000000E+00 0.  1.
        -13    1    3    3    0    0 -0.67696007050E+02 -0.15585660328E+02  0.27322965273E+02  0.74647214347E+02  0.00000000000E+00 0.  1.
         13    1    3    3    0    0  0.29869793695E+02  0.15298243088E+02  0.23511091205E+02  0.40975751691E+02  0.00000000000E+00 0. -1.
          4    1    1    2  501    0 -0.64353503464E+02 -0.42773261304E+02  0.30242861012E+03  0.31214418065E+03  0.00000000000E+00 0. -1.
<scales pt_clust_5="13000.00000" pt_clust_6="13000.00000" pt_clust_7="13000.00000" pt_clust_8="13000.00000" pt_clust_9="77.27176"></scales>
<clustering>
<clus scale="   77.272">  1  9  2 -1</clus>
<clus scale="   80.165">  5  6 -1 -1</clus>
<clus scale="   96.714">  7  8 -1 -1</clus>
<clus scale="  109.177">  1  5  2 -1</clus>
<clus scale="   77.272">  1  5  2 -1</clus>
</clustering>
</event>
<event>
 9    1  0.4664604E-005  0.8706482E+02  0.7546771E-02  0.1312806E+00
         21   -1    0    0  501  502  0.00000000000E+00  0.00000000000E+00  0.38317328222E+02  0.38317328222E+02  0.00000000000E+00 0. -1.
          1   -1    0    0  502    0 -0.00000000000E+00 -0.00000000000E+00 -0.28881709494E+03  0.28881709494E+03  0.00000000000E+00 0. -1.
         23    2    1    2    0    0 -0.28687888604E+02  0.21936176475E+02 -0.10788461260E+03  0.14152447998E+03  0.84177776211E+02 0.  0.
        -24    2    1    2    0    0  0.14544806845E+02  0.10543966863E+02 -0.85420980916E+02  0.11833320187E+03  0.79895406881E+02 0.  0.
         11    1    4    4    0    0  0.37828102599E+01  0.43434464971E+02 -0.29746938067E+02  0.52780135706E+02  0.00000000000E+00 0. -1.
        -12    1    4    4    0    0  0.10761996585E+02 -0.32890498108E+02 -0.55674042849E+02  0.65553066163E+02  0.00000000000E+00 0.  1.
        -11    1    3    3    0    0 -0.56600607465E+02  0.60374989738E+01 -0.52169627000E+02  0.77212370385E+02  0.00000000000E+00 0.  1.
         11    1    3    3    0    0  0.27912718861E+02  0.15898677501E+02 -0.55714985600E+02  0.64312109597E+02  0.00000000000E+00 0. -1.
          2    1    1    2  501    0  0.14143081760E+02 -0.32480143338E+02 -0.57194173200E+02  0.67276741308E+02  0.00000000000E+00 0. -1.
<scales pt_clust_5="13000.00000" pt_clust_6="13000.00000" pt_clust_7="13000.00000" pt_clust_8="13000.00000" pt_clust_9="35.42581"></scales>
<clustering>
<clus scale="   35.426">  1  9  2 -1</clus>
<clus scale="   79.895">  5  6 -1 -1</clus>
<clus scale="   82.932">  1  5  2 -1</clus>
<clus scale="   84.178">  7  8 -1 -1</clus>
<clus scale="   35.426">  1  5  2 -1</clus>
</clustering>
</event>
<event>
 9    1  0.4664604E-005  0.1230931E+03  0.7546771E-02  0.1241156E+00
         21   -1    0    0  501  502  0.00000000000E+00  0.00000000000E+00  0.35303481230E+02  0.35303481230E+02  0.00000000000E+00 0. -1.
         -2   -1    0    0    0  501 -0.00000000000E+00 -0.00000000000E+00 -0.10951382365E+04  0.10951382365E+04  0.00000000000E+00 0.  1.
        -24    2    1    2    0    0 -0.13863082740E+02 -0.83808086455E+02 -0.91886007546E+03  0.92627180677E+03  0.80371893930E+02 0.  0.
         23    2    1    2    0    0 -0.13138927874E+02  0.72655410664E+02 -0.10046509881E+03  0.15422477198E+03  0.90777773101E+02 0.  0.
         11    1    3    3    0    0 -0.25573042110E+02 -0.18038772241E+02 -0.10220367668E+03  0.10688764809E+03  0.00000000000E+00 0. -1.
        -12    1    3    3    0    0  0.11709959370E+02 -0.65769314215E+02 -0.81665639877E+03  0.81938415868E+03  0.00000000000E+00 0.  1.
        -11    1    4    4    0    0  0.32880472417E+02  0.43823765297E+01 -0.18204122250E+02  0.37838086068E+02  0.00000000000E+00 0.  1.
         11    1    4    4    0    0 -0.46019400291E+02  0.68273034134E+02 -0.82260976564E+02  0.11638668592E+03  0.00000000000E+00 0. -1.
         -1    1    1    2    0  502  0.27002010614E+02  0.11152675791E+02 -0.40509581004E+02  0.49945138979E+02  0.00000000000E+00 0.  1.
<scales pt_clust_5="13000.00000" pt_clust_6="13000.00000" pt_clust_7="13000.00000" pt_clust_8="13000.00000" pt_clust_9="29.21456"></scales>
<clustering>
<clus scale="   29.215">  1  9  2 -1</clus>
<clus scale="   80.372">  5  6 -1 -1</clus>
<clus scale="   90.778">  7  8 -1 -1</clus>
<clus scale="  115.633">  2  5  1 -1</clus>
<clus scale="   29.215">  1  5  2 -1</clus>
</clustering>
</event>
<event>
 9    1  0.4664604E-005  0.1504128E+03  0.7546771E-02  0.1201495E+00
          1   -1    0    0  502    0 -0.00000000000E+00  0.00000000000E+00  0.58974453965E+03  0.58974453965E+03  0.00000000000E+00 0. -1.
         21   -1    0    0  501  502  0.00000000000E+00 -0.00000000000E+00 -0.63697922312E+02  0.63697922312E+02  0.00000000000E+00 0. -1.
         23    2    1    2    0    0  0.32151888730E+02  0.77881574728E+02  0.12577524647E+03  0.17600024190E+03  0.89762959468E+02 0.  0.
        -24    2    1    2    0    0 -0.20775743832E+02 -0.15789719911E+03  0.29077308319E+03  0.34134743022E+03  0.81276842928E+02 0.  0.
         13    1    4    4    0    0 -0.46464352795E+02 -0.11850048146E+03  0.17506857915E+03  0.21644931876E+03  0.00000000000E+00 0. -1.
        -14    1    4    4    0    0  0.25688608963E+02 -0.39396717642E+02  0.11570450404E+03  0.12489811146E+03  0.00000000000E+00 0.  1.
        -13    1    3    3    0    0 -0.26598616925E+02  0.24515146844E+01  0.19666134495E+02  0.33170064705E+02  0.00000000000E+00 0.  1.
         13    1    3    3    0    0  0.58750505654E+02  0.75430060043E+02  0.10610911197E+03  0.14283017719E+03  0.00000000000E+00 0. -1.
          2    1    1    2  501    0 -0.11376144898E+02  0.80015624378E+02  0.10949828768E+03  0.13609478984E+03  0.00000000000E+00 0. -1.
<scales pt_clust_5="13000.00000" pt_clust_6="13000.00000" pt_clust_7="13000.00000" pt_clust_8="13000.00000" pt_clust_9="80.82027"></scales>
<clustering>
<clus scale="   80.820">  2  9  1 -1</clus>
<clus scale="   81.277">  5  6 -1 -1</clus>
<clus scale="   89.763">  7  8 -1 -1</clus>
<clus scale="  145.508">  2  5  1 -1</clus>
<clus scale="   80.820">  2  5  1 -1</clus>
</clustering>
</event>
<event>
 9    1  0.4664604E-005  0.3822006E+03  0.7546771E-02  0.1050123E+00
          1   -1    0    0  502    0 -0.00000000000E+00  0.00000000000E+00  0.30994848277E+03  0.30994848277E+03  0.00000000000E+00 0. -1.
         21   -1    0    0  501  502  0.00000000000E+00 -0.00000000000E+00 -0.48838097551E+03  0.48838097551E+03  0.00000000000E+00 0. -1.
        -24    2    1    2    0    0  0.98886932989E+02 -0.11267679159E+03 -0.17037223542E+03  0.24784113678E+03  0.99618500281E+02 0.  0.
         23    2    1    2    0    0  0.16694545203E+03 -0.41073260996E+02 -0.11082454364E+03  0.22665744876E+03  0.97640784938E+02 0.  0.
         13    1    3    3    0    0  0.50371646828E+02 -0.11949821198E+03 -0.10968906069E+03  0.16984939066E+03  0.00000000000E+00 0. -1.
        -14    1    3    3    0    0  0.48515286161E+02  0.68214203964E+01 -0.60683174730E+02  0.77991746119E+02  0.00000000000E+00 0.  1.
        -13    1    4    4    0    0  0.14155998547E+03 -0.24270209255E+02 -0.39271725706E+02  0.14889775345E+03  0.00000000000E+00 0.  1.
         13    1    4    4    0    0  0.25385466564E+02 -0.16803051741E+02 -0.71552817933E+02  0.77759695310E+02  0.00000000000E+00 0. -1.
          2    1    1    2  501    0 -0.26583238502E+03  0.15375005258E+03  0.10276428632E+03  0.32383087274E+03  0.00000000000E+00 0. -1.
<scales pt_clust_5="13000.00000" pt_clust_6="13000.00000" pt_clust_7="13000.00000" pt_clust_8="13000.00000" pt_clust_9="307.09287"></scales>
<clustering>
<clus scale="   97.641">  7  8 -1 -1</clus>
<clus scale="   99.619">  5  6 -1 -1</clus>
<clus scale="  145.376">  5  7 -1 -1</clus>
<clus scale="  307.093">  2  9  1 -1</clus>
<clus scale="  307.093">  2  5  1 -1</clus>
</clustering>
</event>
<event>
 9    1  0.4664604E-005  0.1563366E+03  0.7546771E-02  0.1195181E+00
          1   -1    0    0  502    0 -0.00000000000E+00  0.00000000000E+00  0.32679616844E+03  0.32679616844E+03  0.00000000000E+00 0. -1.
         21   -1    0    0  501  502  0.00000000000E+00 -0.00000000000E+00 -0.96259046017E+02  0.96259046017E+02  0.00000000000E+00 0. -1.
         23    2    1    2    0    0  0.53075456249E+02 -0.13364754377E+03  0.17390649103E+03  0.24315787821E+03  0.90573815755E+02 0.  0.
        -24    2    1    2    0    0 -0.48608843572E+02  0.94325640665E+02  0.47844145562E+02  0.13935889738E+03  0.76626978627E+02 0.  0.
         13    1    4    4    0    0 -0.49250050013E+02  0.34605482617E+02 -0.39265922046E+01  0.60320187166E+02  0.00000000000E+00 0. -1.
        -14    1    4    4    0    0  0.64120644108E+00  0.59720158048E+02  0.51770737767E+02  0.79038710211E+02  0.00000000000E+00 0.  1.
        -11    1    3    3    0    0  0.39785399086E+02 -0.83500433877E+01  0.64735387634E+02  0.76441295234E+02  0.00000000000E+00 0.  1.
         11    1    3    3    0    0  0.13290057163E+02 -0.12529750039E+03  0.10917110340E+03  0.16671658298E+03  0.00000000000E+00 0. -1.
          2    1    1    2  501    0 -0.44666126774E+01  0.39321903108E+02  0.87864858331E+01  0.40538438872E+02  0.00000000000E+00 0. -1.
<scales pt_clust_5="13000.00000" pt_clust_6="13000.00000" pt_clust_7="13000.00000" pt_clust_8="13000.00000" pt_clust_9="39.57477"></scales>
<clustering>
<clus scale="   39.575">  2  9  1 -1</clus>
<clus scale="   76.627">  5  6 -1 -1</clus>
<clus scale="   90.574">  7  8 -1 -1</clus>
<clus scale="  148.692">  2  5  1 -1</clus>
<clus scale="   39.575">  2  5  1 -1</clus>
</clustering>
</event>
<event>
 9    1  0.4664604E-005  0.1161523E+03  0.7546771E-02  0.1253598E+00
         21   -1    0    0  501  502  0.00000000000E+00  0.00000000000E+00  0.10979690329E+03  0.10979690329E+03  0.00000000000E+00 0.  1.
          1   -1    0    0  502    0 -0.00000000000E+00 -0.00000000000E+00 -0.16319980990E+03  0.16319980990E+03  0.00000000000E+00 0. -1.
        -24    2    1    2    0    0  0.16728030515E+02  0.81196434805E+02 -0.65365581823E+02  0.13315168260E+03  0.81141994441E+02 0.  0.
         23    2    1    2    0    0 -0.11035276262E+02 -0.46813208559E+02  0.11423351207E+02  0.10498954940E+03  0.92623208286E+02 0.  0.
         13    1    3    3    0    0  0.45399438286E+02  0.34541257277E+02 -0.15561596406E+02  0.59130116977E+02  0.00000000000E+00 0. -1.
        -14    1    3    3    0    0 -0.28671407771E+02  0.46655177528E+02 -0.49803985417E+02  0.74021565622E+02  0.00000000000E+00 0.  1.
        -11    1    4    4    0    0  0.52559111996E+01 -0.23134460773E+02  0.50900601756E+02  0.56157805664E+02  0.00000000000E+00 0.  1.
         11    1    4    4    0    0 -0.16291187462E+02 -0.23678747786E+02 -0.39477250549E+02  0.48831743738E+02  0.00000000000E+00 0. -1.
          2    1    1    2  501    0 -0.56927542532E+01 -0.34383226246E+02  0.53932400699E+00  0.34855481183E+02  0.00000000000E+00 0. -1.
<scales pt_clust_5="13000.00000" pt_clust_6="13000.00000" pt_clust_7="13000.00000" pt_clust_8="13000.00000" pt_clust_9="34.85131"></scales>
<clustering>
<clus scale="   34.851">  1  9  2 -1</clus>
<clus scale="   81.142">  5  6 -1 -1</clus>
<clus scale="   92.623">  7  8 -1 -1</clus>
<clus scale="  107.221">  2  5  1 -1</clus>
<clus scale="   34.851">  1  5  2 -1</clus>
</clustering>
</event>
<event>
 9    1  0.4664604E-005  0.1004534E+03  0.7546771E-02  0.1282931E+00
         21   -1    0    0  501  502  0.00000000000E+00  0.00000000000E+00  0.29533537106E+03  0.29533537106E+03  0.00000000000E+00 0. -1.
          3   -1    0    0  502    0 -0.00000000000E+00 -0.00000000000E+00 -0.13651699175E+03  0.13651699175E+03  0.00000000000E+00 0. -1.
         23    2    1    2    0    0 -0.49827684919E+02 -0.21863789938E+02 -0.76111424464E+02  0.12992480092E+03  0.90148108494E+02 0.  0.
        -24    2    1    2    0    0  0.24309078157E+02  0.13291837051E+00  0.25601572642E+02  0.89932895883E+02  0.82713579852E+02 0.  0.
         13    1    4    4    0    0  0.11038173482E+02 -0.17094043548E+02 -0.26537447853E+02  0.33440749650E+02  0.00000000000E+00 0. -1.
        -14    1    4    4    0    0  0.13270904675E+02  0.17226961918E+02  0.52139020495E+02  0.56492146233E+02  0.00000000000E+00 0.  1.
        -11    1    3    3    0    0 -0.55048095700E+02  0.46453718513E+01 -0.69573785475E+01  0.55680135022E+02  0.00000000000E+00 0. -1.
         11    1    3    3    0    0  0.52204107812E+01 -0.26509161789E+02 -0.69154045917E+02  0.74244665897E+02  0.00000000000E+00 0.  1.
          4    1    1    2  501    0  0.25518606762E+02  0.21730871568E+02  0.20932823113E+03  0.21199466601E+03  0.00000000000E+00 0. -1.
<scales pt_clust_5="13000.00000" pt_clust_6="13000.00000" pt_clust_7="13000.00000" pt_clust_8="13000.00000" pt_clust_9="33.51761"></scales>
<clustering>
<clus scale="   33.518">  1  9  2 -1</clus>
<clus scale="   82.714">  5  6 -1 -1</clus>
<clus scale="   90.148">  7  8 -1 -1</clus>
<clus scale="   93.839">  1  5  2 -1</clus>
<clus scale="   33.518">  1  5  2 -1</clus>
</clustering>
</event>
<event>
 9    1  0.4664604E-005  0.1508124E+03  0.7546771E-02  0.1223207E+00
         21   -1    0    0  501  502  0.00000000000E+00  0.00000000000E+00  0.59003250534E+03  0.59003250534E+03  0.00000000000E+00 0. -1.
          1   -1    0    0  502    0 -0.00000000000E+00 -0.00000000000E+00 -0.15919815667E+03  0.15919815667E+03  0.00000000000E+00 0. -1.
         23    2    1    2    0    0  0.32251857593E+01 -0.14477089793E+02 -0.10760003439E+03  0.14089670823E+03  0.89744788355E+02 0.  0.
        -24    2    1    2    0    0  0.11274148959E+03  0.64830307563E+02  0.24464631397E+03  0.28849783032E+03  0.80408748952E+02 0.  0.
         11    1    4    4    0    0  0.12384715498E+03  0.49293858238E+02  0.20556497243E+03  0.24499991867E+03  0.00000000000E+00 0. -1.
        -12    1    4    4    0    0 -0.11105665398E+02  0.15536449325E+02  0.39081341536E+02  0.43497911649E+02  0.00000000000E+00 0.  1.
        -13    1    3    3    0    0 -0.94314769545E+01 -0.51186536137E+02 -0.58617797108E+02  0.78390435494E+02  0.00000000000E+00 0. -1.
         13    1    3    3    0    0  0.12656662714E+02  0.36709446344E+02 -0.48982237286E+02  0.62506272737E+02  0.00000000000E+00 0.  1.
          2    1    1    2  501    0 -0.11596667535E+03 -0.50353217770E+02  0.29378806909E+03  0.31983612346E+03  0.00000000000E+00 0. -1.
<scales pt_clust_5="13000.00000" pt_clust_6="13000.00000" pt_clust_7="13000.00000" pt_clust_8="13000.00000" pt_clust_9="127.58845"></scales>
<clustering>
<clus scale="   80.409">  5  6 -1 -1</clus>
<clus scale="   89.745">  7  8 -1 -1</clus>
<clus scale="   90.962">  2  7  1 -1</clus>
<clus scale="  127.588">  1  9  2 -1</clus>
<clus scale="  127.588">  1  5  2 -1</clus>
</clustering>
</event>
<event>
 9    1  0.4664604E-005  0.1419128E+03  0.7546771E-02  0.1235363E+00
         21   -1    0    0  501  502  0.00000000000E+00  0.00000000000E+00  0.53823061818E+03  0.53823061818E+03  0.00000000000E+00 0.  1.
         -2   -1    0    0    0  501 -0.00000000000E+00 -0.00000000000E+00 -0.84762313096E+02  0.84762313096E+02  0.00000000000E+00 0.  1.
        -24    2    1    2    0    0 -0.15511602453E+02  0.27912660232E+02 -0.19432722019E+02  0.87106015496E+02  0.78677193892E+02 0.  0.
         23    2    1    2    0    0  0.98041442529E+02  0.45165050262E+02  0.26062866567E+03  0.29669853457E+03  0.91927758771E+02 0.  0.
         11    1    3    3    0    0 -0.26056699091E+02  0.42994124705E+01  0.24567095993E+02  0.36069082614E+02  0.00000000000E+00 0. -1.
        -12    1    3    3    0    0  0.10545096638E+02  0.23613247761E+02 -0.43999818012E+02  0.51036932882E+02  0.00000000000E+00 0.  1.
        -13    1    4    4    0    0  0.53030187598E+02 -0.19503195758E+02  0.66948404213E+02  0.87605161196E+02  0.00000000000E+00 0. -1.
         13    1    4    4    0    0  0.45011254931E+02  0.64668246020E+02  0.19368026145E+03  0.20909337338E+03  0.00000000000E+00 0.  1.
         -1    1    1    2    0  502 -0.82529840076E+02 -0.73077710494E+02  0.21227236144E+03  0.23918838121E+03  0.00000000000E+00 0.  1.
<scales pt_clust_5="13000.00000" pt_clust_6="13000.00000" pt_clust_7="13000.00000" pt_clust_8="13000.00000" pt_clust_9="108.11345"></scales>
<clustering>
<clus scale="   78.677">  5  6 -1 -1</clus>
<clus scale="   84.911">  2  5  1 -1</clus>
<clus scale="   91.928">  7  8 -1 -1</clus>
<clus scale="  108.113">  1  9  2 -1</clus>
<clus scale="  108.113">  1  5  2 -1</clus>
</clustering>
</event>
<event>
 9    1  0.4664604E-005  0.1611804E+03  0.7546771E-02  0.1188396E+00
         21   -1    0    0  501  502  0.00000000000E+00  0.00000000000E+00  0.27559628995E+03  0.27559628995E+03  0.00000000000E+00 0.  1.
         -4   -1    0    0    0  501 -0.00000000000E+00 -0.00000000000E+00 -0.23038026105E+03  0.23038026105E+03  0.00000000000E+00 0.  1.
        -24    2    1    2    0    0 -0.12816670415E+03 -0.37231824432E+02 -0.23445904730E+02  0.15435596745E+03  0.73913066750E+02 0.  0.
         23    2    1    2    0    0  0.11133930978E+03  0.13709440594E+03  0.12936800611E+03  0.23354889506E+03  0.81349169226E+02 0.  0.
         13    1    3    3    0    0 -0.26945856272E+02 -0.30412516792E+02  0.18412305257E+02  0.44609565484E+02  0.00000000000E+00 0. -1.
        -14    1    3    3    0    0 -0.10122084787E+03 -0.68193076403E+01 -0.41858209986E+02  0.10974640196E+03  0.00000000000E+00 0.  1.
        -13    1    4    4    0    0  0.38893182547E+02  0.11065460919E+03  0.80198724031E+02  0.14208785141E+03  0.00000000000E+00 0.  1.
         13    1    4    4    0    0  0.72446127236E+02  0.26439796751E+02  0.49169282083E+02  0.91461043643E+02  0.00000000000E+00 0. -1.
         -3    1    1    2    0  502  0.16827394363E+02 -0.99862581509E+02 -0.60706072482E+02  0.11807168849E+03  0.00000000000E+00 0.  1.
<scales pt_clust_5="13000.00000" pt_clust_6="13000.00000" pt_clust_7="13000.00000" pt_clust_8="13000.00000" pt_clust_9="101.27046"></scales>
<clustering>
<clus scale="   73.913">  5  6 -1 -1</clus>
<clus scale="   81.349">  7  8 -1 -1</clus>
<clus scale="  101.270">  1  9  2 -1</clus>
<clus scale="  157.558">  2  5  1 -1</clus>
<clus scale="  101.270">  1  5  2 -1</clus>
</clustering>
</event>
<event>
 9    1  0.4664604E-005  0.1040353E+03  0.7546771E-02  0.1276488E+00
          1   -1    0    0  502    0 -0.00000000000E+00  0.00000000000E+00  0.42804047578E+03  0.42804047578E+03  0.00000000000E+00 0. -1.
         21   -1    0    0  501  502  0.00000000000E+00 -0.00000000000E+00 -0.11209681709E+03  0.11209681709E+03  0.00000000000E+00 0. -1.
         23    2    1    2    0    0  0.23028127211E+02 -0.48609761847E+02  0.38105024792E+03  0.39516076261E+03  0.89774903371E+02 0.  0.
        -24    2    1    2    0    0  0.93371212911E+01  0.45119284232E+02 -0.64482827798E+02  0.11241763251E+03  0.79729275515E+02 0.  0.
         11    1    4    4    0    0  0.17780690998E+02  0.65297816466E+02 -0.36471068682E+02  0.76877153032E+02  0.00000000000E+00 0. -1.
        -12    1    4    4    0    0 -0.84435697067E+01 -0.20178532234E+02 -0.28011759117E+02  0.35540479475E+02  0.00000000000E+00 0.  1.
        -11    1    3    3    0    0 -0.23719557146E+02  0.11898169514E+02  0.70302932812E+02  0.75144435528E+02  0.00000000000E+00 0.  1.
         11    1    3    3    0    0  0.46747684357E+02 -0.60507931361E+02  0.31074731511E+03  0.32001632708E+03  0.00000000000E+00 0. -1.
          2    1    1    2  501    0 -0.32365248502E+02  0.34904776156E+01 -0.62376142435E+00  0.32558897753E+02  0.00000000000E+00 0. -1.
<scales pt_clust_5="13000.00000" pt_clust_6="13000.00000" pt_clust_7="13000.00000" pt_clust_8="13000.00000" pt_clust_9="32.55292"></scales>
<clustering>
<clus scale="   32.553">  2  9  1 -1</clus>
<clus scale="   79.729">  5  6 -1 -1</clus>
<clus scale="   89.775">  7  8 -1 -1</clus>
<clus scale="   95.502">  2  5  1 -1</clus>
<clus scale="   32.553">  2  5  1 -1</clus>
</clustering>
</event>
<event>
 9    1  0.4664604E-005  0.1699820E+03  0.7546771E-02  0.1202618E+00
         21   -1    0    0  501  502  0.00000000000E+00  0.00000000000E+00  0.35295484584E+03  0.35295484584E+03  0.00000000000E+00 0. -1.
          1   -1    0    0  502    0 -0.00000000000E+00 -0.00000000000E+00 -0.13123319570E+03  0.13123319570E+03  0.00000000000E+00 0. -1.
        -24    2    1    2    0    0  0.79806013375E+01 -0.55647485472E+02  0.95584157791E+02  0.13717926702E+03  0.80755726990E+02 0.  0.
         23    2    1    2    0    0  0.97321096347E+02  0.13086033145E+03  0.11283693324E+03  0.21692293899E+03  0.87906574343E+02 0.  0.
         13    1    3    3    0    0  0.23379169123E+02 -0.70618126133E+02  0.85865309378E+02  0.11360614703E+03  0.00000000000E+00 0. -1.
        -14    1    3    3    0    0 -0.15398567785E+02  0.14970640661E+02  0.97188484122E+01  0.23573119991E+02  0.00000000000E+00 0.  1.
        -13    1    4    4    0    0  0.44435386602E+02  0.11789712929E+03  0.10031416110E+03  0.16105020210E+03  0.00000000000E+00 0.  1.
         13    1    4    4    0    0  0.52885709745E+02  0.12963202162E+02  0.12522772140E+02  0.55872736890E+02  0.00000000000E+00 0. -1.
          2    1    1    2  501    0 -0.10530169768E+03 -0.75212845978E+02  0.13300559107E+02  0.13008583554E+03  0.00000000000E+00 0. -1.
<scales pt_clust_5="13000.00000" pt_clust_6="13000.00000" pt_clust_7="13000.00000" pt_clust_8="13000.00000" pt_clust_9="145.48660"></scales>
<clustering>
<clus scale="   80.756">  5  6 -1 -1</clus>
<clus scale="   87.907">  7  8 -1 -1</clus>
<clus scale="   98.396">  2  5  1 -1</clus>
<clus scale="  145.487">  1  9  2 -1</clus>
<clus scale="  145.487">  1  5  2 -1</clus>
</clustering>
</event>
<event>
 9    1  0.4664604E-005  0.1759701E+03  0.7546771E-02  0.1172442E+00
          1   -1    0    0  502    0 -0.00000000000E+00  0.00000000000E+00  0.61043248251E+03  0.61043248251E+03  0.00000000000E+00 0. -1.
         21   -1    0    0  501  502  0.00000000000E+00 -0.00000000000E+00 -0.79614144223E+02  0.79614144223E+02  0.00000000000E+00 0. -1.
        -24    2    1    2    0    0 -0.15438264310E+03 -0.65822458021E+02  0.22231174350E+03  0.28981632012E+03  0.80027443056E+02 0.  0.
         23    2    1    2    0    0  0.10693064090E+03  0.89737360370E+02  0.11653900228E+03  0.20104403288E+03  0.85734522185E+02 0.  0.
         13    1    3    3    0    0 -0.14050438335E+03 -0.30654520275E+02  0.19855815519E+03  0.24516631568E+03  0.00000000000E+00 0. -1.
        -14    1    3    3    0    0 -0.13878259756E+02 -0.35167937746E+02  0.23753588308E+02  0.44650004442E+02  0.00000000000E+00 0.  1.
        -11    1    4    4    0    0  0.38730375908E+02  0.42787979717E+02  0.10168842059E+03  0.11692471128E+03  0.00000000000E+00 0.  1.
         11    1    4    4    0    0  0.68200264997E+02  0.46949380654E+02  0.14850581684E+02  0.84119321596E+02  0.00000000000E+00 0. -1.
          2    1    1    2  501    0  0.47452002199E+02 -0.23914902349E+02  0.19196759251E+03  0.19918627373E+03  0.00000000000E+00 0. -1.
<scales pt_clust_5="13000.00000" pt_clust_6="13000.00000" pt_clust_7="13000.00000" pt_clust_8="13000.00000" pt_clust_9="53.13773"></scales>
<clustering>
<clus scale="   53.138">  2  9  1 -1</clus>
<clus scale="   80.027">  5  6 -1 -1</clus>
<clus scale="   85.735">  7  8 -1 -1</clus>
<clus scale="  173.261">  1  5  2 -1</clus>
<clus scale="   53.138">  2  5  1 -1</clus>
</clustering>
</event>
<event>
 9    1  0.4664604E-005  0.1468783E+03  0.7546771E-02  0.1205461E+00
          3   -1    0    0  502    0 -0.00000000000E+00  0.00000000000E+00  0.19008687518E+03  0.19008687518E+03  0.00000000000E+00 0. -1.
         21   -1    0    0  501  502  0.00000000000E+00 -0.00000000000E+00 -0.21976322702E+03  0.21976322702E+03  0.00000000000E+00 0. -1.
         23    2    1    2    0    0 -0.26860218285E+02 -0.10865145519E+03  0.10734336902E+03  0.17938919439E+03  0.90173577893E+02 0.  0.
        -24    2    1    2    0    0  0.23349517099E+02  0.13276378522E+03 -0.12900093492E+03  0.20480880438E+03  0.84462906223E+02 0.  0.
         11    1    4    4    0    0 -0.86512602476E+01  0.11398968478E+03 -0.66857918347E+02  0.13243290296E+03  0.00000000000E+00 0. -1.
        -12    1    4    4    0    0  0.32000777346E+02  0.18774100436E+02 -0.62143016569E+02  0.72375901420E+02  0.00000000000E+00 0.  1.
        -13    1    3    3    0    0 -0.41392199607E+02 -0.66617601579E+02  0.19329561081E+02  0.80776549568E+02  0.00000000000E+00 0. -1.
         13    1    3    3    0    0  0.14531981322E+02 -0.42033853610E+02  0.88013807943E+02  0.98612644823E+02  0.00000000000E+00 0.  1.
          4    1    1    2  501    0  0.35107011863E+01 -0.24112330029E+02 -0.80187859492E+01  0.25652103430E+02  0.00000000000E+00 0. -1.
<scales pt_clust_5="13000.00000" pt_clust_6="13000.00000" pt_clust_7="13000.00000" pt_clust_8="13000.00000" pt_clust_9="24.36656"></scales>
<clustering>
<clus scale="   24.367">  2  9  1 -1</clus>
<clus scale="   84.463">  5  6 -1 -1</clus>
<clus scale="   90.174">  7  8 -1 -1</clus>
<clus scale="  143.443">  2  5  1 -1</clus>
<clus scale="   24.367">  2  5  1 -1</clus>
</clustering>
</event>
<event>
 9    1  0.4664604E-005  0.1904486E+03  0.7546771E-02  0.1162244E+00
          1   -1    0    0  502    0 -0.00000000000E+00  0.00000000000E+00  0.33471445635E+03  0.33471445635E+03  0.00000000000E+00 0. -1.
         21   -1    0    0  501  502  0.00000000000E+00 -0.00000000000E+00 -0.27329373858E+03  0.27329373858E+03  0.00000000000E+00 0. -1.
        -24    2    1    2    0    0 -0.15171689191E+03 -0.76907687172E+01  0.30947402874E+02  0.17403850925E+03  0.79085382620E+02 0.  0.
         23    2    1    2    0    0  0.13918710160E+03 -0.15109950930E+03 -0.71385768496E+02  0.24490191764E+03  0.11259178637E+03 0.  0.
         13    1    3    3    0    0 -0.13466356520E+03  0.22389004706E+02  0.21511413982E+02  0.13819654213E+03  0.00000000000E+00 0. -1.
        -14    1    3    3    0    0 -0.17053326706E+02 -0.30079773423E+02  0.94359888920E+01  0.35841967123E+02  0.00000000000E+00 0.  1.
        -11    1    4    4    0    0  0.11118813900E+03 -0.13607845800E+03 -0.10278780744E+02  0.17602784530E+03  0.00000000000E+00 0. -1.
         11    1    4    4    0    0  0.27998962594E+02 -0.15021051299E+02 -0.61106987752E+02  0.68874072339E+02  0.00000000000E+00 0.  1.
          2    1    1    2  501    0  0.12529790313E+02  0.15879027802E+03  0.10185908339E+03  0.18906776803E+03  0.00000000000E+00 0. -1.
<scales pt_clust_5="13000.00000" pt_clust_6="13000.00000" pt_clust_7="13000.00000" pt_clust_8="13000.00000" pt_clust_9="159.28394"></scales>
<clustering>
<clus scale="   79.085">  5  6 -1 -1</clus>
<clus scale="  112.592">  7  8 -1 -1</clus>
<clus scale="  159.284">  2  9  1 -1</clus>
<clus scale="  172.766">  1  5  2 -1</clus>
<clus scale="  159.284">  2  5  1 -1</clus>
</clustering>
</event>
<event>
 9    1  0.4664604E-005  0.1241546E+03  0.7546771E-02  0.1239190E+00
          1   -1    0    0  502    0 -0.00000000000E+00  0.00000000000E+00  0.72516522637E+03  0.72516522637E+03  0.00000000000E+00 0. -1.
         21   -1    0    0  501  502  0.00000000000E+00 -0.00000000000E+00 -0.68371497537E+02  0.68371497537E+02  0.00000000000E+00 0.  1.
         23    2    1    2    0    0  0.10874445790E+03 -0.69945171644E+01  0.13777976990E+03  0.19943157580E+03  0.94421438442E+02 0.  0.
        -24    2    1    2    0    0 -0.42601268255E+02  0.38138755311E+02  0.40919118594E+02  0.11045283346E+03  0.85182283601E+02 0.  0.
         13    1    4    4    0    0  0.53055931777E+01 -0.23701729195E+02  0.11558199603E+02  0.26898201870E+02  0.00000000000E+00 0. -1.
        -14    1    4    4    0    0 -0.47906861433E+02  0.61840484506E+02  0.29360918991E+02  0.83554631591E+02  0.00000000000E+00 0.  1.
        -11    1    3    3    0    0  0.93052172845E+02 -0.40080152687E+02  0.72507308278E+02  0.12458906559E+03  0.00000000000E+00 0.  1.
         11    1    3    3    0    0  0.15692285052E+02  0.33085635523E+02  0.65272461620E+02  0.74842510207E+02  0.00000000000E+00 0. -1.
          2    1    1    2  501    0 -0.66143189642E+02 -0.31144238146E+02  0.47809484034E+03  0.48365231465E+03  0.00000000000E+00 0. -1.
<scales pt_clust_5="13000.00000" pt_clust_6="13000.00000" pt_clust_7="13000.00000" pt_clust_8="13000.00000" pt_clust_9="73.10876"></scales>
<clustering>
<clus scale="   73.109">  2  9  1 -1</clus>
<clus scale="   85.182">  5  6 -1 -1</clus>
<clus scale="   94.421">  7  8 -1 -1</clus>
<clus scale="  117.282">  2  5  1 -1</clus>
<clus scale="   73.109">  2  5  1 -1</clus>
</clustering>
</event>
<event>
 9    1  0.4664604E-005  0.9705747E+02  0.7546771E-02  0.1294933E+00
         21   -1    0    0  501  502  0.00000000000E+00  0.00000000000E+00  0.28136607525E+02  0.28136607525E+02  0.00000000000E+00 0. -1.
          3   -1    0    0  502    0 -0.00000000000E+00 -0.00000000000E+00 -0.77803316275E+03  0.77803316275E+03  0.00000000000E+00 0. -1.
         23    2    1    2    0    0  0.24602147535E+02 -0.24216396081E+01 -0.38022319573E+03  0.39266931321E+03  0.94912491103E+02 0.  0.
        -24    2    1    2    0    0  0.22274682253E+02 -0.46425157269E+02 -0.30591129148E+03  0.32050019871E+03  0.80543171168E+02 0.  0.
         13    1    4    4    0    0  0.13541263828E+02 -0.68229561894E+02 -0.19250730022E+03  0.20468927568E+03  0.00000000000E+00 0. -1.
        -14    1    4    4    0    0  0.87334184242E+01  0.21804404625E+02 -0.11340399126E+03  0.11581092303E+03  0.00000000000E+00 0.  1.
        -13    1    3    3    0    0 -0.18214890424E+02 -0.34095474834E+02 -0.95842963432E+02  0.10334484640E+03  0.00000000000E+00 0.  1.
         13    1    3    3    0    0  0.42817037960E+02  0.31673835226E+02 -0.28438023230E+03  0.28932446682E+03  0.00000000000E+00 0. -1.
          4    1    1    2  501    0 -0.46876829788E+02  0.48846796878E+02 -0.63762068024E+02  0.93000258359E+02  0.00000000000E+00 0. -1.
<scales pt_clust_5="13000.00000" pt_clust_6="13000.00000" pt_clust_7="13000.00000" pt_clust_8="13000.00000" pt_clust_9="67.70116"></scales>
<clustering>
<clus scale="   67.701">  1  9  2 -1</clus>
<clus scale="   80.543">  5  6 -1 -1</clus>
<clus scale="   83.060">  1  5  2 -1</clus>
<clus scale="   94.912">  7  8 -1 -1</clus>
<clus scale="   67.701">  1  5  2 -1</clus>
</clustering>
</event>
<event>
 9    1  0.4664604E-005  0.1156451E+03  0.7546771E-02  0.1254689E+00
         -4   -1    0    0    0  501 -0.00000000000E+00  0.00000000000E+00  0.35748795832E+02  0.35748795832E+02  0.00000000000E+00 0.  1.
         21   -1    0    0  501  502  0.00000000000E+00 -0.00000000000E+00 -0.49848329926E+03  0.49848329926E+03  0.00000000000E+00 0. -1.
         23    2    1    2    0    0  0.46333531867E+02  0.53484224881E+02 -0.11384089928E+03  0.16250064397E+03  0.91865937395E+02 0.  0.
        -24    2    1    2    0    0 -0.29163270598E+02 -0.64910895833E+02 -0.30588367783E+03  0.32403197060E+03  0.79799579293E+02 0.  0.
         13    1    4    4    0    0 -0.48921736536E+02 -0.71012395041E+02 -0.24828290128E+03  0.26283168687E+03  0.00000000000E+00 0. -1.
        -14    1    4    4    0    0  0.19758465939E+02  0.61014992079E+01 -0.57600776554E+02  0.61200283729E+02  0.00000000000E+00 0.  1.
        -13    1    3    3    0    0  0.36527462103E+02  0.20288185262E+02  0.17681455543E+01  0.41820955125E+02  0.00000000000E+00 0.  1.
         13    1    3    3    0    0  0.98060697646E+01  0.33196039619E+02 -0.11560904484E+03  0.12067968884E+03  0.00000000000E+00 0. -1.
         -3    1    1    2    0  502 -0.17170261270E+02  0.11426670952E+02 -0.43009926310E+02  0.47699480525E+02  0.00000000000E+00 0.  1.
<scales pt_clust_5="13000.00000" pt_clust_6="13000.00000" pt_clust_7="13000.00000" pt_clust_8="13000.00000" pt_clust_9="20.62490"></scales>
<clustering>
<clus scale="   20.625">  2  9  1 -1</clus>
<clus scale="   79.800">  5  6 -1 -1</clus>
<clus scale="   91.866">  7  8 -1 -1</clus>
<clus scale="  106.313">  2  5  1 -1</clus>
<clus scale="   20.625">  2  5  1 -1</clus>
</clustering>
</event>
<event>
 9    1  0.4664604E-005  0.9821587E+02  0.7546771E-02  0.1290181E+00
          1   -1    0    0  502    0 -0.00000000000E+00  0.00000000000E+00  0.42817962733E+03  0.42817962733E+03  0.00000000000E+00 0. -1.
         21   -1    0    0  501  502  0.00000000000E+00 -0.00000000000E+00 -0.42350883017E+02  0.42350883017E+02  0.00000000000E+00 0.  1.
        -24    2    1    2    0    0 -0.17428510728E+02 -0.29287120506E+02  0.31434891155E+03  0.32665242956E+03  0.82006604212E+02 0.  0.
         23    2    1    2    0    0 -0.58121153004E+01  0.22961474006E+02  0.71336186090E+02  0.11979154645E+03  0.93274611670E+02 0.  0.
         13    1    3    3    0    0 -0.88694648384E+01 -0.52855165250E+02  0.27365601243E+03  0.27885470956E+03  0.00000000000E+00 0. -1.
        -14    1    3    3    0    0 -0.85590458899E+01  0.23568044744E+02  0.40692899113E+02  0.47797720007E+02  0.00000000000E+00 0.  1.
        -11    1    4    4    0    0  0.18530186421E+02 -0.28420775901E+02  0.83526232064E+01  0.34941016385E+02  0.00000000000E+00 0. -1.
         11    1    4    4    0    0 -0.24342301721E+02  0.51382249908E+02  0.62983562884E+02  0.84850530064E+02  0.00000000000E+00 0.  1.
          2    1    1    2  501    0  0.23240626029E+02  0.63256465000E+01  0.14364667502E+00  0.24086534334E+02  0.00000000000E+00 0. -1.
<scales pt_clust_5="13000.00000" pt_clust_6="13000.00000" pt_clust_7="13000.00000" pt_clust_8="13000.00000" pt_clust_9="24.08611"></scales>
<clustering>
<clus scale="   24.086">  2  9  1 -1</clus>
<clus scale="   82.007">  5  6 -1 -1</clus>
<clus scale="   87.586">  1  5  2 -1</clus>
<clus scale="   93.275">  7  8 -1 -1</clus>
<clus scale="   24.086">  2  5  1 -1</clus>
</clustering>
</event>
<event>
 9    1  0.4664604E-005  0.1156874E+03  0.7546771E-02  0.1251574E+00
         -2   -1    0    0    0  501 -0.00000000000E+00  0.00000000000E+00  0.33623288300E+03  0.33623288300E+03  0.00000000000E+00 0.  1.
         21   -1    0    0  501  502  0.00000000000E+00 -0.00000000000E+00 -0.80544191638E+02  0.80544191638E+02  0.00000000000E+00 0.  1.
         23    2    1    2    0    0  0.76388394981E+02  0.69940004149E+02  0.21377619570E+03  0.25211257922E+03  0.84461231850E+02 0.  0.
        -24    2    1    2    0    0 -0.30970555718E+02 -0.31331958181E+02  0.49740300711E+02  0.10454265356E+03  0.80710606321E+02 0.  0.
         11    1    4    4    0    0 -0.35388052846E+02  0.14377291691E+02  0.19233628175E+01  0.38245524250E+02  0.00000000000E+00 0. -1.
        -12    1    4    4    0    0  0.44174971281E+01 -0.45709249872E+02  0.47816937893E+02  0.66297129306E+02  0.00000000000E+00 0.  1.
        -13    1    3    3    0    0  0.22337597626E+02  0.50862806376E+02  0.38203304883E+02  0.67420218363E+02  0.00000000000E+00 0.  1.
         13    1    3    3    0    0  0.54050797355E+02  0.19077197772E+02  0.17557289081E+03  0.18469236085E+03  0.00000000000E+00 0. -1.
         -1    1    1    2    0  502 -0.45417839263E+02 -0.38608045968E+02 -0.78278050484E+01  0.60121841861E+02  0.00000000000E+00 0.  1.
<scales pt_clust_5="13000.00000" pt_clust_6="13000.00000" pt_clust_7="13000.00000" pt_clust_8="13000.00000" pt_clust_9="59.61008"></scales>
<clustering>
<clus scale="   59.610">  2  9  1 -1</clus>
<clus scale="   80.711">  5  6 -1 -1</clus>
<clus scale="   84.461">  7  8 -1 -1</clus>
<clus scale="  112.978">  2  5  1 -1</clus>
<clus scale="   59.610">  2  5  1 -1</clus>
</clustering>
</event>
<event>
 9    1  0.4664604E-005  0.4248985E+03  0.7546771E-02  0.1035614E+00
         21   -1    0    0  501  502  0.00000000000E+00  0.00000000000E+00  0.12754625309E+03  0.12754625309E+03  0.00000000000E+00 0. -1.
          1   -1    0    0  502    0 -0.00000000000E+00 -0.00000000000E+00 -0.21230715143E+04  0.21230715143E+04  0.00000000000E+00 0. -1.
        -24    2    1    2    0    0 -0.35446507140E+03  0.29325959869E+03 -0.14493940317E+04  0.15230256899E+04  0.84955952466E+02 0.  0.
         23    2    1    2    0    0  0.28196610715E+03 -0.18299283327E+03 -0.40286015799E+03  0.53280640219E+03  0.92709722795E+02 0.  0.
         11    1    3    3    0    0 -0.24018786110E+03  0.24697824718E+03 -0.10605660644E+04  0.11151183077E+04  0.00000000000E+00 0. -1.
        -12    1    3    3    0    0 -0.11427721031E+03  0.46281351515E+02 -0.38882796725E+03  0.40790738215E+03  0.00000000000E+00 0.  1.
        -11    1    4    4    0    0  0.12385935737E+03 -0.92062213151E+02 -0.25477024095E+03  0.29786652577E+03  0.00000000000E+00 0.  1.
         11    1    4    4    0    0  0.15810674978E+03 -0.90930620123E+02 -0.14808991704E+03  0.23493987642E+03  0.00000000000E+00 0. -1.
          2    1    1    2  501    0  0.72498964250E+02 -0.11026676542E+03 -0.14327107152E+03  0.19478567531E+03  0.00000000000E+00 0. -1.
<scales pt_clust_5="13000.00000" pt_clust_6="13000.00000" pt_clust_7="13000.00000" pt_clust_8="13000.00000" pt_clust_9="131.96537"></scales>
<clustering>
<clus scale="   84.956">  5  6 -1 -1</clus>
<clus scale="   92.710">  7  8 -1 -1</clus>
<clus scale="  131.965">  1  9  2 -1</clus>
<clus scale="  423.274">  2  5  1 -1</clus>
<clus scale="  131.965">  1  5  2 -1</clus>
</clustering>
</event>
<event>
 9    1  0.4664604E-005  0.1297568E+03  0.7546771E-02  0.1235789E+00
         21   -1    0    0  501  502  0.00000000000E+00  0.00000000000E+00  0.10839393427E+03  0.10839393427E+03  0.00000000000E+00 0. -1.
          1   -1    0    0  502    0 -0.00000000000E+00 -0.00000000000E+00 -0.60006301045E+03  0.60006301045E+03  0.00000000000E+00 0. -1.
         23    2    1    2    0    0  0.68983340647E+02  0.70803533076E+02 -0.45322113314E+03  0.47650325173E+03  0.10896839818E+03 0.  0.
        -24    2    1    2    0    0 -0.37909575120E+02  0.92349155056E+01 -0.91842781489E+02  0.13084612191E+03  0.84635640000E+02 0.  0.
         11    1    4    4    0    0  0.11032540301E+02 -0.28935992720E+02 -0.34252936430E+02  0.46176533805E+02  0.00000000000E+00 0. -1.
        -12    1    4    4    0    0 -0.48942115421E+02  0.38170908225E+02 -0.57589845059E+02  0.84669588109E+02  0.00000000000E+00 0.  1.
        -13    1    3    3    0    0  0.43916136962E+02  0.82664209587E+02 -0.43076987187E+03  0.44082273211E+03  0.00000000000E+00 0. -1.
         13    1    3    3    0    0  0.25067203684E+02 -0.11860676512E+02 -0.22451261266E+02  0.35680519620E+02  0.00000000000E+00 0.  1.
          2    1    1    2  501    0 -0.31073765527E+02 -0.80038448581E+02  0.53394838447E+02  0.10110757107E+03  0.00000000000E+00 0. -1.
<scales pt_clust_5="13000.00000" pt_clust_6="13000.00000" pt_clust_7="13000.00000" pt_clust_8="13000.00000" pt_clust_9="85.85879"></scales>
<clustering>
<clus scale="   84.636">  5  6 -1 -1</clus>
<clus scale="   85.859">  1  9  2 -1</clus>
<clus scale="  108.968">  7  8 -1 -1</clus>
<clus scale="  110.118">  1  5  2 -1</clus>
<clus scale="   85.859">  1  5  2 -1</clus>
</clustering>
</event>
<event>
 9    1  0.4664604E-005  0.1585909E+03  0.7546771E-02  0.1192288E+00
          1   -1    0    0  502    0 -0.00000000000E+00  0.00000000000E+00  0.14070878308E+03  0.14070878308E+03  0.00000000000E+00 0. -1.
         21   -1    0    0  501  502  0.00000000000E+00 -0.00000000000E+00 -0.36167712420E+03  0.36167712420E+03  0.00000000000E+00 0. -1.
        -24    2    1    2    0    0  0.30032915743E+02  0.93687195550E+02 -0.43350737563E+02  0.13343979185E+03  0.79041919022E+02 0.  0.
         23    2    1    2    0    0 -0.36533988579E+02 -0.19624230640E+03 -0.13467324501E+03  0.25757272256E+03  0.91438773749E+02 0.  0.
         13    1    3    3    0    0  0.13688717466E+02  0.75327597956E+02 -0.65192666535E+02  0.10055700756E+03  0.00000000000E+00 0. -1.
        -14    1    3    3    0    0  0.16344198277E+02  0.18359597594E+02  0.21841928972E+02  0.32882784285E+02  0.00000000000E+00 0.  1.
        -13    1    4    4    0    0 -0.50605309848E+02 -0.16732875057E+03 -0.14125469859E+03  0.22475030150E+03  0.00000000000E+00 0. -1.
         13    1    4    4    0    0  0.14071321269E+02 -0.28913555826E+02  0.65814535820E+01  0.32822421056E+02  0.00000000000E+00 0.  1.
          2    1    1    2  501    0  0.65010728355E+01  0.10255511085E+03 -0.42944358554E+02  0.11137339287E+03  0.00000000000E+00 0. -1.
<scales pt_clust_5="13000.00000" pt_clust_6="13000.00000" pt_clust_7="13000.00000" pt_clust_8="13000.00000" pt_clust_9="102.76101"></scales>
<clustering>
<clus scale="   79.042">  5  6 -1 -1</clus>
<clus scale="   91.439">  7  8 -1 -1</clus>
<clus scale="  102.761">  2  9  1 -1</clus>
<clus scale="  151.782">  1  5  2 -1</clus>
<clus scale="  102.761">  2  5  1 -1</clus>
</clustering>
</event>
<event>
 9    1  0.4664604E-005  0.3378100E+03  0.7546771E-02  0.1068256E+00
         21   -1    0    0  501  502  0.00000000000E+00  0.00000000000E+00  0.30420758800E+03  0.30420758800E+03  0.00000000000E+00 0. -1.
          1   -1    0    0  502    0 -0.00000000000E+00 -0.00000000000E+00 -0.10777918304E+04  0.10777918304E+04  0.00000000000E+00 0. -1.
         23    2    1    2    0    0  0.20476798266E+03 -0.33765424593E+03 -0.30266625351E+03  0.50695284310E+03  0.97231721143E+02 0.  0.
        -24    2    1    2    0    0 -0.19881778636E+03  0.10264399547E+03  0.10014511059E+03  0.25748824912E+03  0.78783585102E+02 0.  0.
         11    1    4    4    0    0 -0.16020852978E+03  0.57097887223E+02  0.10093445918E+03  0.19777438355E+03  0.00000000000E+00 0. -1.
        -12    1    4    4    0    0 -0.38609256573E+02  0.45546108249E+02 -0.78934858595E+00  0.59713865567E+02  0.00000000000E+00 0.  1.
        -13    1    3    3    0    0  0.15210829182E+03 -0.31411030224E+03 -0.26028958657E+03  0.43537671422E+03  0.00000000000E+00 0.  1.
         13    1    3    3    0    0  0.52659690836E+02 -0.23543943690E+02 -0.42376666947E+02  0.71576128877E+02  0.00000000000E+00 0. -1.
          2    1    1    2  501    0 -0.59501962990E+01  0.23501025046E+03 -0.57106309944E+03  0.61755832615E+03  0.00000000000E+00 0. -1.
<scales pt_clust_5="13000.00000" pt_clust_6="13000.00000" pt_clust_7="13000.00000" pt_clust_8="13000.00000" pt_clust_9="235.08568"></scales>
<clustering>
<clus scale="   78.784">  5  6 -1 -1</clus>
<clus scale="   97.232">  7  8 -1 -1</clus>
<clus scale="  235.086">  1  9  2 -1</clus>
<clus scale="  332.969">  1  5  2 -1</clus>
<clus scale="  235.086">  1  5  2 -1</clus>
</clustering>
</event>
<event>
 9    1  0.4664604E-005  0.2257351E+03  0.7546771E-02  0.1129678E+00
          3   -1    0    0  502    0 -0.00000000000E+00  0.00000000000E+00  0.39511436675E+03  0.39511436675E+03  0.00000000000E+00 0. -1.
         21   -1    0    0  501  502  0.00000000000E+00 -0.00000000000E+00 -0.79477051007E+02  0.79477051007E+02  0.00000000000E+00 0.  1.
        -24    2    1    2    0    0  0.70950096732E+02  0.52878235159E+02  0.57488764722E+02  0.13320911528E+03  0.81299977522E+02 0.  0.
         23    2    1    2    0    0  0.34614336387E+02  0.11735738486E+02  0.10740434568E+03  0.14633710111E+03  0.92428209169E+02 0.  0.
         13    1    3    3    0    0  0.13848123588E+02  0.34169711159E+02  0.62866526550E+02  0.72880311800E+02  0.00000000000E+00 0. -1.
        -14    1    3    3    0    0  0.57101973144E+02  0.18708524000E+02 -0.53777618283E+01  0.60328803481E+02  0.00000000000E+00 0.  1.
        -13    1    4    4    0    0  0.59594048091E+02 -0.14361814629E+01  0.36211802081E+02  0.69748174134E+02  0.00000000000E+00 0.  1.
         13    1    4    4    0    0 -0.24979711704E+02  0.13171919949E+02  0.71192543598E+02  0.76588926980E+02  0.00000000000E+00 0. -1.
          4    1    1    2  501    0 -0.10556443312E+03 -0.64613973645E+02  0.15074420534E+03  0.19504520136E+03  0.00000000000E+00 0. -1.
<scales pt_clust_5="13000.00000" pt_clust_6="13000.00000" pt_clust_7="13000.00000" pt_clust_8="13000.00000" pt_clust_9="123.76926"></scales>
<clustering>
<clus scale="   81.300">  5  6 -1 -1</clus>
<clus scale="   92.428">  7  8 -1 -1</clus>
<clus scale="   98.050">  5  7 -1 -1</clus>
<clus scale="  123.769">  2  9  1 -1</clus>
<clus scale="  123.769">  2  5  1 -1</clus>
</clustering>
</event>
<event>
 9    1  0.4664604E-005  0.1776470E+03  0.7546771E-02  0.1173925E+00
         21   -1    0    0  501  502  0.00000000000E+00  0.00000000000E+00  0.98335932015E+02  0.98335932015E+02  0.00000000000E+00 0. -1.
          1   -1    0    0  502    0 -0.00000000000E+00 -0.00000000000E+00 -0.49896618803E+03  0.49896618803E+03  0.00000000000E+00 0. -1.
        -24    2    1    2    0    0  0.16059595949E+03 -0.51179708639E+02 -0.21797482435E+03  0.28684599674E+03  0.79731907130E+02 0.  0.
         23    2    1    2    0    0 -0.91294799154E+02  0.38945256908E+02 -0.39687297262E+02  0.15110675843E+03  0.10680214179E+03 0.  0.
         11    1    3    3    0    0  0.12003179869E+03 -0.55742643574E+02 -0.20501045936E+03  0.24401672782E+03  0.00000000000E+00 0. -1.
        -12    1    3    3    0    0  0.40564160801E+02  0.45629349346E+01 -0.12964364992E+02  0.42829268921E+02  0.00000000000E+00 0.  1.
        -13    1    4    4    0    0 -0.82900103684E+02 -0.20310181330E+02 -0.16542609421E+02  0.86940143679E+02  0.00000000000E+00 0. -1.
         13    1    4    4    0    0 -0.83946954694E+01  0.59255438238E+02 -0.23144687841E+02  0.64166614747E+02  0.00000000000E+00 0.  1.
          2    1    1    2  501    0 -0.69301160335E+02  0.12234451731E+02 -0.14296813441E+03  0.15934936488E+03  0.00000000000E+00 0. -1.
<scales pt_clust_5="13000.00000" pt_clust_6="13000.00000" pt_clust_7="13000.00000" pt_clust_8="13000.00000" pt_clust_9="70.37285"></scales>
<clustering>
<clus scale="   70.373">  1  9  2 -1</clus>
<clus scale="   79.732">  5  6 -1 -1</clus>
<clus scale="  106.802">  7  8 -1 -1</clus>
<clus scale="  162.816">  2  5  1 -1</clus>
<clus scale="   70.373">  1  5  2 -1</clus>
</clustering>
</event>
<event>
 9    1  0.4664604E-005  0.1171056E+03  0.7546771E-02  0.1249403E+00
          1   -1    0    0  502    0 -0.00000000000E+00  0.00000000000E+00  0.19650093685E+02  0.19650093685E+02  0.00000000000E+00 0. -1.
         21   -1    0    0  501  502  0.00000000000E+00 -0.00000000000E+00 -0.10547792424E+04  0.10547792424E+04  0.00000000000E+00 0.  1.
        -24    2    1    2    0    0  0.28105792297E+02 -0.78189016523E+02 -0.26275239463E+03  0.28782241534E+03  0.83063012379E+02 0.  0.
         23    2    1    2    0    0 -0.48605874349E+02  0.52251707575E+02 -0.52435332384E+03  0.53638977643E+03  0.87606004731E+02 0.  0.
         13    1    3    3    0    0  0.36207853737E+02 -0.32227884004E+02 -0.48590528456E+02  0.68634427478E+02  0.00000000000E+00 0. -1.
        -14    1    3    3    0    0 -0.81020614401E+01 -0.45961132519E+02 -0.21416186617E+03  0.21918798786E+03  0.00000000000E+00 0.  1.
        -11    1    4    4    0    0 -0.67795001635E+02  0.59137354338E+02 -0.46527753544E+03  0.47389510855E+03  0.00000000000E+00 0.  1.
         11    1    4    4    0    0  0.19189127286E+02 -0.68856467634E+01 -0.59075788403E+02  0.62494667875E+02  0.00000000000E+00 0. -1.
          2    1    1    2  501    0  0.20500082052E+02  0.25937308948E+02 -0.24802343029E+03  0.25021714437E+03  0.00000000000E+00 0. -1.
<scales pt_clust_5="13000.00000" pt_clust_6="13000.00000" pt_clust_7="13000.00000" pt_clust_8="13000.00000" pt_clust_9="33.06051"></scales>
<clustering>
<clus scale="   33.061">  2  9  1 -1</clus>
<clus scale="   83.063">  5  6 -1 -1</clus>
<clus scale="   87.606">  7  8 -1 -1</clus>
<clus scale="  113.747">  1  5  2 -1</clus>
<clus scale="   33.061">  2  5  1 -1</clus>
</clustering>
</event>
<event>
 9    1  0.4664604E-005  0.8039484E+02  0.7546771E-02  0.1341585E+00
         21   -1    0    0  501  502  0.00000000000E+00  0.00000000000E+00  0.77523257471E+02  0.77523257471E+02  0.00000000000E+00 0.  1.
          1   -1    0    0  502    0 -0.00000000000E+00 -0.00000000000E+00 -0.25009965631E+03  0.25009965631E+03  0.00000000000E+00 0. -1.
         23    2    1    2    0    0  0.10748708791E+02 -0.49343921085E+01 -0.18163683712E+03  0.19255633838E+03  0.62818149319E+02 0.  0.
        -24    2    1    2    0    0  0.27831908484E+02 -0.13201723133E+02  0.25426924069E+02  0.89402097283E+02  0.79983160149E+02 0.  0.
         11    1    4    4    0    0 -0.22814851925E+02 -0.10035988970E+02 -0.10685588024E+02  0.27118634450E+02  0.00000000000E+00 0. -1.
        -12    1    4    4    0    0  0.50646760409E+02 -0.31657341628E+01  0.36112512094E+02  0.62283462833E+02  0.00000000000E+00 0.  1.
        -13    1    3    3    0    0  0.18167939317E+02 -0.26821129577E+02 -0.14951981574E+03  0.15298896140E+03  0.00000000000E+00 0.  1.
         13    1    3    3    0    0 -0.74192305255E+01  0.21886737469E+02 -0.32117021381E+02  0.39567376979E+02  0.00000000000E+00 0. -1.
          2    1    1    2  501    0 -0.38580617275E+02  0.18136115242E+02 -0.16366485794E+02  0.45664478127E+02  0.00000000000E+00 0. -1.
<scales pt_clust_5="13000.00000" pt_clust_6="13000.00000" pt_clust_7="13000.00000" pt_clust_8="13000.00000" pt_clust_9="42.63077"></scales>
<clustering>
<clus scale="   42.631">  1  9  2 -1</clus>
<clus scale="   62.818">  7  8 -1 -1</clus>
<clus scale="   63.341">  2  7  1 -1</clus>
<clus scale="   79.983">  5  6 -1 -1</clus>
<clus scale="   42.631">  1  5  2 -1</clus>
</clustering>
</event>
<event>
 9    1  0.4664604E-005  0.1644694E+03  0.7546771E-02  0.1200693E+00
         21   -1    0    0  501  502  0.00000000000E+00  0.00000000000E+00  0.35284183939E+03  0.35284183939E+03  0.00000000000E+00 0.  1.
          1   -1    0    0  502    0 -0.00000000000E+00 -0.00000000000E+00 -0.40270904522E+03  0.40270904522E+03  0.00000000000E+00 0. -1.
        -24    2    1    2    0    0 -0.61708725906E+02 -0.49399828566E+02  0.21694898485E+03  0.24472856300E+03  0.81098074004E+02 0.  0.
         23    2    1    2    0    0  0.15366419645E+03 -0.48898159556E+02 -0.31663499482E+03  0.36729456723E+03  0.92972382418E+02 0.  0.
         13    1    3    3    0    0 -0.25775563925E+02  0.17398809797E+02  0.31025221635E+02  0.43927925691E+02  0.00000000000E+00 0. -1.
        -14    1    3    3    0    0 -0.35933161980E+02 -0.66798638363E+02  0.18592376321E+03  0.20080063731E+03  0.00000000000E+00 0.  1.
        -13    1    4    4    0    0  0.13756421329E+02 -0.14737739899E+02 -0.80284908853E+00  0.20176339404E+02  0.00000000000E+00 0.  1.
         13    1    4    4    0    0  0.13990777512E+03 -0.34160419657E+02 -0.31583214573E+03  0.34711822783E+03  0.00000000000E+00 0. -1.
          2    1    1    2  501    0 -0.91955470543E+02  0.98297988122E+02  0.49818804138E+02  0.14352775438E+03  0.00000000000E+00 0. -1.
<scales pt_clust_5="13000.00000" pt_clust_6="13000.00000" pt_clust_7="13000.00000" pt_clust_8="13000.00000" pt_clust_9="135.66988"></scales>
<clustering>
<clus scale="   81.098">  5  6 -1 -1</clus>
<clus scale="   92.972">  7  8 -1 -1</clus>
<clus scale="  113.248">  2  5  1 -1</clus>
<clus scale="  135.670">  1  9  2 -1</clus>
<clus scale="  135.670">  1  5  2 -1</clus>
</clustering>
</event>
<event>
 9    1  0.4664604E-005  0.1488323E+03  0.7546771E-02  0.1206252E+00
          1   -1    0    0  502    0 -0.00000000000E+00  0.00000000000E+00  0.54668012452E+02  0.54668012452E+02  0.00000000000E+00 0. -1.
         21   -1    0    0  501  502  0.00000000000E+00 -0.00000000000E+00 -0.49940383699E+03  0.49940383699E+03  0.00000000000E+00 0. -1.
         23    2    1    2    0    0 -0.32626778904E+02  0.11148637591E+03 -0.15424207100E+03  0.21900380474E+03  0.10333601168E+03 0.  0.
        -24    2    1    2    0    0  0.34620270537E+02 -0.86391384708E+02 -0.28223668801E+03  0.30857442804E+03  0.83057781702E+02 0.  0.
         13    1    4    4    0    0  0.41597357247E+02 -0.98314511163E+02 -0.21633478344E+03  0.24124017443E+03  0.00000000000E+00 0. -1.
        -14    1    4    4    0    0 -0.69770867093E+01  0.11923126456E+02 -0.65901904572E+02  0.67334253613E+02  0.00000000000E+00 0.  1.
        -11    1    3    3    0    0 -0.96437369983E+01 -0.19879295949E+02 -0.23087018452E+02  0.31956196453E+02  0.00000000000E+00 0.  1.
         11    1    3    3    0    0 -0.22983041905E+02  0.13136567186E+03 -0.13115505255E+03  0.18704760829E+03  0.00000000000E+00 0. -1.
          2    1    1    2  501    0 -0.19934916335E+01 -0.25094991201E+02 -0.82570655293E+01  0.26493616654E+02  0.00000000000E+00 0. -1.
<scales pt_clust_5="13000.00000" pt_clust_6="13000.00000" pt_clust_7="13000.00000" pt_clust_8="13000.00000" pt_clust_9="25.17406"></scales>
<clustering>
<clus scale="   25.174">  2  9  1 -1</clus>
<clus scale="   83.058">  5  6 -1 -1</clus>
<clus scale="  103.336">  7  8 -1 -1</clus>
<clus scale="  135.541">  2  5  1 -1</clus>
<clus scale="   25.174">  2  5  1 -1</clus>
</clustering>
</event>
<event>
 9    1  0.4664604E-005  0.1158291E+03  0.7546771E-02  0.1251082E+00
          3   -1    0    0  502    0 -0.00000000000E+00  0.00000000000E+00  0.45678199835E+03  0.45678199835E+03  0.00000000000E+00 0. -1.
         21   -1    0    0  501  502  0.00000000000E+00 -0.00000000000E+00 -0.22142088245E+03  0.22142088245E+03  0.00000000000E+00 0. -1.
        -24    2    1    2    0    0 -0.66992624253E+02 -0.19365113688E+02  0.36628716731E+03  0.38330283114E+03  0.88835533982E+02 0.  0.
         23    2    1    2    0    0  0.98096253054E+02  0.83568741514E+02 -0.10952400322E+02  0.15531774954E+03  0.86006039481E+02 0.  0.
         11    1    3    3    0    0 -0.69608345991E+02 -0.40125707985E+02  0.19740605582E+03  0.21313034778E+03  0.00000000000E+00 0. -1.
        -12    1    3    3    0    0  0.26157217375E+01  0.20760594297E+02  0.16888111149E+03  0.17017248336E+03  0.00000000000E+00 0.  1.
        -11    1    4    4    0    0  0.21977072161E+02 -0.17715985119E+02 -0.16065521208E+01  0.28274172653E+02  0.00000000000E+00 0.  1.
         11    1    4    4    0    0  0.76119180894E+02  0.10128472663E+03 -0.93458482011E+01  0.12704357688E+03  0.00000000000E+00 0. -1.
          4    1    1    2  501    0 -0.31103628801E+02 -0.64203627827E+02 -0.11997365108E+03  0.13958230011E+03  0.00000000000E+00 0. -1.
<scales pt_clust_5="13000.00000" pt_clust_6="13000.00000" pt_clust_7="13000.00000" pt_clust_8="13000.00000" pt_clust_9="71.34102"></scales>
<clustering>
<clus scale="   71.341">  2  9  1 -1</clus>
<clus scale="   86.006">  7  8 -1 -1</clus>
<clus scale="   88.836">  5  6 -1 -1</clus>
<clus scale="  113.673">  2  7  1 -1</clus>
<clus scale="   71.341">  2  5  1 -1</clus>
</clustering>
</event>
<event>
 9    1  0.4664604E-005  0.9069301E+02  0.7546771E-02  0.1306226E+00
          3   -1    0    0  502    0 -0.00000000000E+00  0.00000000000E+00  0.32891972818E+03  0.32891972818E+03  0.00000000000E+00 0. -1.
         21   -1    0    0  501  502  0.00000000000E+00 -0.00000000000E+00 -0.16734005749E+03  0.16734005749E+03  0.00000000000E+00 0. -1.
         23    2    1    2    0    0  0.84826027162E+01  0.81555674610E+01  0.26878969287E+03  0.28361050067E+03  0.89713707254E+02 0.  0.
        -24    2    1    2    0    0  0.19094266311E+01 -0.27557327375E+02  0.15878252722E+02  0.87608707669E+02  0.81609524860E+02 0.  0.
         13    1    4    4    0    0  0.29394030543E+02 -0.43339174011E+02  0.19123869324E+02  0.55749577697E+02  0.00000000000E+00 0. -1.
        -14    1    4    4    0    0 -0.27484603912E+02  0.15781846637E+02 -0.32456166015E+01  0.31859129972E+02  0.00000000000E+00 0.  1.
        -11    1    3    3    0    0 -0.32793472475E+02 -0.13330832725E+01  0.44148122782E+02  0.55011323318E+02  0.00000000000E+00 0.  1.
         11    1    3    3    0    0  0.41276075191E+02  0.94886507335E+01  0.22464157008E+03  0.22859917735E+03  0.00000000000E+00 0. -1.
          4    1    1    2  501    0 -0.10392029347E+02  0.19401759914E+02 -0.12308827490E+03  0.12504057733E+03  0.00000000000E+00 0. -1.
<scales pt_clust_5="13000.00000" pt_clust_6="13000.00000" pt_clust_7="13000.00000" pt_clust_8="13000.00000" pt_clust_9="22.00960"></scales>
<clustering>
<clus scale="   22.010">  2  9  1 -1</clus>
<clus scale="   81.610">  5  6 -1 -1</clus>
<clus scale="   82.685">  2  5  1 -1</clus>
<clus scale="   89.714">  7  8 -1 -1</clus>
<clus scale="   22.010">  2  5  1 -1</clus>
</clustering>
</event>
<event>
 9    1  0.4664604E-005  0.1332158E+03  0.7546771E-02  0.1246266E+00
          3   -1    0    0  502    0 -0.00000000000E+00  0.00000000000E+00  0.43885285666E+02  0.43885285666E+02  0.00000000000E+00 0. -1.
         21   -1    0    0  501  502  0.00000000000E+00 -0.00000000000E+00 -0.81259577704E+03  0.81259577704E+03  0.00000000000E+00 0. -1.
        -24    2    1    2    0    0 -0.12717632856E+02  0.39314783624E+02 -0.82848814144E+02  0.11676785916E+03  0.71157687793E+02 0.  0.
         23    2    1    2    0    0  0.10748669347E+03 -0.29678026057E+02 -0.58445767552E+03  0.60058443761E+03  0.81711184791E+02 0.  0.
         13    1    3    3    0    0  0.14375908889E+02  0.21752854325E+02 -0.80245825133E+02  0.84375623725E+02  0.00000000000E+00 0. -1.
        -14    1    3    3    0    0 -0.27093541746E+02  0.17561929299E+02 -0.26029890113E+01  0.32392235440E+02  0.00000000000E+00 0.  1.
        -11    1    4    4    0    0  0.83681596843E+02  0.17081641112E+02 -0.34050596962E+03  0.35105371022E+03  0.00000000000E+00 0.  1.
         11    1    4    4    0    0  0.23805096630E+02 -0.46759667169E+02 -0.24395170590E+03  0.24953072739E+03  0.00000000000E+00 0. -1.
          4    1    1    2  501    0 -0.94769060617E+02 -0.96367575672E+01 -0.10140400171E+03  0.13912876593E+03  0.00000000000E+00 0. -1.
<scales pt_clust_5="13000.00000" pt_clust_6="13000.00000" pt_clust_7="13000.00000" pt_clust_8="13000.00000" pt_clust_9="105.21287"></scales>
<clustering>
<clus scale="   71.158">  5  6 -1 -1</clus>
<clus scale="   81.711">  7  8 -1 -1</clus>
<clus scale="   82.285">  1  5  2 -1</clus>
<clus scale="  105.213">  2  9  1 -1</clus>
<clus scale="  105.213">  2  5  1 -1</clus>
</clustering>
</event>
<event>
 9    1  0.4664604E-005  0.1181160E+03  0.7546771E-02  0.1248165E+00
         -4   -1    0    0    0  501 -0.00000000000E+00  0.00000000000E+00  0.55086353782E+02  0.55086353782E+02  0.00000000000E+00 0.  1.
         21   -1    0    0  501  502  0.00000000000E+00 -0.00000000000E+00 -0.69152536589E+03  0.69152536589E+03  0.00000000000E+00 0.  1.
         23    2    1    2    0    0  0.34936811138E+02 -0.62870613399E+02 -0.43668708661E+02  0.12499963199E+03  0.92437314323E+02 0.  0.
        -24    2    1    2    0    0 -0.26679655915E+01  0.92447727034E+02 -0.53094668413E+03  0.54586089001E+03  0.86637345175E+02 0.  0.
         11    1    4    4    0    0  0.34156552077E+02  0.63436287660E+02 -0.40734601674E+03  0.41366847837E+03  0.00000000000E+00 0. -1.
        -12    1    4    4    0    0 -0.36824517668E+02  0.29011439374E+02 -0.12360066738E+03  0.13219241164E+03  0.00000000000E+00 0.  1.
        -11    1    3    3    0    0  0.66210773484E+02 -0.47890049883E+02 -0.36937779163E+02  0.89675654069E+02  0.00000000000E+00 0. -1.
         11    1    3    3    0    0 -0.31273962346E+02 -0.14980563516E+02 -0.67309294984E+01  0.35323977919E+02  0.00000000000E+00 0.  1.
         -3    1    1    2    0  502 -0.32268845546E+02 -0.29577113635E+02 -0.61823619318E+02  0.75751197677E+02  0.00000000000E+00 0.  1.
<scales pt_clust_5="13000.00000" pt_clust_6="13000.00000" pt_clust_7="13000.00000" pt_clust_8="13000.00000" pt_clust_9="43.77312"></scales>
<clustering>
<clus scale="   43.773">  2  9  1 -1</clus>
<clus scale="   86.637">  5  6 -1 -1</clus>
<clus scale="   92.437">  7  8 -1 -1</clus>
<clus scale="  113.634">  2  5  1 -1</clus>
<clus scale="   43.773">  2  5  1 -1</clus>
</clustering>
</event>
<event>
 9    1  0.4664604E-005  0.1087236E+03  0.7546771E-02  0.1269046E+00
          1   -1    0    0  502    0 -0.00000000000E+00  0.00000000000E+00  0.40100229481E+03  0.40100229481E+03  0.00000000000E+00 0. -1.
         21   -1    0    0  501  502  0.00000000000E+00 -0.00000000000E+00 -0.10118374506E+03  0.10118374506E+03  0.00000000000E+00 0. -1.
         23    2    1    2    0    0  0.57906687862E+02 -0.25142821662E+02  0.28078387650E+03  0.30306684700E+03  0.94997802439E+02 0.  0.
        -24    2    1    2    0    0  0.29270915814E+02  0.55034573777E+02 -0.98931354150E+01  0.10252587250E+03  0.80796593868E+02 0.  0.
         11    1    4    4    0    0  0.56882502987E+02  0.28034945615E+02 -0.53501780765E+01  0.63641195205E+02  0.00000000000E+00 0. -1.
        -12    1    4    4    0    0 -0.27611587173E+02  0.26999628162E+02 -0.45429573385E+01  0.38884677297E+02  0.00000000000E+00 0.  1.
        -13    1    3    3    0    0 -0.24207615571E+02 -0.20646035019E+02  0.76767773176E+02  0.83099689603E+02  0.00000000000E+00 0.  1.
         13    1    3    3    0    0  0.82114303433E+02 -0.44967866439E+01  0.20401610332E+03  0.21996715739E+03  0.00000000000E+00 0. -1.
          2    1    1    2  501    0 -0.87177603676E+02 -0.29891752114E+02  0.28927808670E+02  0.96593320378E+02  0.00000000000E+00 0. -1.
<scales pt_clust_5="13000.00000" pt_clust_6="13000.00000" pt_clust_7="13000.00000" pt_clust_8="13000.00000" pt_clust_9="92.15992"></scales>
<clustering>
<clus scale="   80.797">  5  6 -1 -1</clus>
<clus scale="   92.160">  2  9  1 -1</clus>
<clus scale="   94.998">  7  8 -1 -1</clus>
<clus scale="   96.563">  2  5  1 -1</clus>
<clus scale="   92.160">  2  5  1 -1</clus>
</clustering>
</event>
<event>
 9    1  0.4664604E-005  0.1068850E+03  0.7546771E-02  0.1273988E+00
         21   -1    0    0  501  502  0.00000000000E+00  0.00000000000E+00  0.80161482520E+03  0.80161482520E+03  0.00000000000E+00 0. -1.
          1   -1    0    0  502    0 -0.00000000000E+00 -0.00000000000E+00 -0.40303556037E+02  0.40303556037E+02  0.00000000000E+00 0. -1.
        -24    2    1    2    0    0  0.60629082153E+02 -0.31167193870E+02  0.27977026132E+03  0.29901196108E+03  0.80557272639E+02 0.  0.
         23    2    1    2    0    0  0.12338967330E+02  0.32195778032E+02  0.45305192282E+03  0.46456727160E+03  0.96839490077E+02 0.  0.
         11    1    3    3    0    0  0.59827384862E+02 -0.41356277506E+02  0.13055059595E+03  0.14944268390E+03  0.00000000000E+00 0. -1.
        -12    1    3    3    0    0  0.80169729169E+00  0.10189083636E+02  0.14921966536E+03  0.14956927717E+03  0.00000000000E+00 0.  1.
        -13    1    4    4    0    0 -0.28058659255E+02 -0.17694566801E+02  0.90764936478E+02  0.96636741187E+02  0.00000000000E+00 0.  1.
         13    1    4    4    0    0  0.40397626584E+02  0.49890344833E+02  0.36228698634E+03  0.36793053042E+03  0.00000000000E+00 0. -1.
          2    1    1    2  501    0 -0.72968049483E+02 -0.10285841624E+01  0.28489085032E+02  0.78339148557E+02  0.00000000000E+00 0. -1.
<scales pt_clust_5="13000.00000" pt_clust_6="13000.00000" pt_clust_7="13000.00000" pt_clust_8="13000.00000" pt_clust_9="72.97534"></scales>
<clustering>
<clus scale="   72.975">  1  9  2 -1</clus>
<clus scale="   80.557">  5  6 -1 -1</clus>
<clus scale="   92.390">  2  5  1 -1</clus>
<clus scale="   96.839">  7  8 -1 -1</clus>
<clus scale="   72.975">  1  5  2 -1</clus>
</clustering>
</event>
<event>
 9    1  0.4664604E-005  0.1139767E+03  0.7546771E-02  0.1256830E+00
         -2   -1    0    0    0  501 -0.00000000000E+00  0.00000000000E+00  0.21059098332E+03  0.21059098332E+03  0.00000000000E+00 0.  1.
         21   -1    0    0  501  502  0.00000000000E+00 -0.00000000000E+00 -0.79031279049E+02  0.79031279049E+02  0.00000000000E+00 0.  1.
        -24    2    1    2    0    0 -0.85579128633E+02 -0.20617991579E+02  0.71741812626E+02  0.13775405815E+03  0.77976945471E+02 0.  0.
         23    2    1    2    0    0  0.51071719399E+02  0.22097345670E+02  0.37058218475E+02  0.11050454259E+03  0.87984823508E+02 0.  0.
         11    1    3    3    0    0 -0.65349507208E+02  0.21034068199E+02  0.56787506308E+02  0.89094393707E+02  0.00000000000E+00 0. -1.
        -12    1    3    3    0    0 -0.20229621425E+02 -0.41652059778E+02  0.14954306317E+02  0.48659664448E+02  0.00000000000E+00 0.  1.
        -11    1    4    4    0    0  0.18296572682E+02 -0.27768431466E+02  0.38424694142E+02  0.50816409533E+02  0.00000000000E+00 0.  1.
         11    1    4    4    0    0  0.32775146718E+02  0.49865777136E+02 -0.13664756668E+01  0.59688133054E+02  0.00000000000E+00 0. -1.
         -1    1    1    2    0  502  0.34507409234E+02 -0.14793540910E+01  0.22759673175E+02  0.41363661632E+02  0.00000000000E+00 0.  1.
<scales pt_clust_5="13000.00000" pt_clust_6="13000.00000" pt_clust_7="13000.00000" pt_clust_8="13000.00000" pt_clust_9="34.53912"></scales>
<clustering>
<clus scale="   34.539">  2  9  1 -1</clus>
<clus scale="   77.977">  5  6 -1 -1</clus>
<clus scale="   87.985">  7  8 -1 -1</clus>
<clus scale="  106.441">  1  5  2 -1</clus>
<clus scale="   34.539">  2  5  1 -1</clus>
</clustering>
</event>
<event>
 9    1  0.4664604E-005  0.1086360E+03  0.7546771E-02  0.1264685E+00
         21   -1    0    0  501  502  0.00000000000E+00  0.00000000000E+00  0.20952490365E+02  0.20952490365E+02  0.00000000000E+00 0. -1.
          1   -1    0    0  502    0 -0.00000000000E+00 -0.00000000000E+00 -0.87475294951E+03  0.87475294951E+03  0.00000000000E+00 0. -1.
         23    2    1    2    0    0 -0.35372562665E+02  0.27077293075E+02 -0.28656089403E+03  0.30322223774E+03  0.88556092270E+02 0.  0.
        -24    2    1    2    0    0  0.49826806732E+02 -0.71184954976E+02 -0.35162454294E+03  0.37192878981E+03  0.84505603429E+02 0.  0.
         13    1    4    4    0    0 -0.17807741711E+02 -0.40094323017E+02 -0.17164928803E+03  0.17716700733E+03  0.00000000000E+00 0. -1.
        -14    1    4    4    0    0  0.67634548443E+02 -0.31090631960E+02 -0.17997525490E+03  0.19476178248E+03  0.00000000000E+00 0.  1.
        -11    1    3    3    0    0  0.25430017654E+02 -0.10569816440E+02 -0.74452963753E+02  0.79382936636E+02  0.00000000000E+00 0.  1.
         11    1    3    3    0    0 -0.60802580319E+02  0.37647109515E+02 -0.21210793028E+03  0.22383930110E+03  0.00000000000E+00 0. -1.
          2    1    1    2  501    0 -0.14454244067E+02  0.44107661901E+02 -0.21561502218E+03  0.22055441233E+03  0.00000000000E+00 0. -1.
<scales pt_clust_5="13000.00000" pt_clust_6="13000.00000" pt_clust_7="13000.00000" pt_clust_8="13000.00000" pt_clust_9="46.41566"></scales>
<clustering>
<clus scale="   46.416">  1  9  2 -1</clus>
<clus scale="   84.506">  5  6 -1 -1</clus>
<clus scale="   88.556">  7  8 -1 -1</clus>
<clus scale="  105.360">  1  5  2 -1</clus>
<clus scale="   46.416">  1  5  2 -1</clus>
</clustering>
</event>
<event>
 9    1  0.4664604E-005  0.2358383E+03  0.7546771E-02  0.1156560E+00
          1   -1    0    0  502    0 -0.00000000000E+00  0.00000000000E+00  0.12970353819E+04  0.12970353819E+04  0.00000000000E+00 0. -1.
         21   -1    0    0  501  502  0.00000000000E+00 -0.00000000000E+00 -0.69707841766E+02  0.69707841766E+02  0.00000000000E+00 0. -1.
         23    2    1    2    0    0  0.21753995969E+02  0.40794226878E+02  0.34354252220E+03  0.35890098031E+03  0.93010987653E+02 0.  0.
        -24    2    1    2    0    0 -0.18153769337E+03 -0.17269846243E+03  0.60993482729E+03  0.66444235368E+03  0.81746282989E+02 0.  0.
         11    1    4    4    0    0 -0.78165538635E+02 -0.23685166485E+02  0.20926044495E+03  0.22463475324E+03  0.00000000000E+00 0. -1.
        -12    1    4    4    0    0 -0.10337215474E+03 -0.14901329595E+03  0.40067438234E+03  0.43980760044E+03  0.00000000000E+00 0.  1.
        -13    1    3    3    0    0  0.53504806534E+01  0.59129716908E+02  0.31777881280E+03  0.32327747359E+03  0.00000000000E+00 0. -1.
         13    1    3    3    0    0  0.16403515316E+02 -0.18335490030E+02  0.25763709394E+02  0.35623506721E+02  0.00000000000E+00 0.  1.
          2    1    1    2  501    0  0.15978369740E+03  0.13190423555E+03  0.27385019067E+03  0.34339988969E+03  0.00000000000E+00 0. -1.
<scales pt_clust_5="13000.00000" pt_clust_6="13000.00000" pt_clust_7="13000.00000" pt_clust_8="13000.00000" pt_clust_9="221.21764"></scales>
<clustering>
<clus scale="   81.746">  5  6 -1 -1</clus>
<clus scale="   93.011">  7  8 -1 -1</clus>
<clus scale="  103.867">  1  7  2 -1</clus>
<clus scale="  221.218">  2  9  1 -1</clus>
<clus scale="  221.218">  2  5  1 -1</clus>
</clustering>
</event>
<event>
 9    1  0.4664604E-005  0.9978607E+02  0.7546771E-02  0.1286389E+00
          1   -1    0    0  502    0 -0.00000000000E+00  0.00000000000E+00  0.45780657784E+03  0.45780657784E+03  0.00000000000E+00 0. -1.
         21   -1    0    0  501  502  0.00000000000E+00 -0.00000000000E+00 -0.80966645162E+02  0.80966645162E+02  0.00000000000E+00 0.  1.
         23    2    1    2    0    0  0.38853572182E+02 -0.50287603798E+01  0.37759815843E+03  0.39035158020E+03  0.90879581935E+02 0.  0.
        -24    2    1    2    0    0 -0.53946536223E+02 -0.18721594156E+02  0.33966749360E+02  0.10372599647E+03  0.79653094249E+02 0.  0.
         11    1    4    4    0    0 -0.20661400851E+02  0.25600703735E+01  0.55113937009E+02  0.58915138106E+02  0.00000000000E+00 0. -1.
        -12    1    4    4    0    0 -0.33285135372E+02 -0.21281664529E+02 -0.21147187649E+02  0.44810858364E+02  0.00000000000E+00 0.  1.
        -13    1    3    3    0    0 -0.40395359573E+01 -0.34397602776E+02  0.66887833429E+02  0.75322607418E+02  0.00000000000E+00 0.  1.
         13    1    3    3    0    0  0.42893108139E+02  0.29368842396E+02  0.31071032500E+03  0.31502897278E+03  0.00000000000E+00 0. -1.
          2    1    1    2  501    0  0.15092964041E+02  0.23750354535E+02 -0.34724975115E+02  0.44695646330E+02  0.00000000000E+00 0. -1.
<scales pt_clust_5="13000.00000" pt_clust_6="13000.00000" pt_clust_7="13000.00000" pt_clust_8="13000.00000" pt_clust_9="28.14031"></scales>
<clustering>
<clus scale="   28.140">  2  9  1 -1</clus>
<clus scale="   79.653">  5  6 -1 -1</clus>
<clus scale="   89.682">  2  5  1 -1</clus>
<clus scale="   90.880">  7  8 -1 -1</clus>
<clus scale="   28.140">  2  5  1 -1</clus>
</clustering>
</event>
<event>
 9    1  0.4664604E-005  0.9348447E+02  0.7546771E-02  0.1301145E+00
         21   -1    0    0  501  502  0.00000000000E+00  0.00000000000E+00  0.25638929419E+02  0.25638929419E+02  0.00000000000E+00 0. -1.
          1   -1    0    0  502    0 -0.00000000000E+00 -0.00000000000E+00 -0.92631138485E+03  0.92631138485E+03  0.00000000000E+00 0. -1.
         23    2    1    2    0    0 -0.33975973540E+02  0.15480332720E+02 -0.46795073587E+03  0.47825958231E+03  0.91434836865E+02 0.  0.
        -24    2    1    2    0    0 -0.40145902666E+02 -0.24180500753E+02 -0.35037949156E+03  0.36256023224E+03  0.80546531749E+02 0.  0.
         11    1    4    4    0    0 -0.35136748192E+02  0.21915362512E+02 -0.10562959927E+03  0.11345698052E+03  0.00000000000E+00 0. -1.
        -12    1    4    4    0    0 -0.50091544745E+01 -0.46095863264E+02 -0.24474989229E+03  0.24910325171E+03  0.00000000000E+00 0.  1.
        -11    1    3    3    0    0  0.46384033506E+01 -0.34550477232E+02 -0.19462678413E+03  0.19772413956E+03  0.00000000000E+00 0.  1.
         11    1    3    3    0    0 -0.38614376891E+02  0.50030809951E+02 -0.27332395174E+03  0.28053544276E+03  0.00000000000E+00 0. -1.
          2    1    1    2  501    0  0.74121876206E+02  0.87001680329E+01 -0.82342228006E+02  0.11113049972E+03  0.00000000000E+00 0. -1.
<scales pt_clust_5="13000.00000" pt_clust_6="13000.00000" pt_clust_7="13000.00000" pt_clust_8="13000.00000" pt_clust_9="74.63073"></scales>
<clustering>
<clus scale="   74.631">  1  9  2 -1</clus>
<clus scale="   80.547">  5  6 -1 -1</clus>
<clus scale="   82.866">  1  5  2 -1</clus>
<clus scale="   91.435">  7  8 -1 -1</clus>
<clus scale="   74.631">  1  5  2 -1</clus>
</clustering>
</event>
<event>
 9    1  0.4664604E-005  0.9837560E+02  0.7546771E-02  0.1290698E+00
          1   -1    0    0  502    0 -0.00000000000E+00  0.00000000000E+00  0.36567396824E+03  0.36567396824E+03  0.00000000000E+00 0. -1.
         21   -1    0    0  501  502  0.00000000000E+00 -0.00000000000E+00 -0.24118097119E+03  0.24118097119E+03  0.00000000000E+00 0.  1.
         23    2    1    2    0    0 -0.62870753194E+01  0.33801232480E+02  0.34050749182E+03  0.35459211305E+03  0.92780191939E+02 0.  0.
        -24    2    1    2    0    0  0.25364664194E+02  0.92552404428E+00 -0.10477608169E+03  0.13417859135E+03  0.79885194492E+02 0.  0.
         13    1    4    4    0    0  0.28360655972E+02  0.10028679650E+02 -0.11429463506E+01  0.30103281367E+02  0.00000000000E+00 0. -1.
        -14    1    4    4    0    0 -0.29959917782E+01 -0.91031556052E+01 -0.10363313534E+03  0.10407530999E+03  0.00000000000E+00 0.  1.
        -13    1    3    3    0    0  0.40271214105E+02  0.26653625835E+02  0.21928180029E+03  0.22453662150E+03  0.00000000000E+00 0. -1.
         13    1    3    3    0    0 -0.46558289424E+02  0.71476066445E+01  0.12122569153E+03  0.13005549155E+03  0.00000000000E+00 0.  1.
          2    1    1    2  501    0 -0.19077588874E+02 -0.34726756524E+02 -0.11123841309E+03  0.11808423503E+03  0.00000000000E+00 0. -1.
<scales pt_clust_5="13000.00000" pt_clust_6="13000.00000" pt_clust_7="13000.00000" pt_clust_8="13000.00000" pt_clust_9="39.62199"></scales>
<clustering>
<clus scale="   39.622">  2  9  1 -1</clus>
<clus scale="   79.885">  5  6 -1 -1</clus>
<clus scale="   86.321">  2  5  1 -1</clus>
<clus scale="   92.780">  7  8 -1 -1</clus>
<clus scale="   39.622">  2  5  1 -1</clus>
</clustering>
</event>
<event>
 9    1  0.4664604E-005  0.1880127E+03  0.7546771E-02  0.1177512E+00
         -2   -1    0    0    0  501 -0.00000000000E+00  0.00000000000E+00  0.34012497379E+03  0.34012497379E+03  0.00000000000E+00 0.  1.
         21   -1    0    0  501  502  0.00000000000E+00 -0.00000000000E+00 -0.22394963569E+03  0.22394963569E+03  0.00000000000E+00 0.  1.
         23    2    1    2    0    0  0.62962813220E+01 -0.86767655652E+02  0.14194972991E+03  0.19022091270E+03  0.92010872075E+02 0.  0.
        -24    2    1    2    0    0 -0.58307476461E+02 -0.10977723681E+03  0.51995150936E+02  0.15617696180E+03  0.78974325856E+02 0.  0.
         11    1    4    4    0    0 -0.47644313766E+02 -0.23943377217E+02  0.44332862950E+02  0.69344564921E+02  0.00000000000E+00 0. -1.
        -12    1    4    4    0    0 -0.10663162695E+02 -0.85833859590E+02  0.76622879861E+01  0.86832396880E+02  0.00000000000E+00 0.  1.
        -11    1    3    3    0    0  0.43074515280E+02 -0.42235377468E+02  0.10665640033E+03  0.12253501013E+03  0.00000000000E+00 0. -1.
         11    1    3    3    0    0 -0.36778233958E+02 -0.44532278184E+02  0.35293329581E+02  0.67685902567E+02  0.00000000000E+00 0.  1.
         -1    1    1    2    0  502  0.52011195139E+02  0.19654489246E+03 -0.77769542753E+02  0.21767673498E+03  0.00000000000E+00 0.  1.
<scales pt_clust_5="13000.00000" pt_clust_6="13000.00000" pt_clust_7="13000.00000" pt_clust_8="13000.00000" pt_clust_9="170.62190"></scales>
<clustering>
<clus scale="   78.974">  5  6 -1 -1</clus>
<clus scale="   92.011">  7  8 -1 -1</clus>
<clus scale="  126.626">  1  7  2 -1</clus>
<clus scale="  170.622">  2  9  1 -1</clus>
<clus scale="  170.622">  2  5  1 -1</clus>
</clustering>
</event>
<event>
 9    1  0.4664604E-005  0.1434907E+03  0.7546771E-02  0.1210344E+00
         -2   -1    0    0    0  501 -0.00000000000E+00  0.00000000000E+00  0.72301389441E+03  0.72301389441E+03  0.00000000000E+00 0.  1.
         21   -1    0    0  501  502  0.00000000000E+00 -0.00000000000E+00 -0.20280361660E+03  0.20280361660E+03  0.00000000000E+00 0.  1.
        -24    2    1    2    0    0 -0.90425086375E+02  0.40619250244E+02  0.31863390645E+03  0.34385645919E+03  0.82964320349E+02 0.  0.
         23    2    1    2    0    0  0.11910126214E+03 -0.40325648167E+02  0.37517674118E+03  0.40600793971E+03  0.90959284498E+02 0.  0.
         13    1    3    3    0    0 -0.53053596753E+02  0.54740016139E+02  0.27185070843E+03  0.28233660969E+03  0.00000000000E+00 0. -1.
        -14    1    3    3    0    0 -0.37371489622E+02 -0.14120765896E+02  0.46783198023E+02  0.61519849506E+02  0.00000000000E+00 0.  1.
        -11    1    4    4    0    0  0.99892165735E+02  0.49687846962E+01  0.29937045740E+03  0.31563555624E+03  0.00000000000E+00 0.  1.
         11    1    4    4    0    0  0.19209096409E+02 -0.45294432863E+02  0.75806283779E+02  0.90372383467E+02  0.00000000000E+00 0. -1.
         -1    1    1    2    0  502 -0.28676175769E+02 -0.29360207696E+00 -0.17360036982E+03  0.17595311211E+03  0.00000000000E+00 0.  1.
<scales pt_clust_5="13000.00000" pt_clust_6="13000.00000" pt_clust_7="13000.00000" pt_clust_8="13000.00000" pt_clust_9="28.67768"></scales>
<clustering>
<clus scale="   28.678">  2  9  1 -1</clus>
<clus scale="   82.964">  5  6 -1 -1</clus>
<clus scale="   90.959">  7  8 -1 -1</clus>
<clus scale="  138.561">  1  5  2 -1</clus>
<clus scale="   28.678">  2  5  1 -1</clus>
</clustering>
</event>
<event>
 9    1  0.4664604E-005  0.1468383E+03  0.7546771E-02  0.1206198E+00
         21   -1    0    0  501  502  0.00000000000E+00  0.00000000000E+00  0.31364308168E+02  0.31364308168E+02  0.00000000000E+00 0. -1.
          3   -1    0    0  502    0 -0.00000000000E+00 -0.00000000000E+00 -0.85930933303E+03  0.85930933303E+03  0.00000000000E+00 0. -1.
        -24    2    1    2    0    0 -0.78995366984E+01 -0.11966829627E+03 -0.53790268747E+03  0.55735050796E+03  0.83170810524E+02 0.  0.
         23    2    1    2    0    0 -0.85848127574E+01  0.10320935896E+03 -0.22590455987E+03  0.26508615719E+03  0.92260120195E+02 0.  0.
         11    1    3    3    0    0  0.15349093747E+02 -0.11053367931E+03 -0.33923273969E+03  0.35711642446E+03  0.00000000000E+00 0. -1.
        -12    1    3    3    0    0 -0.23248630445E+02 -0.91346169593E+01 -0.19866994778E+03  0.20023408350E+03  0.00000000000E+00 0.  1.
        -11    1    4    4    0    0 -0.25533148729E+02  0.81753923617E+02 -0.22138245494E+03  0.23737278080E+03  0.00000000000E+00 0.  1.
         11    1    4    4    0    0  0.16948335971E+02  0.21455435342E+02 -0.45221049293E+01  0.27713376390E+02  0.00000000000E+00 0. -1.
          4    1    1    2  501    0  0.16484349456E+02  0.16458937309E+02 -0.64137777523E+02  0.68236976046E+02  0.00000000000E+00 0. -1.
<scales pt_clust_5="13000.00000" pt_clust_6="13000.00000" pt_clust_7="13000.00000" pt_clust_8="13000.00000" pt_clust_9="23.29444"></scales>
<clustering>
<clus scale="   23.294">  1  9  2 -1</clus>
<clus scale="   83.171">  5  6 -1 -1</clus>
<clus scale="   92.260">  7  8 -1 -1</clus>
<clus scale="  141.304">  2  5  1 -1</clus>
<clus scale="   23.294">  1  5  2 -1</clus>
</clustering>
</event>
<event>
 9    1  0.4664604E-005  0.1307429E+03  0.7546771E-02  0.1248339E+00
         21   -1    0    0  501  502  0.00000000000E+00  0.00000000000E+00  0.11734986149E+03  0.11734986149E+03  0.00000000000E+00 0. -1.
          3   -1    0    0  502    0 -0.00000000000E+00 -0.00000000000E+00 -0.23127625164E+03  0.23127625164E+03  0.00000000000E+00 0. -1.
        -24    2    1    2    0    0  0.25146393525E+02 -0.50385857059E+01 -0.54133538374E+01  0.83672401627E+02  0.79460920842E+02 0.  0.
         23    2    1    2    0    0 -0.10324606946E+03 -0.33949740415E+02 -0.17753723491E+02  0.13902952074E+03  0.84862696204E+02 0.  0.
         11    1    3    3    0    0 -0.21676766048E+02  0.20777261023E+02 -0.16379552515E+01  0.30070910517E+02  0.00000000000E+00 0. -1.
        -12    1    3    3    0    0  0.46823159573E+02 -0.25815846729E+02 -0.37753985859E+01  0.53601491110E+02  0.00000000000E+00 0.  1.
        -11    1    4    4    0    0 -0.55313984478E+02  0.13594181695E+02 -0.38088438759E+02  0.68521294660E+02  0.00000000000E+00 0.  1.
         11    1    4    4    0    0 -0.47932084981E+02 -0.47543922109E+02  0.20334715268E+02  0.70508226082E+02  0.00000000000E+00 0. -1.
          4    1    1    2  501    0  0.78099675933E+02  0.38988326121E+02 -0.90759312826E+02  0.12592419076E+03  0.00000000000E+00 0. -1.
<scales pt_clust_5="13000.00000" pt_clust_6="13000.00000" pt_clust_7="13000.00000" pt_clust_8="13000.00000" pt_clust_9="99.45870"></scales>
<clustering>
<clus scale="   79.461">  5  6 -1 -1</clus>
<clus scale="   83.497">  2  5  1 -1</clus>
<clus scale="   84.863">  7  8 -1 -1</clus>
<clus scale="   99.459">  1  9  2 -1</clus>
<clus scale="   99.459">  1  5  2 -1</clus>
</clustering>
</event>
<event>
 9    1  0.4664604E-005  0.1041423E+03  0.7546771E-02  0.1275495E+00
          1   -1    0    0  502    0 -0.00000000000E+00  0.00000000000E+00  0.80843909926E+03  0.80843909926E+03  0.00000000000E+00 0. -1.
         21   -1    0    0  501  502  0.00000000000E+00 -0.00000000000E+00 -0.21802057419E+02  0.21802057419E+02  0.00000000000E+00 0.  1.
         23    2    1    2    0    0 -0.21524052806E+02 -0.43468591877E+02  0.54012712130E+03  0.55011238000E+03  0.92377054124E+02 0.  0.
        -24    2    1    2    0    0  0.47010831808E+02  0.26203674697E+02  0.16426333397E+03  0.19230990473E+03  0.84285263809E+02 0.  0.
         11    1    4    4    0    0  0.37141050296E+02  0.12967821109E+02  0.17025865573E+03  0.17474447589E+03  0.00000000000E+00 0. -1.
        -12    1    4    4    0    0  0.98697815115E+01  0.13235853588E+02 -0.59953217641E+01  0.17565428840E+02  0.00000000000E+00 0.  1.
        -11    1    3    3    0    0 -0.34747822909E+02  0.19572794776E+02  0.21426738614E+03  0.21794728320E+03  0.00000000000E+00 0. -1.
         11    1    3    3    0    0  0.13223770103E+02 -0.63041386653E+02  0.32585973516E+03  0.33216509679E+03  0.00000000000E+00 0.  1.
          2    1    1    2  501    0 -0.25486779002E+02  0.17264917180E+02  0.82246586573E+02  0.87818871958E+02  0.00000000000E+00 0. -1.
<scales pt_clust_5="13000.00000" pt_clust_6="13000.00000" pt_clust_7="13000.00000" pt_clust_8="13000.00000" pt_clust_9="30.78398"></scales>
<clustering>
<clus scale="   30.784">  2  9  1 -1</clus>
<clus scale="   84.285">  5  6 -1 -1</clus>
<clus scale="   92.377">  7  8 -1 -1</clus>
<clus scale="   97.037">  2  5  1 -1</clus>
<clus scale="   30.784">  2  5  1 -1</clus>
</clustering>
</event>
<event>
 9    1  0.4664604E-005  0.1374608E+03  0.7546771E-02  0.1247383E+00
         21   -1    0    0  501  502  0.00000000000E+00  0.00000000000E+00  0.18722090882E+03  0.18722090882E+03  0.00000000000E+00 0. -1.
          1   -1    0    0  502    0 -0.00000000000E+00 -0.00000000000E+00 -0.20830725576E+03  0.20830725576E+03  0.00000000000E+00 0. -1.
        -24    2    1    2    0    0  0.14816280610E+01  0.48893234489E+01  0.30060565515E+02  0.79162428236E+02  0.73054443667E+02 0.  0.
         23    2    1    2    0    0  0.96668795767E+02  0.30372534276E+02 -0.12829207971E+03  0.18664187140E+03  0.90049894667E+02 0.  0.
         11    1    3    3    0    0  0.29736823886E+02 -0.11844400008E+02 -0.35105468538E+01  0.32200814363E+02  0.00000000000E+00 0. -1.
        -12    1    3    3    0    0 -0.28255195825E+02  0.16733723457E+02  0.33571112369E+02  0.46961613873E+02  0.00000000000E+00 0.  1.
        -11    1    4    4    0    0  0.67178706825E+02  0.58127752638E+02 -0.11208882935E+03  0.14302349437E+03  0.00000000000E+00 0. -1.
         11    1    4    4    0    0  0.29490088941E+02 -0.27755218362E+02 -0.16203250358E+02  0.43618377024E+02  0.00000000000E+00 0.  1.
          2    1    1    2  501    0 -0.98150423828E+02 -0.35261857725E+02  0.77145167248E+02  0.12972386495E+03  0.00000000000E+00 0. -1.
<scales pt_clust_5="13000.00000" pt_clust_6="13000.00000" pt_clust_7="13000.00000" pt_clust_8="13000.00000" pt_clust_9="103.85806"></scales>
<clustering>
<clus scale="   73.054">  5  6 -1 -1</clus>
<clus scale="   73.233">  2  5  1 -1</clus>
<clus scale="   90.050">  7  8 -1 -1</clus>
<clus scale="  103.858">  1  9  2 -1</clus>
<clus scale="  103.858">  1  5  2 -1</clus>
</clustering>
</event>
<event>
 9    1  0.4664604E-005  0.1067906E+03  0.7546771E-02  0.1268625E+00
         21   -1    0    0  501  502  0.00000000000E+00  0.00000000000E+00  0.65130474969E+02  0.65130474969E+02  0.00000000000E+00 0. -1.
          1   -1    0    0  502    0 -0.00000000000E+00 -0.00000000000E+00 -0.67994334566E+03  0.67994334566E+03  0.00000000000E+00 0. -1.
         23    2    1    2    0    0  0.44514158150E+02 -0.31970729639E+02 -0.46967303227E+03  0.48122333192E+03  0.89328047752E+02 0.  0.
        -24    2    1    2    0    0 -0.35995954020E+02  0.63830363351E+02 -0.18249585125E+03  0.21402009883E+03  0.84438397583E+02 0.  0.
         11    1    4    4    0    0 -0.29860317885E+02  0.76530216566E+02 -0.18225525801E+03  0.19991371065E+03  0.00000000000E+00 0. -1.
        -12    1    4    4    0    0 -0.61356361347E+01 -0.12699853215E+02 -0.24059324330E+00  0.14106388183E+02  0.00000000000E+00 0.  1.
        -13    1    3    3    0    0 -0.26670481351E+02 -0.17405837777E+02 -0.12707207890E+03  0.13100225570E+03  0.00000000000E+00 0.  1.
         13    1    3    3    0    0  0.71184639501E+02 -0.14564891863E+02 -0.34260095337E+03  0.35022107622E+03  0.00000000000E+00 0. -1.
          2    1    1    2  501    0 -0.85182041300E+01 -0.31859633712E+02  0.37356012826E+02  0.49830389885E+02  0.00000000000E+00 0. -1.
<scales pt_clust_5="13000.00000" pt_clust_6="13000.00000" pt_clust_7="13000.00000" pt_clust_8="13000.00000" pt_clust_9="32.97872"></scales>
<clustering>
<clus scale="   32.979">  1  9  2 -1</clus>
<clus scale="   84.438">  5  6 -1 -1</clus>
<clus scale="   89.328">  7  8 -1 -1</clus>
<clus scale="  102.736">  1  5  2 -1</clus>
<clus scale="   32.979">  1  5  2 -1</clus>
</clustering>
</event>
<event>
 9    1  0.4664604E-005  0.1573329E+03  0.7546771E-02  0.1211726E+00
          1   -1    0    0  502    0 -0.00000000000E+00  0.00000000000E+00  0.51351509904E+03  0.51351509904E+03  0.00000000000E+00 0. -1.
         21   -1    0    0  501  502  0.00000000000E+00 -0.00000000000E+00 -0.93896848042E+02  0.93896848042E+02  0.00000000000E+00 0. -1.
        -24    2    1    2    0    0 -0.18789738484E+02 -0.57859751740E+02  0.12199834744E+03  0.15905895980E+03  0.81947243819E+02 0.  0.
         23    2    1    2    0    0  0.10513070175E+03 -0.44912207825E+02  0.44071377800E+02  0.16146678594E+03  0.10516494548E+03 0.  0.
         13    1    3    3    0    0 -0.43288799032E+02 -0.54382631542E+02  0.11312217735E+03  0.13277054546E+03  0.00000000000E+00 0. -1.
        -14    1    3    3    0    0  0.24499060548E+02 -0.34771201979E+01  0.88761700946E+01  0.26288414333E+02  0.00000000000E+00 0.  1.
        -11    1    4    4    0    0  0.63387868208E+02  0.12495127829E+01  0.69645233058E+02  0.94180898307E+02  0.00000000000E+00 0.  1.
         11    1    4    4    0    0  0.41742833542E+02 -0.46161720608E+02 -0.25573855259E+02  0.67285887631E+02  0.00000000000E+00 0. -1.
          2    1    1    2  501    0 -0.86340963265E+02  0.10277195956E+03  0.25354852575E+03  0.28688620134E+03  0.00000000000E+00 0. -1.
<scales pt_clust_5="13000.00000" pt_clust_6="13000.00000" pt_clust_7="13000.00000" pt_clust_8="13000.00000" pt_clust_9="117.02126"></scales>
<clustering>
<clus scale="   81.947">  5  6 -1 -1</clus>
<clus scale="  102.060">  1  5  2 -1</clus>
<clus scale="  105.165">  7  8 -1 -1</clus>
<clus scale="  117.021">  2  9  1 -1</clus>
<clus scale="  117.021">  2  5  1 -1</clus>
</clustering>
</event>
<event>
 9    1  0.4664604E-005  0.1363868E+03  0.7546771E-02  0.1220558E+00
          1   -1    0    0  502    0 -0.00000000000E+00  0.00000000000E+00  0.22022970192E+03  0.22022970192E+03  0.00000000000E+00 0. -1.
         21   -1    0    0  501  502  0.00000000000E+00 -0.00000000000E+00 -0.21754670845E+03  0.21754670845E+03  0.00000000000E+00 0.  1.
         23    2    1    2    0    0  0.97962690743E+02 -0.22048609805E+02  0.12112127344E+03  0.18191542901E+03  0.91323767225E+02 0.  0.
        -24    2    1    2    0    0 -0.10577159966E+03 -0.55828768038E+01  0.37304811240E+00  0.13362919421E+03  0.81472833335E+02 0.  0.
         13    1    4    4    0    0 -0.13715247024E+02 -0.31421298247E+02  0.14032190804E+02  0.37044680633E+02  0.00000000000E+00 0. -1.
        -14    1    4    4    0    0 -0.92056352636E+02  0.25838421443E+02 -0.13659142692E+02  0.96584513574E+02  0.00000000000E+00 0.  1.
        -11    1    3    3    0    0  0.34129859548E+02  0.21380324495E+02  0.24602740583E+01  0.40348711711E+02  0.00000000000E+00 0.  1.
         11    1    3    3    0    0  0.63832831194E+02 -0.43428934299E+02  0.11866099938E+03  0.14156671730E+03  0.00000000000E+00 0. -1.
          2    1    1    2  501    0  0.78089089168E+01  0.27631486609E+02 -0.11881132808E+03  0.12223178716E+03  0.00000000000E+00 0. -1.
<scales pt_clust_5="13000.00000" pt_clust_6="13000.00000" pt_clust_7="13000.00000" pt_clust_8="13000.00000" pt_clust_9="28.71373"></scales>
<clustering>
<clus scale="   28.714">  2  9  1 -1</clus>
<clus scale="   81.473">  5  6 -1 -1</clus>
<clus scale="   91.324">  7  8 -1 -1</clus>
<clus scale="  129.997">  2  5  1 -1</clus>
<clus scale="   28.714">  2  5  1 -1</clus>
</clustering>
</event>
<event>
 9    1  0.4664604E-005  0.1008408E+03  0.7546771E-02  0.1283874E+00
         -4   -1    0    0    0  501 -0.00000000000E+00  0.00000000000E+00  0.76656088115E+03  0.76656088115E+03  0.00000000000E+00 0.  1.
         21   -1    0    0  501  502  0.00000000000E+00 -0.00000000000E+00 -0.25025885429E+02  0.25025885429E+02  0.00000000000E+00 0.  1.
        -24    2    1    2    0    0 -0.63623336227E+02  0.12406702699E+02  0.41545328746E+03  0.42811586118E+03  0.80497834416E+02 0.  0.
         23    2    1    2    0    0  0.86465870503E+01 -0.20658535268E+02  0.26338748766E+03  0.27967889512E+03  0.91355225199E+02 0.  0.
         11    1    3    3    0    0 -0.31055815222E+02 -0.57928804708E+01  0.40757788896E+02  0.51567610754E+02  0.00000000000E+00 0. -1.
        -12    1    3    3    0    0 -0.32567521004E+02  0.18199583170E+02  0.37469549857E+03  0.37654825042E+03  0.00000000000E+00 0.  1.
        -11    1    4    4    0    0 -0.30499430389E+02 -0.39865659965E+02  0.13050039984E+03  0.13982074402E+03  0.00000000000E+00 0.  1.
         11    1    4    4    0    0  0.39146017439E+02  0.19207124698E+02  0.13288708782E+03  0.13985815110E+03  0.00000000000E+00 0. -1.
         -3    1    1    2    0  502  0.54976749176E+02  0.82518325683E+01  0.62694220597E+02  0.83792010281E+02  0.00000000000E+00 0.  1.
<scales pt_clust_5="13000.00000" pt_clust_6="13000.00000" pt_clust_7="13000.00000" pt_clust_8="13000.00000" pt_clust_9="55.59259"></scales>
<clustering>
<clus scale="   55.593">  2  9  1 -1</clus>
<clus scale="   80.498">  5  6 -1 -1</clus>
<clus scale="   91.121">  1  5  2 -1</clus>
<clus scale="   91.355">  7  8 -1 -1</clus>
<clus scale="   55.593">  2  5  1 -1</clus>
</clustering>
</event>
<event>
 9    1  0.4664604E-005  0.1134421E+03  0.7546771E-02  0.1257621E+00
          1   -1    0    0  502    0 -0.00000000000E+00  0.00000000000E+00  0.67738899157E+03  0.67738899157E+03  0.00000000000E+00 0. -1.
         21   -1    0    0  501  502  0.00000000000E+00 -0.00000000000E+00 -0.74171296919E+02  0.74171296919E+02  0.00000000000E+00 0. -1.
         23    2    1    2    0    0  0.31992823094E+02  0.53536600506E+02  0.33619105938E+03  0.35373751595E+03  0.90642669092E+02 0.  0.
        -24    2    1    2    0    0 -0.76293197702E+02 -0.32523980980E+02  0.31095877073E+03  0.33198899780E+03  0.81503841718E+02 0.  0.
         13    1    4    4    0    0 -0.83792663624E+02 -0.47831633984E+02  0.28539721643E+03  0.30126507736E+03  0.00000000000E+00 0. -1.
        -14    1    4    4    0    0  0.74994659224E+01  0.15307653004E+02  0.25561554296E+02  0.30723920447E+02  0.00000000000E+00 0.  1.
        -11    1    3    3    0    0 -0.70666719020E+01 -0.20693625393E+02  0.36687231902E+02  0.42709682372E+02  0.00000000000E+00 0. -1.
         11    1    3    3    0    0  0.39059494996E+02  0.74230225899E+02  0.29950382748E+03  0.31102783358E+03  0.00000000000E+00 0.  1.
          2    1    1    2  501    0  0.44300374608E+02 -0.21012619527E+02 -0.43932135459E+02  0.65833774734E+02  0.00000000000E+00 0. -1.
<scales pt_clust_5="13000.00000" pt_clust_6="13000.00000" pt_clust_7="13000.00000" pt_clust_8="13000.00000" pt_clust_9="49.03115"></scales>
<clustering>
<clus scale="   49.031">  2  9  1 -1</clus>
<clus scale="   81.504">  5  6 -1 -1</clus>
<clus scale="   90.643">  7  8 -1 -1</clus>
<clus scale="  106.282">  2  5  1 -1</clus>
<clus scale="   49.031">  2  5  1 -1</clus>
</clustering>
</event>
<event>
 9    1  0.4664604E-005  0.1110302E+03  0.7546771E-02  0.1262387E+00
         21   -1    0    0  501  502  0.00000000000E+00  0.00000000000E+00  0.27747968216E+03  0.27747968216E+03  0.00000000000E+00 0. -1.
          1   -1    0    0  502    0 -0.00000000000E+00 -0.00000000000E+00 -0.73934695651E+02  0.73934695651E+02  0.00000000000E+00 0. -1.
         23    2    1    2    0    0 -0.56061579606E+02 -0.47441528390E+02  0.51750827965E+01  0.11608903398E+03  0.89756799207E+02 0.  0.
        -24    2    1    2    0    0  0.28428278404E+02  0.38797616132E+02  0.12135903560E+03  0.15305146971E+03  0.79895649636E+02 0.  0.
         13    1    4    4    0    0 -0.18451963691E+02  0.40317423514E+02  0.43241104217E+02  0.61933534509E+02  0.00000000000E+00 0. -1.
        -14    1    4    4    0    0  0.46880242094E+02 -0.15198073824E+01  0.78117931379E+02  0.91117935206E+02  0.00000000000E+00 0.  1.
        -11    1    3    3    0    0 -0.36467278456E+02 -0.59056294132E+02 -0.28831916134E+02  0.75158417110E+02  0.00000000000E+00 0. -1.
         11    1    3    3    0    0 -0.19594301150E+02  0.11614765742E+02  0.34006998930E+02  0.40930616866E+02  0.00000000000E+00 0.  1.
          2    1    1    2  501    0  0.27633301202E+02  0.86439122577E+01  0.77010868118E+02  0.82273874120E+02  0.00000000000E+00 0. -1.
<scales pt_clust_5="13000.00000" pt_clust_6="13000.00000" pt_clust_7="13000.00000" pt_clust_8="13000.00000" pt_clust_9="28.95370"></scales>
<clustering>
<clus scale="   28.954">  1  9  2 -1</clus>
<clus scale="   79.896">  5  6 -1 -1</clus>
<clus scale="   89.757">  7  8 -1 -1</clus>
<clus scale="  103.222">  1  5  2 -1</clus>
<clus scale="   28.954">  1  5  2 -1</clus>
</clustering>
</event>
<event>
 9    1  0.4664604E-005  0.1543727E+03  0.7546771E-02  0.1197292E+00
         21   -1    0    0  501  502  0.00000000000E+00  0.00000000000E+00  0.11798402009E+03  0.11798402009E+03  0.00000000000E+00 0. -1.
          1   -1    0    0  502    0 -0.00000000000E+00 -0.00000000000E+00 -0.47817096338E+03  0.47817096338E+03  0.00000000000E+00 0. -1.
        -24    2    1    2    0    0  0.93617396615E+02  0.55064681087E+02 -0.11833165314E+03  0.17950764616E+03  0.80151599133E+02 0.  0.
         23    2    1    2    0    0 -0.12710901514E+03 -0.10759494001E+03 -0.26184835752E+02  0.19215933870E+03  0.92229024617E+02 0.  0.
         13    1    3    3    0    0 -0.29139670421E+00  0.30727475576E+02 -0.64030745433E+01  0.31388883875E+02  0.00000000000E+00 0. -1.
        -14    1    3    3    0    0  0.93908793319E+02  0.24337205511E+02 -0.11192857860E+03  0.14811876229E+03  0.00000000000E+00 0.  1.
        -11    1    4    4    0    0 -0.67251733407E+02 -0.91000997134E+02 -0.52450053500E+02  0.12471962651E+03  0.00000000000E+00 0.  1.
         11    1    4    4    0    0 -0.59857281735E+02 -0.16593942873E+02  0.26265217748E+02  0.67439712189E+02  0.00000000000E+00 0. -1.
          2    1    1    2  501    0  0.33491618527E+02  0.52530258921E+02 -0.21567045440E+03  0.22448799860E+03  0.00000000000E+00 0. -1.
<scales pt_clust_5="13000.00000" pt_clust_6="13000.00000" pt_clust_7="13000.00000" pt_clust_8="13000.00000" pt_clust_9="62.29864"></scales>
<clustering>
<clus scale="   62.299">  1  9  2 -1</clus>
<clus scale="   80.152">  5  6 -1 -1</clus>
<clus scale="   92.229">  7  8 -1 -1</clus>
<clus scale="  147.475">  2  5  1 -1</clus>
<clus scale="   62.299">  1  5  2 -1</clus>
</clustering>
</event>
<event>
 9    1  0.4664604E-005  0.9906626E+02  0.7546771E-02  0.1287887E+00
         21   -1    0    0  501  502  0.00000000000E+00  0.00000000000E+00  0.70895571323E+02  0.70895571323E+02  0.00000000000E+00 0. -1.
          1   -1    0    0  502    0 -0.00000000000E+00 -0.00000000000E+00 -0.37794197806E+03  0.37794197806E+03  0.00000000000E+00 0. -1.
         23    2    1    2    0    0 -0.18162191248E+02  0.36887576929E+01 -0.19553909583E+03  0.21664882897E+03  0.91420484439E+02 0.  0.
        -24    2    1    2    0    0  0.74417844649E+02 -0.13007518999E+02 -0.13155407645E+03  0.17174527030E+03  0.80515536927E+02 0.  0.
         13    1    4    4    0    0  0.72238962348E+02 -0.18977263826E+02 -0.49857416064E+02  0.89801816017E+02  0.00000000000E+00 0. -1.
        -14    1    4    4    0    0  0.21788823015E+01  0.59697448262E+01 -0.81696660388E+02  0.81943454284E+02  0.00000000000E+00 0.  1.
        -13    1    3    3    0    0 -0.25813045228E+02 -0.37290021434E+02 -0.14028039135E+03  0.14742946517E+03  0.00000000000E+00 0.  1.
         13    1    3    3    0    0  0.76508539795E+01  0.40978779127E+02 -0.55258704477E+02  0.69219363807E+02  0.00000000000E+00 0. -1.
          2    1    1    2  501    0 -0.56255653401E+02  0.93187613066E+01  0.20046765544E+02  0.60443450105E+02  0.00000000000E+00 0. -1.
<scales pt_clust_5="13000.00000" pt_clust_6="13000.00000" pt_clust_7="13000.00000" pt_clust_8="13000.00000" pt_clust_9="57.02226"></scales>
<clustering>
<clus scale="   57.022">  1  9  2 -1</clus>
<clus scale="   80.516">  5  6 -1 -1</clus>
<clus scale="   89.102">  1  5  2 -1</clus>
<clus scale="   91.420">  7  8 -1 -1</clus>
<clus scale="   57.022">  1  5  2 -1</clus>
</clustering>
</event>
<event>
 9    1  0.4664604E-005  0.2188037E+03  0.7546771E-02  0.1160180E+00
          1   -1    0    0  502    0 -0.00000000000E+00  0.00000000000E+00  0.17689935851E+04  0.17689935851E+04  0.00000000000E+00 0. -1.
         21   -1    0    0  501  502  0.00000000000E+00 -0.00000000000E+00 -0.47308079352E+02  0.47308079352E+02  0.00000000000E+00 0. -1.
         23    2    1    2    0    0 -0.73750852097E+02  0.21418218001E+02  0.23103509515E+03  0.26012126846E+03  0.91585647704E+02 0.  0.
        -24    2    1    2    0    0 -0.15636135987E+03 -0.68385965642E+02  0.51312194844E+03  0.55083493610E+03  0.10487839478E+03 0.  0.
         11    1    4    4    0    0 -0.11279640359E+03 -0.55968886776E+01  0.38909670335E+03  0.40515503006E+03  0.00000000000E+00 0. -1.
        -12    1    4    4    0    0 -0.43564956279E+02 -0.62789076965E+02  0.12402524509E+03  0.14567990603E+03  0.00000000000E+00 0.  1.
        -11    1    3    3    0    0 -0.44949077479E+02  0.41018182537E+02  0.21171078319E+03  0.22028246998E+03  0.00000000000E+00 0.  1.
         11    1    3    3    0    0 -0.28801774618E+02 -0.19599964537E+02  0.19324311966E+02  0.39838798476E+02  0.00000000000E+00 0. -1.
          2    1    1    2  501    0  0.23011221197E+03  0.46967747642E+02  0.97752846211E+03  0.10053454599E+04  0.00000000000E+00 0. -1.
<scales pt_clust_5="13000.00000" pt_clust_6="13000.00000" pt_clust_7="13000.00000" pt_clust_8="13000.00000" pt_clust_9="192.03027"></scales>
<clustering>
<clus scale="   91.586">  7  8 -1 -1</clus>
<clus scale="  104.878">  5  6 -1 -1</clus>
<clus scale="  119.524">  1  7  2 -1</clus>
<clus scale="  192.030">  2  9  1 -1</clus>
<clus scale="  192.030">  2  5  1 -1</clus>
</clustering>
</event>
<event>
 9    1  0.4664604E-005  0.9004749E+02  0.7546771E-02  0.1303476E+00
         21   -1    0    0  501  502  0.00000000000E+00  0.00000000000E+00  0.37190924244E+02  0.37190924244E+02  0.00000000000E+00 0.  1.
          1   -1    0    0  502    0 -0.00000000000E+00 -0.00000000000E+00 -0.32664209522E+03  0.32664209522E+03  0.00000000000E+00 0. -1.
        -24    2    1    2    0    0  0.15079440322E+02  0.21711650882E+02 -0.12656943152E+03  0.15326784771E+03  0.82294755852E+02 0.  0.
         23    2    1    2    0    0 -0.49858463036E+02 -0.21444857660E+02 -0.10697619017E+03  0.14472383185E+03  0.80965017054E+02 0.  0.
         13    1    3    3    0    0  0.46101201711E+02  0.21158069599E+02 -0.10115705018E+03  0.11316242093E+03  0.00000000000E+00 0. -1.
        -14    1    3    3    0    0 -0.31021761390E+02  0.55358128295E+00 -0.25412381340E+02  0.40105426781E+02  0.00000000000E+00 0.  1.
        -11    1    4    4    0    0 -0.51056880805E+02  0.20361284549E+02 -0.69123536382E+02  0.88314496364E+02  0.00000000000E+00 0. -1.
         11    1    4    4    0    0  0.11984177694E+01 -0.41806142209E+02 -0.37852653790E+02  0.56409335491E+02  0.00000000000E+00 0.  1.
          2    1    1    2  501    0  0.34779022714E+02 -0.26679322179E+00 -0.55905549279E+02  0.65841339899E+02  0.00000000000E+00 0. -1.
<scales pt_clust_5="13000.00000" pt_clust_6="13000.00000" pt_clust_7="13000.00000" pt_clust_8="13000.00000" pt_clust_9="34.78006"></scales>
<clustering>
<clus scale="   34.780">  1  9  2 -1</clus>
<clus scale="   80.965">  7  8 -1 -1</clus>
<clus scale="   82.295">  5  6 -1 -1</clus>
<clus scale="   88.834">  1  7  2 -1</clus>
<clus scale="   34.780">  1  5  2 -1</clus>
</clustering>
</event>
<event>
 9    1  0.4664604E-005  0.1027950E+03  0.7546771E-02  0.1282745E+00
          1   -1    0    0  502    0 -0.00000000000E+00  0.00000000000E+00  0.77611135298E+02  0.77611135298E+02  0.00000000000E+00 0. -1.
         21   -1    0    0  501  502  0.00000000000E+00 -0.00000000000E+00 -0.28584039603E+03  0.28584039603E+03  0.00000000000E+00 0. -1.
        -24    2    1    2    0    0  0.39996562937E+02  0.14807023191E+02  0.27108328617E+02  0.90729204891E+02  0.75352200746E+02 0.  0.
         23    2    1    2    0    0 -0.50885598143E+02 -0.37828810520E+02 -0.18370777322E+03  0.21515313595E+03  0.92314478629E+02 0.  0.
         11    1    3    3    0    0  0.43559894534E+02 -0.87526897522E+01  0.43205218562E+02  0.61973904998E+02  0.00000000000E+00 0. -1.
        -12    1    3    3    0    0 -0.35633315974E+01  0.23559712943E+02 -0.16096889945E+02  0.28755299893E+02  0.00000000000E+00 0.  1.
        -13    1    4    4    0    0  0.16009647318E+02 -0.18521726892E+02 -0.73696233219E+01  0.25567059319E+02  0.00000000000E+00 0.  1.
         13    1    4    4    0    0 -0.66895245461E+02 -0.19307083628E+02 -0.17633814990E+03  0.18958607663E+03  0.00000000000E+00 0. -1.
          2    1    1    2  501    0  0.10889035207E+02  0.23021787328E+02 -0.51629816126E+02  0.57569190482E+02  0.00000000000E+00 0. -1.
<scales pt_clust_5="13000.00000" pt_clust_6="13000.00000" pt_clust_7="13000.00000" pt_clust_8="13000.00000" pt_clust_9="25.46711"></scales>
<clustering>
<clus scale="   25.467">  2  9  1 -1</clus>
<clus scale="   75.352">  5  6 -1 -1</clus>
<clus scale="   87.880">  1  5  2 -1</clus>
<clus scale="   92.314">  7  8 -1 -1</clus>
<clus scale="   25.467">  2  5  1 -1</clus>
</clustering>
</event>
<event>
 9    1  0.4664604E-005  0.1008838E+03  0.7546771E-02  0.1281563E+00
         -4   -1    0    0    0  501 -0.00000000000E+00  0.00000000000E+00  0.37128563968E+03  0.37128563968E+03  0.00000000000E+00 0.  1.
         21   -1    0    0  501  502  0.00000000000E+00 -0.00000000000E+00 -0.39821136728E+02  0.39821136728E+02  0.00000000000E+00 0. -1.
        -24    2    1    2    0    0  0.34334073315E+02  0.32750420805E+02  0.20936306626E+03  0.23081351637E+03  0.84797212052E+02 0.  0.
         23    2    1    2    0    0 -0.38541660538E+02 -0.84285679145E+01  0.11953287005E+03  0.15547685714E+03  0.91260318486E+02 0.  0.
         11    1    3    3    0    0  0.14838652319E+02  0.60031549586E+02  0.11345736636E+03  0.12921511726E+03  0.00000000000E+00 0. -1.
        -12    1    3    3    0    0  0.19495420995E+02 -0.27281128782E+02  0.95905699898E+02  0.10159839910E+03  0.00000000000E+00 0.  1.
        -11    1    4    4    0    0 -0.12013390679E+02 -0.43156145146E+02  0.24926695188E+02  0.51265139739E+02  0.00000000000E+00 0.  1.
         11    1    4    4    0    0 -0.26528269859E+02  0.34727577231E+02  0.94606174865E+02  0.10421171741E+03  0.00000000000E+00 0. -1.
         -3    1    1    2    0  502  0.42075872232E+01 -0.24321852890E+02  0.25685666444E+01  0.24816402899E+02  0.00000000000E+00 0.  1.
<scales pt_clust_5="13000.00000" pt_clust_6="13000.00000" pt_clust_7="13000.00000" pt_clust_8="13000.00000" pt_clust_9="24.68312"></scales>
<clustering>
<clus scale="   24.683">  2  9  1 -1</clus>
<clus scale="   84.797">  5  6 -1 -1</clus>
<clus scale="   91.260">  7  8 -1 -1</clus>
<clus scale="   95.077">  1  5  2 -1</clus>
<clus scale="   24.683">  2  5  1 -1</clus>
</clustering>
</event>
<event>
 9    1  0.4664604E-005  0.9600544E+02  0.7546771E-02  0.1297586E+00
          1   -1    0    0  502    0 -0.00000000000E+00  0.00000000000E+00  0.38442512059E+03  0.38442512059E+03  0.00000000000E+00 0. -1.
         21   -1    0    0  501  502  0.00000000000E+00 -0.00000000000E+00 -0.40408193674E+02  0.40408193674E+02  0.00000000000E+00 0.  1.
         23    2    1    2    0    0  0.91687865376E+01  0.87662975758E+01  0.20011091020E+03  0.22118278847E+03  0.93362384886E+02 0.  0.
        -24    2    1    2    0    0 -0.38442095099E+02 -0.27288472335E+02  0.51837584328E+02  0.10528084656E+03  0.78577771061E+02 0.  0.
         13    1    4    4    0    0  0.22452511970E+02 -0.17892786002E+02  0.25020556988E+02  0.38082743555E+02  0.00000000000E+00 0. -1.
        -14    1    4    4    0    0 -0.60894607069E+02 -0.93956863327E+01  0.26817027340E+02  0.67198103002E+02  0.00000000000E+00 0.  1.
        -11    1    3    3    0    0  0.33543985835E+02  0.17863408294E+02  0.18918480445E+03  0.19296422098E+03  0.00000000000E+00 0. -1.
         11    1    3    3    0    0 -0.24375199297E+02 -0.90971107179E+01  0.10926105749E+02  0.28218567487E+02  0.00000000000E+00 0.  1.
          2    1    1    2  501    0  0.29273308562E+02  0.18522174759E+02  0.92068432390E+02  0.98369679245E+02  0.00000000000E+00 0. -1.
<scales pt_clust_5="13000.00000" pt_clust_6="13000.00000" pt_clust_7="13000.00000" pt_clust_8="13000.00000" pt_clust_9="34.64100"></scales>
<clustering>
<clus scale="   34.641">  2  9  1 -1</clus>
<clus scale="   78.578">  5  6 -1 -1</clus>
<clus scale="   81.701">  2  5  1 -1</clus>
<clus scale="   93.362">  7  8 -1 -1</clus>
<clus scale="   34.641">  2  5  1 -1</clus>
</clustering>
</event>
<event>
 9    1  0.4664604E-005  0.9549716E+02  0.7546771E-02  0.1295777E+00
         21   -1    0    0  501  502  0.00000000000E+00  0.00000000000E+00  0.39147635639E+02  0.39147635639E+02  0.00000000000E+00 0.  1.
          1   -1    0    0  502    0 -0.00000000000E+00 -0.00000000000E+00 -0.37027539859E+03  0.37027539859E+03  0.00000000000E+00 0. -1.
        -24    2    1    2    0    0 -0.31752359018E+02  0.18073853990E+00 -0.10161761082E+03  0.13374558686E+03  0.80953679390E+02 0.  0.
         23    2    1    2    0    0  0.13527091834E+02 -0.35774021257E+02 -0.10191553993E+03  0.14196347202E+03  0.91126765003E+02 0.  0.
         11    1    3    3    0    0  0.17005460786E+00 -0.35767895368E+02 -0.61430506392E+02  0.71085008076E+02  0.00000000000E+00 0. -1.
        -12    1    3    3    0    0 -0.31922413625E+02  0.35948633908E+02 -0.40187104431E+02  0.62660578788E+02  0.00000000000E+00 0.  1.
        -11    1    4    4    0    0 -0.28062411690E+02  0.29303435307E+01 -0.72900560105E+02  0.78170183105E+02  0.00000000000E+00 0. -1.
         11    1    4    4    0    0  0.41589503524E+02 -0.38704364788E+02 -0.29014979823E+02  0.63793288919E+02  0.00000000000E+00 0.  1.
          2    1    1    2  501    0  0.18225267183E+02  0.35593282718E+02 -0.12759461220E+03  0.13371397534E+03  0.00000000000E+00 0. -1.
<scales pt_clust_5="13000.00000" pt_clust_6="13000.00000" pt_clust_7="13000.00000" pt_clust_8="13000.00000" pt_clust_9="39.98804"></scales>
<clustering>
<clus scale="   39.988">  1  9  2 -1</clus>
<clus scale="   80.954">  5  6 -1 -1</clus>
<clus scale="   85.844">  2  5  1 -1</clus>
<clus scale="   91.127">  7  8 -1 -1</clus>
<clus scale="   39.988">  1  5  2 -1</clus>
</clustering>
</event>
<event>
 9    1  0.4664604E-005  0.1090023E+03  0.7546771E-02  0.1266731E+00
          1   -1    0    0  502    0 -0.00000000000E+00  0.00000000000E+00  0.28760145241E+03  0.28760145241E+03  0.00000000000E+00 0. -1.
         21   -1    0    0  501  502  0.00000000000E+00 -0.00000000000E+00 -0.15053093046E+03  0.15053093046E+03  0.00000000000E+00 0. -1.
        -24    2    1    2    0    0 -0.12069888939E+02 -0.52703444172E+02  0.17766265973E+03  0.20265824642E+03  0.81135743883E+02 0.  0.
         23    2    1    2    0    0  0.33712769017E+02  0.66155870488E+02  0.59503866270E+02  0.13218525970E+03  0.91755559977E+02 0.  0.
         11    1    3    3    0    0  0.27182597137E+02  0.16012475278E+01  0.30064577046E+02  0.40562746131E+02  0.00000000000E+00 0. -1.
        -12    1    3    3    0    0 -0.39252486075E+02 -0.54304691700E+02  0.14759808268E+03  0.16209550029E+03  0.00000000000E+00 0.  1.
        -11    1    4    4    0    0  0.77781370841E+00  0.43891770473E+02 -0.16107071429E+02  0.46760349223E+02  0.00000000000E+00 0.  1.
         11    1    4    4    0    0  0.32934955309E+02  0.22264100015E+02  0.75610937699E+02  0.85424910479E+02  0.00000000000E+00 0. -1.
          2    1    1    2  501    0 -0.21642880079E+02 -0.13452426316E+02 -0.10009600405E+03  0.10328887674E+03  0.00000000000E+00 0. -1.
<scales pt_clust_5="13000.00000" pt_clust_6="13000.00000" pt_clust_7="13000.00000" pt_clust_8="13000.00000" pt_clust_9="25.48298"></scales>
<clustering>
<clus scale="   25.483">  2  9  1 -1</clus>
<clus scale="   81.136">  5  6 -1 -1</clus>
<clus scale="   91.756">  7  8 -1 -1</clus>
<clus scale="  100.227">  1  5  2 -1</clus>
<clus scale="   25.483">  2  5  1 -1</clus>
</clustering>
</event>
<event>
 9    1  0.4664604E-005  0.1022746E+03  0.7546771E-02  0.1280322E+00
         21   -1    0    0  501  502  0.00000000000E+00  0.00000000000E+00  0.10400790002E+03  0.10400790002E+03  0.00000000000E+00 0. -1.
          1   -1    0    0  502    0 -0.00000000000E+00 -0.00000000000E+00 -0.27731004119E+03  0.27731004119E+03  0.00000000000E+00 0. -1.
        -24    2    1    2    0    0 -0.32780197063E+00  0.48455609185E+02 -0.14610789746E+03  0.17366383172E+03  0.80396238919E+02 0.  0.
         23    2    1    2    0    0 -0.72486759325E+02 -0.34367000646E+02  0.15713258715E+02  0.12197153839E+03  0.90524740628E+02 0.  0.
         11    1    3    3    0    0 -0.12740501023E+02  0.56324787865E+02 -0.14797957913E+03  0.15884822295E+03  0.00000000000E+00 0. -1.
        -12    1    3    3    0    0  0.12412699052E+02 -0.78691786796E+01  0.18716816765E+01  0.14815608767E+02  0.00000000000E+00 0.  1.
        -13    1    4    4    0    0 -0.31235678431E+02 -0.30019641179E+02 -0.35540857075E+02  0.56035693849E+02  0.00000000000E+00 0.  1.
         13    1    4    4    0    0 -0.41251080893E+02 -0.43473594674E+01  0.51254115790E+02  0.65935844536E+02  0.00000000000E+00 0. -1.
          2    1    1    2  501    0  0.72814561295E+02 -0.14088608539E+02 -0.42907502425E+02  0.85682571107E+02  0.00000000000E+00 0. -1.
<scales pt_clust_5="13000.00000" pt_clust_6="13000.00000" pt_clust_7="13000.00000" pt_clust_8="13000.00000" pt_clust_9="74.16505"></scales>
<clustering>
<clus scale="   74.165">  1  9  2 -1</clus>
<clus scale="   80.396">  5  6 -1 -1</clus>
<clus scale="   90.525">  7  8 -1 -1</clus>
<clus scale="   93.429">  2  5  1 -1</clus>
<clus scale="   74.165">  1  5  2 -1</clus>
</clustering>
</event>
<event>
 9    1  0.4664604E-005  0.1392474E+03  0.7546771E-02  0.1239836E+00
         -4   -1    0    0    0  501 -0.00000000000E+00  0.00000000000E+00  0.79601201829E+03  0.79601201829E+03  0.00000000000E+00 0.  1.
         21   -1    0    0  501  502  0.00000000000E+00 -0.00000000000E+00 -0.50906623156E+02  0.50906623156E+02  0.00000000000E+00 0. -1.
        -24    2    1    2    0    0  0.21832079603E+01  0.75044421174E+01  0.47817179301E+03  0.48515971207E+03  0.81673738329E+02 0.  0.
         23    2    1    2    0    0 -0.50670376417E+02 -0.96588881242E+02  0.15950690222E+03  0.21401747057E+03  0.92000689282E+02 0.  0.
         11    1    3    3    0    0 -0.75015579435E+00 -0.31926341189E+02  0.10118219245E+03  0.10610226229E+03  0.00000000000E+00 0. -1.
        -12    1    3    3    0    0  0.29333637547E+01  0.39430783306E+02  0.37698960056E+03  0.37905744977E+03  0.00000000000E+00 0.  1.
        -13    1    4    4    0    0 -0.73120438849E+02 -0.85691510018E+02  0.10467636669E+03  0.15377507994E+03  0.00000000000E+00 0. -1.
         13    1    4    4    0    0  0.22450062432E+02 -0.10897371224E+02  0.54830535527E+02  0.60242390631E+02  0.00000000000E+00 0.  1.
         -3    1    1    2    0  502  0.48487168456E+02  0.89084439124E+02  0.10742669991E+03  0.14774145881E+03  0.00000000000E+00 0.  1.
<scales pt_clust_5="13000.00000" pt_clust_6="13000.00000" pt_clust_7="13000.00000" pt_clust_8="13000.00000" pt_clust_9="104.52611"></scales>
<clustering>
<clus scale="   81.674">  5  6 -1 -1</clus>
<clus scale="   82.047">  1  5  2 -1</clus>
<clus scale="   92.001">  7  8 -1 -1</clus>
<clus scale="  104.526">  2  9  1 -1</clus>
<clus scale="  104.526">  2  5  1 -1</clus>
</clustering>
</event>
<event>
 9    1  0.4664604E-005  0.6019049E+03  0.7546771E-02  0.9901826E-01
          1   -1    0    0  502    0 -0.00000000000E+00  0.00000000000E+00  0.27572093214E+04  0.27572093214E+04  0.00000000000E+00 0. -1.
         21   -1    0    0  501  502  0.00000000000E+00 -0.00000000000E+00 -0.20619220970E+03  0.20619220970E+03  0.00000000000E+00 0.  1.
         23    2    1    2    0    0  0.23930023389E+03  0.56069285378E+03  0.18361937064E+04  0.19366690144E+04  0.86246541612E+02 0.  0.
        -24    2    1    2    0    0 -0.22008220578E+03 -0.52490757393E+03  0.76828376329E+03  0.95959140609E+03  0.81188590517E+02 0.  0.
         13    1    4    4    0    0 -0.12393354643E+03 -0.19294246658E+03  0.30971782168E+03  0.38537183136E+03  0.00000000000E+00 0. -1.
        -14    1    4    4    0    0 -0.96148659351E+02 -0.33196510735E+03  0.45856594161E+03  0.57421957473E+03  0.00000000000E+00 0.  1.
        -11    1    3    3    0    0  0.22583441343E+03  0.48489743764E+03  0.16685584159E+04  0.17522025838E+04  0.00000000000E+00 0.  1.
         11    1    3    3    0    0  0.13465820454E+02  0.75795416142E+02  0.16763529044E+03  0.18446643063E+03  0.00000000000E+00 0. -1.
          2    1    1    2  501    0 -0.19218028108E+02 -0.35785279849E+02 -0.53460357955E+02  0.67141110588E+02  0.00000000000E+00 0. -1.
<scales pt_clust_5="13000.00000" pt_clust_6="13000.00000" pt_clust_7="13000.00000" pt_clust_8="13000.00000" pt_clust_9="40.61919"></scales>
<clustering>
<clus scale="   40.619">  2  9  1 -1</clus>
<clus scale="   81.189">  5  6 -1 -1</clus>
<clus scale="   86.247">  7  8 -1 -1</clus>
<clus scale="  601.201">  2  5  1 -1</clus>
<clus scale="   40.619">  2  5  1 -1</clus>
</clustering>
</event>
<event>
 9    1  0.4664604E-005  0.1759606E+03  0.7546771E-02  0.1173380E+00
         21   -1    0    0  501  502  0.00000000000E+00  0.00000000000E+00  0.13331798540E+04  0.13331798540E+04  0.00000000000E+00 0.  1.
         -4   -1    0    0    0  501 -0.00000000000E+00 -0.00000000000E+00 -0.26607169542E+02  0.26607169542E+02  0.00000000000E+00 0.  1.
         23    2    1    2    0    0  0.14622886386E+03 -0.35392114537E+01  0.52977503879E+03  0.55781728336E+03  0.95410288992E+02 0.  0.
        -24    2    1    2    0    0 -0.14839111747E+03  0.24616816804E+02  0.60729081539E+03  0.63114378694E+03  0.83153075294E+02 0.  0.
         11    1    4    4    0    0 -0.10441364587E+03  0.11029219997E+01  0.25829775668E+03  0.27860573754E+03  0.00000000000E+00 0. -1.
        -12    1    4    4    0    0 -0.43977471606E+02  0.23513894804E+02  0.34899305870E+03  0.35253804941E+03  0.00000000000E+00 0.  1.
        -13    1    3    3    0    0  0.30974968156E+02  0.36762829692E+02  0.98701081613E+02  0.10978550820E+03  0.00000000000E+00 0.  1.
         13    1    3    3    0    0  0.11525389570E+03 -0.40302041146E+02  0.43107395718E+03  0.44803177516E+03  0.00000000000E+00 0. -1.
         -3    1    1    2    0  502  0.21622536153E+01 -0.21077605350E+02  0.16950683027E+03  0.17082595323E+03  0.00000000000E+00 0.  1.
<scales pt_clust_5="13000.00000" pt_clust_6="13000.00000" pt_clust_7="13000.00000" pt_clust_8="13000.00000" pt_clust_9="21.18822"></scales>
<clustering>
<clus scale="   21.188">  1  9  2 -1</clus>
<clus scale="   83.153">  5  6 -1 -1</clus>
<clus scale="   95.410">  7  8 -1 -1</clus>
<clus scale="  169.627">  1  5  2 -1</clus>
<clus scale="   21.188">  1  5  2 -1</clus>
</clustering>
</event>
<event>
 9    1  0.4664604E-005  0.8985862E+02  0.7546771E-02  0.1304079E+00
         21   -1    0    0  501  502  0.00000000000E+00  0.00000000000E+00  0.17084301226E+02  0.17084301226E+02  0.00000000000E+00 0. -1.
         -2   -1    0    0    0  501 -0.00000000000E+00 -0.00000000000E+00 -0.79029181424E+03  0.79029181424E+03  0.00000000000E+00 0.  1.
        -24    2    1    2    0    0  0.11891407296E+02 -0.48847136311E+02 -0.52016733849E+03  0.52881831106E+03  0.80915374246E+02 0.  0.
         23    2    1    2    0    0  0.36520015630E+01  0.19175398741E+02 -0.19716017899E+03  0.21340733648E+03  0.79306507007E+02 0.  0.
         13    1    3    3    0    0  0.32684143661E+02  0.33238713370E+01 -0.10930783017E+03  0.11413808787E+03  0.00000000000E+00 0. -1.
        -14    1    3    3    0    0 -0.20792736365E+02 -0.52171007648E+02 -0.41085950832E+03  0.41468022319E+03  0.00000000000E+00 0.  1.
        -13    1    4    4    0    0  0.21879027844E+01 -0.31200078698E+02 -0.75573531555E+02  0.81789916867E+02  0.00000000000E+00 0.  1.
         13    1    4    4    0    0  0.14640987787E+01  0.50375477438E+02 -0.12158664744E+03  0.13161741962E+03  0.00000000000E+00 0. -1.
         -1    1    1    2    0  502 -0.15543408859E+02  0.29671737571E+02 -0.55879995541E+02  0.65150467927E+02  0.00000000000E+00 0.  1.
<scales pt_clust_5="13000.00000" pt_clust_6="13000.00000" pt_clust_7="13000.00000" pt_clust_8="13000.00000" pt_clust_9="33.49641"></scales>
<clustering>
<clus scale="   33.496">  1  9  2 -1</clus>
<clus scale="   79.307">  7  8 -1 -1</clus>
<clus scale="   80.915">  5  6 -1 -1</clus>
<clus scale="   88.413">  1  7  2 -1</clus>
<clus scale="   33.496">  1  5  2 -1</clus>
</clustering>
</event>
<event>
 9    1  0.4664604E-005  0.1273640E+03  0.7546771E-02  0.1233104E+00
          1   -1    0    0  502    0 -0.00000000000E+00  0.00000000000E+00  0.72686910687E+03  0.72686910687E+03  0.00000000000E+00 0. -1.
         21   -1    0    0  501  502  0.00000000000E+00 -0.00000000000E+00 -0.58183422395E+02  0.58183422395E+02  0.00000000000E+00 0. -1.
         23    2    1    2    0    0 -0.74560653960E+02 -0.36419108954E+02  0.36191515393E+03  0.38090827474E+03  0.84987602060E+02 0.  0.
        -24    2    1    2    0    0  0.15020447858E+03 -0.17062613950E+02  0.19106458222E+03  0.25592094540E+03  0.78341161195E+02 0.  0.
         11    1    4    4    0    0  0.13495416922E+03 -0.27387910909E+02  0.12047069537E+03  0.18296424213E+03  0.00000000000E+00 0. -1.
        -12    1    4    4    0    0  0.15250309360E+02  0.10325296959E+02  0.70593886843E+02  0.72956703273E+02  0.00000000000E+00 0.  1.
        -13    1    3    3    0    0 -0.12284205310E+02  0.24913226802E+02  0.13308000844E+03  0.13594800188E+03  0.00000000000E+00 0.  1.
         13    1    3    3    0    0 -0.62276448649E+02 -0.61332335756E+02  0.22883514549E+03  0.24496027286E+03  0.00000000000E+00 0. -1.
          2    1    1    2  501    0 -0.75643824623E+02  0.53481722904E+02  0.11570594833E+03  0.14822330912E+03  0.00000000000E+00 0. -1.
<scales pt_clust_5="13000.00000" pt_clust_6="13000.00000" pt_clust_7="13000.00000" pt_clust_8="13000.00000" pt_clust_9="92.64061"></scales>
<clustering>
<clus scale="   78.341">  5  6 -1 -1</clus>
<clus scale="   84.988">  7  8 -1 -1</clus>
<clus scale="   92.641">  2  9  1 -1</clus>
<clus scale="  123.029">  2  5  1 -1</clus>
<clus scale="   92.641">  2  5  1 -1</clus>
</clustering>
</event>
<event>
 9    1  0.4664604E-005  0.1177883E+03  0.7546771E-02  0.1252846E+00
          1   -1    0    0  502    0 -0.00000000000E+00  0.00000000000E+00  0.31611800666E+03  0.31611800666E+03  0.00000000000E+00 0. -1.
         21   -1    0    0  501  502  0.00000000000E+00 -0.00000000000E+00 -0.10398952785E+03  0.10398952785E+03  0.00000000000E+00 0.  1.
         23    2    1    2    0    0 -0.25546008426E+02  0.43575753036E+02  0.42729863603E+02  0.11675167945E+03  0.96195990621E+02 0.  0.
        -24    2    1    2    0    0 -0.25158434820E+02 -0.10492682874E+03  0.21719680635E+02  0.13559423022E+03  0.79192578632E+02 0.  0.
         11    1    4    4    0    0 -0.60237095669E+01 -0.39713308442E+02  0.48122143789E+02  0.62683113094E+02  0.00000000000E+00 0. -1.
        -12    1    4    4    0    0 -0.19134725253E+02 -0.65213520295E+02 -0.26402463153E+02  0.72911117124E+02  0.00000000000E+00 0.  1.
        -11    1    3    3    0    0 -0.17660507033E+02  0.74579224112E+02  0.29147062556E+02  0.81996984295E+02  0.00000000000E+00 0.  1.
         11    1    3    3    0    0 -0.78855013926E+01 -0.31003471076E+02  0.13582801048E+02  0.34754695155E+02  0.00000000000E+00 0. -1.
          2    1    1    2  501    0  0.50704443246E+02  0.61351075701E+02  0.14767893457E+03  0.16776162484E+03  0.00000000000E+00 0. -1.
<scales pt_clust_5="13000.00000" pt_clust_6="13000.00000" pt_clust_7="13000.00000" pt_clust_8="13000.00000" pt_clust_9="79.59209"></scales>
<clustering>
<clus scale="   79.193">  5  6 -1 -1</clus>
<clus scale="   79.592">  2  9  1 -1</clus>
<clus scale="   96.196">  7  8 -1 -1</clus>
<clus scale="  104.364">  2  5  1 -1</clus>
<clus scale="   79.592">  2  5  1 -1</clus>
</clustering>
</event>
<event>
 9    1  0.4664604E-005  0.1010245E+03  0.7546771E-02  0.1283231E+00
         21   -1    0    0  501  502  0.00000000000E+00  0.00000000000E+00  0.48194251755E+02  0.48194251755E+02  0.00000000000E+00 0. -1.
          1   -1    0    0  502    0 -0.00000000000E+00 -0.00000000000E+00 -0.36848022523E+03  0.36848022523E+03  0.00000000000E+00 0. -1.
         23    2    1    2    0    0  0.33229552045E+02  0.20170649220E+02 -0.24725193377E+03  0.26650845031E+03  0.91554230467E+02 0.  0.
        -24    2    1    2    0    0 -0.33549753157E+02 -0.48870296294E+02 -0.45322446933E+02  0.11026985336E+03  0.81187588755E+02 0.  0.
         13    1    4    4    0    0 -0.36950515956E+02 -0.50298062015E+02 -0.65080533542E+02  0.90170458122E+02  0.00000000000E+00 0. -1.
        -14    1    4    4    0    0  0.34007627987E+01  0.14277657218E+01  0.19758086609E+02  0.20099395240E+02  0.00000000000E+00 0.  1.
        -13    1    3    3    0    0  0.44871051557E+02 -0.25669343009E+02 -0.11607244146E+03  0.12706351996E+03  0.00000000000E+00 0.  1.
         13    1    3    3    0    0 -0.11641499512E+02  0.45839992229E+02 -0.13117949230E+03  0.13944493035E+03  0.00000000000E+00 0. -1.
          2    1    1    2  501    0  0.32020111180E+00  0.28699647074E+02 -0.27711592779E+02  0.39896173316E+02  0.00000000000E+00 0. -1.
<scales pt_clust_5="13000.00000" pt_clust_6="13000.00000" pt_clust_7="13000.00000" pt_clust_8="13000.00000" pt_clust_9="28.70143"></scales>
<clustering>
<clus scale="   28.701">  1  9  2 -1</clus>
<clus scale="   81.188">  5  6 -1 -1</clus>
<clus scale="   91.554">  7  8 -1 -1</clus>
<clus scale="   91.734">  1  5  2 -1</clus>
<clus scale="   28.701">  1  5  2 -1</clus>
</clustering>
</event>
<event>
 9    1  0.4664604E-005  0.1328927E+03  0.7546771E-02  0.1237465E+00
         21   -1    0    0  501  502  0.00000000000E+00  0.00000000000E+00  0.10393933245E+03  0.10393933245E+03  0.00000000000E+00 0. -1.
          1   -1    0    0  502    0 -0.00000000000E+00 -0.00000000000E+00 -0.36278213971E+03  0.36278213971E+03  0.00000000000E+00 0. -1.
         23    2    1    2    0    0 -0.93669568298E+01  0.40340743683E+02 -0.18017032664E+03  0.20560480819E+03  0.89982637588E+02 0.  0.
        -24    2    1    2    0    0 -0.11210376171E+02  0.77869996460E+02 -0.85377323622E+02  0.14094112304E+03  0.79910599373E+02 0.  0.
         11    1    4    4    0    0  0.16447967608E+02  0.15154873840E+02  0.91614167209E+01  0.24168934521E+02  0.00000000000E+00 0. -1.
        -12    1    4    4    0    0 -0.27658343778E+02  0.62715122621E+02 -0.94538740343E+02  0.11677218852E+03  0.00000000000E+00 0.  1.
        -13    1    3    3    0    0 -0.10918352060E+02 -0.28016082869E+02 -0.44936023688E+02  0.54068082414E+02  0.00000000000E+00 0.  1.
         13    1    3    3    0    0  0.15513952301E+01  0.68356826552E+02 -0.13523430295E+03  0.15153672577E+03  0.00000000000E+00 0. -1.
          2    1    1    2  501    0  0.20577333000E+02 -0.11821074014E+03  0.67048430081E+01  0.12017554093E+03  0.00000000000E+00 0. -1.
<scales pt_clust_5="13000.00000" pt_clust_6="13000.00000" pt_clust_7="13000.00000" pt_clust_8="13000.00000" pt_clust_9="106.18273"></scales>
<clustering>
<clus scale="   79.911">  5  6 -1 -1</clus>
<clus scale="   89.983">  7  8 -1 -1</clus>
<clus scale="   99.055">  2  7  1 -1</clus>
<clus scale="  106.183">  1  9  2 -1</clus>
<clus scale="  106.183">  1  5  2 -1</clus>
</clustering>
</event>
<event>
 9    1  0.4664604E-005  0.1203662E+03  0.7546771E-02  0.1244250E+00
          1   -1    0    0  502    0 -0.00000000000E+00  0.00000000000E+00  0.72751037822E+03  0.72751037822E+03  0.00000000000E+00 0. -1.
         21   -1    0    0  501  502  0.00000000000E+00 -0.00000000000E+00 -0.32393229482E+02  0.32393229482E+02  0.00000000000E+00 0. -1.
         23    2    1    2    0    0  0.95303350365E+02 -0.25580007013E+02  0.42164977020E+03  0.44152404121E+03  0.86127143831E+02 0.  0.
        -24    2    1    2    0    0 -0.45849674424E+02  0.45546146249E+02  0.13350769189E+03  0.16860297732E+03  0.80162435608E+02 0.  0.
         11    1    4    4    0    0 -0.23221846308E+02 -0.21827616289E+02  0.39558137303E+02  0.50799066977E+02  0.00000000000E+00 0. -1.
        -12    1    4    4    0    0 -0.22627828116E+02  0.67373762538E+02  0.93949554590E+02  0.11780391034E+03  0.00000000000E+00 0.  1.
        -13    1    3    3    0    0 -0.69042055210E+01 -0.27110362908E+02  0.11188057659E+03  0.11532520648E+03  0.00000000000E+00 0.  1.
         13    1    3    3    0    0  0.10220755589E+03  0.15303558949E+01  0.30976919361E+03  0.32619883473E+03  0.00000000000E+00 0. -1.
          2    1    1    2  501    0 -0.49453675941E+02 -0.19966139236E+02  0.13995968664E+03  0.14977658918E+03  0.00000000000E+00 0. -1.
<scales pt_clust_5="13000.00000" pt_clust_6="13000.00000" pt_clust_7="13000.00000" pt_clust_8="13000.00000" pt_clust_9="53.33213"></scales>
<clustering>
<clus scale="   53.332">  2  9  1 -1</clus>
<clus scale="   80.162">  5  6 -1 -1</clus>
<clus scale="   86.127">  7  8 -1 -1</clus>
<clus scale="  116.173">  2  5  1 -1</clus>
<clus scale="   53.332">  2  5  1 -1</clus>
</clustering>
</event>
<event>
 9    1  0.4664604E-005  0.1363094E+03  0.7546771E-02  0.1221867E+00
          1   -1    0    0  502    0 -0.00000000000E+00  0.00000000000E+00  0.35160429851E+03  0.35160429851E+03  0.00000000000E+00 0. -1.
         21   -1    0    0  501  502  0.00000000000E+00 -0.00000000000E+00 -0.77698333796E+02  0.77698333796E+02  0.00000000000E+00 0. -1.
         23    2    1    2    0    0 -0.70592171036E+02  0.66266630773E+02  0.15885291037E+03  0.20822106809E+03  0.93526707953E+02 0.  0.
        -24    2    1    2    0    0  0.97965824032E+02 -0.44329800919E+02  0.41603119489E+02  0.13968479331E+03  0.78858024345E+02 0.  0.
         13    1    4    4    0    0  0.88542704498E+02 -0.62156790756E+02  0.48249041817E+02  0.11845356556E+03  0.00000000000E+00 0. -1.
        -14    1    4    4    0    0  0.94231195343E+01  0.17826989837E+02 -0.66459223283E+01  0.21231227755E+02  0.00000000000E+00 0.  1.
        -13    1    3    3    0    0 -0.17284487529E+02  0.13850538335E+02  0.12359409841E+03  0.12556310001E+03  0.00000000000E+00 0.  1.
         13    1    3    3    0    0 -0.53307683507E+02  0.52416092438E+02  0.35258811951E+02  0.82657968082E+02  0.00000000000E+00 0. -1.
          2    1    1    2  501    0 -0.27373652996E+02 -0.21936829853E+02  0.73449934861E+02  0.81396770903E+02  0.00000000000E+00 0. -1.
<scales pt_clust_5="13000.00000" pt_clust_6="13000.00000" pt_clust_7="13000.00000" pt_clust_8="13000.00000" pt_clust_9="35.07909"></scales>
<clustering>
<clus scale="   35.079">  2  9  1 -1</clus>
<clus scale="   78.858">  5  6 -1 -1</clus>
<clus scale="   93.527">  7  8 -1 -1</clus>
<clus scale="  126.695">  2  5  1 -1</clus>
<clus scale="   35.079">  2  5  1 -1</clus>
</clustering>
</event>
<event>
 9    1  0.4664604E-005  0.2613935E+03  0.7546771E-02  0.1106623E+00
          1   -1    0    0  502    0 -0.00000000000E+00  0.00000000000E+00  0.19604099599E+04  0.19604099599E+04  0.00000000000E+00 0. -1.
         21   -1    0    0  501  502  0.00000000000E+00 -0.00000000000E+00 -0.49053307688E+02  0.49053307688E+02  0.00000000000E+00 0. -1.
        -24    2    1    2    0    0 -0.14009796658E+03 -0.15803113982E+03  0.69687383133E+03  0.73276916915E+03  0.81952651343E+02 0.  0.
         23    2    1    2    0    0  0.21485399502E+03  0.20112991126E+03  0.93608213019E+03  0.98522726935E+03  0.88360270570E+02 0.  0.
         11    1    3    3    0    0 -0.20776085492E+01 -0.34117417206E+02  0.56129931849E+02  0.65718215613E+02  0.00000000000E+00 0. -1.
        -12    1    3    3    0    0 -0.13802035803E+03 -0.12391372262E+03  0.64074389948E+03  0.66705095353E+03  0.00000000000E+00 0.  1.
        -11    1    4    4    0    0  0.16968742519E+03  0.10379299538E+03  0.64618120379E+03  0.67610424958E+03  0.00000000000E+00 0.  1.
         11    1    4    4    0    0  0.45166569822E+02  0.97336915889E+02  0.28990092640E+03  0.30912301977E+03  0.00000000000E+00 0. -1.
          2    1    1    2  501    0 -0.74756028438E+02 -0.43098771443E+02  0.27840069065E+03  0.29146682906E+03  0.00000000000E+00 0. -1.
<scales pt_clust_5="13000.00000" pt_clust_6="13000.00000" pt_clust_7="13000.00000" pt_clust_8="13000.00000" pt_clust_9="86.29007"></scales>
<clustering>
<clus scale="   81.953">  5  6 -1 -1</clus>
<clus scale="   86.290">  2  9  1 -1</clus>
<clus scale="   88.360">  7  8 -1 -1</clus>
<clus scale="  259.298">  1  5  2 -1</clus>
<clus scale="   86.290">  2  5  1 -1</clus>
</clustering>
</event>
<event>
 9    1  0.4664604E-005  0.1388069E+03  0.7546771E-02  0.1217224E+00
         -4   -1    0    0    0  501 -0.00000000000E+00  0.00000000000E+00  0.14946155280E+03  0.14946155280E+03  0.00000000000E+00 0.  1.
         21   -1    0    0  501  502  0.00000000000E+00 -0.00000000000E+00 -0.23161475093E+03  0.23161475093E+03  0.00000000000E+00 0. -1.
        -24    2    1    2    0    0 -0.75807954031E+02 -0.72327512385E+02 -0.75703596510E+01  0.13235013911E+03  0.80505490715E+02 0.  0.
         23    2    1    2    0    0  0.60974367416E+02  0.87765137648E+02 -0.12880646018E+03  0.19042902304E+03  0.90837854252E+02 0.  0.
         13    1    3    3    0    0 -0.34823035296E+02 -0.47189955772E+02 -0.42919004921E+02  0.72674456974E+02  0.00000000000E+00 0. -1.
        -14    1    3    3    0    0 -0.40984918735E+02 -0.25137556612E+02  0.35348645270E+02  0.59675682138E+02  0.00000000000E+00 0.  1.
        -11    1    4    4    0    0  0.47008362838E+01  0.41600135337E+02 -0.10629229021E+03  0.11423974825E+03  0.00000000000E+00 0. -1.
         11    1    4    4    0    0  0.56273531132E+02  0.46165002311E+02 -0.22514169971E+02  0.76189274796E+02  0.00000000000E+00 0.  1.
         -3    1    1    2    0  502  0.14833586615E+02 -0.15437625264E+02  0.54223621703E+02  0.58297141579E+02  0.00000000000E+00 0.  1.
<scales pt_clust_5="13000.00000" pt_clust_6="13000.00000" pt_clust_7="13000.00000" pt_clust_8="13000.00000" pt_clust_9="21.40925"></scales>
<clustering>
<clus scale="   21.409">  2  9  1 -1</clus>
<clus scale="   80.505">  5  6 -1 -1</clus>
<clus scale="   90.838">  7  8 -1 -1</clus>
<clus scale="  132.276">  1  5  2 -1</clus>
<clus scale="   21.409">  2  5  1 -1</clus>
</clustering>
</event>
<event>
 9    1  0.4664604E-005  0.1695003E+03  0.7546771E-02  0.1180413E+00
          1   -1    0    0  502    0 -0.00000000000E+00  0.00000000000E+00  0.75047918587E+03  0.75047918587E+03  0.00000000000E+00 0. -1.
         21   -1    0    0  501  502  0.00000000000E+00 -0.00000000000E+00 -0.52713263331E+02  0.52713263331E+02  0.00000000000E+00 0. -1.
         23    2    1    2    0    0  0.12988794338E+03  0.53713333063E+02  0.48308029109E+03  0.51124613665E+03  0.90829756231E+02 0.  0.
        -24    2    1    2    0    0 -0.12813666976E+03 -0.77145990771E+02  0.20873633248E+03  0.26770687021E+03  0.75667706658E+02 0.  0.
         13    1    4    4    0    0 -0.22879794139E+02 -0.54823568569E+02  0.85441773877E+02  0.10406442896E+03  0.00000000000E+00 0. -1.
        -14    1    4    4    0    0 -0.10525687562E+03 -0.22322422202E+02  0.12329455860E+03  0.16364244126E+03  0.00000000000E+00 0.  1.
        -11    1    3    3    0    0  0.18413394243E+02  0.51845169988E+02  0.18454919596E+03  0.19257564869E+03  0.00000000000E+00 0. -1.
         11    1    3    3    0    0  0.11147454913E+03  0.18681630744E+01  0.29853109513E+03  0.31867048797E+03  0.00000000000E+00 0.  1.
          2    1    1    2  501    0 -0.17512736125E+01  0.23432657708E+02  0.59492989614E+01  0.24239442334E+02  0.00000000000E+00 0. -1.
<scales pt_clust_5="13000.00000" pt_clust_6="13000.00000" pt_clust_7="13000.00000" pt_clust_8="13000.00000" pt_clust_9="23.49801"></scales>
<clustering>
<clus scale="   23.498">  2  9  1 -1</clus>
<clus scale="   75.668">  5  6 -1 -1</clus>
<clus scale="   90.830">  7  8 -1 -1</clus>
<clus scale="  161.882">  2  5  1 -1</clus>
<clus scale="   23.498">  2  5  1 -1</clus>
</clustering>
</event>
<event>
 9    1  0.4664604E-005  0.1472933E+03  0.7546771E-02  0.1219395E+00
          1   -1    0    0  502    0 -0.00000000000E+00  0.00000000000E+00  0.37294859748E+03  0.37294859748E+03  0.00000000000E+00 0. -1.
         21   -1    0    0  501  502  0.00000000000E+00 -0.00000000000E+00 -0.13093269755E+03  0.13093269755E+03  0.00000000000E+00 0. -1.
         23    2    1    2    0    0 -0.42693409852E+02  0.26951430039E+02  0.11081480634E+03  0.15318155166E+03  0.92927711898E+02 0.  0.
        -24    2    1    2    0    0 -0.74196612035E+02 -0.81620102976E+02  0.16828241370E+03  0.21643520852E+03  0.79738637311E+02 0.  0.
         11    1    4    4    0    0 -0.61355001870E+02 -0.34422459935E+02  0.14724745334E+03  0.16319054665E+03  0.00000000000E+00 0. -1.
        -12    1    4    4    0    0 -0.12841610166E+02 -0.47197643041E+02  0.21034960364E+02  0.53244661871E+02  0.00000000000E+00 0.  1.
        -11    1    3    3    0    0 -0.31401240590E+01 -0.26211478682E+02  0.29147033817E+01  0.26559320202E+02  0.00000000000E+00 0.  1.
         11    1    3    3    0    0 -0.39553285793E+02  0.53162908721E+02  0.10790010296E+03  0.12662223146E+03  0.00000000000E+00 0. -1.
          2    1    1    2  501    0  0.11689002189E+03  0.54668672937E+02 -0.37081320104E+02  0.13426453485E+03  0.00000000000E+00 0. -1.
<scales pt_clust_5="13000.00000" pt_clust_6="13000.00000" pt_clust_7="13000.00000" pt_clust_8="13000.00000" pt_clust_9="123.84295"></scales>
<clustering>
<clus scale="   79.739">  5  6 -1 -1</clus>
<clus scale="   92.928">  7  8 -1 -1</clus>
<clus scale="  105.758">  1  7  2 -1</clus>
<clus scale="  123.843">  2  9  1 -1</clus>
<clus scale="  123.843">  2  5  1 -1</clus>
</clustering>
</event>
<event>
 9    1  0.4664604E-005  0.9930544E+02  0.7546771E-02  0.1286602E+00
          3   -1    0    0  502    0 -0.00000000000E+00  0.00000000000E+00  0.91720111518E+02  0.91720111518E+02  0.00000000000E+00 0. -1.
         21   -1    0    0  501  502  0.00000000000E+00 -0.00000000000E+00 -0.17376433820E+03  0.17376433820E+03  0.00000000000E+00 0. -1.
         23    2    1    2    0    0 -0.56460507682E+02 -0.33666034528E+01 -0.47385969756E+02  0.11645943354E+03  0.90101312892E+02 0.  0.
        -24    2    1    2    0    0  0.21408089828E+02  0.28547887510E+02 -0.52339965282E+02  0.10238370536E+03  0.80434215149E+02 0.  0.
         13    1    4    4    0    0  0.27569716331E+02 -0.60955097192E+01 -0.60054349298E+02  0.66360902397E+02  0.00000000000E+00 0. -1.
        -14    1    4    4    0    0 -0.61616265027E+01  0.34643397229E+02  0.77143840159E+01  0.36022802966E+02  0.00000000000E+00 0.  1.
        -13    1    3    3    0    0 -0.68368490323E+02  0.22754221998E+02 -0.49892924258E+02  0.87643077187E+02  0.00000000000E+00 0. -1.
         13    1    3    3    0    0  0.11907982641E+02 -0.26120825450E+02  0.25069545016E+01  0.28816356356E+02  0.00000000000E+00 0.  1.
          4    1    1    2  501    0  0.35052417854E+02 -0.25181284057E+02  0.17681708354E+02  0.46641310815E+02  0.00000000000E+00 0. -1.
<scales pt_clust_5="13000.00000" pt_clust_6="13000.00000" pt_clust_7="13000.00000" pt_clust_8="13000.00000" pt_clust_9="43.15983"></scales>
<clustering>
<clus scale="   43.160">  2  9  1 -1</clus>
<clus scale="   80.434">  5  6 -1 -1</clus>
<clus scale="   90.101">  7  8 -1 -1</clus>
<clus scale="   90.626">  2  5  1 -1</clus>
<clus scale="   43.160">  2  5  1 -1</clus>
</clustering>
</event>
<event>
 9    1  0.4664604E-005  0.1378030E+03  0.7546771E-02  0.1218289E+00
         -2   -1    0    0    0  501 -0.00000000000E+00  0.00000000000E+00  0.36102114669E+03  0.36102114669E+03  0.00000000000E+00 0.  1.
         21   -1    0    0  501  502  0.00000000000E+00 -0.00000000000E+00 -0.24012477198E+03  0.24012477198E+03  0.00000000000E+00 0. -1.
        -24    2    1    2    0    0 -0.23950487449E+02  0.10038329369E+03  0.29771011638E+03  0.32543047095E+03  0.81383330744E+02 0.  0.
         23    2    1    2    0    0  0.76633120013E+01 -0.11273571103E+03 -0.59046194719E+02  0.15618700168E+03  0.90221169851E+02 0.  0.
         13    1    3    3    0    0  0.29889011822E+02  0.46220832694E+02  0.12730381199E+03  0.13869383169E+03  0.00000000000E+00 0. -1.
        -14    1    3    3    0    0 -0.53839499271E+02  0.54162460999E+02  0.17040630440E+03  0.18673663926E+03  0.00000000000E+00 0.  1.
        -13    1    4    4    0    0  0.30377769407E+02 -0.91422438319E+02 -0.74150807311E+02  0.12156978789E+03  0.00000000000E+00 0. -1.
         13    1    4    4    0    0 -0.22714457406E+02 -0.21313272713E+02  0.15104612591E+02  0.34617213789E+02  0.00000000000E+00 0.  1.
         -1    1    1    2    0  502  0.16287175448E+02  0.12352417339E+02 -0.11776754696E+03  0.11952844605E+03  0.00000000000E+00 0.  1.
<scales pt_clust_5="13000.00000" pt_clust_6="13000.00000" pt_clust_7="13000.00000" pt_clust_8="13000.00000" pt_clust_9="20.44148"></scales>
<clustering>
<clus scale="   20.441">  2  9  1 -1</clus>
<clus scale="   81.383">  5  6 -1 -1</clus>
<clus scale="   90.221">  7  8 -1 -1</clus>
<clus scale="  132.186">  1  5  2 -1</clus>
<clus scale="   20.441">  2  5  1 -1</clus>
</clustering>
</event>
<event>
 9    1  0.4664604E-005  0.1411170E+03  0.7546771E-02  0.1216213E+00
          1   -1    0    0  502    0 -0.00000000000E+00  0.00000000000E+00  0.39619116886E+03  0.39619116886E+03  0.00000000000E+00 0. -1.
         21   -1    0    0  501  502  0.00000000000E+00 -0.00000000000E+00 -0.11623717916E+03  0.11623717916E+03  0.00000000000E+00 0.  1.
         23    2    1    2    0    0 -0.53500335733E+02 -0.11700846902E+03  0.30991918456E+03  0.34726783806E+03  0.89396770879E+02 0.  0.
        -24    2    1    2    0    0  0.17256514164E+02  0.57836820125E+02 -0.36603131827E+01  0.90952387534E+02  0.67941547393E+02 0.  0.
         13    1    4    4    0    0 -0.26311341154E+02  0.22714017587E+02 -0.40031918842E+01  0.34989124217E+02  0.00000000000E+00 0. -1.
        -14    1    4    4    0    0  0.43567855318E+02  0.35122802539E+02  0.34287870159E+00  0.55963263316E+02  0.00000000000E+00 0.  1.
        -13    1    3    3    0    0  0.77538750594E+01 -0.72271916549E+02  0.96794255471E+02  0.12104743034E+03  0.00000000000E+00 0.  1.
         13    1    3    3    0    0 -0.61254210792E+02 -0.44736552468E+02  0.21312492909E+03  0.22622040772E+03  0.00000000000E+00 0. -1.
          2    1    1    2  501    0  0.36243821569E+02  0.59171648891E+02 -0.26304881676E+02  0.74208122429E+02  0.00000000000E+00 0. -1.
<scales pt_clust_5="13000.00000" pt_clust_6="13000.00000" pt_clust_7="13000.00000" pt_clust_8="13000.00000" pt_clust_9="69.38947"></scales>
<clustering>
<clus scale="   67.942">  5  6 -1 -1</clus>
<clus scale="   69.389">  2  9  1 -1</clus>
<clus scale="   89.397">  7  8 -1 -1</clus>
<clus scale="  128.601">  2  5  1 -1</clus>
<clus scale="   69.389">  2  5  1 -1</clus>
</clustering>
</event>
<event>
 9    1  0.4664604E-005  0.9286524E+02  0.7546771E-02  0.1300283E+00
         21   -1    0    0  501  502  0.00000000000E+00  0.00000000000E+00  0.58092989944E+02  0.58092989944E+02  0.00000000000E+00 0.  1.
         -2   -1    0    0    0  501 -0.00000000000E+00 -0.00000000000E+00 -0.53628499893E+03  0.53628499893E+03  0.00000000000E+00 0.  1.
        -24    2    1    2    0    0 -0.10784086298E+02  0.14854023966E+02 -0.34864722005E+03  0.35856748532E+03  0.81724041363E+02 0.  0.
         23    2    1    2    0    0  0.72201009830E+02 -0.50465663955E+02 -0.72318008823E+02  0.14462315925E+03  0.89029179108E+02 0.  0.
         11    1    3    3    0    0 -0.45468453987E+02  0.84463131527E+01 -0.23740603843E+03  0.24186845102E+03  0.00000000000E+00 0. -1.
        -12    1    3    3    0    0  0.34684367689E+02  0.64077108128E+01 -0.11124118162E+03  0.11669903430E+03  0.00000000000E+00 0.  1.
        -13    1    4    4    0    0  0.80358778565E+02 -0.29191013424E+02 -0.83266731128E+02  0.11934402821E+03  0.00000000000E+00 0.  1.
         13    1    4    4    0    0 -0.81577687350E+01 -0.21274650531E+02  0.10948722305E+02  0.25279131038E+02  0.00000000000E+00 0. -1.
         -1    1    1    2    0  502 -0.61416923532E+02  0.35611639989E+02 -0.57226780116E+02  0.91187344304E+02  0.00000000000E+00 0.  1.
<scales pt_clust_5="13000.00000" pt_clust_6="13000.00000" pt_clust_7="13000.00000" pt_clust_8="13000.00000" pt_clust_9="70.99456"></scales>
<clustering>
<clus scale="   70.995">  1  9  2 -1</clus>
<clus scale="   81.724">  5  6 -1 -1</clus>
<clus scale="   85.887">  2  5  1 -1</clus>
<clus scale="   89.029">  7  8 -1 -1</clus>
<clus scale="   70.995">  1  5  2 -1</clus>
</clustering>
</event>
<event>
 9    1  0.4664604E-005  0.2247031E+03  0.7546771E-02  0.1130424E+00
          1   -1    0    0  502    0 -0.00000000000E+00  0.00000000000E+00  0.98470340138E+03  0.98470340138E+03  0.00000000000E+00 0. -1.
         21   -1    0    0  501  502  0.00000000000E+00 -0.00000000000E+00 -0.33284608770E+02  0.33284608770E+02  0.00000000000E+00 0. -1.
        -24    2    1    2    0    0  0.62267421005E+02  0.22424129773E+02  0.25453772419E+03  0.27533443532E+03  0.81483280010E+02 0.  0.
         23    2    1    2    0    0  0.74860650662E+02 -0.18985990375E+02  0.31946498340E+03  0.34108312015E+03  0.91187907008E+02 0.  0.
         13    1    3    3    0    0  0.59992801834E+02  0.11046574570E+02  0.80958475089E+02  0.10136783400E+03  0.00000000000E+00 0. -1.
        -14    1    3    3    0    0  0.22746191714E+01  0.11377555203E+02  0.17357924910E+03  0.17396660132E+03  0.00000000000E+00 0.  1.
        -11    1    4    4    0    0 -0.14002497519E+02 -0.26790357553E+02  0.85794916473E+02  0.90964613379E+02  0.00000000000E+00 0.  1.
         11    1    4    4    0    0  0.88863148181E+02  0.78043671779E+01  0.23367006692E+03  0.25011850677E+03  0.00000000000E+00 0. -1.
          2    1    1    2  501    0 -0.13712807167E+03 -0.34381393975E+01  0.37741608502E+03  0.40157045468E+03  0.00000000000E+00 0. -1.
<scales pt_clust_5="13000.00000" pt_clust_6="13000.00000" pt_clust_7="13000.00000" pt_clust_8="13000.00000" pt_clust_9="137.17123"></scales>
<clustering>
<clus scale="   81.483">  5  6 -1 -1</clus>
<clus scale="   91.188">  7  8 -1 -1</clus>
<clus scale="   99.529">  5  7 -1 -1</clus>
<clus scale="  137.171">  2  9  1 -1</clus>
<clus scale="  137.171">  2  5  1 -1</clus>
</clustering>
</event>
<event>
 9    1  0.4664604E-005  0.1294511E+03  0.7546771E-02  0.1231431E+00
         21   -1    0    0  501  502  0.00000000000E+00  0.00000000000E+00  0.52657463363E+03  0.52657463363E+03  0.00000000000E+00 0.  1.
          1   -1    0    0  502    0 -0.00000000000E+00 -0.00000000000E+00 -0.53299990628E+02  0.53299990628E+02  0.00000000000E+00 0. -1.
        -24    2    1    2    0    0  0.76921799816E+02  0.54383154939E+02  0.16355932374E+03  0.20508944928E+03  0.80221811207E+02 0.  0.
         23    2    1    2    0    0 -0.37005519987E+02 -0.86941025053E+02  0.29179497084E+03  0.32024653557E+03  0.92116166817E+02 0.  0.
         11    1    3    3    0    0 -0.14278474524E+02  0.19056217915E+02  0.48857085427E+02  0.54350980418E+02  0.00000000000E+00 0. -1.
        -12    1    3    3    0    0  0.91200274340E+02  0.35326937024E+02  0.11470223831E+03  0.15073846886E+03  0.00000000000E+00 0.  1.
        -11    1    4    4    0    0  0.24962063926E+02 -0.37369753887E+01  0.33880608117E+02  0.42248848823E+02  0.00000000000E+00 0. -1.
         11    1    4    4    0    0 -0.61967583914E+02 -0.83204049664E+02  0.25791436273E+03  0.27799768675E+03  0.00000000000E+00 0.  1.
          2    1    1    2  501    0 -0.39916279829E+02  0.32557870114E+02  0.17920348421E+02  0.54538639415E+02  0.00000000000E+00 0. -1.
<scales pt_clust_5="13000.00000" pt_clust_6="13000.00000" pt_clust_7="13000.00000" pt_clust_8="13000.00000" pt_clust_9="51.51045"></scales>
<clustering>
<clus scale="   51.510">  1  9  2 -1</clus>
<clus scale="   80.222">  5  6 -1 -1</clus>
<clus scale="   92.116">  7  8 -1 -1</clus>
<clus scale="  121.275">  2  5  1 -1</clus>
<clus scale="   51.510">  1  5  2 -1</clus>
</clustering>
</event>
<event>
 9    1  0.4664604E-005  0.1223079E+03  0.7546771E-02  0.1242024E+00
         -4   -1    0    0    0  501 -0.00000000000E+00  0.00000000000E+00  0.65534475866E+03  0.65534475866E+03  0.00000000000E+00 0.  1.
         21   -1    0    0  501  502  0.00000000000E+00 -0.00000000000E+00 -0.41583504322E+02  0.41583504322E+02  0.00000000000E+00 0. -1.
         23    2    1    2    0    0 -0.72628225757E+02  0.34981328585E+02  0.36314334685E+03  0.38275867438E+03  0.90180707083E+02 0.  0.
        -24    2    1    2    0    0  0.87267124048E+02 -0.10669274855E+02  0.25838608288E+03  0.28474650499E+03  0.81165386182E+02 0.  0.
         13    1    4    4    0    0  0.91152262753E+02 -0.25167950582E+02  0.16512420124E+03  0.19028442547E+03  0.00000000000E+00 0. -1.
        -14    1    4    4    0    0 -0.38851387052E+01  0.14498675728E+02  0.93261881642E+02  0.94462079524E+02  0.00000000000E+00 0.  1.
        -11    1    3    3    0    0 -0.62900853826E+02 -0.17274831833E+02  0.16022744968E+03  0.17299645331E+03  0.00000000000E+00 0.  1.
         11    1    3    3    0    0 -0.97273719312E+01  0.52256160418E+02  0.20291589717E+03  0.20976222107E+03  0.00000000000E+00 0. -1.
         -3    1    1    2    0  502 -0.14638898290E+02 -0.24312053730E+02 -0.77681753936E+01  0.29423083603E+02  0.00000000000E+00 0.  1.
<scales pt_clust_5="13000.00000" pt_clust_6="13000.00000" pt_clust_7="13000.00000" pt_clust_8="13000.00000" pt_clust_9="28.37910"></scales>
<clustering>
<clus scale="   28.379">  2  9  1 -1</clus>
<clus scale="   81.165">  5  6 -1 -1</clus>
<clus scale="   90.181">  7  8 -1 -1</clus>
<clus scale="  115.821">  2  5  1 -1</clus>
<clus scale="   28.379">  2  5  1 -1</clus>
</clustering>
</event>
<event>
 9    1  0.4664604E-005  0.9897079E+02  0.7546771E-02  0.1289253E+00
         21   -1    0    0  501  502  0.00000000000E+00  0.00000000000E+00  0.51517225192E+03  0.51517225192E+03  0.00000000000E+00 0. -1.
          1   -1    0    0  502    0 -0.00000000000E+00 -0.00000000000E+00 -0.87375600014E+02  0.87375600014E+02  0.00000000000E+00 0. -1.
         23    2    1    2    0    0  0.50876283334E+02  0.10942559015E+00 -0.16185989931E+02  0.10677560243E+03  0.92469642722E+02 0.  0.
        -24    2    1    2    0    0 -0.68834806159E+01  0.25202458342E+02  0.48064209202E+02  0.96613805448E+02  0.79633617179E+02 0.  0.
         13    1    4    4    0    0  0.21722185071E+02  0.41229660532E+02  0.12518163975E+02  0.48253939333E+02  0.00000000000E+00 0. -1.
        -14    1    4    4    0    0 -0.28605665686E+02 -0.16027202190E+02  0.35546045227E+02  0.48359866115E+02  0.00000000000E+00 0.  1.
        -13    1    3    3    0    0  0.37560969171E+02 -0.44906869605E+02 -0.10662565554E+02  0.59507509165E+02  0.00000000000E+00 0.  1.
         13    1    3    3    0    0  0.13315314163E+02  0.45016295195E+02 -0.55234243771E+01  0.47268093268E+02  0.00000000000E+00 0. -1.
          2    1    1    2  501    0 -0.43992802718E+02 -0.25311883932E+02  0.39591843264E+03  0.39915844406E+03  0.00000000000E+00 0. -1.
<scales pt_clust_5="13000.00000" pt_clust_6="13000.00000" pt_clust_7="13000.00000" pt_clust_8="13000.00000" pt_clust_9="50.75488"></scales>
<clustering>
<clus scale="   50.755">  1  9  2 -1</clus>
<clus scale="   79.634">  5  6 -1 -1</clus>
<clus scale="   87.098">  1  5  2 -1</clus>
<clus scale="   92.470">  7  8 -1 -1</clus>
<clus scale="   50.755">  1  5  2 -1</clus>
</clustering>
</event>
<event>
 9    1  0.4664604E-005  0.9925462E+02  0.7546771E-02  0.1287086E+00
         -2   -1    0    0    0  501 -0.00000000000E+00  0.00000000000E+00  0.16639317434E+03  0.16639317434E+03  0.00000000000E+00 0.  1.
         21   -1    0    0  501  502  0.00000000000E+00 -0.00000000000E+00 -0.14743906388E+03  0.14743906388E+03  0.00000000000E+00 0. -1.
         23    2    1    2    0    0  0.26394354818E+02  0.52858061719E+02  0.68298614709E+02  0.12811599249E+03  0.90875574860E+02 0.  0.
        -24    2    1    2    0    0  0.24924098272E+02 -0.25343808994E+02  0.24729184856E+02  0.91495604945E+02  0.80600209750E+02 0.  0.
         11    1    4    4    0    0  0.33578621874E+02 -0.43535288111E+02 -0.54075875853E+01  0.55245698126E+02  0.00000000000E+00 0. -1.
        -12    1    4    4    0    0 -0.86545236020E+01  0.18191479117E+02  0.30136772442E+02  0.36249906820E+02  0.00000000000E+00 0.  1.
        -11    1    3    3    0    0  0.41661907210E+02 -0.13344410427E+01  0.57124677410E+02  0.70715797489E+02  0.00000000000E+00 0.  1.
         11    1    3    3    0    0 -0.15267552392E+02  0.54192502762E+02  0.11173937299E+02  0.57400195003E+02  0.00000000000E+00 0. -1.
         -1    1    1    2    0  502 -0.51318453090E+02 -0.27514252725E+02 -0.74073689106E+02  0.94220640777E+02  0.00000000000E+00 0.  1.
<scales pt_clust_5="13000.00000" pt_clust_6="13000.00000" pt_clust_7="13000.00000" pt_clust_8="13000.00000" pt_clust_9="58.22901"></scales>
<clustering>
<clus scale="   58.229">  2  9  1 -1</clus>
<clus scale="   80.600">  5  6 -1 -1</clus>
<clus scale="   89.942">  2  5  1 -1</clus>
<clus scale="   90.876">  7  8 -1 -1</clus>
<clus scale="   58.229">  2  5  1 -1</clus>
</clustering>
</event>
<event>
 9    1  0.4664604E-005  0.9259012E+02  0.7546771E-02  0.1301328E+00
         21   -1    0    0  501  502  0.00000000000E+00  0.00000000000E+00  0.10650740190E+03  0.10650740190E+03  0.00000000000E+00 0. -1.
          1   -1    0    0  502    0 -0.00000000000E+00 -0.00000000000E+00 -0.12419183394E+03  0.12419183394E+03  0.00000000000E+00 0. -1.
         23    2    1    2    0    0  0.10919591551E+02  0.21284966567E+00 -0.19051856278E+02  0.91790170983E+02  0.89124516698E+02 0.  0.
        -24    2    1    2    0    0 -0.30791416745E+02  0.38558261632E+02  0.52133890425E+01  0.95172581771E+02  0.81214469219E+02 0.  0.
         13    1    4    4    0    0  0.12046756047E+02  0.36533096990E+02 -0.22064236103E+02  0.44346612292E+02  0.00000000000E+00 0. -1.
        -14    1    4    4    0    0 -0.42838172792E+02  0.20251646416E+01  0.27277625145E+02  0.50825969480E+02  0.00000000000E+00 0.  1.
        -11    1    3    3    0    0 -0.61845245438E+01  0.27904151226E+02 -0.42823743345E+02  0.51485561020E+02  0.00000000000E+00 0.  1.
         11    1    3    3    0    0  0.17104116095E+02 -0.27691301560E+02  0.23771887067E+02  0.40304609962E+02  0.00000000000E+00 0. -1.
          2    1    1    2  501    0  0.19871825193E+02 -0.38771111297E+02 -0.38459648039E+01  0.43736483089E+02  0.00000000000E+00 0. -1.
<scales pt_clust_5="13000.00000" pt_clust_6="13000.00000" pt_clust_7="13000.00000" pt_clust_8="13000.00000" pt_clust_9="43.56708"></scales>
<clustering>
<clus scale="   43.567">  1  9  2 -1</clus>
<clus scale="   81.214">  5  6 -1 -1</clus>
<clus scale="   85.003">  1  5  2 -1</clus>
<clus scale="   89.125">  7  8 -1 -1</clus>
<clus scale="   43.567">  1  5  2 -1</clus>
</clustering>
</event>
<event>
 9    1  0.4664604E-005  0.1104962E+03  0.7546771E-02  0.1262262E+00
          1   -1    0    0  502    0 -0.00000000000E+00  0.00000000000E+00  0.38131375588E+03  0.38131375588E+03  0.00000000000E+00 0. -1.
         21   -1    0    0  501  502  0.00000000000E+00 -0.00000000000E+00 -0.11709219747E+03  0.11709219747E+03  0.00000000000E+00 0. -1.
        -24    2    1    2    0    0 -0.60720868834E+02  0.60108286536E+00  0.19509672109E+03  0.21960739474E+03  0.80481625428E+02 0.  0.
         23    2    1    2    0    0  0.75131128700E+02 -0.38505016237E+02  0.14712404112E+03  0.19088815225E+03  0.87552729355E+02 0.  0.
         11    1    3    3    0    0 -0.11410955283E+02 -0.32829203156E+02  0.11264896396E+03  0.11788874230E+03  0.00000000000E+00 0. -1.
        -12    1    3    3    0    0 -0.49309913551E+02  0.33430286022E+02  0.82447757131E+02  0.10171865244E+03  0.00000000000E+00 0.  1.
        -11    1    4    4    0    0  0.32509589429E+02 -0.30859456920E+01 -0.10679618368E+01  0.32673184849E+02  0.00000000000E+00 0.  1.
         11    1    4    4    0    0  0.42621539271E+02 -0.35419070545E+02  0.14819200296E+03  0.15821496740E+03  0.00000000000E+00 0. -1.
          2    1    1    2  501    0 -0.14410259866E+02  0.37903933372E+02 -0.77999203801E+02  0.87910406369E+02  0.00000000000E+00 0. -1.
<scales pt_clust_5="13000.00000" pt_clust_6="13000.00000" pt_clust_7="13000.00000" pt_clust_8="13000.00000" pt_clust_9="40.55076"></scales>
<clustering>
<clus scale="   40.551">  2  9  1 -1</clus>
<clus scale="   80.482">  5  6 -1 -1</clus>
<clus scale="   87.553">  7  8 -1 -1</clus>
<clus scale="  104.982">  1  5  2 -1</clus>
<clus scale="   40.551">  2  5  1 -1</clus>
</clustering>
</event>
<event>
 9    1  0.4664604E-005  0.1161123E+03  0.7546771E-02  0.1257853E+00
         21   -1    0    0  501  502  0.00000000000E+00  0.00000000000E+00  0.21535099135E+03  0.21535099135E+03  0.00000000000E+00 0. -1.
          1   -1    0    0  502    0 -0.00000000000E+00 -0.00000000000E+00 -0.49133930899E+03  0.49133930899E+03  0.00000000000E+00 0. -1.
         23    2    1    2    0    0  0.68036700474E+02  0.49687357158E+02 -0.31765095563E+03  0.34149391186E+03  0.92833917033E+02 0.  0.
        -24    2    1    2    0    0 -0.58308805536E+02 -0.64978324487E+01 -0.14613834245E+03  0.17224775480E+03  0.69790653172E+02 0.  0.
         11    1    4    4    0    0 -0.14921698634E+02  0.27364051813E+02 -0.82051077459E+02  0.87771451702E+02  0.00000000000E+00 0. -1.
        -12    1    4    4    0    0 -0.43387106902E+02 -0.33861884262E+02 -0.64087264988E+02  0.84476303096E+02  0.00000000000E+00 0.  1.
        -11    1    3    3    0    0  0.78528074384E+02  0.18968692465E+02 -0.28170616035E+03  0.29306113789E+03  0.00000000000E+00 0. -1.
         11    1    3    3    0    0 -0.10491373910E+02  0.30718664693E+02 -0.35944795283E+02  0.48432773976E+02  0.00000000000E+00 0.  1.
          2    1    1    2  501    0 -0.97278949390E+01 -0.43189524709E+02  0.18780098044E+03  0.19294863368E+03  0.00000000000E+00 0. -1.
<scales pt_clust_5="13000.00000" pt_clust_6="13000.00000" pt_clust_7="13000.00000" pt_clust_8="13000.00000" pt_clust_9="44.27151"></scales>
<clustering>
<clus scale="   44.272">  1  9  2 -1</clus>
<clus scale="   69.791">  5  6 -1 -1</clus>
<clus scale="   92.834">  7  8 -1 -1</clus>
<clus scale="   98.664">  1  5  2 -1</clus>
<clus scale="   44.272">  1  5  2 -1</clus>
</clustering>
</event>
<event>
 9    1  0.4664604E-005  0.9246410E+02  0.7546771E-02  0.1303479E+00
         21   -1    0    0  501  502  0.00000000000E+00  0.00000000000E+00  0.30303903931E+03  0.30303903931E+03  0.00000000000E+00 0. -1.
          1   -1    0    0  502    0 -0.00000000000E+00 -0.00000000000E+00 -0.16008565520E+03  0.16008565520E+03  0.00000000000E+00 0. -1.
         23    2    1    2    0    0  0.36938310458E+01  0.53003333921E+01 -0.13448856079E+03  0.16322404345E+03  0.92266881671E+02 0.  0.
        -24    2    1    2    0    0  0.21225152131E+02 -0.10210422761E+02  0.24001167753E+03  0.25466692896E+03  0.81822243550E+02 0.  0.
         11    1    4    4    0    0  0.21271042540E+02 -0.24576404805E+02  0.30211833818E+02  0.44375802264E+02  0.00000000000E+00 0. -1.
        -12    1    4    4    0    0 -0.45890408970E-01  0.14365982044E+02  0.20979984371E+03  0.21029112670E+03  0.00000000000E+00 0.  1.
        -13    1    3    3    0    0 -0.41719707129E+02  0.16958940313E+02 -0.74965213751E+02  0.87452403582E+02  0.00000000000E+00 0.  1.
         13    1    3    3    0    0  0.45413538175E+02 -0.11658606921E+02 -0.59523347041E+02  0.75771639865E+02  0.00000000000E+00 0. -1.
          2    1    1    2  501    0 -0.24918983177E+02  0.49100893687E+01  0.37430267365E+02  0.45233722102E+02  0.00000000000E+00 0. -1.
<scales pt_clust_5="13000.00000" pt_clust_6="13000.00000" pt_clust_7="13000.00000" pt_clust_8="13000.00000" pt_clust_9="25.39812"></scales>
<clustering>
<clus scale="   25.398">  1  9  2 -1</clus>
<clus scale="   81.822">  5  6 -1 -1</clus>
<clus scale="   82.045">  1  5  2 -1</clus>
<clus scale="   92.267">  7  8 -1 -1</clus>
<clus scale="   25.398">  1  5  2 -1</clus>
</clustering>
</event>
<event>
 9    1  0.4664604E-005  0.9739517E+02  0.7546771E-02  0.1286256E+00
         21   -1    0    0  501  502  0.00000000000E+00  0.00000000000E+00  0.60441636733E+03  0.60441636733E+03  0.00000000000E+00 0. -1.
          1   -1    0    0  502    0 -0.00000000000E+00 -0.00000000000E+00 -0.36191562906E+03  0.36191562906E+03  0.00000000000E+00 0. -1.
         23    2    1    2    0    0  0.45119016666E+01  0.33427231436E+02 -0.33117194048E+03  0.34521536569E+03  0.91438818269E+02 0.  0.
        -24    2    1    2    0    0  0.92168416452E+02 -0.32010956023E+02  0.42692379716E+03  0.44537726688E+03  0.81100326618E+02 0.  0.
         11    1    4    4    0    0  0.61885414744E+02 -0.58702040262E+02  0.31702112159E+03  0.32829578983E+03  0.00000000000E+00 0. -1.
        -12    1    4    4    0    0  0.30283001708E+02  0.26691084239E+02  0.10990267558E+03  0.11708147705E+03  0.00000000000E+00 0.  1.
        -13    1    3    3    0    0 -0.14211575938E+02 -0.19679200320E+02 -0.28894358567E+02  0.37737564480E+02  0.00000000000E+00 0.  1.
         13    1    3    3    0    0  0.18723477604E+02  0.53106431756E+02 -0.30227758192E+03  0.30747780121E+03  0.00000000000E+00 0. -1.
          2    1    1    2  501    0 -0.96680318118E+02 -0.14162754127E+01  0.14674888159E+03  0.17573936382E+03  0.00000000000E+00 0. -1.
<scales pt_clust_5="13000.00000" pt_clust_6="13000.00000" pt_clust_7="13000.00000" pt_clust_8="13000.00000" pt_clust_9="96.69069"></scales>
<clustering>
<clus scale="   81.100">  5  6 -1 -1</clus>
<clus scale="   91.439">  7  8 -1 -1</clus>
<clus scale="   96.691">  1  9  2 -1</clus>
<clus scale="   96.691">  1  5  2 -1</clus>
<clus scale="   96.691">  1  5  2 -1</clus>
</clustering>
</event>
<event>
 9    1  0.4664604E-005  0.2421907E+03  0.7546771E-02  0.1118342E+00
         21   -1    0    0  501  502  0.00000000000E+00  0.00000000000E+00  0.14839595070E+03  0.14839595070E+03  0.00000000000E+00 0.  1.
          1   -1    0    0  502    0 -0.00000000000E+00 -0.00000000000E+00 -0.28191016042E+03  0.28191016042E+03  0.00000000000E+00 0. -1.
        -24    2    1    2    0    0  0.71294614087E+02 -0.90431445912E+02 -0.10423725088E+03  0.17537539605E+03  0.81427002032E+02 0.  0.
         23    2    1    2    0    0  0.40578623852E+02  0.19338499079E+01 -0.48562926131E+02  0.11098838495E+03  0.91157552129E+02 0.  0.
         13    1    3    3    0    0  0.50345705408E+02 -0.22788926214E+02 -0.86045741862E+02  0.10226384945E+03  0.00000000000E+00 0. -1.
        -14    1    3    3    0    0  0.20948908679E+02 -0.67642519698E+02 -0.18191509018E+02  0.73111546600E+02  0.00000000000E+00 0.  1.
        -11    1    4    4    0    0  0.24781558086E+02 -0.27909240806E+02 -0.63821993109E+02  0.73934417885E+02  0.00000000000E+00 0.  1.
         11    1    4    4    0    0  0.15797065766E+02  0.29843090714E+02  0.15259066978E+02  0.37053967065E+02  0.00000000000E+00 0. -1.
          2    1    1    2  501    0 -0.11187323794E+03  0.88497596004E+02  0.19285967291E+02  0.14394233012E+03  0.00000000000E+00 0. -1.
<scales pt_clust_5="13000.00000" pt_clust_6="13000.00000" pt_clust_7="13000.00000" pt_clust_8="13000.00000" pt_clust_9="142.64447"></scales>
<clustering>
<clus scale="   81.427">  5  6 -1 -1</clus>
<clus scale="   91.158">  7  8 -1 -1</clus>
<clus scale="   98.508">  5  7 -1 -1</clus>
<clus scale="  142.644">  1  9  2 -1</clus>
<clus scale="  142.644">  1  5  2 -1</clus>
</clustering>
</event>
<event>
 9    1  0.4664604E-005  0.9503599E+02  0.7546771E-02  0.1291636E+00
         21   -1    0    0  501  502  0.00000000000E+00  0.00000000000E+00  0.84249903744E+03  0.84249903744E+03  0.00000000000E+00 0. -1.
          1   -1    0    0  502    0 -0.00000000000E+00 -0.00000000000E+00 -0.69977628988E+02  0.69977628988E+02  0.00000000000E+00 0. -1.
         23    2    1    2    0    0  0.92743255592E+01  0.30898135191E+02 -0.28377150367E+02  0.97871151808E+02  0.87936294102E+02 0.  0.
        -24    2    1    2    0    0  0.17669715884E+02 -0.56992251410E+02  0.49774139677E+03  0.50913677781E+03  0.88957432935E+02 0.  0.
         13    1    4    4    0    0  0.53359491087E+02 -0.32348056351E+02  0.25294729254E+03  0.26053016110E+03  0.00000000000E+00 0. -1.
        -14    1    4    4    0    0 -0.35689775203E+02 -0.24644195058E+02  0.24479410423E+03  0.24860661671E+03  0.00000000000E+00 0.  1.
        -11    1    3    3    0    0 -0.16170078440E+02 -0.21133189539E+02  0.99604396531E+01  0.28412910708E+02  0.00000000000E+00 0.  1.
         11    1    3    3    0    0  0.25444403999E+02  0.52031324730E+02 -0.38337590020E+02  0.69458241099E+02  0.00000000000E+00 0. -1.
          2    1    1    2  501    0 -0.26944041444E+02  0.26094116219E+02  0.30315716204E+03  0.30546873681E+03  0.00000000000E+00 0. -1.
<scales pt_clust_5="13000.00000" pt_clust_6="13000.00000" pt_clust_7="13000.00000" pt_clust_8="13000.00000" pt_clust_9="37.50846"></scales>
<clustering>
<clus scale="   37.508">  1  9  2 -1</clus>
<clus scale="   87.936">  7  8 -1 -1</clus>
<clus scale="   88.957">  5  6 -1 -1</clus>
<clus scale="   94.081">  2  7  1 -1</clus>
<clus scale="   37.508">  1  5  2 -1</clus>
</clustering>
</event>
<event>
 9    1  0.4664604E-005  0.1083484E+03  0.7546771E-02  0.1267588E+00
          1   -1    0    0  502    0 -0.00000000000E+00  0.00000000000E+00  0.52273056220E+02  0.52273056220E+02  0.00000000000E+00 0. -1.
         21   -1    0    0  501  502  0.00000000000E+00 -0.00000000000E+00 -0.32523527347E+03  0.32523527347E+03  0.00000000000E+00 0. -1.
         23    2    1    2    0    0  0.11605836534E+02 -0.43216030655E+02 -0.86689352877E+02  0.13295680740E+03  0.90333537426E+02 0.  0.
        -24    2    1    2    0    0 -0.96981738070E+01  0.75317098467E+02 -0.88886332652E+02  0.14199298149E+03  0.80588502671E+02 0.  0.
         11    1    4    4    0    0  0.19722004257E+02  0.47690648988E+02 -0.88553656480E+01  0.52361941843E+02  0.00000000000E+00 0. -1.
        -12    1    4    4    0    0 -0.29420178064E+02  0.27626449478E+02 -0.80030967004E+02  0.89631039644E+02  0.00000000000E+00 0.  1.
        -13    1    3    3    0    0 -0.21143492058E+02  0.92611876964E+01 -0.62345210081E+02  0.66481140740E+02  0.00000000000E+00 0. -1.
         13    1    3    3    0    0  0.32749328592E+02 -0.52477218351E+02 -0.24344142796E+02  0.66475666658E+02  0.00000000000E+00 0.  1.
          2    1    1    2  501    0 -0.19076627272E+01 -0.32101067812E+02 -0.97386531725E+02  0.10255854081E+03  0.00000000000E+00 0. -1.
<scales pt_clust_5="13000.00000" pt_clust_6="13000.00000" pt_clust_7="13000.00000" pt_clust_8="13000.00000" pt_clust_9="32.15770"></scales>
<clustering>
<clus scale="   32.158">  2  9  1 -1</clus>
<clus scale="   80.589">  5  6 -1 -1</clus>
<clus scale="   90.334">  7  8 -1 -1</clus>
<clus scale="  100.368">  2  5  1 -1</clus>
<clus scale="   32.158">  2  5  1 -1</clus>
</clustering>
</event>
<event>
 9    1  0.4664604E-005  0.9707820E+02  0.7546771E-02  0.1286668E+00
         21   -1    0    0  501  502  0.00000000000E+00  0.00000000000E+00  0.47164667793E+02  0.47164667793E+02  0.00000000000E+00 0.  1.
          1   -1    0    0  502    0 -0.00000000000E+00 -0.00000000000E+00 -0.93247146641E+03  0.93247146641E+03  0.00000000000E+00 0. -1.
         23    2    1    2    0    0  0.14070096818E+02 -0.72341502062E+01 -0.51929467860E+03  0.52837260306E+03  0.96230680620E+02 0.  0.
        -24    2    1    2    0    0  0.18596338315E+01 -0.88334142887E+02 -0.66636459175E+02  0.13660047124E+03  0.80080534543E+02 0.  0.
         13    1    4    4    0    0 -0.10952859141E+01 -0.29878771220E+02 -0.71865891603E+02  0.77837311083E+02  0.00000000000E+00 0. -1.
        -14    1    4    4    0    0  0.29549197456E+01 -0.58455371668E+02  0.52294324281E+01  0.58763160152E+02  0.00000000000E+00 0.  1.
        -11    1    3    3    0    0 -0.41413571327E+02 -0.17723795067E+01 -0.24282493192E+03  0.24633751801E+03  0.00000000000E+00 0. -1.
         11    1    3    3    0    0  0.55483668145E+02 -0.54617706995E+01 -0.27646974668E+03  0.28203508506E+03  0.00000000000E+00 0.  1.
          2    1    1    2  501    0 -0.15929730649E+02  0.95568293093E+02 -0.29937566084E+03  0.31466305990E+03  0.00000000000E+00 0. -1.
<scales pt_clust_5="13000.00000" pt_clust_6="13000.00000" pt_clust_7="13000.00000" pt_clust_8="13000.00000" pt_clust_9="96.88686"></scales>
<clustering>
<clus scale="   80.081">  5  6 -1 -1</clus>
<clus scale="   96.231">  7  8 -1 -1</clus>
<clus scale="   96.887">  1  9  2 -1</clus>
<clus scale="   96.887">  1  5  2 -1</clus>
<clus scale="   96.887">  1  5  2 -1</clus>
</clustering>
</event>
<event>
 9    1  0.4664604E-005  0.1357874E+03  0.7546771E-02  0.1221302E+00
         21   -1    0    0  501  502  0.00000000000E+00  0.00000000000E+00  0.36790075156E+03  0.36790075156E+03  0.00000000000E+00 0.  1.
          1   -1    0    0  502    0 -0.00000000000E+00 -0.00000000000E+00 -0.24262985867E+03  0.24262985867E+03  0.00000000000E+00 0. -1.
        -24    2    1    2    0    0 -0.44834288551E+02 -0.96686924141E+02 -0.20280486734E+03  0.24323489310E+03  0.81700209751E+02 0.  0.
         23    2    1    2    0    0  0.22549112729E+02  0.40581514549E+02  0.17385497067E+03  0.20168020465E+03  0.91071577961E+02 0.  0.
         11    1    3    3    0    0 -0.45279832827E+02 -0.18716197270E+02 -0.11938911137E+03  0.12905161453E+03  0.00000000000E+00 0. -1.
        -12    1    3    3    0    0  0.44554427674E+00 -0.77970726871E+02 -0.83415755972E+02  0.11418327856E+03  0.00000000000E+00 0.  1.
        -11    1    4    4    0    0  0.20127409563E+02  0.67445916800E+02  0.14991287787E+03  0.16561381361E+03  0.00000000000E+00 0.  1.
         11    1    4    4    0    0  0.24217031663E+01 -0.26864402251E+02  0.23942092801E+02  0.36066391034E+02  0.00000000000E+00 0. -1.
          2    1    1    2  501    0  0.22285175821E+02  0.56105409592E+02  0.15422078956E+03  0.16561551249E+03  0.00000000000E+00 0. -1.
<scales pt_clust_5="13000.00000" pt_clust_6="13000.00000" pt_clust_7="13000.00000" pt_clust_8="13000.00000" pt_clust_9="60.36925"></scales>
<clustering>
<clus scale="   60.369">  1  9  2 -1</clus>
<clus scale="   81.700">  5  6 -1 -1</clus>
<clus scale="   91.072">  7  8 -1 -1</clus>
<clus scale="  129.688">  2  5  1 -1</clus>
<clus scale="   60.369">  1  5  2 -1</clus>
</clustering>
</event>
<event>
 9    1  0.4664604E-005  0.1531072E+03  0.7546771E-02  0.1210502E+00
         21   -1    0    0  501  502  0.00000000000E+00  0.00000000000E+00  0.69612752156E+03  0.69612752156E+03  0.00000000000E+00 0. -1.
         -4   -1    0    0    0  501 -0.00000000000E+00 -0.00000000000E+00 -0.62449435664E+02  0.62449435664E+02  0.00000000000E+00 0.  1.
         23    2    1    2    0    0  0.55735179813E+02  0.22084991844E+02  0.14773546136E+03  0.18640595098E+03  0.96577714224E+02 0.  0.
        -24    2    1    2    0    0  0.16509735353E+02 -0.13279719265E+03  0.17804413719E+03  0.23709191455E+03  0.81272353371E+02 0.  0.
         13    1    4    4    0    0  0.46999522591E+02 -0.57346660657E+02  0.98575883888E+02  0.12334828534E+03  0.00000000000E+00 0. -1.
        -14    1    4    4    0    0 -0.30489787238E+02 -0.75450531994E+02  0.79468253301E+02  0.11374362921E+03  0.00000000000E+00 0.  1.
        -11    1    3    3    0    0  0.76968443608E+02  0.17897412121E+01  0.72959914749E+02  0.10606834422E+03  0.00000000000E+00 0.  1.
         11    1    3    3    0    0 -0.21233263795E+02  0.20295250631E+02  0.74775546610E+02  0.80337606763E+02  0.00000000000E+00 0. -1.
         -3    1    1    2    0  502 -0.72244915166E+02  0.11071220081E+03  0.30789848735E+03  0.33507909169E+03  0.00000000000E+00 0.  1.
<scales pt_clust_5="13000.00000" pt_clust_6="13000.00000" pt_clust_7="13000.00000" pt_clust_8="13000.00000" pt_clust_9="129.75595"></scales>
<clustering>
<clus scale="   81.272">  5  6 -1 -1</clus>
<clus scale="   96.578">  7  8 -1 -1</clus>
<clus scale="  113.672">  2  7  1 -1</clus>
<clus scale="  129.756">  1  9  2 -1</clus>
<clus scale="  129.756">  1  5  2 -1</clus>
</clustering>
</event>
<event>
 9    1  0.4755233E-005  0.1003835E+03  0.7546771E-02  0.1286275E+00
          1   -1    0    0  502    0 -0.00000000000E+00  0.00000000000E+00  0.23380887481E+03  0.23380887481E+03  0.00000000000E+00 0. -1.
         21   -1    0    0  501  502  0.00000000000E+00 -0.00000000000E+00 -0.29310447106E+03  0.29310447106E+03  0.00000000000E+00 0.  1.
        -24    2    1    2    0    0 -0.11960375991E+02  0.36319257810E+02  0.19872755318E+03  0.21720083930E+03  0.78876011044E+02 0.  0.
         23    2    1    2    0    0  0.32532067588E+01 -0.78730501774E+02 -0.22366143425E+03  0.25443813746E+03  0.92223930510E+02 0.  0.
         13    1    3    3    0    0  0.56882417876E+01  0.33919525601E+02  0.19622328581E+03  0.19921462849E+03  0.00000000000E+00 0. -1.
        -14    1    3    3    0    0 -0.17648617779E+02  0.23997322093E+01  0.25042673705E+01  0.17986210808E+02  0.00000000000E+00 0.  1.
        -13    1    4    4    0    0 -0.35006769870E+02 -0.74277504109E+02 -0.16426862115E+03  0.18364858140E+03  0.00000000000E+00 0.  1.
         13    1    4    4    0    0  0.38259976629E+02 -0.44529976654E+01 -0.59392813093E+02  0.70789556059E+02  0.00000000000E+00 0. -1.
          2    1    1    2  501    0  0.87071692322E+01  0.42411243964E+02 -0.34361715177E+02  0.55274369110E+02  0.00000000000E+00 0. -1.
<scales pt_clust_5="13000.00000" pt_clust_6="13000.00000" pt_clust_7="13000.00000" pt_clust_8="13000.00000" pt_clust_9="43.29582"></scales>
<clustering>
<clus scale="   43.296">  2  9  1 -1</clus>
<clus scale="   78.876">  5  6 -1 -1</clus>
<clus scale="   88.278">  1  5  2 -1</clus>
<clus scale="   92.224">  7  8 -1 -1</clus>
<clus scale="   43.296">  2  5  1 -1</clus>
</clustering>
</event>
<event>
 9    1  0.4664604E-005  0.9078086E+02  0.7546771E-02  0.1301112E+00
          3   -1    0    0  502    0 -0.00000000000E+00  0.00000000000E+00  0.16794974222E+03  0.16794974222E+03  0.00000000000E+00 0. -1.
         21   -1    0    0  501  502  0.00000000000E+00 -0.00000000000E+00 -0.14247809919E+03  0.14247809919E+03  0.00000000000E+00 0. -1.
         23    2    1    2    0    0 -0.35982698707E+02 -0.26621344412E+02  0.51262913765E+02  0.11342446658E+03  0.90740138340E+02 0.  0.
        -24    2    1    2    0    0 -0.36367695652E+02 -0.27821278983E+02  0.22662350646E+02  0.94308037894E+02  0.79270366615E+02 0.  0.
         11    1    4    4    0    0 -0.34493553595E+02 -0.42968587781E+02 -0.12036977566E+02  0.56400297911E+02  0.00000000000E+00 0. -1.
        -12    1    4    4    0    0 -0.18741420575E+01  0.15147308798E+02  0.34699328212E+02  0.37907739983E+02  0.00000000000E+00 0.  1.
        -13    1    3    3    0    0 -0.42697129809E+02 -0.55582390744E+02  0.44219605250E+02  0.82872314697E+02  0.00000000000E+00 0. -1.
         13    1    3    3    0    0  0.67144311018E+01  0.28961046332E+02  0.70433085142E+01  0.30552151880E+02  0.00000000000E+00 0.  1.
          4    1    1    2  501    0  0.72350394359E+02  0.54442623395E+02 -0.48453621381E+02  0.10269533695E+03  0.00000000000E+00 0. -1.
<scales pt_clust_5="13000.00000" pt_clust_6="13000.00000" pt_clust_7="13000.00000" pt_clust_8="13000.00000" pt_clust_9="90.54600"></scales>
<clustering>
<clus scale="   79.270">  5  6 -1 -1</clus>
<clus scale="   90.546">  2  9  1 -1</clus>
<clus scale="   90.546">  2  5  1 -1</clus>
<clus scale="   90.740">  7  8 -1 -1</clus>
<clus scale="   90.546">  2  5  1 -1</clus>
</clustering>
</event>
<event>
 9    1  0.4664604E-005  0.1364545E+03  0.7546771E-02  0.1221544E+00
         -4   -1    0    0    0  501 -0.00000000000E+00  0.00000000000E+00  0.42108850416E+03  0.42108850416E+03  0.00000000000E+00 0.  1.
         21   -1    0    0  501  502  0.00000000000E+00 -0.00000000000E+00 -0.65653660627E+02  0.65653660627E+02  0.00000000000E+00 0. -1.
         23    2    1    2    0    0 -0.94154929949E+02  0.12732293155E+01  0.25516752729E+03  0.28725667018E+03  0.92407551820E+02 0.  0.
        -24    2    1    2    0    0  0.11302172731E+03 -0.11587121956E+02  0.10956014431E+03  0.17606138143E+03  0.78012900033E+02 0.  0.
         13    1    4    4    0    0  0.22981112743E+02 -0.35144716202E+02  0.51153986659E+02  0.66181666425E+02  0.00000000000E+00 0. -1.
        -14    1    4    4    0    0  0.90040614571E+02  0.23557594246E+02  0.58406157649E+02  0.10987971501E+03  0.00000000000E+00 0.  1.
        -11    1    3    3    0    0 -0.52760694908E+02  0.22547640703E+02  0.22402817777E+03  0.23125897056E+03  0.00000000000E+00 0. -1.
         11    1    3    3    0    0 -0.41394235041E+02 -0.21274411388E+02  0.31139349520E+02  0.55997699623E+02  0.00000000000E+00 0.  1.
         -3    1    1    2    0  502 -0.18866797365E+02  0.10313892640E+02 -0.92928280686E+01  0.23424113168E+02  0.00000000000E+00 0.  1.
<scales pt_clust_5="13000.00000" pt_clust_6="13000.00000" pt_clust_7="13000.00000" pt_clust_8="13000.00000" pt_clust_9="21.50192"></scales>
<clustering>
<clus scale="   21.502">  2  9  1 -1</clus>
<clus scale="   78.013">  5  6 -1 -1</clus>
<clus scale="   92.408">  7  8 -1 -1</clus>
<clus scale="  127.148">  2  5  1 -1</clus>
<clus scale="   21.502">  2  5  1 -1</clus>
</clustering>
</event>
<event>
 9    1  0.4664604E-005  0.1092270E+03  0.7546771E-02  0.1267058E+00
         21   -1    0    0  501  502  0.00000000000E+00  0.00000000000E+00  0.51083145123E+02  0.51083145123E+02  0.00000000000E+00 0.  1.
          1   -1    0    0  502    0 -0.00000000000E+00 -0.00000000000E+00 -0.36504662574E+03  0.36504662574E+03  0.00000000000E+00 0. -1.
         23    2    1    2    0    0 -0.50019487379E+02 -0.14207930063E+02 -0.16923780568E+03  0.19915260259E+03  0.91194900370E+02 0.  0.
        -24    2    1    2    0    0  0.76012936657E+02 -0.26594435475E+02 -0.11039772257E+03  0.15765684500E+03  0.78630738842E+02 0.  0.
         11    1    4    4    0    0  0.21773081005E+02 -0.21432231139E+02 -0.96791360231E+02  0.10149864533E+03  0.00000000000E+00 0. -1.
        -12    1    4    4    0    0  0.54239855653E+02 -0.51622043356E+01 -0.13606362338E+02  0.56158199676E+02  0.00000000000E+00 0.  1.
        -13    1    3    3    0    0 -0.83928036579E+00 -0.41683580746E+02 -0.38314278911E+02  0.56623398554E+02  0.00000000000E+00 0.  1.
         13    1    3    3    0    0 -0.49180207013E+02  0.27475650683E+02 -0.13092352677E+03  0.14252920404E+03  0.00000000000E+00 0. -1.
          2    1    1    2  501    0 -0.25993449279E+02  0.40802365537E+02 -0.34327952373E+02  0.59320323271E+02  0.00000000000E+00 0. -1.
<scales pt_clust_5="13000.00000" pt_clust_6="13000.00000" pt_clust_7="13000.00000" pt_clust_8="13000.00000" pt_clust_9="48.37864"></scales>
<clustering>
<clus scale="   48.379">  1  9  2 -1</clus>
<clus scale="   78.631">  5  6 -1 -1</clus>
<clus scale="   91.195">  7  8 -1 -1</clus>
<clus scale="   98.979">  1  5  2 -1</clus>
<clus scale="   48.379">  1  5  2 -1</clus>
</clustering>
</event>
<event>
 9    1  0.4664604E-005  0.2715676E+03  0.7546771E-02  0.1100949E+00
          1   -1    0    0  502    0 -0.00000000000E+00  0.00000000000E+00  0.47463533005E+03  0.47463533005E+03  0.00000000000E+00 0. -1.
         21   -1    0    0  501  502  0.00000000000E+00 -0.00000000000E+00 -0.28284007499E+03  0.28284007499E+03  0.00000000000E+00 0.  1.
         23    2    1    2    0    0  0.21555305626E+03 -0.16375220631E+03  0.25410239327E+03  0.38243795135E+03  0.91721618137E+02 0.  0.
        -24    2    1    2    0    0 -0.23258899246E+03  0.56515784273E+02 -0.48710320114E+01  0.25220105995E+03  0.79309358849E+02 0.  0.
         11    1    4    4    0    0 -0.39305495119E+01  0.20196614160E+02  0.10260885157E+01  0.20601099501E+02  0.00000000000E+00 0. -1.
        -12    1    4    4    0    0 -0.22865844295E+03  0.36319170112E+02 -0.58971205271E+01  0.23159996045E+03  0.00000000000E+00 0.  1.
        -13    1    3    3    0    0  0.10177614362E+03 -0.40695985827E+02  0.14766564458E+03  0.18390130305E+03  0.00000000000E+00 0. -1.
         13    1    3    3    0    0  0.11377691264E+03 -0.12305622048E+03  0.10643674869E+03  0.19853664831E+03  0.00000000000E+00 0.  1.
          2    1    1    2  501    0  0.17035936201E+02  0.10723642203E+03 -0.57436106202E+02  0.12283639374E+03  0.00000000000E+00 0. -1.
<scales pt_clust_5="13000.00000" pt_clust_6="13000.00000" pt_clust_7="13000.00000" pt_clust_8="13000.00000" pt_clust_9="108.58118"></scales>
<clustering>
<clus scale="   79.309">  5  6 -1 -1</clus>
<clus scale="   91.722">  7  8 -1 -1</clus>
<clus scale="  108.581">  2  9  1 -1</clus>
<clus scale="  267.630">  2  5  1 -1</clus>
<clus scale="  108.581">  2  5  1 -1</clus>
</clustering>
</event>
<event>
 9    1  0.4664604E-005  0.9612680E+02  0.7546771E-02  0.1296803E+00
         21   -1    0    0  501  502  0.00000000000E+00  0.00000000000E+00  0.50481279213E+02  0.50481279213E+02  0.00000000000E+00 0.  1.
          1   -1    0    0  502    0 -0.00000000000E+00 -0.00000000000E+00 -0.58776674425E+03  0.58776674425E+03  0.00000000000E+00 0. -1.
        -24    2    1    2    0    0  0.43176202534E+01 -0.77593426039E+01 -0.41090186839E+03  0.41890470415E+03  0.81005903933E+02 0.  0.
         23    2    1    2    0    0  0.57617040695E+01  0.64021343782E+02 -0.11247993308E+03  0.16051885657E+03  0.94776781312E+02 0.  0.
         11    1    3    3    0    0  0.38440201162E+01 -0.43010215725E+02 -0.16814150936E+03  0.17359787532E+03  0.00000000000E+00 0. -1.
        -12    1    3    3    0    0  0.47360013721E+00  0.35250873121E+02 -0.24276035903E+03  0.24530682883E+03  0.00000000000E+00 0.  1.
        -13    1    4    4    0    0  0.65208231423E+01  0.19915261412E+02  0.14902674339E+02  0.25714363185E+02  0.00000000000E+00 0.  1.
         13    1    4    4    0    0 -0.75911907281E+00  0.44106082370E+02 -0.12738260742E+03  0.13480449339E+03  0.00000000000E+00 0. -1.
          2    1    1    2  501    0 -0.10079324323E+02 -0.56262001178E+02 -0.13903663558E+02  0.58824462732E+02  0.00000000000E+00 0. -1.
<scales pt_clust_5="13000.00000" pt_clust_6="13000.00000" pt_clust_7="13000.00000" pt_clust_8="13000.00000" pt_clust_9="57.15773"></scales>
<clustering>
<clus scale="   57.158">  1  9  2 -1</clus>
<clus scale="   81.006">  5  6 -1 -1</clus>
<clus scale="   82.581">  2  5  1 -1</clus>
<clus scale="   94.777">  7  8 -1 -1</clus>
<clus scale="   57.158">  1  5  2 -1</clus>
</clustering>
</event>
<event>
 9    1  0.4664604E-005  0.1064326E+03  0.7546771E-02  0.1268419E+00
         21   -1    0    0  501  502  0.00000000000E+00  0.00000000000E+00  0.33674873945E+03  0.33674873945E+03  0.00000000000E+00 0.  1.
          1   -1    0    0  502    0 -0.00000000000E+00 -0.00000000000E+00 -0.22925275944E+03  0.22925275944E+03  0.00000000000E+00 0. -1.
         23    2    1    2    0    0 -0.29106142476E+01 -0.63602152063E+02 -0.19252323329E+03  0.21932538843E+03  0.83574668585E+02 0.  0.
        -24    2    1    2    0    0  0.13688478797E+02  0.98201063191E+02  0.17639702091E+03  0.21785183687E+03  0.80701242709E+02 0.  0.
         13    1    4    4    0    0  0.44744454382E+02  0.48258773051E+02  0.11716570437E+03  0.13438295150E+03  0.00000000000E+00 0. -1.
        -14    1    4    4    0    0 -0.31055975585E+02  0.49942290140E+02  0.59231316543E+02  0.83468885361E+02  0.00000000000E+00 0.  1.
        -13    1    3    3    0    0 -0.31952264729E+02 -0.58639795875E+02 -0.16869853521E+03  0.18143530160E+03  0.00000000000E+00 0. -1.
         13    1    3    3    0    0  0.29041650482E+02 -0.49623561873E+01 -0.23824698080E+02  0.37890086833E+02  0.00000000000E+00 0.  1.
          2    1    1    2  501    0 -0.10777864549E+02 -0.34598911129E+02  0.12362219239E+03  0.12882427359E+03  0.00000000000E+00 0. -1.
<scales pt_clust_5="13000.00000" pt_clust_6="13000.00000" pt_clust_7="13000.00000" pt_clust_8="13000.00000" pt_clust_9="36.23875"></scales>
<clustering>
<clus scale="   36.239">  1  9  2 -1</clus>
<clus scale="   80.701">  5  6 -1 -1</clus>
<clus scale="   83.575">  7  8 -1 -1</clus>
<clus scale="  104.191">  1  5  2 -1</clus>
<clus scale="   36.239">  1  5  2 -1</clus>
</clustering>
</event>
<event>
 9    1  0.4664604E-005  0.1611284E+03  0.7546771E-02  0.1207869E+00
         -4   -1    0    0    0  501 -0.00000000000E+00  0.00000000000E+00  0.51590750900E+03  0.51590750900E+03  0.00000000000E+00 0.  1.
         21   -1    0    0  501  502  0.00000000000E+00 -0.00000000000E+00 -0.11094148157E+03  0.11094148157E+03  0.00000000000E+00 0. -1.
         23    2    1    2    0    0 -0.45503652107E+02  0.13836646129E+00  0.15903209561E+03  0.18956881438E+03  0.92598738915E+02 0.  0.
        -24    2    1    2    0    0  0.14906044944E+03 -0.29938502636E+02  0.25772491501E+01  0.17113259799E+03  0.78513644384E+02 0.  0.
         11    1    4    4    0    0  0.15232032977E+03 -0.28467879343E+02  0.17356561622E+02  0.15592675603E+03  0.00000000000E+00 0. -1.
        -12    1    4    4    0    0 -0.32598803266E+01 -0.14706232933E+01 -0.14779312472E+02  0.15205841961E+02  0.00000000000E+00 0.  1.
        -13    1    3    3    0    0 -0.10261065358E+02  0.33589176143E+02  0.12602674770E+03  0.13082913800E+03  0.00000000000E+00 0.  1.
         13    1    3    3    0    0 -0.35242586749E+02 -0.33450809682E+02  0.33005347918E+02  0.58739676373E+02  0.00000000000E+00 0. -1.
         -3    1    1    2    0  502 -0.10355679733E+03  0.29800136175E+02  0.24335668266E+03  0.26614757820E+03  0.00000000000E+00 0.  1.
<scales pt_clust_5="13000.00000" pt_clust_6="13000.00000" pt_clust_7="13000.00000" pt_clust_8="13000.00000" pt_clust_9="140.70535"></scales>
<clustering>
<clus scale="   78.514">  5  6 -1 -1</clus>
<clus scale="   92.599">  7  8 -1 -1</clus>
<clus scale="  103.175">  1  7  2 -1</clus>
<clus scale="  140.705">  2  9  1 -1</clus>
<clus scale="  140.705">  2  5  1 -1</clus>
</clustering>
</event>
<event>
 9    1  0.4664604E-005  0.2214745E+03  0.7546771E-02  0.1132789E+00
         21   -1    0    0  501  502  0.00000000000E+00  0.00000000000E+00  0.53307063873E+02  0.53307063873E+02  0.00000000000E+00 0.  1.
         -2   -1    0    0    0  501 -0.00000000000E+00 -0.00000000000E+00 -0.67471537639E+03  0.67471537639E+03  0.00000000000E+00 0.  1.
        -24    2    1    2    0    0  0.55956646340E+02  0.66726550956E+02 -0.25170726152E+03  0.27833158438E+03  0.80798183676E+02 0.  0.
         23    2    1    2    0    0  0.43166335805E+02  0.18349892250E+02 -0.25949636627E+03  0.27878608909E+03  0.90461418701E+02 0.  0.
         11    1    3    3    0    0  0.54778557007E+02  0.48938811767E+01 -0.93629564721E+02  0.10858699632E+03  0.00000000000E+00 0. -1.
        -12    1    3    3    0    0  0.11780893327E+01  0.61832669780E+02 -0.15807769680E+03  0.16974458805E+03  0.00000000000E+00 0.  1.
        -11    1    4    4    0    0 -0.15252950493E+02 -0.24855159655E+02 -0.79281274334E+02  0.84474563747E+02  0.00000000000E+00 0. -1.
         11    1    4    4    0    0  0.58419286299E+02  0.43205051905E+02 -0.18021509193E+03  0.19431152535E+03  0.00000000000E+00 0.  1.
         -1    1    1    2    0  502 -0.99122982145E+02 -0.85076443206E+02 -0.11020468473E+03  0.17090476680E+03  0.00000000000E+00 0.  1.
<scales pt_clust_5="13000.00000" pt_clust_6="13000.00000" pt_clust_7="13000.00000" pt_clust_8="13000.00000" pt_clust_9="130.62682"></scales>
<clustering>
<clus scale="   80.798">  5  6 -1 -1</clus>
<clus scale="   90.461">  7  8 -1 -1</clus>
<clus scale="   95.902">  5  7 -1 -1</clus>
<clus scale="  130.627">  1  9  2 -1</clus>
<clus scale="  130.627">  1  5  2 -1</clus>
</clustering>
</event>
<event>
 9    1  0.4664604E-005  0.1660833E+03  0.7546771E-02  0.1187914E+00
         21   -1    0    0  501  502  0.00000000000E+00  0.00000000000E+00  0.12237447467E+03  0.12237447467E+03  0.00000000000E+00 0.  1.
          1   -1    0    0  502    0 -0.00000000000E+00 -0.00000000000E+00 -0.68997332469E+03  0.68997332469E+03  0.00000000000E+00 0. -1.
         23    2    1    2    0    0 -0.25993628325E+01  0.11593602719E+03 -0.54130306909E+03  0.56495105929E+03  0.11275090996E+03 0.  0.
        -24    2    1    2    0    0  0.22360428129E+02 -0.16789543892E+03 -0.29967402869E+01  0.18712132665E+03  0.79476683859E+02 0.  0.
         11    1    4    4    0    0 -0.27839887329E+02 -0.33492111812E+02 -0.29062877961E+01  0.43648910512E+02  0.00000000000E+00 0. -1.
        -12    1    4    4    0    0  0.50200315458E+02 -0.13440332711E+03 -0.90452490782E-01  0.14347241614E+03  0.00000000000E+00 0.  1.
        -11    1    3    3    0    0  0.23144382199E+02  0.23986008327E+02 -0.30113826582E+02  0.44920302473E+02  0.00000000000E+00 0.  1.
         11    1    3    3    0    0 -0.25743745032E+02  0.91950018865E+02 -0.51118924251E+03  0.52003075682E+03  0.00000000000E+00 0. -1.
          2    1    1    2  501    0 -0.19761065296E+02  0.51959411730E+02 -0.23299040645E+02  0.60275413428E+02  0.00000000000E+00 0. -1.
<scales pt_clust_5="13000.00000" pt_clust_6="13000.00000" pt_clust_7="13000.00000" pt_clust_8="13000.00000" pt_clust_9="55.59029"></scales>
<clustering>
<clus scale="   55.590">  1  9  2 -1</clus>
<clus scale="   79.477">  5  6 -1 -1</clus>
<clus scale="  112.751">  7  8 -1 -1</clus>
<clus scale="  145.559">  1  5  2 -1</clus>
<clus scale="   55.590">  1  5  2 -1</clus>
</clustering>
</event>
<event>
 9    1  0.4664604E-005  0.9759231E+02  0.7546771E-02  0.1288397E+00
         21   -1    0    0  501  502  0.00000000000E+00  0.00000000000E+00  0.49750682466E+02  0.49750682466E+02  0.00000000000E+00 0.  1.
          1   -1    0    0  502    0 -0.00000000000E+00 -0.00000000000E+00 -0.52054873666E+03  0.52054873666E+03  0.00000000000E+00 0. -1.
         23    2    1    2    0    0 -0.31259367751E+02  0.91129094590E+00 -0.20524911042E+03  0.22600302182E+03  0.89287121252E+02 0.  0.
        -24    2    1    2    0    0  0.75695192369E+01  0.88309400875E+02 -0.19047248097E+03  0.22530893561E+03  0.81415616175E+02 0.  0.
         13    1    4    4    0    0 -0.12816706767E+02  0.25913145521E+02 -0.13877283374E+03  0.14175210216E+03  0.00000000000E+00 0. -1.
        -14    1    4    4    0    0  0.20386226004E+02  0.62396255354E+02 -0.51699647224E+02  0.83556833449E+02  0.00000000000E+00 0.  1.
        -11    1    3    3    0    0 -0.50989924522E+02  0.18896785008E+02 -0.18404134131E+03  0.19190694671E+03  0.00000000000E+00 0.  1.
         11    1    3    3    0    0  0.19730556771E+02 -0.17985494062E+02 -0.21207769111E+02  0.34096075108E+02  0.00000000000E+00 0. -1.
          2    1    1    2  501    0  0.23689848514E+02 -0.89220691821E+02 -0.75076462807E+02  0.11898746169E+03  0.00000000000E+00 0. -1.
<scales pt_clust_5="13000.00000" pt_clust_6="13000.00000" pt_clust_7="13000.00000" pt_clust_8="13000.00000" pt_clust_9="92.31219"></scales>
<clustering>
<clus scale="   81.416">  5  6 -1 -1</clus>
<clus scale="   89.287">  7  8 -1 -1</clus>
<clus scale="   92.312">  1  9  2 -1</clus>
<clus scale="   92.312">  1  5  2 -1</clus>
<clus scale="   92.312">  1  5  2 -1</clus>
</clustering>
</event>
<event>
 9    1  0.4664604E-005  0.1260043E+03  0.7546771E-02  0.1251600E+00
         21   -1    0    0  501  502  0.00000000000E+00  0.00000000000E+00  0.85865273767E+02  0.85865273767E+02  0.00000000000E+00 0. -1.
          1   -1    0    0  502    0 -0.00000000000E+00 -0.00000000000E+00 -0.29466751522E+03  0.29466751522E+03  0.00000000000E+00 0. -1.
        -24    2    1    2    0    0 -0.14430679323E+02  0.32086217460E+02 -0.22517959593E+02  0.90246362143E+02  0.79997359451E+02 0.  0.
         23    2    1    2    0    0  0.61674958356E+02  0.47789674865E+02 -0.14666722904E+03  0.18938206148E+03  0.90921040602E+02 0.  0.
         11    1    3    3    0    0  0.17059612209E+02  0.37508895943E+02  0.12285754847E+02  0.42998690861E+02  0.00000000000E+00 0. -1.
        -12    1    3    3    0    0 -0.31490291533E+02 -0.54226784829E+01 -0.34803714440E+02  0.47247671282E+02  0.00000000000E+00 0.  1.
        -11    1    4    4    0    0  0.79282064559E+02  0.59050412515E+02 -0.12316374150E+03  0.15793006110E+03  0.00000000000E+00 0. -1.
         11    1    4    4    0    0 -0.17607106203E+02 -0.11260737650E+02 -0.23503487541E+02  0.31452000380E+02  0.00000000000E+00 0.  1.
          2    1    1    2  501    0 -0.47244279033E+02 -0.79875892325E+02 -0.39617052822E+02  0.10090436537E+03  0.00000000000E+00 0. -1.
<scales pt_clust_5="13000.00000" pt_clust_6="13000.00000" pt_clust_7="13000.00000" pt_clust_8="13000.00000" pt_clust_9="87.23787"></scales>
<clustering>
<clus scale="   79.997">  5  6 -1 -1</clus>
<clus scale="   87.392">  2  5  1 -1</clus>
<clus scale="   87.238">  1  9  2 -1</clus>
<clus scale="   90.921">  7  8 -1 -1</clus>
<clus scale="   87.238">  1  5  2 -1</clus>
</clustering>
</event>
<event>
 9    1  0.4664604E-005  0.9329982E+02  0.7546771E-02  0.1295898E+00
          1   -1    0    0  502    0 -0.00000000000E+00  0.00000000000E+00  0.53972590744E+03  0.53972590744E+03  0.00000000000E+00 0. -1.
         21   -1    0    0  501  502  0.00000000000E+00 -0.00000000000E+00 -0.84048931487E+02  0.84048931487E+02  0.00000000000E+00 0. -1.
         23    2    1    2    0    0  0.41744534613E+02 -0.14364690278E+02  0.39072960836E+03  0.40338949247E+03  0.90025025890E+02 0.  0.
        -24    2    1    2    0    0  0.49634572308E+02  0.51164709573E+01  0.83112216630E+02  0.12676038995E+03  0.81674885143E+02 0.  0.
         13    1    4    4    0    0  0.70018668545E+02 -0.75280467881E+01  0.52335688844E+02  0.87740012309E+02  0.00000000000E+00 0. -1.
        -14    1    4    4    0    0 -0.20384096237E+02  0.12644517745E+02  0.30776527785E+02  0.39020377637E+02  0.00000000000E+00 0.  1.
        -13    1    3    3    0    0  0.64998023313E+02 -0.30214773588E+02  0.26266240343E+03  0.27226680619E+03  0.00000000000E+00 0. -1.
         13    1    3    3    0    0 -0.23253488700E+02  0.15850083310E+02  0.12806720493E+03  0.13112268628E+03  0.00000000000E+00 0.  1.
          2    1    1    2  501    0 -0.91379106921E+02  0.92482193208E+01 -0.18164849034E+02  0.93624956516E+02  0.00000000000E+00 0. -1.
<scales pt_clust_5="13000.00000" pt_clust_6="13000.00000" pt_clust_7="13000.00000" pt_clust_8="13000.00000" pt_clust_9="91.84591"></scales>
<clustering>
<clus scale="   81.675">  5  6 -1 -1</clus>
<clus scale="   90.025">  7  8 -1 -1</clus>
<clus scale="   91.846">  2  9  1 -1</clus>
<clus scale="   91.846">  2  5  1 -1</clus>
<clus scale="   91.846">  2  5  1 -1</clus>
</clustering>
</event>
<event>
 9    1  0.4664604E-005  0.3092440E+03  0.7546771E-02  0.1123288E+00
         21   -1    0    0  501  502  0.00000000000E+00  0.00000000000E+00  0.56901315034E+03  0.56901315034E+03  0.00000000000E+00 0. -1.
          1   -1    0    0  502    0 -0.00000000000E+00 -0.00000000000E+00 -0.25113068160E+03  0.25113068160E+03  0.00000000000E+00 0. -1.
         23    2    1    2    0    0  0.12449363055E+02  0.39088665601E+02 -0.30112441024E+02  0.10714046375E+03  0.94283664805E+02 0.  0.
        -24    2    1    2    0    0  0.27853309099E+03  0.61830081998E+02  0.85786178723E+02  0.30851752071E+03  0.80125840475E+02 0.  0.
         11    1    4    4    0    0  0.83383495634E+02 -0.11061559519E+02  0.24535472538E+01  0.84149779187E+02  0.00000000000E+00 0. -1.
        -12    1    4    4    0    0  0.19514959536E+03  0.72891641517E+02  0.83332631469E+02  0.22436774153E+03  0.00000000000E+00 0.  1.
        -11    1    3    3    0    0 -0.65584690316E+01 -0.26963536722E+02 -0.26409463626E+02  0.38308035680E+02  0.00000000000E+00 0.  1.
         11    1    3    3    0    0  0.19007832086E+02  0.66052202323E+02 -0.37029773975E+01  0.68832428070E+02  0.00000000000E+00 0. -1.
          2    1    1    2  501    0 -0.29098245404E+03 -0.10091874760E+03  0.26220873104E+03  0.40448584748E+03  0.00000000000E+00 0. -1.
<scales pt_clust_5="13000.00000" pt_clust_6="13000.00000" pt_clust_7="13000.00000" pt_clust_8="13000.00000" pt_clust_9="298.68332"></scales>
<clustering>
<clus scale="   80.126">  5  6 -1 -1</clus>
<clus scale="   94.284">  7  8 -1 -1</clus>
<clus scale="  102.822">  2  7  1 -1</clus>
<clus scale="  298.683">  1  9  2 -1</clus>
<clus scale="  298.683">  1  5  2 -1</clus>
</clustering>
</event>
<event>
 9    1  0.4664604E-005  0.1383278E+03  0.7546771E-02  0.1236257E+00
         21   -1    0    0  501  502  0.00000000000E+00  0.00000000000E+00  0.69433998922E+02  0.69433998922E+02  0.00000000000E+00 0. -1.
          1   -1    0    0  502    0 -0.00000000000E+00 -0.00000000000E+00 -0.42128235847E+03  0.42128235847E+03  0.00000000000E+00 0. -1.
        -24    2    1    2    0    0 -0.35072605138E+02  0.12471590237E+02 -0.76357093425E+02  0.11804510054E+03  0.81967138844E+02 0.  0.
         23    2    1    2    0    0  0.38449993578E+01  0.99811477238E+02 -0.17438604270E+03  0.21838283600E+03  0.85460260735E+02 0.  0.
         13    1    3    3    0    0 -0.57395637446E+02  0.14965318879E+02 -0.74891975096E+02  0.95535479801E+02  0.00000000000E+00 0. -1.
        -14    1    3    3    0    0  0.22323032308E+02 -0.24937286414E+01 -0.14651183287E+01  0.22509620736E+02  0.00000000000E+00 0.  1.
        -13    1    4    4    0    0  0.26599735563E+02  0.33300270369E+02 -0.16768288575E+02  0.45799884721E+02  0.00000000000E+00 0.  1.
         13    1    4    4    0    0 -0.22754736205E+02  0.66511206868E+02 -0.15761775412E+03  0.17258295128E+03  0.00000000000E+00 0. -1.
          2    1    1    2  501    0  0.31227605780E+02 -0.11228306748E+03 -0.10110522342E+03  0.15428842085E+03  0.00000000000E+00 0. -1.
<scales pt_clust_5="13000.00000" pt_clust_6="13000.00000" pt_clust_7="13000.00000" pt_clust_8="13000.00000" pt_clust_9="108.77098"></scales>
<clustering>
<clus scale="   81.967">  5  6 -1 -1</clus>
<clus scale="   85.460">  7  8 -1 -1</clus>
<clus scale="   90.024">  2  5  1 -1</clus>
<clus scale="  108.771">  1  9  2 -1</clus>
<clus scale="  108.771">  1  5  2 -1</clus>
</clustering>
</event>
<event>
 9    1  0.4664604E-005  0.9547814E+02  0.7546771E-02  0.1297703E+00
         21   -1    0    0  501  502  0.00000000000E+00  0.00000000000E+00  0.31259000437E+03  0.31259000437E+03  0.00000000000E+00 0.  1.
          3   -1    0    0  502    0 -0.00000000000E+00 -0.00000000000E+00 -0.11393048773E+03  0.11393048773E+03  0.00000000000E+00 0. -1.
         23    2    1    2    0    0  0.14508768962E+02 -0.12633972967E+01  0.67617533556E+02  0.11586248211E+03  0.92950972922E+02 0.  0.
        -24    2    1    2    0    0 -0.24724885555E+02 -0.45953728549E+02  0.20280063460E+03  0.22415292297E+03  0.79958553961E+02 0.  0.
         13    1    4    4    0    0  0.16380379313E+02 -0.34442384155E+02  0.37715229187E+02  0.53637982487E+02  0.00000000000E+00 0. -1.
        -14    1    4    4    0    0 -0.41105264867E+02 -0.11511344394E+02  0.16508540541E+03  0.17051494049E+03  0.00000000000E+00 0.  1.
        -13    1    3    3    0    0 -0.29209200556E+02  0.25677549023E+02  0.45753986387E+02  0.60049489517E+02  0.00000000000E+00 0. -1.
         13    1    3    3    0    0  0.43717969518E+02 -0.26940946320E+02  0.21863547169E+02  0.55812992593E+02  0.00000000000E+00 0.  1.
          4    1    1    2  501    0  0.10216116593E+02  0.47217125845E+02 -0.71758651519E+02  0.86505087013E+02  0.00000000000E+00 0. -1.
<scales pt_clust_5="13000.00000" pt_clust_6="13000.00000" pt_clust_7="13000.00000" pt_clust_8="13000.00000" pt_clust_9="48.30971"></scales>
<clustering>
<clus scale="   48.310">  1  9  2 -1</clus>
<clus scale="   79.959">  5  6 -1 -1</clus>
<clus scale="   82.883">  1  5  2 -1</clus>
<clus scale="   92.951">  7  8 -1 -1</clus>
<clus scale="   48.310">  1  5  2 -1</clus>
</clustering>
</event>
<event>
 9    1  0.4664604E-005  0.1291467E+03  0.7546771E-02  0.1231237E+00
          1   -1    0    0  502    0 -0.00000000000E+00  0.00000000000E+00  0.50710283901E+03  0.50710283901E+03  0.00000000000E+00 0. -1.
         21   -1    0    0  501  502  0.00000000000E+00 -0.00000000000E+00 -0.23286822240E+03  0.23286822240E+03  0.00000000000E+00 0. -1.
        -24    2    1    2    0    0 -0.75618410865E+02  0.59706153117E+02  0.37926886496E+03  0.39905823360E+03  0.78228083828E+02 0.  0.
         23    2    1    2    0    0  0.82698078436E+02 -0.36020721329E+02  0.83198964408E+02  0.15106324587E+03  0.88099784526E+02 0.  0.
         11    1    3    3    0    0 -0.93355143901E+01  0.55407237540E+02  0.20497628980E+03  0.21253798056E+03  0.00000000000E+00 0. -1.
        -12    1    3    3    0    0 -0.66282896475E+02  0.42989155771E+01  0.17429257516E+03  0.18652025304E+03  0.00000000000E+00 0.  1.
        -11    1    4    4    0    0  0.29634600543E+02 -0.19868520762E+02  0.88423573503E+02  0.95350385514E+02  0.00000000000E+00 0. -1.
         11    1    4    4    0    0  0.53063477893E+02 -0.16152200568E+02 -0.52246090959E+01  0.55712860360E+02  0.00000000000E+00 0.  1.
          2    1    1    2  501    0 -0.70796675704E+01 -0.23685431788E+02 -0.18823321276E+03  0.18984958193E+03  0.00000000000E+00 0. -1.
<scales pt_clust_5="13000.00000" pt_clust_6="13000.00000" pt_clust_7="13000.00000" pt_clust_8="13000.00000" pt_clust_9="24.72087"></scales>
<clustering>
<clus scale="   24.721">  2  9  1 -1</clus>
<clus scale="   78.228">  5  6 -1 -1</clus>
<clus scale="   88.100">  7  8 -1 -1</clus>
<clus scale="  122.625">  1  5  2 -1</clus>
<clus scale="   24.721">  2  5  1 -1</clus>
</clustering>
</event>
<event>
 9    1  0.4664604E-005  0.1281470E+03  0.7546771E-02  0.1242518E+00
          1   -1    0    0  502    0 -0.00000000000E+00  0.00000000000E+00  0.29490393027E+03  0.29490393027E+03  0.00000000000E+00 0. -1.
         21   -1    0    0  501  502  0.00000000000E+00 -0.00000000000E+00 -0.24755058899E+03  0.24755058899E+03  0.00000000000E+00 0. -1.
         23    2    1    2    0    0  0.36294650904E+02 -0.23253685879E+02 -0.41629777822E+02  0.10804002310E+03  0.89897567261E+02 0.  0.
        -24    2    1    2    0    0  0.14690254432E+02 -0.62605930988E+02  0.23506450025E+03  0.25746505622E+03  0.83051970035E+02 0.  0.
         13    1    4    4    0    0  0.29159745120E+02 -0.69787542431E+02  0.12410817362E+03  0.14533901944E+03  0.00000000000E+00 0. -1.
        -14    1    4    4    0    0 -0.14469490688E+02  0.71816114428E+01  0.11095632663E+03  0.11212603678E+03  0.00000000000E+00 0.  1.
        -13    1    3    3    0    0  0.64328311511E+02 -0.26402113730E+02 -0.38954486950E+02  0.79703546501E+02  0.00000000000E+00 0. -1.
         13    1    3    3    0    0 -0.28033660607E+02  0.31484278517E+01 -0.26752908717E+01  0.28336476602E+02  0.00000000000E+00 0.  1.
          2    1    1    2  501    0 -0.50984905336E+02  0.85859616867E+02 -0.14608138114E+03  0.17694943994E+03  0.00000000000E+00 0. -1.
<scales pt_clust_5="13000.00000" pt_clust_6="13000.00000" pt_clust_7="13000.00000" pt_clust_8="13000.00000" pt_clust_9="97.59113"></scales>
<clustering>
<clus scale="   83.052">  5  6 -1 -1</clus>
<clus scale="   89.898">  7  8 -1 -1</clus>
<clus scale="   99.698">  1  7  2 -1</clus>
<clus scale="   97.591">  2  9  1 -1</clus>
<clus scale="   97.591">  2  5  1 -1</clus>
</clustering>
</event>
<event>
 9    1  0.4664604E-005  0.1265052E+03  0.7546771E-02  0.1236051E+00
          1   -1    0    0  502    0 -0.00000000000E+00  0.00000000000E+00  0.29555237338E+03  0.29555237338E+03  0.00000000000E+00 0. -1.
         21   -1    0    0  501  502  0.00000000000E+00 -0.00000000000E+00 -0.12509363440E+03  0.12509363440E+03  0.00000000000E+00 0. -1.
         23    2    1    2    0    0 -0.81940404673E+00  0.89712308885E+02  0.22421657125E+03  0.25830107982E+03  0.91637368064E+02 0.  0.
        -24    2    1    2    0    0  0.23033796946E+02 -0.77092953008E+02 -0.12733778727E+02  0.11401584392E+03  0.79772077440E+02 0.  0.
         13    1    4    4    0    0  0.51675513328E+02 -0.37782121638E+02 -0.13266051788E+02  0.65374578570E+02  0.00000000000E+00 0. -1.
        -14    1    4    4    0    0 -0.28641716382E+02 -0.39310831370E+02  0.53227306118E+00  0.48641265350E+02  0.00000000000E+00 0.  1.
        -13    1    3    3    0    0 -0.19432873387E+02  0.73744138190E+02  0.22072668552E+03  0.23352966447E+03  0.00000000000E+00 0. -1.
         13    1    3    3    0    0  0.18613469340E+02  0.15968170695E+02  0.34898857282E+01  0.24771415353E+02  0.00000000000E+00 0.  1.
          2    1    1    2  501    0 -0.22214392899E+02 -0.12619355877E+02 -0.41024053539E+02  0.48329084033E+02  0.00000000000E+00 0. -1.
<scales pt_clust_5="13000.00000" pt_clust_6="13000.00000" pt_clust_7="13000.00000" pt_clust_8="13000.00000" pt_clust_9="25.54853"></scales>
<clustering>
<clus scale="   25.549">  2  9  1 -1</clus>
<clus scale="   79.772">  5  6 -1 -1</clus>
<clus scale="   91.637">  7  8 -1 -1</clus>
<clus scale="  118.194">  2  5  1 -1</clus>
<clus scale="   25.549">  2  5  1 -1</clus>
</clustering>
</event>
<event>
 9    1  0.4664604E-005  0.1048781E+03  0.7546771E-02  0.1272660E+00
         21   -1    0    0  501  502  0.00000000000E+00  0.00000000000E+00  0.13290582391E+03  0.13290582391E+03  0.00000000000E+00 0.  1.
          1   -1    0    0  502    0 -0.00000000000E+00 -0.00000000000E+00 -0.20199610475E+03  0.20199610475E+03  0.00000000000E+00 0. -1.
         23    2    1    2    0    0  0.18830053440E+02 -0.74042518115E+02 -0.36427333525E+02  0.12458626865E+03  0.91421673067E+02 0.  0.
        -24    2    1    2    0    0 -0.32042153157E+02 -0.15765333548E+01  0.43911305206E+02  0.10188864921E+03  0.86162109282E+02 0.  0.
         11    1    4    4    0    0 -0.16077934828E+02 -0.25085676239E+02 -0.17263517422E+02  0.34435739784E+02  0.00000000000E+00 0. -1.
        -12    1    4    4    0    0 -0.15964218329E+02  0.23509142884E+02  0.61174822628E+02  0.67452909422E+02  0.00000000000E+00 0.  1.
        -13    1    3    3    0    0 -0.36929067700E+02 -0.24690263665E+02 -0.96785678219E+01  0.45464709788E+02  0.00000000000E+00 0.  1.
         13    1    3    3    0    0  0.55759121140E+02 -0.49352254451E+02 -0.26748765703E+02  0.79121558859E+02  0.00000000000E+00 0. -1.
          2    1    1    2  501    0  0.13212099717E+02  0.75619051470E+02 -0.76574252514E+02  0.10842701081E+03  0.00000000000E+00 0. -1.
<scales pt_clust_5="13000.00000" pt_clust_6="13000.00000" pt_clust_7="13000.00000" pt_clust_8="13000.00000" pt_clust_9="76.76462"></scales>
<clustering>
<clus scale="   76.765">  1  9  2 -1</clus>
<clus scale="   86.162">  5  6 -1 -1</clus>
<clus scale="   91.422">  7  8 -1 -1</clus>
<clus scale="  100.326">  1  5  2 -1</clus>
<clus scale="   76.765">  1  5  2 -1</clus>
</clustering>
</event>
<event>
 9    1  0.4664604E-005  0.1109299E+03  0.7546771E-02  0.1262311E+00
          1   -1    0    0  502    0 -0.00000000000E+00  0.00000000000E+00  0.30240995068E+03  0.30240995068E+03  0.00000000000E+00 0. -1.
         21   -1    0    0  501  502  0.00000000000E+00 -0.00000000000E+00 -0.47383771659E+02  0.47383771659E+02  0.00000000000E+00 0. -1.
        -24    2    1    2    0    0 -0.22746501553E+02  0.66901205093E+02  0.13790049271E+03  0.17559992417E+03  0.82617267580E+02 0.  0.
         23    2    1    2    0    0  0.49541770977E+01 -0.52892872044E+02  0.90851100755E+02  0.13950728710E+03  0.91575984086E+02 0.  0.
         13    1    3    3    0    0 -0.12086123949E+02  0.68459641869E+02  0.46659782899E+02  0.83725338441E+02  0.00000000000E+00 0. -1.
        -14    1    3    3    0    0 -0.10660377604E+02 -0.15584367760E+01  0.91240709808E+02  0.91874585724E+02  0.00000000000E+00 0.  1.
        -13    1    4    4    0    0  0.41773007801E+02 -0.54319484662E+02  0.65406275877E+02  0.94728937073E+02  0.00000000000E+00 0.  1.
         13    1    4    4    0    0 -0.36818830704E+02  0.14266126188E+01  0.25444824878E+02  0.44778350026E+02  0.00000000000E+00 0. -1.
          2    1    1    2  501    0  0.17792324455E+02 -0.14008333049E+02  0.26274585561E+02  0.34686511077E+02  0.00000000000E+00 0. -1.
<scales pt_clust_5="13000.00000" pt_clust_6="13000.00000" pt_clust_7="13000.00000" pt_clust_8="13000.00000" pt_clust_9="22.64510"></scales>
<clustering>
<clus scale="   22.645">  2  9  1 -1</clus>
<clus scale="   82.617">  5  6 -1 -1</clus>
<clus scale="   91.576">  7  8 -1 -1</clus>
<clus scale="  103.658">  1  5  2 -1</clus>
<clus scale="   22.645">  2  5  1 -1</clus>
</clustering>
</event>
<event>
 9    1  0.4664604E-005  0.2313000E+03  0.7546771E-02  0.1126470E+00
          1   -1    0    0  502    0 -0.00000000000E+00  0.00000000000E+00  0.71853808318E+03  0.71853808318E+03  0.00000000000E+00 0. -1.
         21   -1    0    0  501  502  0.00000000000E+00 -0.00000000000E+00 -0.93548322358E+02  0.93548322358E+02  0.00000000000E+00 0. -1.
         23    2    1    2    0    0 -0.21289204113E+03  0.54992621195E+02  0.47645163423E+03  0.53278378529E+03  0.92223600830E+02 0.  0.
        -24    2    1    2    0    0  0.19060679305E+03 -0.46830265379E+02  0.13844095328E+03  0.25351096959E+03  0.81104197468E+02 0.  0.
         13    1    4    4    0    0  0.67195007758E+02 -0.56487285605E+02  0.68357337933E+02  0.11125964296E+03  0.00000000000E+00 0. -1.
        -14    1    4    4    0    0  0.12341178529E+03  0.96570202263E+01  0.70083615350E+02  0.14225132663E+03  0.00000000000E+00 0.  1.
        -11    1    3    3    0    0 -0.87591917932E+02  0.70153849016E+02  0.22493660825E+03  0.25137697657E+03  0.00000000000E+00 0.  1.
         11    1    3    3    0    0 -0.12530012320E+03 -0.15161227821E+02  0.25151502598E+03  0.28140680872E+03  0.00000000000E+00 0. -1.
          2    1    1    2  501    0  0.22285248086E+02 -0.81623558161E+01  0.10097173317E+02  0.25791650659E+02  0.00000000000E+00 0. -1.
<scales pt_clust_5="13000.00000" pt_clust_6="13000.00000" pt_clust_7="13000.00000" pt_clust_8="13000.00000" pt_clust_9="23.73302"></scales>
<clustering>
<clus scale="   23.733">  2  9  1 -1</clus>
<clus scale="   81.104">  5  6 -1 -1</clus>
<clus scale="   92.224">  7  8 -1 -1</clus>
<clus scale="  227.096">  2  5  1 -1</clus>
<clus scale="   23.733">  2  5  1 -1</clus>
</clustering>
</event>
<event>
 9    1  0.4664604E-005  0.9700754E+02  0.7546771E-02  0.1294643E+00
         21   -1    0    0  501  502  0.00000000000E+00  0.00000000000E+00  0.71538528842E+02  0.71538528842E+02  0.00000000000E+00 0. -1.
          1   -1    0    0  502    0 -0.00000000000E+00 -0.00000000000E+00 -0.43556173916E+03  0.43556173916E+03  0.00000000000E+00 0. -1.
         23    2    1    2    0    0 -0.25546021644E+02 -0.21484713727E+02 -0.31286654513E+03  0.32797928511E+03  0.92578314172E+02 0.  0.
        -24    2    1    2    0    0  0.46727939196E+01  0.23838304912E+02 -0.97950509100E+02  0.12782873342E+03  0.78458798559E+02 0.  0.
         11    1    4    4    0    0 -0.29607449976E+02  0.30601541212E+02 -0.32249228205E+02  0.53414119280E+02  0.00000000000E+00 0. -1.
        -12    1    4    4    0    0  0.34280243895E+02 -0.67632363000E+01 -0.65701280895E+02  0.74414614143E+02  0.00000000000E+00 0.  1.
        -13    1    3    3    0    0 -0.44009619032E+02 -0.45019515968E+02 -0.25710574295E+03  0.26470165553E+03  0.00000000000E+00 0. -1.
         13    1    3    3    0    0  0.18463597388E+02  0.23534802241E+02 -0.55760802179E+02  0.63277629576E+02  0.00000000000E+00 0.  1.
          2    1    1    2  501    0  0.20873227724E+02 -0.23535911854E+01  0.46793843914E+02  0.51292249467E+02  0.00000000000E+00 0. -1.
<scales pt_clust_5="13000.00000" pt_clust_6="13000.00000" pt_clust_7="13000.00000" pt_clust_8="13000.00000" pt_clust_9="21.00550"></scales>
<clustering>
<clus scale="   21.005">  1  9  2 -1</clus>
<clus scale="   78.459">  5  6 -1 -1</clus>
<clus scale="   83.639">  1  5  2 -1</clus>
<clus scale="   92.578">  7  8 -1 -1</clus>
<clus scale="   21.005">  1  5  2 -1</clus>
</clustering>
</event>
<event>
 9    1  0.4664604E-005  0.1716180E+03  0.7546771E-02  0.1177223E+00
         21   -1    0    0  501  502  0.00000000000E+00  0.00000000000E+00  0.30788422610E+03  0.30788422610E+03  0.00000000000E+00 0. -1.
         -2   -1    0    0    0  501 -0.00000000000E+00 -0.00000000000E+00 -0.13444165435E+03  0.13444165435E+03  0.00000000000E+00 0.  1.
        -24    2    1    2    0    0  0.27682500287E+02 -0.13729002744E+03  0.14126244560E+02  0.16273942530E+03  0.81668214775E+02 0.  0.
         23    2    1    2    0    0 -0.19938260471E+02  0.16047941099E+03  0.17156948329E+03  0.25223941520E+03  0.89651878960E+02 0.  0.
         13    1    3    3    0    0  0.12767884805E+02 -0.10705074746E+03  0.45186602712E+02  0.11689615254E+03  0.00000000000E+00 0. -1.
        -14    1    3    3    0    0  0.14914615482E+02 -0.30239279980E+02 -0.31060358151E+02  0.45843272758E+02  0.00000000000E+00 0.  1.
        -13    1    4    4    0    0 -0.40025071279E+02  0.38665451060E+02  0.84447640843E+02  0.10113568846E+03  0.00000000000E+00 0.  1.
         13    1    4    4    0    0  0.20086810808E+02  0.12181395993E+03  0.87121842443E+02  0.15110372674E+03  0.00000000000E+00 0. -1.
         -1    1    1    2    0  502 -0.77442398162E+01 -0.23189383548E+02 -0.12253156089E+02  0.27347039947E+02  0.00000000000E+00 0.  1.
<scales pt_clust_5="13000.00000" pt_clust_6="13000.00000" pt_clust_7="13000.00000" pt_clust_8="13000.00000" pt_clust_9="24.44834"></scales>
<clustering>
<clus scale="   24.448">  1  9  2 -1</clus>
<clus scale="   81.668">  5  6 -1 -1</clus>
<clus scale="   89.652">  7  8 -1 -1</clus>
<clus scale="  167.586">  2  5  1 -1</clus>
<clus scale="   24.448">  1  5  2 -1</clus>
</clustering>
</event>
<event>
 9    1  0.4664604E-005  0.1388756E+03  0.7546771E-02  0.1217448E+00
         21   -1    0    0  501  502  0.00000000000E+00  0.00000000000E+00  0.73176147601E+03  0.73176147601E+03  0.00000000000E+00 0. -1.
          3   -1    0    0  502    0 -0.00000000000E+00 -0.00000000000E+00 -0.60562802185E+02  0.60562802185E+02  0.00000000000E+00 0. -1.
        -24    2    1    2    0    0  0.10778441867E+03  0.18126463902E+02  0.40571113338E+02  0.14187964356E+03  0.80856467993E+02 0.  0.
         23    2    1    2    0    0 -0.75818484008E+02  0.53222175929E+01  0.46903563067E+03  0.48406070084E+03  0.92431438086E+02 0.  0.
         13    1    3    3    0    0  0.48582011646E+02  0.40575231973E+02 -0.55597288735E+01  0.63541103943E+02  0.00000000000E+00 0. -1.
        -14    1    3    3    0    0  0.59202407025E+02 -0.22448768071E+02  0.46130842212E+02  0.78338539613E+02  0.00000000000E+00 0.  1.
        -11    1    4    4    0    0  0.17912542267E+02  0.16887618891E+02  0.78592633695E+02  0.82358077402E+02  0.00000000000E+00 0.  1.
         11    1    4    4    0    0 -0.93731026274E+02 -0.11565401298E+02  0.39044299698E+03  0.40170262344E+03  0.00000000000E+00 0. -1.
          4    1    1    2  501    0 -0.31965934663E+02 -0.23448681495E+02  0.16159192982E+03  0.16638393379E+03  0.00000000000E+00 0. -1.
<scales pt_clust_5="13000.00000" pt_clust_6="13000.00000" pt_clust_7="13000.00000" pt_clust_8="13000.00000" pt_clust_9="39.64419"></scales>
<clustering>
<clus scale="   39.644">  1  9  2 -1</clus>
<clus scale="   80.856">  5  6 -1 -1</clus>
<clus scale="   92.431">  7  8 -1 -1</clus>
<clus scale="  131.456">  2  5  1 -1</clus>
<clus scale="   39.644">  1  5  2 -1</clus>
</clustering>
</event>
<event>
 9    1  0.4664604E-005  0.9831949E+02  0.7546771E-02  0.1289699E+00
          3   -1    0    0  502    0 -0.00000000000E+00  0.00000000000E+00  0.14538245676E+03  0.14538245676E+03  0.00000000000E+00 0. -1.
         21   -1    0    0  501  502  0.00000000000E+00 -0.00000000000E+00 -0.10511358935E+03  0.10511358935E+03  0.00000000000E+00 0.  1.
         23    2    1    2    0    0  0.26411881406E+02  0.33696437464E+02  0.81964875461E+02  0.13044455381E+03  0.92002736004E+02 0.  0.
        -24    2    1    2    0    0 -0.10012332735E+02 -0.14596462082E+02 -0.16685387318E+02  0.84565080740E+02  0.80991031717E+02 0.  0.
         11    1    4    4    0    0 -0.11460647295E+02 -0.24045263550E+02  0.28130676264E+02  0.38740883865E+02  0.00000000000E+00 0. -1.
        -12    1    4    4    0    0  0.14483145599E+01  0.94488014686E+01 -0.44816063582E+02  0.45824196875E+02  0.00000000000E+00 0.  1.
        -13    1    3    3    0    0  0.56677249351E+02  0.32139475409E+02  0.74999912858E+02  0.99349098648E+02  0.00000000000E+00 0. -1.
         13    1    3    3    0    0 -0.30265367945E+02  0.15569620549E+01  0.69649626033E+01  0.31095455162E+02  0.00000000000E+00 0.  1.
          4    1    1    2  501    0 -0.16399548671E+02 -0.19099975382E+02 -0.25010620730E+02  0.35486411561E+02  0.00000000000E+00 0. -1.
<scales pt_clust_5="13000.00000" pt_clust_6="13000.00000" pt_clust_7="13000.00000" pt_clust_8="13000.00000" pt_clust_9="25.17448"></scales>
<clustering>
<clus scale="   25.174">  2  9  1 -1</clus>
<clus scale="   80.991">  5  6 -1 -1</clus>
<clus scale="   88.101">  2  5  1 -1</clus>
<clus scale="   92.003">  7  8 -1 -1</clus>
<clus scale="   25.174">  2  5  1 -1</clus>
</clustering>
</event>
<event>
 9    1  0.4664604E-005  0.1217655E+03  0.7546771E-02  0.1252132E+00
          1   -1    0    0  502    0 -0.00000000000E+00  0.00000000000E+00  0.27872125697E+03  0.27872125697E+03  0.00000000000E+00 0. -1.
         21   -1    0    0  501  502  0.00000000000E+00 -0.00000000000E+00 -0.18751897636E+03  0.18751897636E+03  0.00000000000E+00 0.  1.
         23    2    1    2    0    0 -0.78326449653E+01 -0.19734407152E+02  0.81249002843E+02  0.12562958499E+03  0.93437653057E+02 0.  0.
        -24    2    1    2    0    0 -0.88094085960E+02 -0.14304854193E+02 -0.12359899366E+03  0.17269156598E+03  0.81120089330E+02 0.  0.
         13    1    4    4    0    0 -0.23526687165E+02 -0.21090149931E+02  0.16256535151E+01  0.31637670306E+02  0.00000000000E+00 0. -1.
        -14    1    4    4    0    0 -0.64567398795E+02  0.67852957379E+01 -0.12522464717E+03  0.14105389567E+03  0.00000000000E+00 0.  1.
        -11    1    3    3    0    0 -0.32843471892E+02 -0.30761388792E+02  0.86769341203E+02  0.97743926968E+02  0.00000000000E+00 0.  1.
         11    1    3    3    0    0  0.25010826926E+02  0.11026981640E+02 -0.55203383607E+01  0.27885658021E+02  0.00000000000E+00 0. -1.
          2    1    1    2  501    0  0.95926730925E+02  0.34039261345E+02  0.13355227142E+03  0.16791908236E+03  0.00000000000E+00 0. -1.
<scales pt_clust_5="13000.00000" pt_clust_6="13000.00000" pt_clust_7="13000.00000" pt_clust_8="13000.00000" pt_clust_9="90.80951"></scales>
<clustering>
<clus scale="   81.120">  5  6 -1 -1</clus>
<clus scale="   93.438">  7  8 -1 -1</clus>
<clus scale="   95.820">  1  7  2 -1</clus>
<clus scale="   90.810">  2  9  1 -1</clus>
<clus scale="   90.810">  2  5  1 -1</clus>
</clustering>
</event>
<event>
 9    1  0.4664604E-005  0.2028161E+03  0.7546771E-02  0.1155084E+00
         21   -1    0    0  501  502  0.00000000000E+00  0.00000000000E+00  0.84711902563E+03  0.84711902563E+03  0.00000000000E+00 0.  1.
         -2   -1    0    0    0  501 -0.00000000000E+00 -0.00000000000E+00 -0.13808289599E+03  0.13808289599E+03  0.00000000000E+00 0.  1.
        -24    2    1    2    0    0  0.49250821340E+02 -0.14002997367E+03  0.77269561025E+02  0.18588235184E+03  0.80917406887E+02 0.  0.
         23    2    1    2    0    0  0.16667194821E+03  0.62319612505E+02  0.49045633923E+03  0.52981980434E+03  0.92186397918E+02 0.  0.
         13    1    3    3    0    0 -0.18617910477E+02 -0.43757278690E+02  0.40567402159E+02  0.62506320855E+02  0.00000000000E+00 0. -1.
        -14    1    3    3    0    0  0.67868731817E+02 -0.96272694976E+02  0.36702158866E+02  0.12337603099E+03  0.00000000000E+00 0.  1.
        -11    1    4    4    0    0  0.77079700495E+02 -0.18796535290E+02  0.20626186910E+03  0.22099445381E+03  0.00000000000E+00 0.  1.
         11    1    4    4    0    0  0.89592247713E+02  0.81116147795E+02  0.28419447012E+03  0.30882535053E+03  0.00000000000E+00 0. -1.
         -1    1    1    2    0  502 -0.21592276955E+03  0.77710361160E+02  0.14131022939E+03  0.26949976544E+03  0.00000000000E+00 0.  1.
<scales pt_clust_5="13000.00000" pt_clust_6="13000.00000" pt_clust_7="13000.00000" pt_clust_8="13000.00000" pt_clust_9="180.65462"></scales>
<clustering>
<clus scale="   80.917">  5  6 -1 -1</clus>
<clus scale="   92.186">  7  8 -1 -1</clus>
<clus scale="  169.061">  2  5  1 -1</clus>
<clus scale="  180.655">  1  9  2 -1</clus>
<clus scale="  180.655">  1  5  2 -1</clus>
</clustering>
</event>
<event>
 9    1  0.8810067E-005  0.1025388E+03  0.7546771E-02  0.1282511E+00
         -2   -1    0    0    0  501 -0.00000000000E+00  0.00000000000E+00  0.93355149212E+03  0.93355149212E+03  0.00000000000E+00 0.  1.
         21   -1    0    0  501  502  0.00000000000E+00 -0.00000000000E+00 -0.46086314258E+02  0.46086314258E+02  0.00000000000E+00 0.  1.
        -24    2    1    2    0    0  0.82020029712E+01  0.41869478232E+02  0.82074774439E+03  0.82557242767E+03  0.78247347306E+02 0.  0.
         23    2    1    2    0    0  0.21459491334E+02 -0.40308990288E+02  0.32921227749E+02  0.10907179151E+03  0.93421218149E+02 0.  0.
         11    1    3    3    0    0 -0.18994252016E+02 -0.11996644081E+02  0.11017471852E+03  0.11244185022E+03  0.00000000000E+00 0. -1.
        -12    1    3    3    0    0  0.27196254987E+02  0.53866122313E+02  0.71057302587E+03  0.71313057746E+03  0.00000000000E+00 0.  1.
        -13    1    4    4    0    0  0.56510525831E+02 -0.95864191871E+01  0.16352507207E+02  0.59604894551E+02  0.00000000000E+00 0.  1.
         13    1    4    4    0    0 -0.35051034497E+02 -0.30722571101E+02  0.16568720543E+02  0.49466896959E+02  0.00000000000E+00 0. -1.
         -1    1    1    2    0  502 -0.29661494305E+02 -0.15604879432E+01  0.33796205729E+02  0.44993587195E+02  0.00000000000E+00 0.  1.
<scales pt_clust_5="13000.00000" pt_clust_6="13000.00000" pt_clust_7="13000.00000" pt_clust_8="13000.00000" pt_clust_9="29.70251"></scales>
<clustering>
<clus scale="   29.703">  2  9  1 -1</clus>
<clus scale="   78.247">  5  6 -1 -1</clus>
<clus scale="   88.934">  1  5  2 -1</clus>
<clus scale="   93.421">  7  8 -1 -1</clus>
<clus scale="   29.703">  2  5  1 -1</clus>
</clustering>
</event>
<event>
 9    1  0.4664604E-005  0.1049086E+03  0.7546771E-02  0.1275361E+00
         21   -1    0    0  501  502  0.00000000000E+00  0.00000000000E+00  0.84247578154E+02  0.84247578154E+02  0.00000000000E+00 0. -1.
          1   -1    0    0  502    0 -0.00000000000E+00 -0.00000000000E+00 -0.42148465779E+03  0.42148465779E+03  0.00000000000E+00 0. -1.
         23    2    1    2    0    0 -0.53787242999E+02  0.37118866553E+01 -0.36265785038E+03  0.37802822993E+03  0.92074863922E+02 0.  0.
        -24    2    1    2    0    0  0.30982052811E+02  0.12610513999E+02 -0.33606620496E+01  0.87518581579E+02  0.80804055668E+02 0.  0.
         11    1    4    4    0    0 -0.25117704238E+02 -0.15111699823E+01 -0.13853872068E+02  0.28724771055E+02  0.00000000000E+00 0. -1.
        -12    1    4    4    0    0  0.56099757048E+02  0.14121683982E+02  0.10493210018E+02  0.58793810523E+02  0.00000000000E+00 0.  1.
        -13    1    3    3    0    0  0.24467798015E+02  0.83431558967E+01 -0.12918471711E+03  0.13174586341E+03  0.00000000000E+00 0.  1.
         13    1    3    3    0    0 -0.78255041014E+02 -0.46312692414E+01 -0.23347313327E+03  0.24628236652E+03  0.00000000000E+00 0. -1.
          2    1    1    2  501    0  0.22805190188E+02 -0.16322400655E+02  0.28781432802E+02  0.40185424432E+02  0.00000000000E+00 0. -1.
<scales pt_clust_5="13000.00000" pt_clust_6="13000.00000" pt_clust_7="13000.00000" pt_clust_8="13000.00000" pt_clust_9="28.04456"></scales>
<clustering>
<clus scale="   28.045">  1  9  2 -1</clus>
<clus scale="   80.804">  5  6 -1 -1</clus>
<clus scale="   92.075">  7  8 -1 -1</clus>
<clus scale="   95.170">  1  5  2 -1</clus>
<clus scale="   28.045">  1  5  2 -1</clus>
</clustering>
</event>
<event>
 9    1  0.4664604E-005  0.1046039E+03  0.7546771E-02  0.1277034E+00
          1   -1    0    0  502    0 -0.00000000000E+00  0.00000000000E+00  0.24486100913E+03  0.24486100913E+03  0.00000000000E+00 0. -1.
         21   -1    0    0  501  502  0.00000000000E+00 -0.00000000000E+00 -0.53419232667E+02  0.53419232667E+02  0.00000000000E+00 0.  1.
        -24    2    1    2    0    0 -0.31662937702E+02  0.47519788902E+02  0.13364219734E+03  0.16487735403E+03  0.77869332863E+02 0.  0.
         23    2    1    2    0    0  0.27319816309E+02 -0.27125304311E+02  0.45046958570E+02  0.10896056717E+03  0.91438625450E+02 0.  0.
         11    1    3    3    0    0 -0.39232560684E+02  0.42629785282E+02  0.14151252721E+03  0.15291268021E+03  0.00000000000E+00 0. -1.
        -12    1    3    3    0    0  0.75696229816E+01  0.48900036199E+01 -0.78703298673E+01  0.11964673824E+02  0.00000000000E+00 0.  1.
        -11    1    4    4    0    0 -0.31107196318E+02 -0.59934103043E+01  0.32863231735E+02  0.45646145839E+02  0.00000000000E+00 0. -1.
         11    1    4    4    0    0  0.58427012627E+02 -0.21131894007E+02  0.12183726834E+02  0.63314421330E+02  0.00000000000E+00 0.  1.
          2    1    1    2  501    0  0.43431213928E+01 -0.20394484591E+02  0.12752620547E+02  0.24442320593E+02  0.00000000000E+00 0. -1.
<scales pt_clust_5="13000.00000" pt_clust_6="13000.00000" pt_clust_7="13000.00000" pt_clust_8="13000.00000" pt_clust_9="20.85180"></scales>
<clustering>
<clus scale="   20.852">  2  9  1 -1</clus>
<clus scale="   77.869">  5  6 -1 -1</clus>
<clus scale="   91.439">  7  8 -1 -1</clus>
<clus scale="   92.976">  1  5  2 -1</clus>
<clus scale="   20.852">  2  5  1 -1</clus>
</clustering>
</event>
<event>
 9    1  0.4664604E-005  0.1547601E+03  0.7546771E-02  0.1211014E+00
         21   -1    0    0  501  502  0.00000000000E+00  0.00000000000E+00  0.41836590798E+03  0.41836590798E+03  0.00000000000E+00 0. -1.
          1   -1    0    0  502    0 -0.00000000000E+00 -0.00000000000E+00 -0.15516658529E+03  0.15516658529E+03  0.00000000000E+00 0. -1.
        -24    2    1    2    0    0  0.70572745725E+02  0.40277250155E-01  0.22875259784E+03  0.25333996812E+03  0.82902800718E+02 0.  0.
         23    2    1    2    0    0 -0.28058608534E+02  0.12140858292E+03 -0.53762758737E+02  0.16418550450E+03  0.92407338139E+02 0.  0.
         13    1    3    3    0    0  0.68213399453E+02 -0.27485483001E+01  0.82682275892E+02  0.10722397647E+03  0.00000000000E+00 0. -1.
        -14    1    3    3    0    0  0.23593462722E+01  0.27888255503E+01  0.14607032195E+03  0.14611599165E+03  0.00000000000E+00 0.  1.
        -13    1    4    4    0    0 -0.29085850615E+02  0.13356063219E+02 -0.45746568703E+02  0.55831171211E+02  0.00000000000E+00 0.  1.
         13    1    4    4    0    0  0.10272420810E+01  0.10805251970E+03 -0.80161900338E+01  0.10835433329E+03  0.00000000000E+00 0. -1.
          2    1    1    2  501    0 -0.42514137191E+02 -0.12144886017E+03  0.88209483583E+02  0.15600702065E+03  0.00000000000E+00 0. -1.
<scales pt_clust_5="13000.00000" pt_clust_6="13000.00000" pt_clust_7="13000.00000" pt_clust_8="13000.00000" pt_clust_9="124.14339"></scales>
<clustering>
<clus scale="   82.903">  5  6 -1 -1</clus>
<clus scale="   92.407">  7  8 -1 -1</clus>
<clus scale="  108.873">  2  5  1 -1</clus>
<clus scale="  124.143">  1  9  2 -1</clus>
<clus scale="  124.143">  1  5  2 -1</clus>
</clustering>
</event>
<event>
 9    1  0.4664604E-005  0.1253698E+03  0.7546771E-02  0.1238315E+00
         21   -1    0    0  501  502  0.00000000000E+00  0.00000000000E+00  0.16707693322E+03  0.16707693322E+03  0.00000000000E+00 0.  1.
         -2   -1    0    0    0  501 -0.00000000000E+00 -0.00000000000E+00 -0.27214012468E+03  0.27214012468E+03  0.00000000000E+00 0.  1.
         23    2    1    2    0    0  0.73747985715E+02  0.26789182161E+02 -0.80582755175E+02  0.14465645306E+03  0.90969683425E+02 0.  0.
        -24    2    1    2    0    0 -0.97868362220E+02  0.75806278143E+02 -0.88967507165E+02  0.17100412647E+03  0.77475065718E+02 0.  0.
         11    1    4    4    0    0 -0.44049759297E+02 -0.95523954541E+01 -0.25292482681E+02  0.51685000079E+02  0.00000000000E+00 0. -1.
        -12    1    4    4    0    0 -0.53818602923E+02  0.85358673598E+02 -0.63675024484E+02  0.11931912639E+03  0.00000000000E+00 0.  1.
        -11    1    3    3    0    0  0.10198132420E+02 -0.20870545590E+02  0.90141341417E+01  0.24916584686E+02  0.00000000000E+00 0. -1.
         11    1    3    3    0    0  0.63549853295E+02  0.47659727751E+02 -0.89596889317E+02  0.11973986838E+03  0.00000000000E+00 0.  1.
         -1    1    1    2    0  502  0.24120376505E+02 -0.10259546030E+03  0.64487070884E+02  0.12355647838E+03  0.00000000000E+00 0.  1.
<scales pt_clust_5="13000.00000" pt_clust_6="13000.00000" pt_clust_7="13000.00000" pt_clust_8="13000.00000" pt_clust_9="105.39270"></scales>
<clustering>
<clus scale="   77.475">  5  6 -1 -1</clus>
<clus scale="   90.970">  7  8 -1 -1</clus>
<clus scale="  105.393">  1  9  2 -1</clus>
<clus scale="  115.950">  1  5  2 -1</clus>
<clus scale="  105.393">  1  5  2 -1</clus>
</clustering>
</event>
<event>
 9    1  0.4664604E-005  0.9645086E+02  0.7546771E-02  0.1293855E+00
         21   -1    0    0  501  502  0.00000000000E+00  0.00000000000E+00  0.82684818276E+02  0.82684818276E+02  0.00000000000E+00 0. -1.
          3   -1    0    0  502    0 -0.00000000000E+00 -0.00000000000E+00 -0.31842375821E+03  0.31842375821E+03  0.00000000000E+00 0. -1.
        -24    2    1    2    0    0 -0.21864885802E+02  0.53347924910E+02 -0.17339466844E+03  0.19996994668E+03  0.81229269403E+02 0.  0.
         23    2    1    2    0    0 -0.15907688203E+02  0.13180531925E+02 -0.78896184256E+02  0.12286495140E+03  0.91893456927E+02 0.  0.
         13    1    3    3    0    0  0.13827412538E+01  0.69065516820E+02 -0.10135199429E+03  0.12265473629E+03  0.00000000000E+00 0. -1.
        -14    1    3    3    0    0 -0.23247627055E+02 -0.15717591911E+02 -0.72042674147E+02  0.77315210389E+02  0.00000000000E+00 0.  1.
        -13    1    4    4    0    0 -0.43215920797E+02 -0.22914147243E+02 -0.40042712894E+02  0.63214656608E+02  0.00000000000E+00 0.  1.
         13    1    4    4    0    0  0.27308232594E+02  0.36094679167E+02 -0.38853471363E+02  0.59650294790E+02  0.00000000000E+00 0. -1.
          4    1    1    2  501    0  0.37772574004E+02 -0.66528456834E+02  0.16551912763E+02  0.78273678410E+02  0.00000000000E+00 0. -1.
<scales pt_clust_5="13000.00000" pt_clust_6="13000.00000" pt_clust_7="13000.00000" pt_clust_8="13000.00000" pt_clust_9="76.50361"></scales>
<clustering>
<clus scale="   76.504">  1  9  2 -1</clus>
<clus scale="   81.229">  5  6 -1 -1</clus>
<clus scale="   86.351">  2  5  1 -1</clus>
<clus scale="   91.893">  7  8 -1 -1</clus>
<clus scale="   76.504">  1  5  2 -1</clus>
</clustering>
</event>
<event>
 9    1  0.4664604E-005  0.1829060E+03  0.7546771E-02  0.1172046E+00
         21   -1    0    0  501  502  0.00000000000E+00  0.00000000000E+00  0.69817337052E+03  0.69817337052E+03  0.00000000000E+00 0. -1.
          3   -1    0    0  502    0 -0.00000000000E+00 -0.00000000000E+00 -0.12983703031E+03  0.12983703031E+03  0.00000000000E+00 0. -1.
        -24    2    1    2    0    0 -0.10446437034E+03  0.83435265478E+02  0.30077495726E+03  0.33867890414E+03  0.79772031393E+02 0.  0.
         23    2    1    2    0    0  0.15600821914E+03  0.80439342347E+02  0.30814173602E+02  0.19682355394E+03  0.83552054755E+02 0.  0.
         11    1    3    3    0    0 -0.46521760804E+02  0.74632398435E+02  0.23318654563E+03  0.24921924923E+03  0.00000000000E+00 0. -1.
        -12    1    3    3    0    0 -0.57942609539E+02  0.88028670435E+01  0.67588411634E+02  0.89459654904E+02  0.00000000000E+00 0.  1.
        -11    1    4    4    0    0  0.10360907734E+03  0.41961394061E+02  0.58498081057E+02  0.12616507039E+03  0.00000000000E+00 0.  1.
         11    1    4    4    0    0  0.52399141808E+02  0.38477948286E+02 -0.27683907455E+02  0.70658483556E+02  0.00000000000E+00 0. -1.
          4    1    1    2  501    0 -0.51543848801E+02 -0.16387460782E+03  0.23674720934E+03  0.29250794275E+03  0.00000000000E+00 0. -1.
<scales pt_clust_5="13000.00000" pt_clust_6="13000.00000" pt_clust_7="13000.00000" pt_clust_8="13000.00000" pt_clust_9="162.70728"></scales>
<clustering>
<clus scale="   79.772">  5  6 -1 -1</clus>
<clus scale="   83.552">  7  8 -1 -1</clus>
<clus scale="  155.685">  2  5  1 -1</clus>
<clus scale="  162.707">  1  9  2 -1</clus>
<clus scale="  162.707">  1  5  2 -1</clus>
</clustering>
</event>
<event>
 9    1  0.4664604E-005  0.2564322E+03  0.7546771E-02  0.1135513E+00
         21   -1    0    0  501  502  0.00000000000E+00  0.00000000000E+00  0.20097685223E+03  0.20097685223E+03  0.00000000000E+00 0. -1.
          1   -1    0    0  502    0 -0.00000000000E+00 -0.00000000000E+00 -0.52670486437E+03  0.52670486437E+03  0.00000000000E+00 0. -1.
         23    2    1    2    0    0 -0.89146595310E+02  0.40204459010E+02 -0.57641821101E+02  0.14542627804E+03  0.90899443482E+02 0.  0.
        -24    2    1    2    0    0  0.36221492000E+02  0.22638150804E+03 -0.10001893960E+03  0.26269989503E+03  0.80292358947E+02 0.  0.
         13    1    4    4    0    0  0.31096275287E+02  0.22510050028E+03 -0.10919434480E+03  0.25211231326E+03  0.00000000000E+00 0. -1.
        -14    1    4    4    0    0  0.51252167127E+01  0.12810077680E+01  0.91754051992E+01  0.10587581774E+02  0.00000000000E+00 0.  1.
        -13    1    3    3    0    0 -0.44429574686E+02 -0.17172980095E+02  0.69579911948E+01  0.48138466880E+02  0.00000000000E+00 0.  1.
         13    1    3    3    0    0 -0.44717020624E+02  0.57377439105E+02 -0.64599812296E+02  0.97287811160E+02  0.00000000000E+00 0. -1.
          2    1    1    2  501    0  0.52925103310E+02 -0.26658596705E+03 -0.16806725145E+03  0.31955554353E+03  0.00000000000E+00 0. -1.
<scales pt_clust_5="13000.00000" pt_clust_6="13000.00000" pt_clust_7="13000.00000" pt_clust_8="13000.00000" pt_clust_9="243.53779"></scales>
<clustering>
<clus scale="   80.292">  5  6 -1 -1</clus>
<clus scale="   90.899">  7  8 -1 -1</clus>
<clus scale="  133.515">  2  7  1 -1</clus>
<clus scale="  243.538">  1  9  2 -1</clus>
<clus scale="  243.538">  1  5  2 -1</clus>
</clustering>
</event>
<event>
 9    1  0.4664604E-005  0.1484204E+03  0.7546771E-02  0.1226672E+00
         21   -1    0    0  501  502  0.00000000000E+00  0.00000000000E+00  0.48766368799E+03  0.48766368799E+03  0.00000000000E+00 0.  1.
         -4   -1    0    0    0  501 -0.00000000000E+00 -0.00000000000E+00 -0.74045582746E+02  0.74045582746E+02  0.00000000000E+00 0.  1.
        -24    2    1    2    0    0 -0.33486701723E+02  0.21402148207E+02  0.16646367781E+03  0.18866270387E+03  0.79398039408E+02 0.  0.
         23    2    1    2    0    0 -0.66531230891E+02  0.76049259399E+02  0.15170626743E+03  0.20389954521E+03  0.91380186131E+02 0.  0.
         11    1    3    3    0    0  0.12567332530E+02 -0.21785553983E+02  0.38768153480E+02  0.46211664474E+02  0.00000000000E+00 0. -1.
        -12    1    3    3    0    0 -0.46054034253E+02  0.43187702190E+02  0.12769552433E+03  0.14245103940E+03  0.00000000000E+00 0.  1.
        -13    1    4    4    0    0 -0.59525732977E+02  0.12321458229E+02  0.33452036719E+02  0.69384219964E+02  0.00000000000E+00 0.  1.
         13    1    4    4    0    0 -0.70054979139E+01  0.63727801170E+02  0.11825423071E+03  0.13451532524E+03  0.00000000000E+00 0. -1.
         -3    1    1    2    0  502  0.10001793261E+03 -0.97451407606E+02  0.95448160002E+02  0.16914702166E+03  0.00000000000E+00 0.  1.
<scales pt_clust_5="13000.00000" pt_clust_6="13000.00000" pt_clust_7="13000.00000" pt_clust_8="13000.00000" pt_clust_9="116.95421"></scales>
<clustering>
<clus scale="   79.398">  5  6 -1 -1</clus>
<clus scale="   88.789">  2  5  1 -1</clus>
<clus scale="   91.380">  7  8 -1 -1</clus>
<clus scale="  116.954">  1  9  2 -1</clus>
<clus scale="  116.954">  1  5  2 -1</clus>
</clustering>
</event>
<event>
 9    1  0.4664604E-005  0.1096677E+03  0.7546771E-02  0.1262497E+00
         21   -1    0    0  501  502  0.00000000000E+00  0.00000000000E+00  0.54335706587E+02  0.54335706587E+02  0.00000000000E+00 0. -1.
          1   -1    0    0  502    0 -0.00000000000E+00 -0.00000000000E+00 -0.81837072336E+03  0.81837072336E+03  0.00000000000E+00 0. -1.
         23    2    1    2    0    0  0.39875544687E+02  0.45533471129E+01 -0.19975434569E+03  0.22833430795E+03  0.10307262260E+03 0.  0.
        -24    2    1    2    0    0  0.21160812879E+02 -0.92300773682E+02 -0.76394614163E+02  0.14491456389E+03  0.78720270137E+02 0.  0.
         13    1    4    4    0    0 -0.19934804070E+02 -0.55791862695E+02 -0.12360609280E+02  0.60522004413E+02  0.00000000000E+00 0. -1.
        -14    1    4    4    0    0  0.41095616949E+02 -0.36508910987E+02 -0.64034004883E+02  0.84392559478E+02  0.00000000000E+00 0.  1.
        -13    1    3    3    0    0  0.62761813627E+02 -0.11711663999E+02 -0.66628488860E+02  0.92279812804E+02  0.00000000000E+00 0. -1.
         13    1    3    3    0    0 -0.22886268940E+02  0.16265011112E+02 -0.13312585683E+03  0.13605449515E+03  0.00000000000E+00 0.  1.
          2    1    1    2  501    0 -0.61036357566E+02  0.87747426569E+02 -0.48788605692E+03  0.49945755811E+03  0.00000000000E+00 0. -1.
<scales pt_clust_5="13000.00000" pt_clust_6="13000.00000" pt_clust_7="13000.00000" pt_clust_8="13000.00000" pt_clust_9="106.88807"></scales>
<clustering>
<clus scale="   78.720">  5  6 -1 -1</clus>
<clus scale="  103.073">  7  8 -1 -1</clus>
<clus scale="  106.888">  1  9  2 -1</clus>
<clus scale="  106.888">  1  5  2 -1</clus>
<clus scale="  106.888">  1  5  2 -1</clus>
</clustering>
</event>
<event>
 9    1  0.4664604E-005  0.9343177E+02  0.7546771E-02  0.1299932E+00
         21   -1    0    0  501  502  0.00000000000E+00  0.00000000000E+00  0.22457985375E+02  0.22457985375E+02  0.00000000000E+00 0. -1.
          1   -1    0    0  502    0 -0.00000000000E+00 -0.00000000000E+00 -0.87084377396E+03  0.87084377396E+03  0.00000000000E+00 0. -1.
        -24    2    1    2    0    0  0.42115051991E+02  0.11988726208E+02 -0.31887421350E+03  0.33195913497E+03  0.81232358638E+02 0.  0.
         23    2    1    2    0    0  0.18920381758E+02 -0.79327558975E+01 -0.14473194214E+03  0.17173109863E+03  0.90129494044E+02 0.  0.
         11    1    3    3    0    0  0.53504675632E+02  0.14303098122E+01 -0.30889681242E+03  0.31349966000E+03  0.00000000000E+00 0. -1.
        -12    1    3    3    0    0 -0.11389623642E+02  0.10558416396E+02 -0.99774010870E+01  0.18459474964E+02  0.00000000000E+00 0.  1.
        -11    1    4    4    0    0  0.19171066912E+02  0.27311614525E+02 -0.13750612295E+02  0.36090628049E+02  0.00000000000E+00 0. -1.
         11    1    4    4    0    0 -0.25068515385E+00 -0.35244370422E+02 -0.13098132985E+03  0.13564047058E+03  0.00000000000E+00 0.  1.
          2    1    1    2  501    0 -0.61035433748E+02 -0.40559703108E+01 -0.38477963293E+03  0.38961152574E+03  0.00000000000E+00 0. -1.
<scales pt_clust_5="13000.00000" pt_clust_6="13000.00000" pt_clust_7="13000.00000" pt_clust_8="13000.00000" pt_clust_9="61.17008"></scales>
<clustering>
<clus scale="   61.170">  1  9  2 -1</clus>
<clus scale="   81.232">  5  6 -1 -1</clus>
<clus scale="   84.881">  2  5  1 -1</clus>
<clus scale="   90.129">  7  8 -1 -1</clus>
<clus scale="   61.170">  1  5  2 -1</clus>
</clustering>
</event>
<event>
 9    1  0.4664604E-005  0.9950451E+02  0.7546771E-02  0.1285779E+00
         21   -1    0    0  501  502  0.00000000000E+00  0.00000000000E+00  0.78919377560E+02  0.78919377560E+02  0.00000000000E+00 0.  1.
          3   -1    0    0  502    0 -0.00000000000E+00 -0.00000000000E+00 -0.36966305461E+03  0.36966305461E+03  0.00000000000E+00 0. -1.
         23    2    1    2    0    0  0.23833288222E+02 -0.42527562455E+02 -0.31231661154E+03  0.32854045561E+03  0.89557500686E+02 0.  0.
        -24    2    1    2    0    0 -0.90811452413E+01  0.10550261711E+02  0.74233132069E+01  0.82089568637E+02  0.80559397211E+02 0.  0.
         13    1    4    4    0    0  0.32485137551E+00  0.41051446585E+02 -0.14308965459E+02  0.43474973118E+02  0.00000000000E+00 0. -1.
        -14    1    4    4    0    0 -0.94059966168E+01 -0.30501184874E+02  0.21732278666E+02  0.38614595519E+02  0.00000000000E+00 0.  1.
        -13    1    3    3    0    0  0.12059059057E+02 -0.64783141364E+02 -0.27958241714E+03  0.28724311007E+03  0.00000000000E+00 0. -1.
         13    1    3    3    0    0  0.11774229165E+02  0.22255578908E+02 -0.32734194401E+02  0.41297345533E+02  0.00000000000E+00 0.  1.
          4    1    1    2  501    0 -0.14752142980E+02  0.31977300745E+02  0.14149621280E+02  0.37952407931E+02  0.00000000000E+00 0. -1.
<scales pt_clust_5="13000.00000" pt_clust_6="13000.00000" pt_clust_7="13000.00000" pt_clust_8="13000.00000" pt_clust_9="35.21610"></scales>
<clustering>
<clus scale="   35.216">  1  9  2 -1</clus>
<clus scale="   80.559">  5  6 -1 -1</clus>
<clus scale="   89.558">  7  8 -1 -1</clus>
<clus scale="   91.490">  1  5  2 -1</clus>
<clus scale="   35.216">  1  5  2 -1</clus>
</clustering>
</event>
<event>
 9    1  0.4664604E-005  0.1029940E+03  0.7546771E-02  0.1280604E+00
         21   -1    0    0  501  502  0.00000000000E+00  0.00000000000E+00  0.81246563935E+02  0.81246563935E+02  0.00000000000E+00 0. -1.
          1   -1    0    0  502    0 -0.00000000000E+00 -0.00000000000E+00 -0.34830885638E+03  0.34830885638E+03  0.00000000000E+00 0. -1.
         23    2    1    2    0    0  0.13797039606E+02  0.39257066509E+02 -0.26384140796E+03  0.28360588223E+03  0.95333794163E+02 0.  0.
        -24    2    1    2    0    0  0.23965135813E+02 -0.36545567180E+02 -0.31924964211E+02  0.98438925447E+02  0.82225984264E+02 0.  0.
         13    1    4    4    0    0  0.46844258655E+02 -0.45636184607E+02 -0.34042949505E+02  0.73729019561E+02  0.00000000000E+00 0. -1.
        -14    1    4    4    0    0 -0.22879122841E+02  0.90906174271E+01  0.21179852935E+01  0.24709905886E+02  0.00000000000E+00 0.  1.
        -11    1    3    3    0    0 -0.14858768609E+02 -0.15483975354E+02 -0.12615947338E+02  0.24893746696E+02  0.00000000000E+00 0.  1.
         11    1    3    3    0    0  0.28655808215E+02  0.54741041863E+02 -0.25122546062E+03  0.25871213553E+03  0.00000000000E+00 0. -1.
          2    1    1    2  501    0 -0.37762175419E+02 -0.27114993293E+01  0.28704079720E+02  0.47510612642E+02  0.00000000000E+00 0. -1.
<scales pt_clust_5="13000.00000" pt_clust_6="13000.00000" pt_clust_7="13000.00000" pt_clust_8="13000.00000" pt_clust_9="37.85940"></scales>
<clustering>
<clus scale="   37.859">  1  9  2 -1</clus>
<clus scale="   82.226">  5  6 -1 -1</clus>
<clus scale="   90.996">  1  5  2 -1</clus>
<clus scale="   95.334">  7  8 -1 -1</clus>
<clus scale="   37.859">  1  5  2 -1</clus>
</clustering>
</event>
<event>
 9    1  0.4664604E-005  0.9762186E+02  0.7546771E-02  0.1293146E+00
         21   -1    0    0  501  502  0.00000000000E+00  0.00000000000E+00  0.26497198848E+03  0.26497198848E+03  0.00000000000E+00 0. -1.
          1   -1    0    0  502    0 -0.00000000000E+00 -0.00000000000E+00 -0.98296158619E+02  0.98296158619E+02  0.00000000000E+00 0. -1.
         23    2    1    2    0    0  0.13927041133E+02 -0.96249804761E+01 -0.12207386747E+02  0.92682283527E+02  0.90301620498E+02 0.  0.
        -24    2    1    2    0    0 -0.78776810622E+02  0.64667226364E+01  0.38795267986E+02  0.11618346545E+03  0.75801849802E+02 0.  0.
         11    1    4    4    0    0 -0.27988655204E+02 -0.18302955308E+01 -0.22637808108E+02  0.36044211156E+02  0.00000000000E+00 0. -1.
        -12    1    4    4    0    0 -0.50788155417E+02  0.82970181673E+01  0.61433076094E+02  0.80139254298E+02  0.00000000000E+00 0.  1.
        -13    1    3    3    0    0 -0.26708696265E+01 -0.28294023664E+02  0.31446727242E+02  0.42386105906E+02  0.00000000000E+00 0. -1.
         13    1    3    3    0    0  0.16597910760E+02  0.18669043188E+02 -0.43654113989E+02  0.50296177621E+02  0.00000000000E+00 0.  1.
          2    1    1    2  501    0  0.64849769489E+02  0.31582578397E+01  0.14008794862E+03  0.15440239812E+03  0.00000000000E+00 0. -1.
<scales pt_clust_5="13000.00000" pt_clust_6="13000.00000" pt_clust_7="13000.00000" pt_clust_8="13000.00000" pt_clust_9="64.92663"></scales>
<clustering>
<clus scale="   64.927">  1  9  2 -1</clus>
<clus scale="   75.802">  5  6 -1 -1</clus>
<clus scale="   84.389">  1  5  2 -1</clus>
<clus scale="   90.302">  7  8 -1 -1</clus>
<clus scale="   64.927">  1  5  2 -1</clus>
</clustering>
</event>
<event>
 9    1  0.4664604E-005  0.1878461E+03  0.7546771E-02  0.1161613E+00
         21   -1    0    0  501  502  0.00000000000E+00  0.00000000000E+00  0.44730213381E+03  0.44730213381E+03  0.00000000000E+00 0.  1.
          1   -1    0    0  502    0 -0.00000000000E+00 -0.00000000000E+00 -0.21225075930E+03  0.21225075930E+03  0.00000000000E+00 0. -1.
        -24    2    1    2    0    0  0.14318007778E+03  0.62308659072E+02 -0.51918009249E+02  0.18305719566E+03  0.80196967076E+02 0.  0.
         23    2    1    2    0    0 -0.20823988056E+03 -0.41123748437E+02  0.32457212509E+03  0.39842172913E+03  0.91311550842E+02 0.  0.
         13    1    3    3    0    0  0.12083246116E+03  0.81474949833E+02 -0.47538525689E+02  0.15329240863E+03  0.00000000000E+00 0. -1.
        -14    1    3    3    0    0  0.22347616627E+02 -0.19166290761E+02 -0.43794835600E+01  0.29764787026E+02  0.00000000000E+00 0.  1.
        -11    1    4    4    0    0 -0.31864220953E+02 -0.38530619947E+02  0.10868607694E+03  0.11963528146E+03  0.00000000000E+00 0. -1.
         11    1    4    4    0    0 -0.17637565960E+03 -0.25931284900E+01  0.21588604815E+03  0.27878644766E+03  0.00000000000E+00 0.  1.
          2    1    1    2  501    0  0.65059802774E+02 -0.21184910635E+02 -0.37602741325E+02  0.78073968330E+02  0.00000000000E+00 0. -1.
<scales pt_clust_5="13000.00000" pt_clust_6="13000.00000" pt_clust_7="13000.00000" pt_clust_8="13000.00000" pt_clust_9="68.42209"></scales>
<clustering>
<clus scale="   68.422">  1  9  2 -1</clus>
<clus scale="   80.197">  5  6 -1 -1</clus>
<clus scale="   91.312">  7  8 -1 -1</clus>
<clus scale="  182.702">  2  5  1 -1</clus>
<clus scale="   68.422">  1  5  2 -1</clus>
</clustering>
</event>
<event>
 9    1  0.4664604E-005  0.1207166E+03  0.7546771E-02  0.1245143E+00
          3   -1    0    0  502    0 -0.00000000000E+00  0.00000000000E+00  0.10656630489E+03  0.10656630489E+03  0.00000000000E+00 0. -1.
         21   -1    0    0  501  502  0.00000000000E+00 -0.00000000000E+00 -0.25240251150E+03  0.25240251150E+03  0.00000000000E+00 0.  1.
         23    2    1    2    0    0  0.72033185185E+02 -0.11775752637E+02  0.23633174716E+02  0.11834193838E+03  0.90104602072E+02 0.  0.
        -24    2    1    2    0    0 -0.10237800690E+03  0.31964119412E+02 -0.14225584782E+03  0.19514111360E+03  0.79626419946E+02 0.  0.
         11    1    4    4    0    0 -0.39978991957E+02 -0.15828142213E+02 -0.14943383557E+02  0.45520924814E+02  0.00000000000E+00 0. -1.
        -12    1    4    4    0    0 -0.62399014940E+02  0.47792261624E+02 -0.12731246426E+03  0.14962018879E+03  0.00000000000E+00 0.  1.
        -13    1    3    3    0    0 -0.10788570376E+02  0.17284193630E+02  0.22784508220E+02  0.30565837385E+02  0.00000000000E+00 0.  1.
         13    1    3    3    0    0  0.82821755561E+02 -0.29059946267E+02  0.84866649589E+00  0.87776100996E+02  0.00000000000E+00 0. -1.
          4    1    1    2  501    0  0.30344821712E+02 -0.20188366775E+02 -0.27213533509E+02  0.45485764408E+02  0.00000000000E+00 0. -1.
<scales pt_clust_5="13000.00000" pt_clust_6="13000.00000" pt_clust_7="13000.00000" pt_clust_8="13000.00000" pt_clust_9="36.44693"></scales>
<clustering>
<clus scale="   36.447">  2  9  1 -1</clus>
<clus scale="   79.626">  5  6 -1 -1</clus>
<clus scale="   90.105">  7  8 -1 -1</clus>
<clus scale="  113.111">  2  5  1 -1</clus>
<clus scale="   36.447">  2  5  1 -1</clus>
</clustering>
</event>
<event>
 9    1  0.4664604E-005  0.1106964E+03  0.7546771E-02  0.1262109E+00
          1   -1    0    0  502    0 -0.00000000000E+00  0.00000000000E+00  0.50117030019E+02  0.50117030019E+02  0.00000000000E+00 0. -1.
         21   -1    0    0  501  502  0.00000000000E+00 -0.00000000000E+00 -0.39200425150E+03  0.39200425150E+03  0.00000000000E+00 0. -1.
        -24    2    1    2    0    0  0.64283360756E+02 -0.16441447681E+02 -0.41480313982E+02  0.11458538885E+03  0.83704977263E+02 0.  0.
         23    2    1    2    0    0 -0.44569444582E+02  0.30487033537E+02 -0.25441107161E+03  0.27555961065E+03  0.91061578397E+02 0.  0.
         13    1    3    3    0    0  0.74949698341E+02  0.61404732517E+01 -0.12338616308E+02  0.76206326152E+02  0.00000000000E+00 0. -1.
        -14    1    3    3    0    0 -0.10666337585E+02 -0.22581920933E+02 -0.29141697675E+02  0.38379062701E+02  0.00000000000E+00 0.  1.
        -13    1    4    4    0    0  0.21448557720E+02 -0.25462582753E+01 -0.12256674207E+03  0.12445533465E+03  0.00000000000E+00 0. -1.
         13    1    4    4    0    0 -0.66018002303E+02  0.33033291812E+02 -0.13184432954E+03  0.15110427601E+03  0.00000000000E+00 0.  1.
          2    1    1    2  501    0 -0.19713916174E+02 -0.14045585856E+02 -0.45995835888E+02  0.51976282014E+02  0.00000000000E+00 0. -1.
<scales pt_clust_5="13000.00000" pt_clust_6="13000.00000" pt_clust_7="13000.00000" pt_clust_8="13000.00000" pt_clust_9="24.20572"></scales>
<clustering>
<clus scale="   24.206">  2  9  1 -1</clus>
<clus scale="   83.705">  5  6 -1 -1</clus>
<clus scale="   91.062">  7  8 -1 -1</clus>
<clus scale="  104.728">  1  5  2 -1</clus>
<clus scale="   24.206">  2  5  1 -1</clus>
</clustering>
</event>
<event>
 9    1  0.4664604E-005  0.9292595E+02  0.7546771E-02  0.1306826E+00
          1   -1    0    0  502    0 -0.00000000000E+00  0.00000000000E+00  0.78829072027E+02  0.78829072027E+02  0.00000000000E+00 0. -1.
         21   -1    0    0  501  502  0.00000000000E+00 -0.00000000000E+00 -0.51419062575E+03  0.51419062575E+03  0.00000000000E+00 0. -1.
         23    2    1    2    0    0  0.24172891757E+01  0.17924609862E+02  0.27647126389E+02  0.97067056581E+02  0.91271654691E+02 0.  0.
        -24    2    1    2    0    0  0.61187760647E+02 -0.33119918694E+01 -0.16546027293E+03  0.19133126049E+03  0.73997553873E+02 0.  0.
         13    1    4    4    0    0  0.77804366782E+02  0.30513822802E+01 -0.12727304894E+03  0.14920207576E+03  0.00000000000E+00 0. -1.
        -14    1    4    4    0    0 -0.16616606135E+02 -0.63633741497E+01 -0.38187223987E+02  0.42129184728E+02  0.00000000000E+00 0.  1.
        -13    1    3    3    0    0 -0.29416011758E+02  0.36666014743E+02 -0.56360966020E+01  0.47344101742E+02  0.00000000000E+00 0. -1.
         13    1    3    3    0    0  0.31833300934E+02 -0.18741404881E+02  0.33283222991E+02  0.49722954839E+02  0.00000000000E+00 0.  1.
          2    1    1    2  501    0 -0.63605049823E+02 -0.14612617992E+02 -0.29754840719E+03  0.30462138071E+03  0.00000000000E+00 0. -1.
<scales pt_clust_5="13000.00000" pt_clust_6="13000.00000" pt_clust_7="13000.00000" pt_clust_8="13000.00000" pt_clust_9="65.26202"></scales>
<clustering>
<clus scale="   65.262">  2  9  1 -1</clus>
<clus scale="   73.998">  5  6 -1 -1</clus>
<clus scale="   76.029">  2  5  1 -1</clus>
<clus scale="   91.272">  7  8 -1 -1</clus>
<clus scale="   65.262">  2  5  1 -1</clus>
</clustering>
</event>
<event>
 9    1  0.4664604E-005  0.1193267E+03  0.7546771E-02  0.1249394E+00
          1   -1    0    0  502    0 -0.00000000000E+00  0.00000000000E+00  0.25315033423E+03  0.25315033423E+03  0.00000000000E+00 0. -1.
         21   -1    0    0  501  502  0.00000000000E+00 -0.00000000000E+00 -0.10384371995E+03  0.10384371995E+03  0.00000000000E+00 0. -1.
        -24    2    1    2    0    0  0.87886567147E+02  0.45535380358E+02  0.77539705952E+02  0.14688994962E+03  0.75939000199E+02 0.  0.
         23    2    1    2    0    0 -0.20714945580E+02 -0.39907064973E+02 -0.11539698361E+02  0.10294209919E+03  0.91881599584E+02 0.  0.
         11    1    3    3    0    0  0.60451435836E+02  0.66546619652E+02  0.51400695987E+02  0.10356090107E+03  0.00000000000E+00 0. -1.
        -12    1    3    3    0    0  0.27435131311E+02 -0.21011239293E+02  0.26139009965E+02  0.43329048554E+02  0.00000000000E+00 0.  1.
        -11    1    4    4    0    0 -0.14042202807E+02 -0.67317937319E+02 -0.22971884232E+02  0.72502383476E+02  0.00000000000E+00 0.  1.
         11    1    4    4    0    0 -0.66727427730E+01  0.27410872346E+02  0.11432185872E+02  0.30439715713E+02  0.00000000000E+00 0. -1.
          2    1    1    2  501    0 -0.67171621568E+02 -0.56283153857E+01  0.83306606686E+02  0.10716200537E+03  0.00000000000E+00 0. -1.
<scales pt_clust_5="13000.00000" pt_clust_6="13000.00000" pt_clust_7="13000.00000" pt_clust_8="13000.00000" pt_clust_9="67.40704"></scales>
<clustering>
<clus scale="   67.407">  2  9  1 -1</clus>
<clus scale="   75.939">  5  6 -1 -1</clus>
<clus scale="   91.882">  7  8 -1 -1</clus>
<clus scale="  107.533">  1  5  2 -1</clus>
<clus scale="   67.407">  2  5  1 -1</clus>
</clustering>
</event>
<event>
 9    1  0.4664604E-005  0.2180001E+03  0.7546771E-02  0.1135383E+00
         21   -1    0    0  501  502  0.00000000000E+00  0.00000000000E+00  0.29968722323E+03  0.29968722323E+03  0.00000000000E+00 0. -1.
          1   -1    0    0  502    0 -0.00000000000E+00 -0.00000000000E+00 -0.70756046712E+03  0.70756046712E+03  0.00000000000E+00 0. -1.
        -24    2    1    2    0    0  0.69854541105E+02 -0.62831300241E+01 -0.32792652820E+03  0.34438490603E+03  0.78396562236E+02 0.  0.
         23    2    1    2    0    0  0.51030147237E+02  0.13746296144E+02 -0.34955121396E+03  0.36730332801E+03  0.99662666040E+02 0.  0.
         11    1    3    3    0    0  0.52919384400E+02  0.31594052360E+02 -0.16140220756E+03  0.17276955171E+03  0.00000000000E+00 0. -1.
        -12    1    3    3    0    0  0.16935156705E+02 -0.37877182384E+02 -0.16652432063E+03  0.17161535432E+03  0.00000000000E+00 0.  1.
        -13    1    4    4    0    0  0.34685145866E+02 -0.34978295666E+02 -0.88914889951E+02  0.10164840464E+03  0.00000000000E+00 0.  1.
         13    1    4    4    0    0  0.16345001371E+02  0.48724591809E+02 -0.26063632401E+03  0.26565492337E+03  0.00000000000E+00 0. -1.
          2    1    1    2  501    0 -0.12088468834E+03 -0.74631661197E+01  0.26960449827E+03  0.29555945630E+03  0.00000000000E+00 0. -1.
<scales pt_clust_5="13000.00000" pt_clust_6="13000.00000" pt_clust_7="13000.00000" pt_clust_8="13000.00000" pt_clust_9="121.11485"></scales>
<clustering>
<clus scale="   78.397">  5  6 -1 -1</clus>
<clus scale="   99.663">  7  8 -1 -1</clus>
<clus scale="  102.903">  5  7 -1 -1</clus>
<clus scale="  121.115">  1  9  2 -1</clus>
<clus scale="  121.115">  1  5  2 -1</clus>
</clustering>
</event>
<event>
 9    1  0.4664604E-005  0.9549813E+02  0.7546771E-02  0.1295113E+00
         21   -1    0    0  501  502  0.00000000000E+00  0.00000000000E+00  0.21138814042E+03  0.21138814042E+03  0.00000000000E+00 0. -1.
          1   -1    0    0  502    0 -0.00000000000E+00 -0.00000000000E+00 -0.21886574248E+03  0.21886574248E+03  0.00000000000E+00 0. -1.
        -24    2    1    2    0    0  0.29530888168E+02  0.22813543856E+02 -0.15899460813E+03  0.18248973386E+03  0.81429026835E+02 0.  0.
         23    2    1    2    0    0  0.20841026358E+02 -0.21799753434E+02  0.81266934651E+01  0.95780139045E+02  0.90543990741E+02 0.  0.
         11    1    3    3    0    0  0.27330689368E+02  0.52390132958E+02 -0.93719524790E+02  0.11079278830E+03  0.00000000000E+00 0. -1.
        -12    1    3    3    0    0  0.22001987998E+01 -0.29576589102E+02 -0.65275083338E+02  0.71696945559E+02  0.00000000000E+00 0.  1.
        -11    1    4    4    0    0 -0.34557137828E+02 -0.62214493701E+01  0.14279645241E+02  0.37905282948E+02  0.00000000000E+00 0.  1.
         11    1    4    4    0    0  0.55398164186E+02 -0.15578304064E+02 -0.61529517759E+01  0.57874856097E+02  0.00000000000E+00 0. -1.
          2    1    1    2  501    0 -0.50371914526E+02 -0.10137904213E+01  0.14339031261E+03  0.15198400999E+03  0.00000000000E+00 0. -1.
<scales pt_clust_5="13000.00000" pt_clust_6="13000.00000" pt_clust_7="13000.00000" pt_clust_8="13000.00000" pt_clust_9="50.38212"></scales>
<clustering>
<clus scale="   50.382">  1  9  2 -1</clus>
<clus scale="   81.429">  5  6 -1 -1</clus>
<clus scale="   86.904">  2  5  1 -1</clus>
<clus scale="   90.544">  7  8 -1 -1</clus>
<clus scale="   50.382">  1  5  2 -1</clus>
</clustering>
</event>
<event>
 9    1  0.4664604E-005  0.1385031E+03  0.7546771E-02  0.1227097E+00
         21   -1    0    0  501  502  0.00000000000E+00  0.00000000000E+00  0.10944263145E+03  0.10944263145E+03  0.00000000000E+00 0. -1.
          1   -1    0    0  502    0 -0.00000000000E+00 -0.00000000000E+00 -0.74280439704E+03  0.74280439704E+03  0.00000000000E+00 0. -1.
        -24    2    1    2    0    0 -0.81005713524E+01  0.73489061724E+02 -0.51269933297E+03  0.52401300673E+03  0.79137625354E+02 0.  0.
         23    2    1    2    0    0  0.35078290924E+02  0.31703905776E+02 -0.17575513013E+03  0.20646143419E+03  0.97472221214E+02 0.  0.
         11    1    3    3    0    0  0.26930514176E+02  0.11547093643E+02 -0.74184800347E+02  0.79761974448E+02  0.00000000000E+00 0. -1.
        -12    1    3    3    0    0 -0.35031085529E+02  0.61941968080E+02 -0.43851453262E+03  0.44425103228E+03  0.00000000000E+00 0.  1.
        -11    1    4    4    0    0  0.26244507185E+01  0.57937900384E+02 -0.60157919305E+02  0.83562331811E+02  0.00000000000E+00 0. -1.
         11    1    4    4    0    0  0.32453840206E+02 -0.26233994608E+02 -0.11559721082E+03  0.12289910238E+03  0.00000000000E+00 0.  1.
          2    1    1    2  501    0 -0.26977719572E+02 -0.10519296750E+03  0.55092697497E+02  0.12177258756E+03  0.00000000000E+00 0. -1.
<scales pt_clust_5="13000.00000" pt_clust_6="13000.00000" pt_clust_7="13000.00000" pt_clust_8="13000.00000" pt_clust_9="98.39857"></scales>
<clustering>
<clus scale="   79.138">  5  6 -1 -1</clus>
<clus scale="   97.472">  7  8 -1 -1</clus>
<clus scale="  108.301">  2  5  1 -1</clus>
<clus scale="   98.399">  1  9  2 -1</clus>
<clus scale="   98.399">  1  5  2 -1</clus>
</clustering>
</event>
<event>
 9    1  0.4664604E-005  0.9196026E+02  0.7546771E-02  0.1304301E+00
          3   -1    0    0  502    0 -0.00000000000E+00  0.00000000000E+00  0.36474823990E+02  0.36474823990E+02  0.00000000000E+00 0. -1.
         21   -1    0    0  501  502  0.00000000000E+00 -0.00000000000E+00 -0.34620627820E+03  0.34620627820E+03  0.00000000000E+00 0.  1.
        -24    2    1    2    0    0  0.22458504199E+02  0.48649114494E+00 -0.11818131271E+03  0.14481050140E+03  0.80614127527E+02 0.  0.
         23    2    1    2    0    0 -0.14197922827E+01  0.18978510386E+02 -0.18726102184E+03  0.20888939600E+03  0.90586366488E+02 0.  0.
         13    1    3    3    0    0 -0.24115471382E+02  0.16676041768E+02 -0.21756763888E+02  0.36510315034E+02  0.00000000000E+00 0. -1.
        -14    1    3    3    0    0  0.46573975581E+02 -0.16189550623E+02 -0.96424548827E+02  0.10830018637E+03  0.00000000000E+00 0.  1.
        -13    1    4    4    0    0 -0.19988055374E+02 -0.10819538740E+02 -0.49928267036E+01  0.23270433917E+02  0.00000000000E+00 0.  1.
         13    1    4    4    0    0  0.18568263092E+02  0.29798049126E+02 -0.18226819513E+03  0.18561896208E+03  0.00000000000E+00 0. -1.
          4    1    1    2  501    0 -0.21038711916E+02 -0.19465001531E+02 -0.42891196571E+01  0.28981204791E+02  0.00000000000E+00 0. -1.
<scales pt_clust_5="13000.00000" pt_clust_6="13000.00000" pt_clust_7="13000.00000" pt_clust_8="13000.00000" pt_clust_9="28.66207"></scales>
<clustering>
<clus scale="   28.662">  2  9  1 -1</clus>
<clus scale="   80.614">  5  6 -1 -1</clus>
<clus scale="   82.155">  1  5  2 -1</clus>
<clus scale="   90.586">  7  8 -1 -1</clus>
<clus scale="   28.662">  2  5  1 -1</clus>
</clustering>
</event>
<event>
 9    1  0.4664604E-005  0.1406207E+03  0.7546771E-02  0.1233237E+00
         21   -1    0    0  501  502  0.00000000000E+00  0.00000000000E+00  0.25645653136E+03  0.25645653136E+03  0.00000000000E+00 0.  1.
          1   -1    0    0  502    0 -0.00000000000E+00 -0.00000000000E+00 -0.22966321349E+03  0.22966321349E+03  0.00000000000E+00 0. -1.
        -24    2    1    2    0    0  0.14065812170E+02 -0.17883222181E+02 -0.12507074633E+03  0.15476827843E+03  0.88277243459E+02 0.  0.
         23    2    1    2    0    0  0.99055854327E+02  0.30029258190E+01  0.16670048310E+03  0.21629472400E+03  0.95777224448E+02 0.  0.
         11    1    3    3    0    0  0.32984991995E+02  0.56599217546E+01 -0.11944621459E+03  0.12404613090E+03  0.00000000000E+00 0. -1.
        -12    1    3    3    0    0 -0.18919179826E+02 -0.23543143935E+02 -0.56245317423E+01  0.30722147532E+02  0.00000000000E+00 0.  1.
        -13    1    4    4    0    0  0.24517046208E+02  0.12308154372E+01 -0.84285770211E+01  0.25954602135E+02  0.00000000000E+00 0. -1.
         13    1    4    4    0    0  0.74538808119E+02  0.17721103818E+01  0.17512906012E+03  0.19034012186E+03  0.00000000000E+00 0.  1.
          2    1    1    2  501    0 -0.11312166650E+03  0.14880296362E+02 -0.14836418906E+02  0.11505674242E+03  0.00000000000E+00 0. -1.
<scales pt_clust_5="13000.00000" pt_clust_6="13000.00000" pt_clust_7="13000.00000" pt_clust_8="13000.00000" pt_clust_9="102.96068"></scales>
<clustering>
<clus scale="   88.277">  5  6 -1 -1</clus>
<clus scale="   91.162">  2  5  1 -1</clus>
<clus scale="   95.777">  7  8 -1 -1</clus>
<clus scale="  102.961">  1  9  2 -1</clus>
<clus scale="  102.961">  1  5  2 -1</clus>
</clustering>
</event>
<event>
 9    1  0.4664604E-005  0.1023937E+03  0.7546771E-02  0.1276681E+00
          1   -1    0    0  502    0 -0.00000000000E+00  0.00000000000E+00  0.84272766651E+02  0.84272766651E+02  0.00000000000E+00 0. -1.
         21   -1    0    0  501  502  0.00000000000E+00 -0.00000000000E+00 -0.22754216938E+03  0.22754216938E+03  0.00000000000E+00 0. -1.
        -24    2    1    2    0    0 -0.73573525199E+02  0.78965799376E+01  0.45739282354E+01  0.10962734994E+03  0.80757757834E+02 0.  0.
         23    2    1    2    0    0  0.26351898363E+02 -0.14988503077E+02 -0.84886654489E+02  0.12317036944E+03  0.83941158116E+02 0.  0.
         11    1    3    3    0    0 -0.69180262114E+02  0.36291057646E+02 -0.74598996085E+01  0.78476745813E+02  0.00000000000E+00 0. -1.
        -12    1    3    3    0    0 -0.43932630842E+01 -0.28394477708E+02  0.12033827844E+02  0.31150604126E+02  0.00000000000E+00 0.  1.
        -13    1    4    4    0    0  0.38648863349E+02 -0.42208062506E+02 -0.42353613417E+02  0.71197498188E+02  0.00000000000E+00 0.  1.
         13    1    4    4    0    0 -0.12296964986E+02  0.27219559429E+02 -0.42533041072E+02  0.51972871252E+02  0.00000000000E+00 0. -1.
          2    1    1    2  501    0  0.47221626835E+02  0.70919231392E+01 -0.62956676479E+02  0.79017216656E+02  0.00000000000E+00 0. -1.
<scales pt_clust_5="13000.00000" pt_clust_6="13000.00000" pt_clust_7="13000.00000" pt_clust_8="13000.00000" pt_clust_9="47.75120"></scales>
<clustering>
<clus scale="   47.751">  2  9  1 -1</clus>
<clus scale="   80.758">  5  6 -1 -1</clus>
<clus scale="   83.941">  7  8 -1 -1</clus>
<clus scale="   99.801">  1  5  2 -1</clus>
<clus scale="   47.751">  2  5  1 -1</clus>
</clustering>
</event>
<event>
 9    1  0.4664604E-005  0.1598548E+03  0.7546771E-02  0.1190843E+00
         -2   -1    0    0    0  501 -0.00000000000E+00  0.00000000000E+00  0.15850953593E+03  0.15850953593E+03  0.00000000000E+00 0.  1.
         21   -1    0    0  501  502  0.00000000000E+00 -0.00000000000E+00 -0.24431066715E+03  0.24431066715E+03  0.00000000000E+00 0.  1.
         23    2    1    2    0    0 -0.11368315375E+03  0.41171957396E+02  0.20346441313E+02  0.15315750172E+03  0.91783730237E+02 0.  0.
        -24    2    1    2    0    0  0.12366983199E+03 -0.88384961402E+02 -0.56673306937E+02  0.18055044163E+03  0.79249413292E+02 0.  0.
         11    1    4    4    0    0  0.37885278071E+02 -0.43029220078E+00  0.12070926439E+02  0.39764138504E+02  0.00000000000E+00 0. -1.
        -12    1    4    4    0    0  0.85784553921E+02 -0.87954669201E+02 -0.68744233376E+02  0.14078630313E+03  0.00000000000E+00 0.  1.
        -11    1    3    3    0    0 -0.10605112692E+03  0.60845826039E+00  0.31072908547E+02  0.11051125458E+03  0.00000000000E+00 0.  1.
         11    1    3    3    0    0 -0.76320268232E+01  0.40563499136E+02 -0.10726467233E+02  0.42646247137E+02  0.00000000000E+00 0. -1.
         -1    1    1    2    0  502 -0.99866782473E+01  0.47213004006E+02 -0.49474265591E+02  0.69112259733E+02  0.00000000000E+00 0.  1.
<scales pt_clust_5="13000.00000" pt_clust_6="13000.00000" pt_clust_7="13000.00000" pt_clust_8="13000.00000" pt_clust_9="48.25766"></scales>
<clustering>
<clus scale="   48.258">  2  9  1 -1</clus>
<clus scale="   79.249">  5  6 -1 -1</clus>
<clus scale="   91.784">  7  8 -1 -1</clus>
<clus scale="  153.003">  2  5  1 -1</clus>
<clus scale="   48.258">  2  5  1 -1</clus>
</clustering>
</event>
<event>
 9    1  0.4664604E-005  0.1081969E+03  0.7546771E-02  0.1267524E+00
         21   -1    0    0  501  502  0.00000000000E+00  0.00000000000E+00  0.11205774649E+03  0.11205774649E+03  0.00000000000E+00 0.  1.
          3   -1    0    0  502    0 -0.00000000000E+00 -0.00000000000E+00 -0.26350997104E+03  0.26350997104E+03  0.00000000000E+00 0. -1.
         23    2    1    2    0    0 -0.28746180003E+02  0.51408528953E+02 -0.21207680294E+03  0.23807878811E+03  0.90751084235E+02 0.  0.
        -24    2    1    2    0    0  0.10552616877E+02 -0.61133955517E+02  0.50222623667E+02  0.11438502666E+03  0.81932314473E+02 0.  0.
         11    1    4    4    0    0 -0.25539844684E+02 -0.61029113803E+02  0.37912390730E+02  0.76250808317E+02  0.00000000000E+00 0. -1.
        -12    1    4    4    0    0  0.36092461561E+02 -0.10484171330E+00  0.12310232937E+02  0.38134218339E+02  0.00000000000E+00 0.  1.
        -11    1    3    3    0    0 -0.84965530920E+01  0.70177118006E+02 -0.19001214492E+03  0.20273538054E+03  0.00000000000E+00 0.  1.
         11    1    3    3    0    0 -0.20249626911E+02 -0.18768589053E+02 -0.22064658015E+02  0.35343407567E+02  0.00000000000E+00 0. -1.
          4    1    1    2  501    0  0.18193563126E+02  0.97254265634E+01  0.10401954724E+02  0.23103902769E+02  0.00000000000E+00 0. -1.
<scales pt_clust_5="13000.00000" pt_clust_6="13000.00000" pt_clust_7="13000.00000" pt_clust_8="13000.00000" pt_clust_9="20.62982"></scales>
<clustering>
<clus scale="   20.630">  1  9  2 -1</clus>
<clus scale="   81.932">  5  6 -1 -1</clus>
<clus scale="   90.751">  7  8 -1 -1</clus>
<clus scale="  100.914">  1  5  2 -1</clus>
<clus scale="   20.630">  1  5  2 -1</clus>
</clustering>
</event>
<event>
 9    1  0.4664604E-005  0.1168787E+03  0.7546771E-02  0.1251344E+00
         21   -1    0    0  501  502  0.00000000000E+00  0.00000000000E+00  0.79820164318E+02  0.79820164318E+02  0.00000000000E+00 0. -1.
          1   -1    0    0  502    0 -0.00000000000E+00 -0.00000000000E+00 -0.79436010255E+03  0.79436010255E+03  0.00000000000E+00 0. -1.
         23    2    1    2    0    0  0.40160211382E+02 -0.30684183512E+02 -0.36329246073E+03  0.37775366561E+03  0.90344109760E+02 0.  0.
        -24    2    1    2    0    0 -0.92129834495E+02  0.65405474306E+02 -0.39586683236E+03  0.41963274351E+03  0.81334543632E+02 0.  0.
         11    1    4    4    0    0 -0.64944286902E+02  0.66911171768E+01 -0.12360378635E+03  0.13978707898E+03  0.00000000000E+00 0. -1.
        -12    1    4    4    0    0 -0.27185547593E+02  0.58714357129E+02 -0.27226304601E+03  0.27984566453E+03  0.00000000000E+00 0.  1.
        -13    1    3    3    0    0 -0.28023570677E+02 -0.13490695429E+02 -0.14926113658E+03  0.15246706618E+03  0.00000000000E+00 0. -1.
         13    1    3    3    0    0  0.68183782059E+02 -0.17193488083E+02 -0.21403132414E+03  0.22528659943E+03  0.00000000000E+00 0.  1.
          2    1    1    2  501    0  0.51969623112E+02 -0.34721290793E+02  0.44619354850E+02  0.76793857750E+02  0.00000000000E+00 0. -1.
<scales pt_clust_5="13000.00000" pt_clust_6="13000.00000" pt_clust_7="13000.00000" pt_clust_8="13000.00000" pt_clust_9="62.50128"></scales>
<clustering>
<clus scale="   62.501">  1  9  2 -1</clus>
<clus scale="   81.335">  5  6 -1 -1</clus>
<clus scale="   90.344">  7  8 -1 -1</clus>
<clus scale="  110.063">  1  5  2 -1</clus>
<clus scale="   62.501">  1  5  2 -1</clus>
</clustering>
</event>
<event>
 9    1  0.4664604E-005  0.1382707E+03  0.7546771E-02  0.1217661E+00
          1   -1    0    0  502    0 -0.00000000000E+00  0.00000000000E+00  0.61049136615E+03  0.61049136615E+03  0.00000000000E+00 0. -1.
         21   -1    0    0  501  502  0.00000000000E+00 -0.00000000000E+00 -0.10123324215E+03  0.10123324215E+03  0.00000000000E+00 0. -1.
         23    2    1    2    0    0  0.18126120440E+02 -0.76538784591E+02  0.12344233696E+03  0.17180607743E+03  0.89958745530E+02 0.  0.
        -24    2    1    2    0    0 -0.99958344471E+02  0.15412987262E+03  0.83810144268E+02  0.21754561313E+03  0.80958416784E+02 0.  0.
         13    1    4    4    0    0 -0.17302854927E+02  0.10031511279E+03  0.36363264500E+02  0.10809624252E+03  0.00000000000E+00 0. -1.
        -14    1    4    4    0    0 -0.82655489545E+02  0.53814759832E+02  0.47446879768E+02  0.10944937061E+03  0.00000000000E+00 0.  1.
        -11    1    3    3    0    0 -0.28428617759E+02 -0.86318381749E+01  0.63047736554E+02  0.69697288487E+02  0.00000000000E+00 0. -1.
         11    1    3    3    0    0  0.46554738198E+02 -0.67906946416E+02  0.60394600409E+02  0.10210878894E+03  0.00000000000E+00 0.  1.
          2    1    1    2  501    0  0.81832224032E+02 -0.77591088028E+02  0.30200564277E+03  0.32237291775E+03  0.00000000000E+00 0. -1.
<scales pt_clust_5="13000.00000" pt_clust_6="13000.00000" pt_clust_7="13000.00000" pt_clust_8="13000.00000" pt_clust_9="112.76924"></scales>
<clustering>
<clus scale="   80.958">  5  6 -1 -1</clus>
<clus scale="   89.959">  7  8 -1 -1</clus>
<clus scale="  112.769">  2  9  1 -1</clus>
<clus scale="  132.591">  2  5  1 -1</clus>
<clus scale="  112.769">  2  5  1 -1</clus>
</clustering>
</event>
<event>
 9    1  0.4664604E-005  0.9208282E+02  0.7546771E-02  0.1302031E+00
         -2   -1    0    0    0  501 -0.00000000000E+00  0.00000000000E+00  0.42830953806E+03  0.42830953806E+03  0.00000000000E+00 0.  1.
         21   -1    0    0  501  502  0.00000000000E+00 -0.00000000000E+00 -0.33379701589E+02  0.33379701589E+02  0.00000000000E+00 0.  1.
         23    2    1    2    0    0  0.14994637023E+02 -0.38698622130E+02  0.22029994208E+03  0.24153127002E+03  0.89904768635E+02 0.  0.
        -24    2    1    2    0    0  0.10337064261E+02 -0.37991776020E+01  0.12184816161E+03  0.14781386560E+03  0.82949838629E+02 0.  0.
         13    1    4    4    0    0 -0.21948973367E+02 -0.13605770352E+02  0.51461239285E+01  0.26331673137E+02  0.00000000000E+00 0. -1.
        -14    1    4    4    0    0  0.32286037627E+02  0.98065927502E+01  0.11670203768E+03  0.12148219247E+03  0.00000000000E+00 0.  1.
        -13    1    3    3    0    0 -0.69701845518E+01  0.26393947081E+02  0.38598436471E+02  0.47276455167E+02  0.00000000000E+00 0. -1.
         13    1    3    3    0    0  0.21964821574E+02 -0.65092569211E+02  0.18170150561E+03  0.19425481485E+03  0.00000000000E+00 0.  1.
         -1    1    1    2    0  502 -0.25331701284E+02  0.42497799732E+02  0.52781732782E+02  0.72344104027E+02  0.00000000000E+00 0.  1.
<scales pt_clust_5="13000.00000" pt_clust_6="13000.00000" pt_clust_7="13000.00000" pt_clust_8="13000.00000" pt_clust_9="49.47482"></scales>
<clustering>
<clus scale="   49.475">  2  9  1 -1</clus>
<clus scale="   82.950">  5  6 -1 -1</clus>
<clus scale="   85.306">  2  5  1 -1</clus>
<clus scale="   89.905">  7  8 -1 -1</clus>
<clus scale="   49.475">  2  5  1 -1</clus>
</clustering>
</event>
<event>
 9    1  0.4664604E-005  0.1516457E+03  0.7546771E-02  0.1199967E+00
         -4   -1    0    0    0  501 -0.00000000000E+00  0.00000000000E+00  0.86923365807E+03  0.86923365807E+03  0.00000000000E+00 0.  1.
         21   -1    0    0  501  502  0.00000000000E+00 -0.00000000000E+00 -0.49453671998E+02  0.49453671998E+02  0.00000000000E+00 0. -1.
         23    2    1    2    0    0 -0.82719666972E+02 -0.69968304550E+02  0.39827423887E+03  0.42261939964E+03  0.90811236414E+02 0.  0.
        -24    2    1    2    0    0  0.12538309854E+03  0.61578911647E+02  0.42251582953E+03  0.45257574063E+03  0.82415356832E+02 0.  0.
         11    1    4    4    0    0  0.76161380452E+02  0.42242948459E+02  0.13797918106E+03  0.16316640883E+03  0.00000000000E+00 0. -1.
        -12    1    4    4    0    0  0.49221718089E+02  0.19335963187E+02  0.28453664848E+03  0.28940933180E+03  0.00000000000E+00 0.  1.
        -11    1    3    3    0    0 -0.70540946520E+02 -0.42551553360E+02  0.37686373831E+03  0.38576279898E+03  0.00000000000E+00 0.  1.
         11    1    3    3    0    0 -0.12178720451E+02 -0.27416751190E+02  0.21410500567E+02  0.36856600660E+02  0.00000000000E+00 0. -1.
         -3    1    1    2    0  502 -0.42663431569E+02  0.83893929035E+01 -0.10100823377E+01  0.43492189792E+02  0.00000000000E+00 0.  1.
<scales pt_clust_5="13000.00000" pt_clust_6="13000.00000" pt_clust_7="13000.00000" pt_clust_8="13000.00000" pt_clust_9="43.48046"></scales>
<clustering>
<clus scale="   43.480">  2  9  1 -1</clus>
<clus scale="   82.415">  5  6 -1 -1</clus>
<clus scale="   90.811">  7  8 -1 -1</clus>
<clus scale="  146.772">  2  5  1 -1</clus>
<clus scale="   43.480">  2  5  1 -1</clus>
</clustering>
</event>
<event>
 9    1  0.4664604E-005  0.1137801E+03  0.7546771E-02  0.1257630E+00
          1   -1    0    0  502    0 -0.00000000000E+00  0.00000000000E+00  0.40582176628E+03  0.40582176628E+03  0.00000000000E+00 0. -1.
         21   -1    0    0  501  502  0.00000000000E+00 -0.00000000000E+00 -0.50749779006E+02  0.50749779006E+02  0.00000000000E+00 0.  1.
         23    2    1    2    0    0 -0.14045618769E+02  0.55395079476E+02  0.16207749247E+03  0.19462839650E+03  0.91352093154E+02 0.  0.
        -24    2    1    2    0    0  0.49444694745E+02 -0.63803731265E+02  0.19456340783E+03  0.22552527552E+03  0.80566967618E+02 0.  0.
         11    1    4    4    0    0  0.31534977033E+02 -0.74216246846E+00  0.12903633749E+03  0.13283592126E+03  0.00000000000E+00 0. -1.
        -12    1    4    4    0    0  0.17909717713E+02 -0.63061568797E+02  0.65527070331E+02  0.92689354264E+02  0.00000000000E+00 0.  1.
        -13    1    3    3    0    0  0.38324691855E+02  0.28545227201E+02  0.86696470666E+02  0.98994393920E+02  0.00000000000E+00 0.  1.
         13    1    3    3    0    0 -0.52370310624E+02  0.26849852275E+02  0.75381021804E+02  0.95634002584E+02  0.00000000000E+00 0. -1.
          2    1    1    2  501    0 -0.35399075976E+02  0.84086517891E+01 -0.15689130232E+01  0.36417873262E+02  0.00000000000E+00 0. -1.
<scales pt_clust_5="13000.00000" pt_clust_6="13000.00000" pt_clust_7="13000.00000" pt_clust_8="13000.00000" pt_clust_9="36.38406"></scales>
<clustering>
<clus scale="   36.384">  2  9  1 -1</clus>
<clus scale="   80.567">  5  6 -1 -1</clus>
<clus scale="   91.352">  7  8 -1 -1</clus>
<clus scale="  105.317">  2  5  1 -1</clus>
<clus scale="   36.384">  2  5  1 -1</clus>
</clustering>
</event>
<event>
 9    1  0.4664604E-005  0.9652287E+02  0.7546771E-02  0.1292614E+00
         -4   -1    0    0    0  501 -0.00000000000E+00  0.00000000000E+00  0.85232957125E+02  0.85232957125E+02  0.00000000000E+00 0.  1.
         21   -1    0    0  501  502  0.00000000000E+00 -0.00000000000E+00 -0.24719056660E+03  0.24719056660E+03  0.00000000000E+00 0. -1.
        -24    2    1    2    0    0 -0.69152328303E+01 -0.59023459149E+02 -0.92809816494E+00  0.99765063163E+02  0.80128754431E+02 0.  0.
         23    2    1    2    0    0 -0.20398400023E+02  0.29696202990E+01 -0.47585097460E+02  0.10320691587E+03  0.89232351839E+02 0.  0.
         11    1    3    3    0    0 -0.14406785851E+02 -0.42287980975E+02  0.36759340021E+02  0.57853935841E+02  0.00000000000E+00 0. -1.
        -12    1    3    3    0    0  0.74915530209E+01 -0.16735478174E+02 -0.37687438186E+02  0.41911127322E+02  0.00000000000E+00 0.  1.
        -13    1    4    4    0    0  0.19868867242E+02  0.27824580194E+02 -0.44039945124E+02  0.55753886994E+02  0.00000000000E+00 0.  1.
         13    1    4    4    0    0 -0.40267267264E+02 -0.24854959895E+02 -0.35451523355E+01  0.47453028875E+02  0.00000000000E+00 0. -1.
         -3    1    1    2    0  502  0.27313632853E+02  0.56053838850E+02 -0.11344441385E+03  0.12945154469E+03  0.00000000000E+00 0.  1.
<scales pt_clust_5="13000.00000" pt_clust_6="13000.00000" pt_clust_7="13000.00000" pt_clust_8="13000.00000" pt_clust_9="62.35437"></scales>
<clustering>
<clus scale="   62.354">  2  9  1 -1</clus>
<clus scale="   80.129">  5  6 -1 -1</clus>
<clus scale="   88.175">  1  5  2 -1</clus>
<clus scale="   89.232">  7  8 -1 -1</clus>
<clus scale="   62.354">  2  5  1 -1</clus>
</clustering>
</event>
<event>
 9    1  0.4664604E-005  0.9679112E+02  0.7546771E-02  0.1292658E+00
          1   -1    0    0  502    0 -0.00000000000E+00  0.00000000000E+00  0.24032227053E+03  0.24032227053E+03  0.00000000000E+00 0. -1.
         21   -1    0    0  501  502  0.00000000000E+00 -0.00000000000E+00 -0.10643220655E+03  0.10643220655E+03  0.00000000000E+00 0. -1.
         23    2    1    2    0    0  0.76992985596E+01  0.35110953577E+02  0.20006372714E+03  0.22267057043E+03  0.90910009126E+02 0.  0.
        -24    2    1    2    0    0  0.43732875324E+01 -0.16232878121E+02 -0.53037314615E+02  0.98109058796E+02  0.80807169857E+02 0.  0.
         11    1    4    4    0    0  0.41661761090E+02 -0.46262121606E+01 -0.36927742054E+02  0.55863783521E+02  0.00000000000E+00 0. -1.
        -12    1    4    4    0    0 -0.37288473557E+02 -0.11606665961E+02 -0.16109572560E+02  0.42245275275E+02  0.00000000000E+00 0.  1.
        -13    1    3    3    0    0 -0.28402945959E+02  0.18470678211E+02  0.22405026073E+02  0.40618696262E+02  0.00000000000E+00 0.  1.
         13    1    3    3    0    0  0.36102244518E+02  0.16640275367E+02  0.17765870107E+03  0.18205187417E+03  0.00000000000E+00 0. -1.
          2    1    1    2  501    0 -0.12072586092E+02 -0.18878075456E+02 -0.13136348546E+02  0.25974847853E+02  0.00000000000E+00 0. -1.
<scales pt_clust_5="13000.00000" pt_clust_6="13000.00000" pt_clust_7="13000.00000" pt_clust_8="13000.00000" pt_clust_9="22.40824"></scales>
<clustering>
<clus scale="   22.408">  2  9  1 -1</clus>
<clus scale="   80.807">  5  6 -1 -1</clus>
<clus scale="   87.371">  2  5  1 -1</clus>
<clus scale="   90.910">  7  8 -1 -1</clus>
<clus scale="   22.408">  2  5  1 -1</clus>
</clustering>
</event>
<event>
 9    1  0.4664604E-005  0.1649498E+03  0.7546771E-02  0.1208268E+00
         -2   -1    0    0    0  501 -0.00000000000E+00  0.00000000000E+00  0.30893812530E+03  0.30893812530E+03  0.00000000000E+00 0.  1.
         21   -1    0    0  501  502  0.00000000000E+00 -0.00000000000E+00 -0.31643924401E+03  0.31643924401E+03  0.00000000000E+00 0. -1.
         23    2    1    2    0    0  0.79398292856E+01 -0.21917795784E+02  0.22085570575E+03  0.24056044334E+03  0.92458928592E+02 0.  0.
        -24    2    1    2    0    0 -0.12778751885E+03  0.81534110997E+02 -0.11084617967E+03  0.20669807416E+03  0.86369885293E+02 0.  0.
         11    1    4    4    0    0 -0.10897300096E+03  0.90664895730E+02 -0.11815742722E+03  0.18454380473E+03  0.00000000000E+00 0. -1.
        -12    1    4    4    0    0 -0.18814517892E+02 -0.91307847330E+01  0.73112475550E+01  0.22154269434E+02  0.00000000000E+00 0.  1.
        -11    1    3    3    0    0 -0.21717772988E+02 -0.49709042046E+02  0.13781337273E+03  0.14810528764E+03  0.00000000000E+00 0.  1.
         11    1    3    3    0    0  0.29657602274E+02  0.27791246262E+02  0.83042333020E+02  0.92455155696E+02  0.00000000000E+00 0. -1.
         -1    1    1    2    0  502  0.11984768956E+03 -0.59616315213E+02 -0.11751064479E+03  0.17811885182E+03  0.00000000000E+00 0.  1.
<scales pt_clust_5="13000.00000" pt_clust_6="13000.00000" pt_clust_7="13000.00000" pt_clust_8="13000.00000" pt_clust_9="140.52995"></scales>
<clustering>
<clus scale="   86.370">  5  6 -1 -1</clus>
<clus scale="   92.459">  7  8 -1 -1</clus>
<clus scale="   95.352">  1  7  2 -1</clus>
<clus scale="  140.530">  2  9  1 -1</clus>
<clus scale="  140.530">  2  5  1 -1</clus>
</clustering>
</event>
<event>
 9    1  0.4664604E-005  0.1880079E+03  0.7546771E-02  0.1161692E+00
          1   -1    0    0  502    0 -0.00000000000E+00  0.00000000000E+00  0.14168367469E+03  0.14168367469E+03  0.00000000000E+00 0. -1.
         21   -1    0    0  501  502  0.00000000000E+00 -0.00000000000E+00 -0.39714202146E+03  0.39714202146E+03  0.00000000000E+00 0. -1.
        -24    2    1    2    0    0 -0.14594738400E+03  0.56909613653E+02 -0.11089535737E+03  0.20741367630E+03  0.78634024505E+02 0.  0.
         23    2    1    2    0    0  0.17297956398E+03 -0.34171436930E+02 -0.18921906570E+03  0.27447408358E+03  0.91883355825E+02 0.  0.
         11    1    3    3    0    0 -0.14667827881E+03  0.48216073755E+02 -0.77232776440E+02  0.17263895563E+03  0.00000000000E+00 0. -1.
        -12    1    3    3    0    0  0.73089481735E+00  0.86935398973E+01 -0.33662580927E+02  0.34774720672E+02  0.00000000000E+00 0.  1.
        -13    1    4    4    0    0  0.10945823001E+03 -0.57656878297E+02 -0.15582531223E+03  0.19896468949E+03  0.00000000000E+00 0. -1.
         13    1    4    4    0    0  0.63521333970E+02  0.23485441368E+02 -0.33393753472E+02  0.75509394095E+02  0.00000000000E+00 0.  1.
          2    1    1    2  501    0 -0.27032179981E+02 -0.22738176723E+02  0.44656076303E+02  0.56937936264E+02  0.00000000000E+00 0. -1.
<scales pt_clust_5="13000.00000" pt_clust_6="13000.00000" pt_clust_7="13000.00000" pt_clust_8="13000.00000" pt_clust_9="35.32371"></scales>
<clustering>
<clus scale="   35.324">  2  9  1 -1</clus>
<clus scale="   78.634">  5  6 -1 -1</clus>
<clus scale="   91.883">  7  8 -1 -1</clus>
<clus scale="  181.900">  1  5  2 -1</clus>
<clus scale="   35.324">  2  5  1 -1</clus>
</clustering>
</event>
<event>
 9    1  0.4664604E-005  0.9321024E+02  0.7546771E-02  0.1301950E+00
         21   -1    0    0  501  502  0.00000000000E+00  0.00000000000E+00  0.48422225066E+02  0.48422225066E+02  0.00000000000E+00 0. -1.
          1   -1    0    0  502    0 -0.00000000000E+00 -0.00000000000E+00 -0.32564026348E+03  0.32564026348E+03  0.00000000000E+00 0. -1.
        -24    2    1    2    0    0 -0.32118787411E+02  0.49474571902E+01 -0.16133438013E+03  0.18328836054E+03  0.80683003542E+02 0.  0.
         23    2    1    2    0    0 -0.12056540204E+02 -0.11919791577E+02 -0.11218879035E+03  0.14589957992E+03  0.91721977457E+02 0.  0.
         13    1    3    3    0    0 -0.53159678002E+02  0.19317064760E+02 -0.79414511941E+02  0.97497513112E+02  0.00000000000E+00 0. -1.
        -14    1    3    3    0    0  0.21040890591E+02 -0.14369607570E+02 -0.81919868185E+02  0.85790847426E+02  0.00000000000E+00 0.  1.
        -11    1    4    4    0    0  0.28341502095E+02 -0.30409861556E+02 -0.82746046359E+02  0.92600802420E+02  0.00000000000E+00 0. -1.
         11    1    4    4    0    0 -0.40398042299E+02  0.18490069979E+02 -0.29442743987E+02  0.53298777500E+02  0.00000000000E+00 0.  1.
          2    1    1    2  501    0  0.44175327615E+02  0.69723343864E+01 -0.36948679370E+01  0.44874548084E+02  0.00000000000E+00 0. -1.
<scales pt_clust_5="13000.00000" pt_clust_6="13000.00000" pt_clust_7="13000.00000" pt_clust_8="13000.00000" pt_clust_9="44.72218"></scales>
<clustering>
<clus scale="   44.722">  1  9  2 -1</clus>
<clus scale="   80.683">  5  6 -1 -1</clus>
<clus scale="   82.371">  2  5  1 -1</clus>
<clus scale="   91.722">  7  8 -1 -1</clus>
<clus scale="   44.722">  1  5  2 -1</clus>
</clustering>
</event>
<event>
 9    1  0.4664604E-005  0.9888373E+02  0.7546771E-02  0.1285226E+00
         21   -1    0    0  501  502  0.00000000000E+00  0.00000000000E+00  0.25499322760E+03  0.25499322760E+03  0.00000000000E+00 0. -1.
          1   -1    0    0  502    0 -0.00000000000E+00 -0.00000000000E+00 -0.63822457992E+02  0.63822457992E+02  0.00000000000E+00 0. -1.
         23    2    1    2    0    0  0.21389177658E+02  0.34143385365E+02  0.54482195128E+02  0.10860133990E+03  0.84868567551E+02 0.  0.
        -24    2    1    2    0    0 -0.55705663679E+02 -0.46414158316E+02  0.13652816929E+03  0.17376960929E+03  0.79363348246E+02 0.  0.
         11    1    4    4    0    0 -0.55978608562E+02 -0.51382058040E+02  0.59311500852E+02  0.96392814246E+02  0.00000000000E+00 0. -1.
        -12    1    4    4    0    0  0.27294488283E+00  0.49678997241E+01  0.77216668436E+02  0.77376795041E+02  0.00000000000E+00 0.  1.
        -11    1    3    3    0    0 -0.54832339238E+01 -0.25342680721E+02  0.27994324836E+02  0.38157562073E+02  0.00000000000E+00 0.  1.
         11    1    3    3    0    0  0.26872411581E+02  0.59486066086E+02  0.26487870292E+02  0.70443777831E+02  0.00000000000E+00 0. -1.
          2    1    1    2  501    0  0.34316486022E+02  0.12270772951E+02  0.16040519693E+00  0.36444736404E+02  0.00000000000E+00 0. -1.
<scales pt_clust_5="13000.00000" pt_clust_6="13000.00000" pt_clust_7="13000.00000" pt_clust_8="13000.00000" pt_clust_9="36.44440"></scales>
<clustering>
<clus scale="   36.444">  1  9  2 -1</clus>
<clus scale="   79.363">  5  6 -1 -1</clus>
<clus scale="   84.869">  7  8 -1 -1</clus>
<clus scale="   94.201">  1  5  2 -1</clus>
<clus scale="   36.444">  1  5  2 -1</clus>
</clustering>
</event>
<event>
 9    1  0.4664604E-005  0.9959105E+02  0.7546771E-02  0.1286670E+00
         21   -1    0    0  501  502  0.00000000000E+00  0.00000000000E+00  0.20538814368E+03  0.20538814368E+03  0.00000000000E+00 0.  1.
          3   -1    0    0  502    0 -0.00000000000E+00 -0.00000000000E+00 -0.81853457029E+02  0.81853457029E+02  0.00000000000E+00 0. -1.
         23    2    1    2    0    0  0.37065465956E+02 -0.57057752309E+02  0.33649465592E+02  0.11835627752E+03  0.90810164784E+02 0.  0.
        -24    2    1    2    0    0  0.10366175124E+02  0.22311748023E+02  0.45059258003E+02  0.94950132969E+02  0.79874397228E+02 0.  0.
         13    1    4    4    0    0  0.30299388834E+02  0.44414458092E+02  0.30549770958E+02  0.61838382554E+02  0.00000000000E+00 0. -1.
        -14    1    4    4    0    0 -0.19933213710E+02 -0.22102710069E+02  0.14509487046E+02  0.33111750415E+02  0.00000000000E+00 0.  1.
        -11    1    3    3    0    0 -0.19279544486E+02 -0.32208817681E+02  0.41864800058E+02  0.56229620805E+02  0.00000000000E+00 0. -1.
         11    1    3    3    0    0  0.56345010442E+02 -0.24848934627E+02 -0.82153344661E+01  0.62126656712E+02  0.00000000000E+00 0.  1.
          4    1    1    2  501    0 -0.47431641081E+02  0.34746004285E+02  0.44825963059E+02  0.73935190225E+02  0.00000000000E+00 0. -1.
<scales pt_clust_5="13000.00000" pt_clust_6="13000.00000" pt_clust_7="13000.00000" pt_clust_8="13000.00000" pt_clust_9="58.79664"></scales>
<clustering>
<clus scale="   58.797">  1  9  2 -1</clus>
<clus scale="   79.874">  5  6 -1 -1</clus>
<clus scale="   89.732">  1  5  2 -1</clus>
<clus scale="   90.810">  7  8 -1 -1</clus>
<clus scale="   58.797">  1  5  2 -1</clus>
</clustering>
</event>
<event>
 9    1  0.4664604E-005  0.2356574E+03  0.7546771E-02  0.1122720E+00
          1   -1    0    0  502    0 -0.00000000000E+00  0.00000000000E+00  0.76053624131E+03  0.76053624131E+03  0.00000000000E+00 0. -1.
         21   -1    0    0  501  502  0.00000000000E+00 -0.00000000000E+00 -0.43881824217E+02  0.43881824217E+02  0.00000000000E+00 0. -1.
        -24    2    1    2    0    0 -0.42666686800E+02 -0.48621202775E+01  0.26066142930E+03  0.28559225243E+03  0.10851021862E+03 0.  0.
         23    2    1    2    0    0 -0.79467236684E+02 -0.27318649123E+00  0.28354065423E+03  0.30744257348E+03  0.88377129669E+02 0.  0.
         11    1    3    3    0    0 -0.63318733915E+02  0.30774385761E+02  0.20198691037E+03  0.21390427028E+03  0.00000000000E+00 0. -1.
        -12    1    3    3    0    0  0.20652047115E+02 -0.35636506039E+02  0.58674518936E+02  0.71687982152E+02  0.00000000000E+00 0.  1.
        -13    1    4    4    0    0 -0.91658014878E+02 -0.18452066494E+02  0.25411108735E+03  0.27076579393E+03  0.00000000000E+00 0. -1.
         13    1    4    4    0    0  0.12190778194E+02  0.18178880003E+02  0.29429566880E+02  0.36676779546E+02  0.00000000000E+00 0.  1.
          2    1    1    2  501    0  0.12213392348E+03  0.51353067687E+01  0.17245233356E+03  0.21138323962E+03  0.00000000000E+00 0. -1.
<scales pt_clust_5="13000.00000" pt_clust_6="13000.00000" pt_clust_7="13000.00000" pt_clust_8="13000.00000" pt_clust_9="122.24184"></scales>
<clustering>
<clus scale="   88.377">  7  8 -1 -1</clus>
<clus scale="  108.510">  5  6 -1 -1</clus>
<clus scale="  108.634">  5  7 -1 -1</clus>
<clus scale="  122.242">  2  9  1 -1</clus>
<clus scale="  122.242">  2  5  1 -1</clus>
</clustering>
</event>
<event>
 9    1  0.4664604E-005  0.9842956E+02  0.7546771E-02  0.1288917E+00
         -2   -1    0    0    0  501 -0.00000000000E+00  0.00000000000E+00  0.81444404597E+02  0.81444404597E+02  0.00000000000E+00 0.  1.
         21   -1    0    0  501  502  0.00000000000E+00 -0.00000000000E+00 -0.20894805748E+03  0.20894805748E+03  0.00000000000E+00 0.  1.
         23    2    1    2    0    0 -0.37692247763E+02 -0.12193327556E+02  0.26089985594E+02  0.10275468288E+03  0.91150725325E+02 0.  0.
        -24    2    1    2    0    0  0.31287674022E+02 -0.74253976179E+01 -0.12352751643E+03  0.15117019582E+03  0.80989664241E+02 0.  0.
         13    1    4    4    0    0  0.23005510724E+02  0.31195427054E+02 -0.28052383267E+02  0.47847093953E+02  0.00000000000E+00 0. -1.
        -14    1    4    4    0    0  0.82821632987E+01 -0.38620824672E+02 -0.95475133163E+02  0.10332310187E+03  0.00000000000E+00 0.  1.
        -11    1    3    3    0    0 -0.30870225487E+02  0.17006410094E+02  0.52206615329E+02  0.62989836402E+02  0.00000000000E+00 0.  1.
         11    1    3    3    0    0 -0.68220222767E+01 -0.29199737649E+02 -0.26116629735E+02  0.39764846478E+02  0.00000000000E+00 0. -1.
         -1    1    1    2    0  502  0.64045737411E+01  0.19618725174E+02 -0.30066122048E+02  0.36467583376E+02  0.00000000000E+00 0.  1.
<scales pt_clust_5="13000.00000" pt_clust_6="13000.00000" pt_clust_7="13000.00000" pt_clust_8="13000.00000" pt_clust_9="20.63766"></scales>
<clustering>
<clus scale="   20.638">  2  9  1 -1</clus>
<clus scale="   80.990">  5  6 -1 -1</clus>
<clus scale="   89.102">  2  5  1 -1</clus>
<clus scale="   91.151">  7  8 -1 -1</clus>
<clus scale="   20.638">  2  5  1 -1</clus>
</clustering>
</event>
<event>
 9    1  0.4664604E-005  0.1113366E+03  0.7546771E-02  0.1272714E+00
         21   -1    0    0  501  502  0.00000000000E+00  0.00000000000E+00  0.24022354435E+02  0.24022354435E+02  0.00000000000E+00 0. -1.
          1   -1    0    0  502    0 -0.00000000000E+00 -0.00000000000E+00 -0.77512703112E+03  0.77512703112E+03  0.00000000000E+00 0. -1.
        -24    2    1    2    0    0  0.71318972731E+01 -0.91771341535E+01 -0.33311608117E+03  0.34352035972E+03  0.83095308257E+02 0.  0.
         23    2    1    2    0    0 -0.18861975328E+01 -0.45622586961E+02 -0.33716900380E+03  0.35784184261E+03  0.11082810570E+03 0.  0.
         11    1    3    3    0    0 -0.28412384606E+02 -0.29285409134E+02 -0.20611372609E+03  0.21011369986E+03  0.00000000000E+00 0. -1.
        -12    1    3    3    0    0  0.35544281879E+02  0.20108274981E+02 -0.12700235508E+03  0.13340665985E+03  0.00000000000E+00 0.  1.
        -11    1    4    4    0    0  0.47909162956E+02  0.40795472339E+01 -0.16468862411E+03  0.17156419648E+03  0.00000000000E+00 0. -1.
         11    1    4    4    0    0 -0.49795360488E+02 -0.49702134195E+02 -0.17248037969E+03  0.18627764613E+03  0.00000000000E+00 0.  1.
          2    1    1    2  501    0 -0.52456997403E+01  0.54799721115E+02 -0.80819591706E+02  0.97787183227E+02  0.00000000000E+00 0. -1.
<scales pt_clust_5="13000.00000" pt_clust_6="13000.00000" pt_clust_7="13000.00000" pt_clust_8="13000.00000" pt_clust_9="55.05022"></scales>
<clustering>
<clus scale="   55.050">  1  9  2 -1</clus>
<clus scale="   83.095">  5  6 -1 -1</clus>
<clus scale="   83.772">  2  5  1 -1</clus>
<clus scale="  110.828">  7  8 -1 -1</clus>
<clus scale="   55.050">  1  5  2 -1</clus>
</clustering>
</event>
<event>
 9    1  0.4664604E-005  0.9740075E+02  0.7546771E-02  0.1289355E+00
         -2   -1    0    0    0  501 -0.00000000000E+00  0.00000000000E+00  0.70342459532E+02  0.70342459532E+02  0.00000000000E+00 0.  1.
         21   -1    0    0  501  502  0.00000000000E+00 -0.00000000000E+00 -0.23836065693E+03  0.23836065693E+03  0.00000000000E+00 0.  1.
        -24    2    1    2    0    0 -0.43694093489E+02  0.20319369534E+02  0.51991831075E+01  0.94816437885E+02  0.81492789890E+02 0.  0.
         23    2    1    2    0    0  0.23472315888E+02 -0.82849195199E+00 -0.10018923982E+03  0.13564395412E+03  0.88372860664E+02 0.  0.
         13    1    3    3    0    0  0.67100200649E+01 -0.21754068338E+02 -0.13604348577E+02  0.26520598763E+02  0.00000000000E+00 0. -1.
        -14    1    3    3    0    0 -0.50404113554E+02  0.42073437872E+02  0.18803531685E+02  0.68295839122E+02  0.00000000000E+00 0.  1.
        -13    1    4    4    0    0 -0.29066246157E+02 -0.18010257341E+02 -0.52419064964E+02  0.62585736449E+02  0.00000000000E+00 0.  1.
         13    1    4    4    0    0  0.52538562045E+02  0.17181765389E+02 -0.47770174853E+02  0.73058217670E+02  0.00000000000E+00 0. -1.
         -1    1    1    2    0  502  0.20221777600E+02 -0.19490877582E+02 -0.73028140692E+02  0.78242724461E+02  0.00000000000E+00 0.  1.
<scales pt_clust_5="13000.00000" pt_clust_6="13000.00000" pt_clust_7="13000.00000" pt_clust_8="13000.00000" pt_clust_9="28.08584"></scales>
<clustering>
<clus scale="   28.086">  2  9  1 -1</clus>
<clus scale="   81.493">  5  6 -1 -1</clus>
<clus scale="   88.373">  7  8 -1 -1</clus>
<clus scale="   91.204">  1  5  2 -1</clus>
<clus scale="   28.086">  2  5  1 -1</clus>
</clustering>
</event>
<event>
 9    1  0.4664604E-005  0.9810143E+02  0.7546771E-02  0.1292000E+00
         -2   -1    0    0    0  501 -0.00000000000E+00  0.00000000000E+00  0.19762918342E+03  0.19762918342E+03  0.00000000000E+00 0.  1.
         21   -1    0    0  501  502  0.00000000000E+00 -0.00000000000E+00 -0.23503333734E+03  0.23503333734E+03  0.00000000000E+00 0. -1.
         23    2    1    2    0    0  0.65329544975E+00 -0.35199235566E+02  0.16939452585E+03  0.19582754293E+03  0.91730628506E+02 0.  0.
        -24    2    1    2    0    0 -0.20857221737E+02  0.29548378798E+02 -0.11891174032E+03  0.14647876639E+03  0.77510622677E+02 0.  0.
         11    1    4    4    0    0 -0.11845655759E+02  0.29018526061E+02 -0.12910949906E+03  0.13285953922E+03  0.00000000000E+00 0. -1.
        -12    1    4    4    0    0 -0.90115659785E+01  0.52985273738E+00  0.10197758737E+02  0.13619227165E+02  0.00000000000E+00 0.  1.
        -13    1    3    3    0    0  0.45529185580E+02 -0.15503136376E+02  0.68983826981E+02  0.84095317123E+02  0.00000000000E+00 0.  1.
         13    1    3    3    0    0 -0.44875890131E+02 -0.19696099190E+02  0.10041069886E+03  0.11173222581E+03  0.00000000000E+00 0. -1.
         -1    1    1    2    0  502  0.20203926287E+02  0.56508567676E+01 -0.87886939443E+02  0.90356211431E+02  0.00000000000E+00 0.  1.
<scales pt_clust_5="13000.00000" pt_clust_6="13000.00000" pt_clust_7="13000.00000" pt_clust_8="13000.00000" pt_clust_9="20.97930"></scales>
<clustering>
<clus scale="   20.979">  2  9  1 -1</clus>
<clus scale="   77.511">  5  6 -1 -1</clus>
<clus scale="   84.955">  2  5  1 -1</clus>
<clus scale="   91.731">  7  8 -1 -1</clus>
<clus scale="   20.979">  2  5  1 -1</clus>
</clustering>
</event>
<event>
 9    1  0.4664604E-005  0.1023247E+03  0.7546771E-02  0.1281279E+00
         21   -1    0    0  501  502  0.00000000000E+00  0.00000000000E+00  0.25504035819E+03  0.25504035819E+03  0.00000000000E+00 0. -1.
         -4   -1    0    0    0  501 -0.00000000000E+00 -0.00000000000E+00 -0.69421238538E+02  0.69421238538E+02  0.00000000000E+00 0.  1.
         23    2    1    2    0    0 -0.12183562084E+02 -0.49055758860E+02  0.63844340516E+01  0.10657168579E+03  0.93604789149E+02 0.  0.
        -24    2    1    2    0    0  0.12474466928E+02  0.21536091829E+02  0.88306450478E+02  0.12288801284E+03  0.81755849505E+02 0.  0.
         13    1    4    4    0    0  0.14186112850E+02  0.15038042046E+02  0.10388497111E+03  0.10592202664E+03  0.00000000000E+00 0. -1.
        -14    1    4    4    0    0 -0.17116459223E+01  0.64980497831E+01 -0.15578520629E+02  0.16965986200E+02  0.00000000000E+00 0.  1.
        -11    1    3    3    0    0 -0.40438998342E+02 -0.35522675098E+02 -0.27483009132E+02  0.60435824011E+02  0.00000000000E+00 0.  1.
         11    1    3    3    0    0  0.28255436258E+02 -0.13533083762E+02  0.33867443184E+02  0.46135861779E+02  0.00000000000E+00 0. -1.
         -3    1    1    2    0  502 -0.29090484436E+00  0.27519667031E+02  0.90928235118E+02  0.95001898091E+02  0.00000000000E+00 0.  1.
<scales pt_clust_5="13000.00000" pt_clust_6="13000.00000" pt_clust_7="13000.00000" pt_clust_8="13000.00000" pt_clust_9="27.52120"></scales>
<clustering>
<clus scale="   27.521">  1  9  2 -1</clus>
<clus scale="   81.756">  5  6 -1 -1</clus>
<clus scale="   91.611">  1  5  2 -1</clus>
<clus scale="   93.605">  7  8 -1 -1</clus>
<clus scale="   27.521">  1  5  2 -1</clus>
</clustering>
</event>
<event>
 9    1  0.4664604E-005  0.1158063E+03  0.7546771E-02  0.1252980E+00
         21   -1    0    0  501  502  0.00000000000E+00  0.00000000000E+00  0.31927886806E+03  0.31927886806E+03  0.00000000000E+00 0.  1.
         -2   -1    0    0    0  501 -0.00000000000E+00 -0.00000000000E+00 -0.13460914074E+03  0.13460914074E+03  0.00000000000E+00 0.  1.
         23    2    1    2    0    0 -0.80557552347E+02 -0.12457578891E+02 -0.74046066407E+02  0.14175346710E+03  0.89255335818E+02 0.  0.
        -24    2    1    2    0    0  0.51891582090E+02 -0.28485881287E+02  0.85257481680E+02  0.13161891688E+03  0.80935278926E+02 0.  0.
         11    1    4    4    0    0  0.57953818334E+02 -0.50374253529E+02  0.58567222806E+02  0.96572926151E+02  0.00000000000E+00 0. -1.
        -12    1    4    4    0    0 -0.60622362444E+01  0.21888372242E+02  0.26690258874E+02  0.35045990733E+02  0.00000000000E+00 0.  1.
        -11    1    3    3    0    0 -0.46885388327E+02  0.35620496427E+02 -0.20633968086E+02  0.62392467841E+02  0.00000000000E+00 0.  1.
         11    1    3    3    0    0 -0.33672164020E+02 -0.48078075318E+02 -0.53412098321E+02  0.79360999257E+02  0.00000000000E+00 0. -1.
         -1    1    1    2    0  502  0.28665970258E+02  0.40943460177E+02  0.17345831205E+03  0.18051562481E+03  0.00000000000E+00 0.  1.
<scales pt_clust_5="13000.00000" pt_clust_6="13000.00000" pt_clust_7="13000.00000" pt_clust_8="13000.00000" pt_clust_9="49.98104"></scales>
<clustering>
<clus scale="   49.981">  1  9  2 -1</clus>
<clus scale="   80.935">  5  6 -1 -1</clus>
<clus scale="   89.255">  7  8 -1 -1</clus>
<clus scale="  109.522">  1  5  2 -1</clus>
<clus scale="   49.981">  1  5  2 -1</clus>
</clustering>
</event>
<event>
 9    1  0.4664604E-005  0.2253521E+03  0.7546771E-02  0.1130494E+00
          1   -1    0    0  502    0 -0.00000000000E+00  0.00000000000E+00  0.62924380724E+03  0.62924380724E+03  0.00000000000E+00 0. -1.
         21   -1    0    0  501  502  0.00000000000E+00 -0.00000000000E+00 -0.97902195980E+02  0.97902195980E+02  0.00000000000E+00 0. -1.
        -24    2    1    2    0    0 -0.12134873118E+03 -0.18179150206E+03  0.30225282483E+03  0.38231465575E+03  0.83869309653E+02 0.  0.
         23    2    1    2    0    0  0.82477631726E+02  0.17472518015E+03  0.21419451641E+03  0.30260890608E+03  0.91440750570E+02 0.  0.
         11    1    3    3    0    0 -0.98155727472E+02 -0.16430182045E+03  0.29618351045E+03  0.35263906037E+03  0.00000000000E+00 0. -1.
        -12    1    3    3    0    0 -0.23193003706E+02 -0.17489681610E+02  0.60693143793E+01  0.29675595373E+02  0.00000000000E+00 0.  1.
        -13    1    4    4    0    0  0.40092079382E+02  0.11946943999E+02  0.67546923033E+02  0.79452445597E+02  0.00000000000E+00 0.  1.
         13    1    4    4    0    0  0.42385552344E+02  0.16277823615E+03  0.14664759338E+03  0.22315646048E+03  0.00000000000E+00 0. -1.
          2    1    1    2  501    0  0.38871099451E+02  0.70663219143E+01  0.14894270023E+02  0.42222441397E+02  0.00000000000E+00 0. -1.
<scales pt_clust_5="13000.00000" pt_clust_6="13000.00000" pt_clust_7="13000.00000" pt_clust_8="13000.00000" pt_clust_9="39.50817"></scales>
<clustering>
<clus scale="   39.508">  2  9  1 -1</clus>
<clus scale="   83.869">  5  6 -1 -1</clus>
<clus scale="   91.441">  7  8 -1 -1</clus>
<clus scale="  222.388">  1  5  2 -1</clus>
<clus scale="   39.508">  2  5  1 -1</clus>
</clustering>
</event>
<event>
 9    1  0.4664604E-005  0.1090031E+03  0.7546771E-02  0.1265413E+00
          1   -1    0    0  502    0 -0.00000000000E+00  0.00000000000E+00  0.52712757946E+03  0.52712757946E+03  0.00000000000E+00 0. -1.
         21   -1    0    0  501  502  0.00000000000E+00 -0.00000000000E+00 -0.20937283960E+03  0.20937283960E+03  0.00000000000E+00 0. -1.
         23    2    1    2    0    0  0.31630210549E+02 -0.54145973671E+02  0.48955010574E+03  0.50173342231E+03  0.90248902235E+02 0.  0.
        -24    2    1    2    0    0 -0.10605121960E+02  0.11495687725E+02 -0.16696276486E+03  0.18697102124E+03  0.82686023524E+02 0.  0.
         13    1    4    4    0    0  0.11508259929E+02 -0.28878658603E+02 -0.33078472335E+02  0.45393857529E+02  0.00000000000E+00 0. -1.
        -14    1    4    4    0    0 -0.22113381889E+02  0.40374346328E+02 -0.13388429253E+03  0.14157716371E+03  0.00000000000E+00 0.  1.
        -13    1    3    3    0    0  0.45600269479E+02  0.31368695895E+01  0.14077415164E+03  0.14800873724E+03  0.00000000000E+00 0.  1.
         13    1    3    3    0    0 -0.13970058930E+02 -0.57282843261E+02  0.34877595410E+03  0.35372468508E+03  0.00000000000E+00 0. -1.
          2    1    1    2  501    0 -0.21025088588E+02  0.42650285946E+02 -0.48326010202E+01  0.47795975501E+02  0.00000000000E+00 0. -1.
<scales pt_clust_5="13000.00000" pt_clust_6="13000.00000" pt_clust_7="13000.00000" pt_clust_8="13000.00000" pt_clust_9="47.55104"></scales>
<clustering>
<clus scale="   47.551">  2  9  1 -1</clus>
<clus scale="   82.686">  5  6 -1 -1</clus>
<clus scale="   90.249">  7  8 -1 -1</clus>
<clus scale="  102.829">  2  5  1 -1</clus>
<clus scale="   47.551">  2  5  1 -1</clus>
</clustering>
</event>
<event>
 9    1  0.4664604E-005  0.1048812E+03  0.7546771E-02  0.1274091E+00
          1   -1    0    0  502    0 -0.00000000000E+00  0.00000000000E+00  0.59071141729E+03  0.59071141729E+03  0.00000000000E+00 0. -1.
         21   -1    0    0  501  502  0.00000000000E+00 -0.00000000000E+00 -0.10211634291E+03  0.10211634291E+03  0.00000000000E+00 0. -1.
        -24    2    1    2    0    0 -0.13933633307E+02  0.52426388156E+02  0.42220605295E+03  0.43309149461E+03  0.79797363651E+02 0.  0.
         23    2    1    2    0    0 -0.16964574611E+02 -0.67761313560E+02  0.13920340045E+03  0.17916460195E+03  0.88560575241E+02 0.  0.
         13    1    3    3    0    0 -0.31785649958E+02  0.46787982808E+02  0.15110601482E+03  0.16134581058E+03  0.00000000000E+00 0. -1.
        -14    1    3    3    0    0  0.17852016651E+02  0.56384053478E+01  0.27110003813E+03  0.27174568403E+03  0.00000000000E+00 0.  1.
        -13    1    4    4    0    0 -0.45713603715E+02 -0.34340454129E+02  0.11604906153E+03  0.12936918117E+03  0.00000000000E+00 0. -1.
         13    1    4    4    0    0  0.28749029104E+02 -0.33420859431E+02  0.23154338917E+02  0.49795420776E+02  0.00000000000E+00 0.  1.
          2    1    1    2  501    0  0.30898207918E+02  0.15334925404E+02 -0.72814379022E+02  0.80571663642E+02  0.00000000000E+00 0. -1.
<scales pt_clust_5="13000.00000" pt_clust_6="13000.00000" pt_clust_7="13000.00000" pt_clust_8="13000.00000" pt_clust_9="34.49434"></scales>
<clustering>
<clus scale="   34.494">  2  9  1 -1</clus>
<clus scale="   79.797">  5  6 -1 -1</clus>
<clus scale="   88.561">  7  8 -1 -1</clus>
<clus scale="   97.595">  1  5  2 -1</clus>
<clus scale="   34.494">  2  5  1 -1</clus>
</clustering>
</event>
<event>
 9    1  0.4664604E-005  0.1288817E+03  0.7546771E-02  0.1229780E+00
         21   -1    0    0  501  502  0.00000000000E+00  0.00000000000E+00  0.92018899033E+02  0.92018899033E+02  0.00000000000E+00 0. -1.
          1   -1    0    0  502    0 -0.00000000000E+00 -0.00000000000E+00 -0.28482539610E+03  0.28482539610E+03  0.00000000000E+00 0. -1.
         23    2    1    2    0    0  0.60891821684E+02 -0.10320847311E+03 -0.11014629016E+03  0.18152839373E+03  0.80377544288E+02 0.  0.
        -24    2    1    2    0    0 -0.23799074470E+02  0.66961090832E+02 -0.15451314738E+02  0.11042314668E+03  0.83092385718E+02 0.  0.
         11    1    4    4    0    0 -0.29050607455E+02 -0.10763065609E+02 -0.89691671473E+01  0.32252555466E+02  0.00000000000E+00 0. -1.
        -12    1    4    4    0    0  0.52515329847E+01  0.77724156441E+02 -0.64821475911E+01  0.78170591213E+02  0.00000000000E+00 0.  1.
        -11    1    3    3    0    0  0.11944685560E+02 -0.87423992611E+02 -0.46624419408E+02  0.99797126623E+02  0.00000000000E+00 0. -1.
         11    1    3    3    0    0  0.48947136124E+02 -0.15784480496E+02 -0.63521870752E+02  0.81731267109E+02  0.00000000000E+00 0.  1.
          2    1    1    2  501    0 -0.37092747214E+02  0.36247382275E+02 -0.67208892166E+02  0.84892754719E+02  0.00000000000E+00 0. -1.
<scales pt_clust_5="13000.00000" pt_clust_6="13000.00000" pt_clust_7="13000.00000" pt_clust_8="13000.00000" pt_clust_9="51.86277"></scales>
<clustering>
<clus scale="   51.863">  1  9  2 -1</clus>
<clus scale="   80.378">  7  8 -1 -1</clus>
<clus scale="   83.092">  5  6 -1 -1</clus>
<clus scale="  127.148">  2  7  1 -1</clus>
<clus scale="   51.863">  1  5  2 -1</clus>
</clustering>
</event>
<event>
 9    1  0.4664604E-005  0.9844745E+02  0.7546771E-02  0.1290443E+00
          3   -1    0    0  502    0 -0.00000000000E+00  0.00000000000E+00  0.56769344145E+02  0.56769344145E+02  0.00000000000E+00 0. -1.
         21   -1    0    0  501  502  0.00000000000E+00 -0.00000000000E+00 -0.22634623656E+03  0.22634623656E+03  0.00000000000E+00 0. -1.
        -24    2    1    2    0    0 -0.36577419313E+02  0.27626753517E+02 -0.49484057295E+02  0.10409323051E+03  0.79281672518E+02 0.  0.
         23    2    1    2    0    0  0.12289901799E+01 -0.23996631095E+02 -0.10052415962E+03  0.13845607983E+03  0.92128337947E+02 0.  0.
         13    1    3    3    0    0 -0.17855853222E+02  0.53572069922E+02 -0.18160015988E+02  0.59317656315E+02  0.00000000000E+00 0. -1.
        -14    1    3    3    0    0 -0.18721566091E+02 -0.25945316406E+02 -0.31324041307E+02  0.44775574191E+02  0.00000000000E+00 0.  1.
        -13    1    4    4    0    0  0.40347176054E+02 -0.35016274366E+02 -0.67542120066E+02  0.86116038396E+02  0.00000000000E+00 0.  1.
         13    1    4    4    0    0 -0.39118185874E+02  0.11019643271E+02 -0.32982039558E+02  0.52340041434E+02  0.00000000000E+00 0. -1.
          4    1    1    2  501    0  0.35348429133E+02 -0.36301224219E+01 -0.19568675496E+02  0.40566270369E+02  0.00000000000E+00 0. -1.
<scales pt_clust_5="13000.00000" pt_clust_6="13000.00000" pt_clust_7="13000.00000" pt_clust_8="13000.00000" pt_clust_9="35.53436"></scales>
<clustering>
<clus scale="   35.534">  2  9  1 -1</clus>
<clus scale="   79.282">  5  6 -1 -1</clus>
<clus scale="   86.544">  1  5  2 -1</clus>
<clus scale="   92.128">  7  8 -1 -1</clus>
<clus scale="   35.534">  2  5  1 -1</clus>
</clustering>
</event>
<event>
 9    1  0.4664604E-005  0.9794972E+02  0.7546771E-02  0.1291798E+00
          1   -1    0    0  502    0 -0.00000000000E+00  0.00000000000E+00  0.41329003018E+03  0.41329003018E+03  0.00000000000E+00 0. -1.
         21   -1    0    0  501  502  0.00000000000E+00 -0.00000000000E+00 -0.37744978134E+02  0.37744978134E+02  0.00000000000E+00 0.  1.
        -24    2    1    2    0    0 -0.18438505444E+02  0.36559978990E+02  0.24139596828E+03  0.25751929275E+03  0.79797005492E+02 0.  0.
         23    2    1    2    0    0  0.93215640152E+00 -0.11353951756E+01  0.63286224754E+02  0.11238053096E+03  0.92855153096E+02 0.  0.
         11    1    3    3    0    0 -0.32263262372E+02  0.45741009458E+02  0.23155679993E+03  0.23822617328E+03  0.00000000000E+00 0. -1.
        -12    1    3    3    0    0  0.13824756928E+02 -0.91810304680E+01  0.98391683561E+01  0.19293119460E+02  0.00000000000E+00 0.  1.
        -13    1    4    4    0    0  0.14009980910E+02  0.43658997318E+02  0.36244826011E+02  0.58447198602E+02  0.00000000000E+00 0.  1.
         13    1    4    4    0    0 -0.13077824509E+02 -0.44794392494E+02  0.27041398743E+02  0.53933332354E+02  0.00000000000E+00 0. -1.
          2    1    1    2  501    0  0.17506349043E+02 -0.35424583815E+02  0.70862859008E+02  0.81135184612E+02  0.00000000000E+00 0. -1.
<scales pt_clust_5="13000.00000" pt_clust_6="13000.00000" pt_clust_7="13000.00000" pt_clust_8="13000.00000" pt_clust_9="39.51424"></scales>
<clustering>
<clus scale="   39.514">  2  9  1 -1</clus>
<clus scale="   79.797">  5  6 -1 -1</clus>
<clus scale="   85.672">  1  5  2 -1</clus>
<clus scale="   92.855">  7  8 -1 -1</clus>
<clus scale="   39.514">  2  5  1 -1</clus>
</clustering>
</event>
<event>
 9    1  0.4664604E-005  0.1754962E+03  0.7546771E-02  0.1172657E+00
         21   -1    0    0  501  502  0.00000000000E+00  0.00000000000E+00  0.35642680875E+02  0.35642680875E+02  0.00000000000E+00 0. -1.
         -4   -1    0    0    0  501 -0.00000000000E+00 -0.00000000000E+00 -0.20122911364E+04  0.20122911364E+04  0.00000000000E+00 0.  1.
        -24    2    1    2    0    0  0.15109519505E+03 -0.21618312447E+02 -0.14431446087E+04  0.14534552131E+04  0.81046810228E+02 0.  0.
         23    2    1    2    0    0 -0.14902395984E+03  0.75964264277E+02 -0.29242969359E+03  0.34734600849E+03  0.84589679440E+02 0.  0.
         11    1    3    3    0    0  0.64983358413E+02 -0.19321183109E+02 -0.32491272027E+03  0.33191026013E+03  0.00000000000E+00 0. -1.
        -12    1    3    3    0    0  0.86111836639E+02 -0.22971293381E+01 -0.11182318885E+04  0.11215449530E+04  0.00000000000E+00 0.  1.
        -13    1    4    4    0    0 -0.33830619143E+02  0.15239529552E+01 -0.13379525073E+02  0.36412153402E+02  0.00000000000E+00 0.  1.
         13    1    4    4    0    0 -0.11519334069E+03  0.74440311321E+02 -0.27905016852E+03  0.31093385509E+03  0.00000000000E+00 0. -1.
         -3    1    1    2    0  502 -0.20712352159E+01 -0.54345951830E+02 -0.24107415323E+03  0.24713259569E+03  0.00000000000E+00 0.  1.
<scales pt_clust_5="13000.00000" pt_clust_6="13000.00000" pt_clust_7="13000.00000" pt_clust_8="13000.00000" pt_clust_9="54.38543"></scales>
<clustering>
<clus scale="   54.385">  1  9  2 -1</clus>
<clus scale="   81.047">  5  6 -1 -1</clus>
<clus scale="   84.590">  7  8 -1 -1</clus>
<clus scale="  173.816">  2  5  1 -1</clus>
<clus scale="   54.385">  1  5  2 -1</clus>
</clustering>
</event>
<event>
 9    1  0.4664604E-005  0.1072231E+03  0.7546771E-02  0.1271212E+00
         -2   -1    0    0    0  501 -0.00000000000E+00  0.00000000000E+00  0.22324927279E+03  0.22324927279E+03  0.00000000000E+00 0.  1.
         21   -1    0    0  501  502  0.00000000000E+00 -0.00000000000E+00 -0.20752498316E+03  0.20752498316E+03  0.00000000000E+00 0. -1.
        -24    2    1    2    0    0 -0.12044301557E+02 -0.51257128613E+02  0.16595403575E+03  0.19157682081E+03  0.79928579722E+02 0.  0.
         23    2    1    2    0    0  0.33261770630E+02  0.56108410801E+02 -0.30158420141E+02  0.11716940862E+03  0.92545344902E+02 0.  0.
         11    1    3    3    0    0 -0.20026396923E+02 -0.59810512062E+02  0.67320472616E+02  0.92251829034E+02  0.00000000000E+00 0. -1.
        -12    1    3    3    0    0  0.79820953663E+01  0.85533834484E+01  0.98633563137E+02  0.99324991779E+02  0.00000000000E+00 0.  1.
        -13    1    4    4    0    0  0.40730641792E+02 -0.28051985249E+01 -0.39788389152E+02  0.57008510162E+02  0.00000000000E+00 0.  1.
         13    1    4    4    0    0 -0.74688711618E+01  0.58913609326E+02  0.96299690106E+01  0.60160898459E+02  0.00000000000E+00 0. -1.
         -1    1    1    2    0  502 -0.21217469073E+02 -0.48512821872E+01 -0.12007132598E+03  0.12202802652E+03  0.00000000000E+00 0.  1.
<scales pt_clust_5="13000.00000" pt_clust_6="13000.00000" pt_clust_7="13000.00000" pt_clust_8="13000.00000" pt_clust_9="21.76502"></scales>
<clustering>
<clus scale="   21.765">  2  9  1 -1</clus>
<clus scale="   79.929">  5  6 -1 -1</clus>
<clus scale="   92.545">  7  8 -1 -1</clus>
<clus scale="   96.544">  1  5  2 -1</clus>
<clus scale="   21.765">  2  5  1 -1</clus>
</clustering>
</event>
<event>
 9    1  0.4664604E-005  0.1889526E+03  0.7546771E-02  0.1196403E+00
         21   -1    0    0  501  502  0.00000000000E+00  0.00000000000E+00  0.54498894320E+02  0.54498894320E+02  0.00000000000E+00 0.  1.
          1   -1    0    0  502    0 -0.00000000000E+00 -0.00000000000E+00 -0.90951073580E+03  0.90951073580E+03  0.00000000000E+00 0. -1.
        -24    2    1    2    0    0 -0.38848511029E+01  0.53546975295E+01 -0.95924950140E+02  0.12619463112E+03  0.81729578557E+02 0.  0.
         23    2    1    2    0    0 -0.15882412290E+03 -0.40701029507E+02 -0.41997024928E+03  0.46002713481E+03  0.91478296112E+02 0.  0.
         13    1    3    3    0    0 -0.39402746324E+02  0.70948601097E+01 -0.25974272687E+02  0.47723959386E+02  0.00000000000E+00 0. -1.
        -14    1    3    3    0    0  0.35517895221E+02 -0.17401625803E+01 -0.69950677453E+02  0.78470671737E+02  0.00000000000E+00 0.  1.
        -11    1    4    4    0    0 -0.11773370375E+03 -0.14449659333E+01 -0.19325464553E+03  0.22629774843E+03  0.00000000000E+00 0.  1.
         11    1    4    4    0    0 -0.41090419158E+02 -0.39256063573E+02 -0.22671560375E+03  0.23372938638E+03  0.00000000000E+00 0. -1.
          2    1    1    2  501    0  0.16270897401E+03  0.35346331977E+02 -0.33911664206E+03  0.37778786419E+03  0.00000000000E+00 0. -1.
<scales pt_clust_5="13000.00000" pt_clust_6="13000.00000" pt_clust_7="13000.00000" pt_clust_8="13000.00000" pt_clust_9="165.33236"></scales>
<clustering>
<clus scale="   81.730">  5  6 -1 -1</clus>
<clus scale="   81.997">  2  5  1 -1</clus>
<clus scale="   91.478">  7  8 -1 -1</clus>
<clus scale="  165.332">  1  9  2 -1</clus>
<clus scale="  165.332">  1  5  2 -1</clus>
</clustering>
</event>
<event>
 9    1  0.4664604E-005  0.1023050E+03  0.7546771E-02  0.1282170E+00
         21   -1    0    0  501  502  0.00000000000E+00  0.00000000000E+00  0.71000636475E+02  0.71000636475E+02  0.00000000000E+00 0. -1.
          3   -1    0    0  502    0 -0.00000000000E+00 -0.00000000000E+00 -0.62244810898E+03  0.62244810898E+03  0.00000000000E+00 0. -1.
         23    2    1    2    0    0 -0.50415045373E+02  0.79729283752E+00 -0.53666850222E+03  0.54689193937E+03  0.92387226351E+02 0.  0.
        -24    2    1    2    0    0  0.89868909281E+01  0.26541727922E+02 -0.37989926516E+02  0.91762075262E+02  0.78688095733E+02 0.  0.
         11    1    4    4    0    0  0.15642791827E+02  0.30002919327E+02 -0.59793898260E+02  0.68703583410E+02  0.00000000000E+00 0. -1.
        -12    1    4    4    0    0 -0.66559008986E+01 -0.34611914042E+01  0.21803971744E+02  0.23058491852E+02  0.00000000000E+00 0.  1.
        -13    1    3    3    0    0 -0.27820459648E+02  0.46439272094E+02 -0.29279755819E+03  0.29775996045E+03  0.00000000000E+00 0. -1.
         13    1    3    3    0    0 -0.22594585725E+02 -0.45641979257E+02 -0.24387094403E+03  0.24913197891E+03  0.00000000000E+00 0.  1.
          4    1    1    2  501    0  0.41428154445E+02 -0.27339020760E+02  0.23210956233E+02  0.54794730824E+02  0.00000000000E+00 0. -1.
<scales pt_clust_5="13000.00000" pt_clust_6="13000.00000" pt_clust_7="13000.00000" pt_clust_8="13000.00000" pt_clust_9="49.63581"></scales>
<clustering>
<clus scale="   49.636">  1  9  2 -1</clus>
<clus scale="   78.688">  5  6 -1 -1</clus>
<clus scale="   90.126">  1  5  2 -1</clus>
<clus scale="   92.387">  7  8 -1 -1</clus>
<clus scale="   49.636">  1  5  2 -1</clus>
</clustering>
</event>
<event>
 9    1  0.4664604E-005  0.2456857E+03  0.7546771E-02  0.1116062E+00
         21   -1    0    0  501  502  0.00000000000E+00  0.00000000000E+00  0.50173392958E+03  0.50173392958E+03  0.00000000000E+00 0.  1.
         -2   -1    0    0    0  501 -0.00000000000E+00 -0.00000000000E+00 -0.94753858596E+02  0.94753858596E+02  0.00000000000E+00 0.  1.
        -24    2    1    2    0    0  0.37394735522E+02 -0.54094508616E+02  0.58898825425E+02  0.12587855049E+03  0.89731575993E+02 0.  0.
         23    2    1    2    0    0  0.98448997227E+02 -0.11395381019E+02  0.63656854525E+02  0.14867806556E+03  0.90724375373E+02 0.  0.
         11    1    3    3    0    0 -0.18807436500E+02 -0.51674851963E+02  0.28597818971E+02  0.61982620492E+02  0.00000000000E+00 0. -1.
        -12    1    3    3    0    0  0.56202172022E+02 -0.24196566523E+01  0.30301006454E+02  0.63895929999E+02  0.00000000000E+00 0.  1.
        -11    1    4    4    0    0  0.62696413490E+02 -0.48992742337E+02  0.23186361360E+02  0.82877840340E+02  0.00000000000E+00 0.  1.
         11    1    4    4    0    0  0.35752583737E+02  0.37597361318E+02  0.40470493165E+02  0.65800225220E+02  0.00000000000E+00 0. -1.
         -1    1    1    2    0  502 -0.13584373275E+03  0.65489889635E+02  0.28442439103E+03  0.32193117213E+03  0.00000000000E+00 0.  1.
<scales pt_clust_5="13000.00000" pt_clust_6="13000.00000" pt_clust_7="13000.00000" pt_clust_8="13000.00000" pt_clust_9="150.80599"></scales>
<clustering>
<clus scale="   89.732">  5  6 -1 -1</clus>
<clus scale="   90.724">  7  8 -1 -1</clus>
<clus scale="  105.743">  5  7 -1 -1</clus>
<clus scale="  150.806">  1  9  2 -1</clus>
<clus scale="  150.806">  1  5  2 -1</clus>
</clustering>
</event>
<event>
 9    1  0.4664604E-005  0.9360868E+02  0.7546771E-02  0.1299972E+00
         21   -1    0    0  501  502  0.00000000000E+00  0.00000000000E+00  0.14870864303E+03  0.14870864303E+03  0.00000000000E+00 0.  1.
          3   -1    0    0  502    0 -0.00000000000E+00 -0.00000000000E+00 -0.14403566349E+03  0.14403566349E+03  0.00000000000E+00 0. -1.
         23    2    1    2    0    0  0.21899919626E+02 -0.12868341427E+02 -0.67102601748E+02  0.11442766392E+03  0.89138826660E+02 0.  0.
        -24    2    1    2    0    0 -0.23832161505E+02  0.43489446912E+02  0.99769717993E+02  0.13678283289E+03  0.79348867853E+02 0.  0.
         11    1    4    4    0    0 -0.38505149371E+02 -0.60537894810E+01  0.26527055536E+02  0.47148484287E+02  0.00000000000E+00 0. -1.
        -12    1    4    4    0    0  0.14672987865E+02  0.49543236393E+02  0.73242662456E+02  0.89634348600E+02  0.00000000000E+00 0.  1.
        -11    1    3    3    0    0  0.54691752769E+00  0.37681435455E+02 -0.30281911896E+02  0.48344429718E+02  0.00000000000E+00 0. -1.
         11    1    3    3    0    0  0.21353002099E+02 -0.50549776882E+02 -0.36820689852E+02  0.66083234203E+02  0.00000000000E+00 0.  1.
          4    1    1    2  501    0  0.19322418793E+01 -0.30621105485E+02 -0.27994136699E+02  0.41533809714E+02  0.00000000000E+00 0. -1.
<scales pt_clust_5="13000.00000" pt_clust_6="13000.00000" pt_clust_7="13000.00000" pt_clust_8="13000.00000" pt_clust_9="30.68202"></scales>
<clustering>
<clus scale="   30.682">  1  9  2 -1</clus>
<clus scale="   79.349">  5  6 -1 -1</clus>
<clus scale="   84.339">  1  5  2 -1</clus>
<clus scale="   89.139">  7  8 -1 -1</clus>
<clus scale="   30.682">  1  5  2 -1</clus>
</clustering>
</event>
<event>
 9    1  0.4664604E-005  0.2614547E+03  0.7546771E-02  0.1107092E+00
         -2   -1    0    0    0  501 -0.00000000000E+00  0.00000000000E+00  0.16952354355E+03  0.16952354355E+03  0.00000000000E+00 0.  1.
         21   -1    0    0  501  502  0.00000000000E+00 -0.00000000000E+00 -0.62230935908E+03  0.62230935908E+03  0.00000000000E+00 0. -1.
         23    2    1    2    0    0  0.14878341253E+03  0.20559949491E+03 -0.22401378685E+02  0.27164487531E+03  0.94241500219E+02 0.  0.
        -24    2    1    2    0    0 -0.10820564409E+03 -0.19452551235E+03 -0.29083605068E+03  0.37443844598E+03  0.77909595585E+02 0.  0.
         11    1    4    4    0    0 -0.51659599281E+02 -0.15883172493E+03 -0.18494000135E+03  0.24919677996E+03  0.00000000000E+00 0. -1.
        -12    1    4    4    0    0 -0.56546044814E+02 -0.35693787421E+02 -0.10589604933E+03  0.12524166602E+03  0.00000000000E+00 0.  1.
        -13    1    3    3    0    0  0.13094269042E+03  0.14357279093E+03 -0.51231142211E+02  0.20095712080E+03  0.00000000000E+00 0. -1.
         13    1    3    3    0    0  0.17840722110E+02  0.62026703977E+02  0.28829763526E+02  0.70687754503E+02  0.00000000000E+00 0.  1.
         -1    1    1    2    0  502 -0.40577768434E+02 -0.11073982552E+02 -0.13954838616E+03  0.14574958134E+03  0.00000000000E+00 0.  1.
<scales pt_clust_5="13000.00000" pt_clust_6="13000.00000" pt_clust_7="13000.00000" pt_clust_8="13000.00000" pt_clust_9="42.06172"></scales>
<clustering>
<clus scale="   42.062">  2  9  1 -1</clus>
<clus scale="   77.910">  5  6 -1 -1</clus>
<clus scale="   94.242">  7  8 -1 -1</clus>
<clus scale="  256.021">  2  5  1 -1</clus>
<clus scale="   42.062">  2  5  1 -1</clus>
</clustering>
</event>
<event>
 9    1  0.4664604E-005  0.9523331E+02  0.7546771E-02  0.1295944E+00
         21   -1    0    0  501  502  0.00000000000E+00  0.00000000000E+00  0.20738557998E+03  0.20738557998E+03  0.00000000000E+00 0. -1.
          1   -1    0    0  502    0 -0.00000000000E+00 -0.00000000000E+00 -0.73179584399E+02  0.73179584399E+02  0.00000000000E+00 0. -1.
         23    2    1    2    0    0  0.11790500619E+02 -0.11744534739E+02  0.28174518241E+02  0.96906085958E+02  0.91214231436E+02 0.  0.
        -24    2    1    2    0    0 -0.25655017900E+01  0.39926367439E+02  0.20825806976E+02  0.93440884247E+02  0.81833904931E+02 0.  0.
         11    1    4    4    0    0 -0.28981764704E+02  0.53821247998E+02  0.11784785537E+02  0.62253920291E+02  0.00000000000E+00 0. -1.
        -12    1    4    4    0    0  0.26416262914E+02 -0.13894880559E+02  0.90410214384E+01  0.31186963955E+02  0.00000000000E+00 0.  1.
        -13    1    3    3    0    0 -0.21237036687E+02 -0.12791896190E+02 -0.24415701285E+02  0.34796132035E+02  0.00000000000E+00 0.  1.
         13    1    3    3    0    0  0.33027537307E+02  0.10473614514E+01  0.52590219525E+02  0.62109953923E+02  0.00000000000E+00 0. -1.
          2    1    1    2  501    0 -0.92249988294E+01 -0.28181832700E+02  0.85205670362E+02  0.90218194171E+02  0.00000000000E+00 0. -1.
<scales pt_clust_5="13000.00000" pt_clust_6="13000.00000" pt_clust_7="13000.00000" pt_clust_8="13000.00000" pt_clust_9="29.65327"></scales>
<clustering>
<clus scale="   29.653">  1  9  2 -1</clus>
<clus scale="   81.834">  5  6 -1 -1</clus>
<clus scale="   86.291">  1  5  2 -1</clus>
<clus scale="   91.214">  7  8 -1 -1</clus>
<clus scale="   29.653">  1  5  2 -1</clus>
</clustering>
</event>
<event>
 9    1  0.4664604E-005  0.2661411E+03  0.7546771E-02  0.1103509E+00
         21   -1    0    0  501  502  0.00000000000E+00  0.00000000000E+00  0.28457958684E+03  0.28457958684E+03  0.00000000000E+00 0. -1.
         -2   -1    0    0    0  501 -0.00000000000E+00 -0.00000000000E+00 -0.31181879338E+03  0.31181879338E+03  0.00000000000E+00 0.  1.
        -24    2    1    2    0    0 -0.10346132939E+03  0.18413357967E+02  0.13061943076E+03  0.18617125720E+03  0.80962972304E+02 0.  0.
         23    2    1    2    0    0 -0.78587505527E+02 -0.31396111950E+02  0.48580950063E+02  0.13467742981E+03  0.92823431960E+02 0.  0.
         11    1    3    3    0    0 -0.10889114838E+03 -0.45450595273E+01  0.10483816918E+03  0.15122493670E+03  0.00000000000E+00 0. -1.
        -12    1    3    3    0    0  0.54298189883E+01  0.22958417495E+02  0.25781261585E+02  0.34946320508E+02  0.00000000000E+00 0.  1.
        -13    1    4    4    0    0  0.66908602958E+01 -0.38962655671E+02  0.10034322961E+02  0.40786563789E+02  0.00000000000E+00 0.  1.
         13    1    4    4    0    0 -0.85278365823E+02  0.75665437211E+01  0.38546627102E+02  0.93890866022E+02  0.00000000000E+00 0. -1.
         -1    1    1    2    0  502  0.18204883492E+03  0.12982753982E+02 -0.20643958736E+03  0.27554969321E+03  0.00000000000E+00 0.  1.
<scales pt_clust_5="13000.00000" pt_clust_6="13000.00000" pt_clust_7="13000.00000" pt_clust_8="13000.00000" pt_clust_9="182.51127"></scales>
<clustering>
<clus scale="   80.963">  5  6 -1 -1</clus>
<clus scale="   92.823">  7  8 -1 -1</clus>
<clus scale="  111.763">  5  7 -1 -1</clus>
<clus scale="  182.511">  1  9  2 -1</clus>
<clus scale="  182.511">  1  5  2 -1</clus>
</clustering>
</event>
<event>
 9    1  0.4664604E-005  0.9786655E+02  0.7546771E-02  0.1291104E+00
         21   -1    0    0  501  502  0.00000000000E+00  0.00000000000E+00  0.54601702958E+02  0.54601702958E+02  0.00000000000E+00 0. -1.
          1   -1    0    0  502    0 -0.00000000000E+00 -0.00000000000E+00 -0.29909610617E+03  0.29909610617E+03  0.00000000000E+00 0. -1.
         23    2    1    2    0    0 -0.44683598558E+02  0.13034900736E+02 -0.15623347727E+03  0.18751330968E+03  0.92659642080E+02 0.  0.
        -24    2    1    2    0    0  0.11392272357E+02  0.29103032269E+02 -0.58649924046E+02  0.10485971464E+03  0.81110885872E+02 0.  0.
         11    1    4    4    0    0  0.11833347252E+02  0.42559733493E+02  0.52003541764E+00  0.44177250469E+02  0.00000000000E+00 0. -1.
        -12    1    4    4    0    0 -0.44107489513E+00 -0.13456701223E+02 -0.59169959463E+02  0.60682464170E+02  0.00000000000E+00 0.  1.
        -13    1    3    3    0    0 -0.24040805980E+02 -0.30028131663E+02 -0.12417264805E+03  0.12999421359E+03  0.00000000000E+00 0.  1.
         13    1    3    3    0    0 -0.20642792578E+02  0.43063032399E+02 -0.32060829220E+02  0.57519096091E+02  0.00000000000E+00 0. -1.
          2    1    1    2  501    0  0.33291326200E+02 -0.42137933005E+02 -0.29611001894E+02  0.61324784804E+02  0.00000000000E+00 0. -1.
<scales pt_clust_5="13000.00000" pt_clust_6="13000.00000" pt_clust_7="13000.00000" pt_clust_8="13000.00000" pt_clust_9="53.70212"></scales>
<clustering>
<clus scale="   53.702">  1  9  2 -1</clus>
<clus scale="   81.111">  5  6 -1 -1</clus>
<clus scale="   87.012">  1  5  2 -1</clus>
<clus scale="   92.660">  7  8 -1 -1</clus>
<clus scale="   53.702">  1  5  2 -1</clus>
</clustering>
</event>
<event>
 9    1  0.4664604E-005  0.9485332E+02  0.7546771E-02  0.1297340E+00
         21   -1    0    0  501  502  0.00000000000E+00  0.00000000000E+00  0.31839768920E+03  0.31839768920E+03  0.00000000000E+00 0.  1.
         -2   -1    0    0    0  501 -0.00000000000E+00 -0.00000000000E+00 -0.36380272643E+02  0.36380272643E+02  0.00000000000E+00 0.  1.
        -24    2    1    2    0    0  0.34678490431E+01 -0.69201446258E+01  0.11732021508E+03  0.14387529942E+03  0.82922581598E+02 0.  0.
         23    2    1    2    0    0 -0.16224553963E+02  0.29634147656E+02  0.15342977373E+03  0.18251931551E+03  0.92904177560E+02 0.  0.
         13    1    3    3    0    0  0.32047225310E+02  0.24399177823E+02  0.48520070734E+02  0.63059827089E+02  0.00000000000E+00 0. -1.
        -14    1    3    3    0    0 -0.28579376267E+02 -0.31319322449E+02  0.68800144342E+02  0.80815472330E+02  0.00000000000E+00 0.  1.
        -13    1    4    4    0    0  0.53587065398E+01  0.56337812941E+02  0.12749243003E+03  0.13948829563E+03  0.00000000000E+00 0.  1.
         13    1    4    4    0    0 -0.21583260503E+02 -0.26703665285E+02  0.25937343702E+02  0.43031019880E+02  0.00000000000E+00 0. -1.
         -1    1    1    2    0  502  0.12756704920E+02 -0.22714003030E+02  0.11267427751E+02  0.28383346916E+02  0.00000000000E+00 0.  1.
<scales pt_clust_5="13000.00000" pt_clust_6="13000.00000" pt_clust_7="13000.00000" pt_clust_8="13000.00000" pt_clust_9="26.05111"></scales>
<clustering>
<clus scale="   26.051">  1  9  2 -1</clus>
<clus scale="   82.923">  5  6 -1 -1</clus>
<clus scale="   85.101">  2  5  1 -1</clus>
<clus scale="   92.904">  7  8 -1 -1</clus>
<clus scale="   26.051">  1  5  2 -1</clus>
</clustering>
</event>
<event>
 9    1  0.4664604E-005  0.9284707E+02  0.7546771E-02  0.1299903E+00
         21   -1    0    0  501  502  0.00000000000E+00  0.00000000000E+00  0.33620317169E+03  0.33620317169E+03  0.00000000000E+00 0. -1.
          1   -1    0    0  502    0 -0.00000000000E+00 -0.00000000000E+00 -0.11889502741E+03  0.11889502741E+03  0.00000000000E+00 0. -1.
         23    2    1    2    0    0  0.11643723283E+02 -0.43126770377E+01 -0.59626517373E+02  0.10844068830E+03  0.89721155976E+02 0.  0.
        -24    2    1    2    0    0 -0.84088864344E+02  0.96491202272E+01  0.99272185460E+02  0.15471811533E+03  0.83178637741E+02 0.  0.
         11    1    4    4    0    0 -0.99984130467E+02  0.15810115460E+02  0.80272595685E+02  0.12919162401E+03  0.00000000000E+00 0. -1.
        -12    1    4    4    0    0  0.15895266123E+02 -0.61609952332E+01  0.18999589775E+02  0.25526491318E+02  0.00000000000E+00 0.  1.
        -13    1    3    3    0    0 -0.65479302317E+00  0.32600220189E+02  0.50178564511E+01  0.32990634939E+02  0.00000000000E+00 0.  1.
         13    1    3    3    0    0  0.12298516306E+02 -0.36912897227E+02 -0.64644373824E+02  0.75450053360E+02  0.00000000000E+00 0. -1.
          2    1    1    2  501    0  0.72445141061E+02 -0.53364431895E+01  0.17766247619E+03  0.19193939547E+03  0.00000000000E+00 0. -1.
<scales pt_clust_5="13000.00000" pt_clust_6="13000.00000" pt_clust_7="13000.00000" pt_clust_8="13000.00000" pt_clust_9="72.64142"></scales>
<clustering>
<clus scale="   72.641">  1  9  2 -1</clus>
<clus scale="   83.179">  5  6 -1 -1</clus>
<clus scale="   86.541">  1  5  2 -1</clus>
<clus scale="   89.721">  7  8 -1 -1</clus>
<clus scale="   72.641">  1  5  2 -1</clus>
</clustering>
</event>
<event>
 9    1  0.4664604E-005  0.1217951E+03  0.7546771E-02  0.1248548E+00
          1   -1    0    0  502    0 -0.00000000000E+00  0.00000000000E+00  0.22784562941E+03  0.22784562941E+03  0.00000000000E+00 0. -1.
         21   -1    0    0  501  502  0.00000000000E+00 -0.00000000000E+00 -0.11028173180E+03  0.11028173180E+03  0.00000000000E+00 0.  1.
         23    2    1    2    0    0  0.46526145318E+02  0.10485123925E+02  0.11866242268E+03  0.15605665846E+03  0.89433159797E+02 0.  0.
        -24    2    1    2    0    0 -0.46795326835E+02 -0.46305034560E+02  0.32637543053E+02  0.13286439474E+03  0.11069679008E+03 0.  0.
         13    1    4    4    0    0 -0.52550982233E+02 -0.33876934123E+02  0.69532401854E+02  0.93509396890E+02  0.00000000000E+00 0. -1.
        -14    1    4    4    0    0  0.57556553975E+01 -0.12428100437E+02 -0.36894858801E+02  0.39354997846E+02  0.00000000000E+00 0.  1.
        -11    1    3    3    0    0  0.26363083034E+02 -0.33514614964E+02  0.90543160674E+02  0.10008149433E+03  0.00000000000E+00 0. -1.
         11    1    3    3    0    0  0.20163062284E+02  0.43999738889E+02  0.28119262004E+02  0.55975164124E+02  0.00000000000E+00 0.  1.
          2    1    1    2  501    0  0.26918151703E+00  0.35819910635E+02 -0.33736068114E+02  0.49206308014E+02  0.00000000000E+00 0. -1.
<scales pt_clust_5="13000.00000" pt_clust_6="13000.00000" pt_clust_7="13000.00000" pt_clust_8="13000.00000" pt_clust_9="35.82092"></scales>
<clustering>
<clus scale="   35.821">  2  9  1 -1</clus>
<clus scale="   89.433">  7  8 -1 -1</clus>
<clus scale="  102.852">  1  7  2 -1</clus>
<clus scale="  110.697">  5  6 -1 -1</clus>
<clus scale="   35.821">  2  5  1 -1</clus>
</clustering>
</event>
<event>
 9    1  0.4664604E-005  0.1394691E+03  0.7546771E-02  0.1217023E+00
         21   -1    0    0  501  502  0.00000000000E+00  0.00000000000E+00  0.38341917449E+03  0.38341917449E+03  0.00000000000E+00 0. -1.
         -2   -1    0    0    0  501 -0.00000000000E+00 -0.00000000000E+00 -0.29257348176E+03  0.29257348176E+03  0.00000000000E+00 0.  1.
        -24    2    1    2    0    0  0.99629200595E+02 -0.39482740633E+02 -0.23437399331E+03  0.26945167649E+03  0.78664940134E+02 0.  0.
         23    2    1    2    0    0 -0.30859426362E+02  0.89039878346E+02  0.28225082016E+03  0.31150669552E+03  0.92143864375E+02 0.  0.
         13    1    3    3    0    0  0.53637169411E+02  0.18870033908E+02 -0.12381246373E+03  0.13624445052E+03  0.00000000000E+00 0. -1.
        -14    1    3    3    0    0  0.45992031183E+02 -0.58352774541E+02 -0.11056152957E+03  0.13320722597E+03  0.00000000000E+00 0.  1.
        -13    1    4    4    0    0 -0.53013104027E+02  0.67146611206E+02  0.25864176851E+03  0.27242360583E+03  0.00000000000E+00 0. -1.
         13    1    4    4    0    0  0.22153677666E+02  0.21893267140E+02  0.23609051656E+02  0.39083089697E+02  0.00000000000E+00 0.  1.
         -1    1    1    2    0  502 -0.68769774233E+02 -0.49557137713E+02  0.42968865872E+02  0.95034284238E+02  0.00000000000E+00 0.  1.
<scales pt_clust_5="13000.00000" pt_clust_6="13000.00000" pt_clust_7="13000.00000" pt_clust_8="13000.00000" pt_clust_9="84.76551"></scales>
<clustering>
<clus scale="   78.665">  5  6 -1 -1</clus>
<clus scale="   84.766">  1  9  2 -1</clus>
<clus scale="   92.144">  7  8 -1 -1</clus>
<clus scale="  130.955">  2  5  1 -1</clus>
<clus scale="   84.766">  1  5  2 -1</clus>
</clustering>
</event>
<event>
 9    1  0.4664604E-005  0.1498722E+03  0.7546771E-02  0.1203338E+00
         21   -1    0    0  501  502  0.00000000000E+00  0.00000000000E+00  0.10842861938E+04  0.10842861938E+04  0.00000000000E+00 0.  1.
          1   -1    0    0  502    0 -0.00000000000E+00 -0.00000000000E+00 -0.71599411733E+02  0.71599411733E+02  0.00000000000E+00 0. -1.
         23    2    1    2    0    0  0.80985551129E+02  0.91640547576E+02  0.42393305811E+02  0.15904215708E+03  0.92415182187E+02 0.  0.
        -24    2    1    2    0    0 -0.63047303263E+02 -0.48575840915E+02  0.92549686010E+03  0.93216666346E+03  0.77818221857E+02 0.  0.
         11    1    4    4    0    0  0.13887944481E+02 -0.15987802220E+02  0.88000353626E+02  0.90512690050E+02  0.00000000000E+00 0. -1.
        -12    1    4    4    0    0 -0.76935247744E+02 -0.32588038695E+02  0.83749650647E+03  0.84165397341E+03  0.00000000000E+00 0.  1.
        -13    1    3    3    0    0 -0.99641008334E+01  0.53823488897E+02  0.13173705927E+02  0.56300957277E+02  0.00000000000E+00 0. -1.
         13    1    3    3    0    0  0.90949651962E+02  0.37817058679E+02  0.29219599884E+02  0.10274119980E+03  0.00000000000E+00 0.  1.
          2    1    1    2  501    0 -0.17938247866E+02 -0.43064706661E+02  0.44796616130E+02  0.64676784962E+02  0.00000000000E+00 0. -1.
<scales pt_clust_5="13000.00000" pt_clust_6="13000.00000" pt_clust_7="13000.00000" pt_clust_8="13000.00000" pt_clust_9="46.65139"></scales>
<clustering>
<clus scale="   46.651">  1  9  2 -1</clus>
<clus scale="   77.818">  5  6 -1 -1</clus>
<clus scale="   92.415">  7  8 -1 -1</clus>
<clus scale="  141.339">  1  5  2 -1</clus>
<clus scale="   46.651">  1  5  2 -1</clus>
</clustering>
</event>
<event>
 9    1  0.4664604E-005  0.1026965E+03  0.7546771E-02  0.1279010E+00
          1   -1    0    0  502    0 -0.00000000000E+00  0.00000000000E+00  0.10692386752E+03  0.10692386752E+03  0.00000000000E+00 0. -1.
         21   -1    0    0  501  502  0.00000000000E+00 -0.00000000000E+00 -0.13366313890E+03  0.13366313890E+03  0.00000000000E+00 0.  1.
        -24    2    1    2    0    0  0.34258542424E+02  0.26558965367E+02 -0.93256572496E+01  0.92443727249E+02  0.81116265041E+02 0.  0.
         23    2    1    2    0    0 -0.26666453001E+02 -0.53470766529E+02 -0.36426563785E+02  0.11432941931E+03  0.90410723823E+02 0.  0.
         13    1    3    3    0    0  0.20364309255E+02  0.35911577912E+02  0.29111752639E+02  0.50515746666E+02  0.00000000000E+00 0. -1.
        -14    1    3    3    0    0  0.13894233168E+02 -0.93526125447E+01 -0.38437409889E+02  0.41927980582E+02  0.00000000000E+00 0.  1.
        -13    1    4    4    0    0 -0.48364754131E+02 -0.49140508028E+02  0.31140188844E+01  0.69019099422E+02  0.00000000000E+00 0. -1.
         13    1    4    4    0    0  0.21698301130E+02 -0.43302585011E+01 -0.39540582670E+02  0.45310319889E+02  0.00000000000E+00 0.  1.
          2    1    1    2  501    0 -0.75920894226E+01  0.26911801162E+02  0.19012949655E+02  0.33813859853E+02  0.00000000000E+00 0. -1.
<scales pt_clust_5="13000.00000" pt_clust_6="13000.00000" pt_clust_7="13000.00000" pt_clust_8="13000.00000" pt_clust_9="27.96222"></scales>
<clustering>
<clus scale="   27.962">  2  9  1 -1</clus>
<clus scale="   81.116">  5  6 -1 -1</clus>
<clus scale="   90.411">  7  8 -1 -1</clus>
<clus scale="   94.617">  1  5  2 -1</clus>
<clus scale="   27.962">  2  5  1 -1</clus>
</clustering>
</event>
<event>
 9    1  0.4664604E-005  0.9145709E+02  0.7546771E-02  0.1300618E+00
         21   -1    0    0  501  502  0.00000000000E+00  0.00000000000E+00  0.20072717893E+03  0.20072717893E+03  0.00000000000E+00 0. -1.
         -2   -1    0    0    0  501 -0.00000000000E+00 -0.00000000000E+00 -0.74054986550E+02  0.74054986550E+02  0.00000000000E+00 0.  1.
         23    2    1    2    0    0 -0.12363190049E+02 -0.40260437527E+01  0.23697299070E+02  0.93943236931E+02  0.89970619012E+02 0.  0.
        -24    2    1    2    0    0 -0.93304562034E+00 -0.44391718417E+02  0.66704219052E+02  0.11889838135E+03  0.87840064949E+02 0.  0.
         13    1    4    4    0    0  0.24703514642E+02 -0.30631307151E+02  0.78255975710E+02  0.87593026822E+02  0.00000000000E+00 0. -1.
        -14    1    4    4    0    0 -0.25636560263E+02 -0.13760411266E+02 -0.11551756658E+02  0.31305354529E+02  0.00000000000E+00 0.  1.
        -13    1    3    3    0    0 -0.13583048396E+02  0.36743160630E+02 -0.10677341757E+02  0.40602520659E+02  0.00000000000E+00 0.  1.
         13    1    3    3    0    0  0.12198583474E+01 -0.40769204383E+02  0.34374640827E+02  0.53340716272E+02  0.00000000000E+00 0. -1.
         -1    1    1    2    0  502  0.13296235669E+02  0.48417762169E+02  0.36270674261E+02  0.61940547203E+02  0.00000000000E+00 0.  1.
<scales pt_clust_5="13000.00000" pt_clust_6="13000.00000" pt_clust_7="13000.00000" pt_clust_8="13000.00000" pt_clust_9="50.21025"></scales>
<clustering>
<clus scale="   50.210">  1  9  2 -1</clus>
<clus scale="   87.840">  5  6 -1 -1</clus>
<clus scale="   89.362">  1  5  2 -1</clus>
<clus scale="   89.971">  7  8 -1 -1</clus>
<clus scale="   50.210">  1  5  2 -1</clus>
</clustering>
</event>
<event>
 9    1  0.4664604E-005  0.1210498E+03  0.7546771E-02  0.1242841E+00
         21   -1    0    0  501  502  0.00000000000E+00  0.00000000000E+00  0.58262438692E+03  0.58262438692E+03  0.00000000000E+00 0. -1.
         -2   -1    0    0    0  501 -0.00000000000E+00 -0.00000000000E+00 -0.16643770057E+03  0.16643770057E+03  0.00000000000E+00 0.  1.
        -24    2    1    2    0    0 -0.32003284479E+02 -0.82781342675E+02 -0.85273935777E+02  0.14716405810E+03  0.80676235417E+02 0.  0.
         23    2    1    2    0    0  0.95629532626E+02 -0.37796092810E+01  0.47386833377E+03  0.49098169952E+03  0.85746944847E+02 0.  0.
         13    1    3    3    0    0  0.21816837504E+02 -0.88678968051E+01 -0.36764637159E+02  0.43660652055E+02  0.00000000000E+00 0. -1.
        -14    1    3    3    0    0 -0.53820121983E+02 -0.73913445869E+02 -0.48509298618E+02  0.10350340605E+03  0.00000000000E+00 0.  1.
        -11    1    4    4    0    0  0.66466484653E+02 -0.35778399339E+02  0.38247224421E+03  0.38984984934E+03  0.00000000000E+00 0. -1.
         11    1    4    4    0    0  0.29163047973E+02  0.31998790058E+02  0.91396089566E+02  0.10113185018E+03  0.00000000000E+00 0.  1.
         -1    1    1    2    0  502 -0.63626248146E+02  0.86560951956E+02  0.27592288347E+02  0.11091632987E+03  0.00000000000E+00 0.  1.
<scales pt_clust_5="13000.00000" pt_clust_6="13000.00000" pt_clust_7="13000.00000" pt_clust_8="13000.00000" pt_clust_9="107.42956"></scales>
<clustering>
<clus scale="   80.676">  5  6 -1 -1</clus>
<clus scale="   85.747">  7  8 -1 -1</clus>
<clus scale="  107.430">  1  9  2 -1</clus>
<clus scale="  117.512">  2  5  1 -1</clus>
<clus scale="  107.430">  1  5  2 -1</clus>
</clustering>
</event>
<event>
 9    1  0.4664604E-005  0.1478588E+03  0.7546771E-02  0.1205700E+00
          1   -1    0    0  502    0 -0.00000000000E+00  0.00000000000E+00  0.47721352038E+03  0.47721352038E+03  0.00000000000E+00 0. -1.
         21   -1    0    0  501  502  0.00000000000E+00 -0.00000000000E+00 -0.10935571685E+03  0.10935571685E+03  0.00000000000E+00 0. -1.
         23    2    1    2    0    0  0.15171155225E+02 -0.10391790488E+03  0.73815799175E+02  0.15714880689E+03  0.90652525579E+02 0.  0.
        -24    2    1    2    0    0  0.68279022146E+02  0.13148918053E+03  0.56691980008E+02  0.17632135606E+03  0.76966294858E+02 0.  0.
         13    1    4    4    0    0  0.56293181661E+02  0.13443658227E+03  0.32743971476E+02  0.14937966603E+03  0.00000000000E+00 0. -1.
        -14    1    4    4    0    0  0.11985840485E+02 -0.29474017421E+01  0.23948008532E+02  0.26941690033E+02  0.00000000000E+00 0.  1.
        -11    1    3    3    0    0 -0.16185969251E+02 -0.53113288345E+02  0.79724700164E+02  0.97154695284E+02  0.00000000000E+00 0.  1.
         11    1    3    3    0    0  0.31357124476E+02 -0.50804616531E+02 -0.59089009890E+01  0.59994111604E+02  0.00000000000E+00 0. -1.
          2    1    1    2  501    0 -0.83450177371E+02 -0.27571275657E+02  0.23735002434E+03  0.25309907428E+03  0.00000000000E+00 0. -1.
<scales pt_clust_5="13000.00000" pt_clust_6="13000.00000" pt_clust_7="13000.00000" pt_clust_8="13000.00000" pt_clust_9="87.88694"></scales>
<clustering>
<clus scale="   76.966">  5  6 -1 -1</clus>
<clus scale="   87.887">  2  9  1 -1</clus>
<clus scale="   90.653">  7  8 -1 -1</clus>
<clus scale="  139.886">  2  5  1 -1</clus>
<clus scale="   87.887">  2  5  1 -1</clus>
</clustering>
</event>
<event>
 9    1  0.4664604E-005  0.2243994E+03  0.7546771E-02  0.1158683E+00
          1   -1    0    0  502    0 -0.00000000000E+00  0.00000000000E+00  0.85620278596E+03  0.85620278596E+03  0.00000000000E+00 0. -1.
         21   -1    0    0  501  502  0.00000000000E+00 -0.00000000000E+00 -0.12704701667E+03  0.12704701667E+03  0.00000000000E+00 0. -1.
        -24    2    1    2    0    0 -0.83153961094E+02 -0.25628001687E+02  0.34292427762E+03  0.36160936668E+03  0.74785681612E+02 0.  0.
         23    2    1    2    0    0  0.21334219390E+03 -0.71962396273E+02  0.50126338598E+02  0.24822440032E+03  0.91701826163E+02 0.  0.
         13    1    3    3    0    0 -0.72815074587E+02 -0.23885687613E+02  0.34265667373E+03  0.35112128562E+03  0.00000000000E+00 0. -1.
        -14    1    3    3    0    0 -0.10338886507E+02 -0.17423140733E+01  0.26760388590E+00  0.10488081062E+02  0.00000000000E+00 0.  1.
        -11    1    4    4    0    0  0.10897554746E+03 -0.56303688167E+02 -0.15975402692E+02  0.12369716544E+03  0.00000000000E+00 0. -1.
         11    1    4    4    0    0  0.10436664643E+03 -0.15658708107E+02  0.66101741290E+02  0.12452723489E+03  0.00000000000E+00 0.  1.
          2    1    1    2  501    0 -0.13018823280E+03  0.97590397960E+02  0.33610515307E+03  0.37341603562E+03  0.00000000000E+00 0. -1.
<scales pt_clust_5="13000.00000" pt_clust_6="13000.00000" pt_clust_7="13000.00000" pt_clust_8="13000.00000" pt_clust_9="204.80699"></scales>
<clustering>
<clus scale="   74.786">  5  6 -1 -1</clus>
<clus scale="   91.702">  7  8 -1 -1</clus>
<clus scale="  114.736">  1  5  2 -1</clus>
<clus scale="  204.807">  2  9  1 -1</clus>
<clus scale="  204.807">  2  5  1 -1</clus>
</clustering>
</event>
<event>
 9    1  0.4664604E-005  0.1066516E+03  0.7546771E-02  0.1273562E+00
         21   -1    0    0  501  502  0.00000000000E+00  0.00000000000E+00  0.51246217428E+02  0.51246217428E+02  0.00000000000E+00 0. -1.
         -4   -1    0    0    0  501 -0.00000000000E+00 -0.00000000000E+00 -0.32127052557E+03  0.32127052557E+03  0.00000000000E+00 0.  1.
         23    2    1    2    0    0  0.28329419988E+02 -0.47552377033E+02 -0.20800450631E+03  0.23391823488E+03  0.91586469355E+02 0.  0.
        -24    2    1    2    0    0 -0.47230414582E+02  0.31577084708E+02 -0.33344433466E+02  0.10072062126E+03  0.76190340352E+02 0.  0.
         11    1    4    4    0    0 -0.37750426414E+02  0.12830441529E+02  0.19111212925E+02  0.44214854786E+02  0.00000000000E+00 0. -1.
        -12    1    4    4    0    0 -0.94799881675E+01  0.18746643179E+02 -0.52455646391E+02  0.56505766471E+02  0.00000000000E+00 0.  1.
        -11    1    3    3    0    0  0.15990765463E+02 -0.73262686012E+02 -0.17443896839E+03  0.18987385137E+03  0.00000000000E+00 0.  1.
         11    1    3    3    0    0  0.12338654525E+02  0.25710308979E+02 -0.33565537915E+02  0.44044383510E+02  0.00000000000E+00 0. -1.
         -3    1    1    2    0  502  0.18900994594E+02  0.15975292325E+02 -0.28675368367E+02  0.37877886853E+02  0.00000000000E+00 0.  1.
<scales pt_clust_5="13000.00000" pt_clust_6="13000.00000" pt_clust_7="13000.00000" pt_clust_8="13000.00000" pt_clust_9="24.74789"></scales>
<clustering>
<clus scale="   24.748">  1  9  2 -1</clus>
<clus scale="   76.190">  5  6 -1 -1</clus>
<clus scale="   91.586">  7  8 -1 -1</clus>
<clus scale="   93.763">  1  5  2 -1</clus>
<clus scale="   24.748">  1  5  2 -1</clus>
</clustering>
</event>
<event>
 9    1  0.4664604E-005  0.9335264E+02  0.7546771E-02  0.1299856E+00
         21   -1    0    0  501  502  0.00000000000E+00  0.00000000000E+00  0.23678377280E+02  0.23678377280E+02  0.00000000000E+00 0.  1.
          1   -1    0    0  502    0 -0.00000000000E+00 -0.00000000000E+00 -0.76945842855E+03  0.76945842855E+03  0.00000000000E+00 0. -1.
         23    2    1    2    0    0 -0.24125385766E+02  0.54732110556E+02 -0.42357458448E+03  0.43636222628E+03  0.86133186062E+02 0.  0.
        -24    2    1    2    0    0  0.28645392964E+02  0.11796981225E+02 -0.21473807881E+03  0.23030011574E+03  0.77239714610E+02 0.  0.
         13    1    4    4    0    0  0.42926566301E+02  0.28872592385E+02 -0.19046251953E+03  0.19736334014E+03  0.00000000000E+00 0. -1.
        -14    1    4    4    0    0 -0.14281173337E+02 -0.17075611160E+02 -0.24275559282E+02  0.32936775599E+02  0.00000000000E+00 0.  1.
        -11    1    3    3    0    0 -0.34898895662E+02 -0.59260884238E+01 -0.82581876239E+02  0.89848860458E+02  0.00000000000E+00 0. -1.
         11    1    3    3    0    0  0.10773509895E+02  0.60658198980E+02 -0.34099270824E+03  0.34651336582E+03  0.00000000000E+00 0.  1.
          2    1    1    2  501    0 -0.45200071978E+01 -0.66529091781E+02 -0.10746738798E+03  0.12647446382E+03  0.00000000000E+00 0. -1.
<scales pt_clust_5="13000.00000" pt_clust_6="13000.00000" pt_clust_7="13000.00000" pt_clust_8="13000.00000" pt_clust_9="66.68246"></scales>
<clustering>
<clus scale="   66.682">  1  9  2 -1</clus>
<clus scale="   77.240">  5  6 -1 -1</clus>
<clus scale="   85.216">  1  5  2 -1</clus>
<clus scale="   86.133">  7  8 -1 -1</clus>
<clus scale="   66.682">  1  5  2 -1</clus>
</clustering>
</event>
<event>
 9    1  0.4664604E-005  0.1004898E+03  0.7546771E-02  0.1285093E+00
         21   -1    0    0  501  502  0.00000000000E+00  0.00000000000E+00  0.54982685190E+03  0.54982685190E+03  0.00000000000E+00 0.  1.
          3   -1    0    0  502    0 -0.00000000000E+00 -0.00000000000E+00 -0.27351295577E+02  0.27351295577E+02  0.00000000000E+00 0. -1.
         23    2    1    2    0    0  0.35622186224E+02 -0.27356968726E+02  0.12197588976E+03  0.15876123889E+03  0.91157388073E+02 0.  0.
        -24    2    1    2    0    0 -0.14666899233E+02  0.36697353095E+02  0.36858966852E+03  0.37911532074E+03  0.79424612170E+02 0.  0.
         11    1    4    4    0    0 -0.12947813947E+01 -0.25276970846E+02  0.10380249275E+03  0.10684362038E+03  0.00000000000E+00 0. -1.
        -12    1    4    4    0    0 -0.13372117838E+02  0.61974323941E+02  0.26478717578E+03  0.27227170036E+03  0.00000000000E+00 0.  1.
        -13    1    3    3    0    0 -0.88904771020E+01  0.26229895606E+02  0.57578633513E+02  0.63893247248E+02  0.00000000000E+00 0. -1.
         13    1    3    3    0    0  0.44512663326E+02 -0.53586864331E+02  0.64397256251E+02  0.94867991641E+02  0.00000000000E+00 0.  1.
          4    1    1    2  501    0 -0.20955286991E+02 -0.93403843693E+01  0.31909998032E+02  0.39301587849E+02  0.00000000000E+00 0. -1.
<scales pt_clust_5="13000.00000" pt_clust_6="13000.00000" pt_clust_7="13000.00000" pt_clust_8="13000.00000" pt_clust_9="22.94270"></scales>
<clustering>
<clus scale="   22.943">  1  9  2 -1</clus>
<clus scale="   79.425">  5  6 -1 -1</clus>
<clus scale="   89.982">  1  5  2 -1</clus>
<clus scale="   91.157">  7  8 -1 -1</clus>
<clus scale="   22.943">  1  5  2 -1</clus>
</clustering>
</event>
<event>
 9    1  0.4664604E-005  0.1007453E+03  0.7546771E-02  0.1286356E+00
         21   -1    0    0  501  502  0.00000000000E+00  0.00000000000E+00  0.46167923074E+02  0.46167923074E+02  0.00000000000E+00 0. -1.
          1   -1    0    0  502    0 -0.00000000000E+00 -0.00000000000E+00 -0.74429083096E+03  0.74429083096E+03  0.00000000000E+00 0. -1.
         23    2    1    2    0    0 -0.24567661172E+02 -0.13180173136E+02 -0.29495537821E+03  0.31036678428E+03  0.92474746324E+02 0.  0.
        -24    2    1    2    0    0  0.97186942031E+02  0.11553138319E+02 -0.78654036404E+02  0.14754841695E+03  0.77493878446E+02 0.  0.
         13    1    4    4    0    0  0.27528184806E+02  0.17568202404E+02  0.10449761916E+02  0.34287610277E+02  0.00000000000E+00 0. -1.
        -14    1    4    4    0    0  0.69658757225E+02 -0.60150640849E+01 -0.89103798319E+02  0.11326080668E+03  0.00000000000E+00 0.  1.
        -11    1    3    3    0    0 -0.83962238947E+01  0.32464677706E+02 -0.47053857458E+02  0.57779904603E+02  0.00000000000E+00 0.  1.
         11    1    3    3    0    0 -0.16171437277E+02 -0.45644850842E+02 -0.24790152075E+03  0.25258687968E+03  0.00000000000E+00 0. -1.
          2    1    1    2  501    0 -0.72619280859E+02  0.16270348175E+01 -0.32451349327E+03  0.33254355280E+03  0.00000000000E+00 0. -1.
<scales pt_clust_5="13000.00000" pt_clust_6="13000.00000" pt_clust_7="13000.00000" pt_clust_8="13000.00000" pt_clust_9="72.63754"></scales>
<clustering>
<clus scale="   72.638">  1  9  2 -1</clus>
<clus scale="   77.494">  5  6 -1 -1</clus>
<clus scale="   87.197">  1  5  2 -1</clus>
<clus scale="   92.475">  7  8 -1 -1</clus>
<clus scale="   72.638">  1  5  2 -1</clus>
</clustering>
</event>
<event>
 9    1  0.4664604E-005  0.1665474E+03  0.7546771E-02  0.1210299E+00
         21   -1    0    0  501  502  0.00000000000E+00  0.00000000000E+00  0.52862756257E+03  0.52862756257E+03  0.00000000000E+00 0. -1.
          1   -1    0    0  502    0 -0.00000000000E+00 -0.00000000000E+00 -0.84609269592E+02  0.84609269592E+02  0.00000000000E+00 0. -1.
         23    2    1    2    0    0  0.29307141903E+02 -0.25552031422E+01  0.16146233625E+03  0.18422059249E+03  0.83676179657E+02 0.  0.
        -24    2    1    2    0    0  0.13348159013E+03 -0.92848982258E+01  0.17021010427E+03  0.23086995572E+03  0.80161790277E+02 0.  0.
         11    1    4    4    0    0  0.13380067029E+03 -0.80220408771E+01  0.11781378051E+03  0.17845744420E+03  0.00000000000E+00 0. -1.
        -12    1    4    4    0    0 -0.31908016290E+00 -0.12628573487E+01  0.52396323762E+02  0.52412511527E+02  0.00000000000E+00 0.  1.
        -11    1    3    3    0    0  0.35524215112E+01 -0.37061286124E+02  0.11499036548E+03  0.12086745956E+03  0.00000000000E+00 0. -1.
         11    1    3    3    0    0  0.25754720392E+02  0.34506082981E+02  0.46471970773E+02  0.63353132935E+02  0.00000000000E+00 0.  1.
          2    1    1    2  501    0 -0.16278873203E+03  0.11840101368E+02  0.11234585246E+03  0.19814628395E+03  0.00000000000E+00 0. -1.
<scales pt_clust_5="13000.00000" pt_clust_6="13000.00000" pt_clust_7="13000.00000" pt_clust_8="13000.00000" pt_clust_9="145.98675"></scales>
<clustering>
<clus scale="   80.162">  5  6 -1 -1</clus>
<clus scale="   83.676">  7  8 -1 -1</clus>
<clus scale="   88.697">  2  7  1 -1</clus>
<clus scale="  145.987">  1  9  2 -1</clus>
<clus scale="  145.987">  1  5  2 -1</clus>
</clustering>
</event>
<event>
 9    1  0.4664604E-005  0.2022433E+03  0.7546771E-02  0.1149129E+00
         21   -1    0    0  501  502  0.00000000000E+00  0.00000000000E+00  0.75735737924E+03  0.75735737924E+03  0.00000000000E+00 0.  1.
          1   -1    0    0  502    0 -0.00000000000E+00 -0.00000000000E+00 -0.11109139657E+03  0.11109139657E+03  0.00000000000E+00 0. -1.
         23    2    1    2    0    0 -0.98187051688E+02  0.15550898214E+03  0.17266353769E+02  0.20729318989E+03  0.94066991861E+02 0.  0.
        -24    2    1    2    0    0  0.82320252668E+02 -0.13182584281E+03  0.52973397612E+03  0.55787772662E+03  0.80341742383E+02 0.  0.
         13    1    4    4    0    0 -0.14611001137E+02 -0.14223501076E+02  0.38785579084E+02  0.43819065279E+02  0.00000000000E+00 0. -1.
        -14    1    4    4    0    0  0.96931253805E+02 -0.11760234174E+03  0.49094839704E+03  0.51405866134E+03  0.00000000000E+00 0.  1.
        -13    1    3    3    0    0 -0.86600728682E+02  0.10934035312E+03  0.51474177240E+02  0.14867612435E+03  0.00000000000E+00 0.  1.
         13    1    3    3    0    0 -0.11586323006E+02  0.46168629019E+02 -0.34207823471E+02  0.58617065544E+02  0.00000000000E+00 0. -1.
          2    1    1    2  501    0  0.15866799020E+02 -0.23683139332E+02  0.99265652776E+02  0.10327785930E+03  0.00000000000E+00 0. -1.
<scales pt_clust_5="13000.00000" pt_clust_6="13000.00000" pt_clust_7="13000.00000" pt_clust_8="13000.00000" pt_clust_9="28.50695"></scales>
<clustering>
<clus scale="   28.507">  1  9  2 -1</clus>
<clus scale="   80.342">  5  6 -1 -1</clus>
<clus scale="   94.067">  7  8 -1 -1</clus>
<clus scale="  196.236">  1  5  2 -1</clus>
<clus scale="   28.507">  1  5  2 -1</clus>
</clustering>
</event>
<event>
 9    1  0.4664604E-005  0.9677390E+02  0.7546771E-02  0.1294129E+00
         21   -1    0    0  501  502  0.00000000000E+00  0.00000000000E+00  0.11266369232E+03  0.11266369232E+03  0.00000000000E+00 0. -1.
         -4   -1    0    0    0  501 -0.00000000000E+00 -0.00000000000E+00 -0.24620230568E+03  0.24620230568E+03  0.00000000000E+00 0.  1.
         23    2    1    2    0    0  0.35964455490E+02 -0.10807753786E+02 -0.14641897075E+03  0.17659147207E+03  0.91300511571E+02 0.  0.
        -24    2    1    2    0    0 -0.30200128688E+00 -0.55017164806E+01  0.74939710889E+02  0.10886354025E+03  0.78771505244E+02 0.  0.
         13    1    4    4    0    0 -0.37977612245E+02 -0.86691950224E+01  0.50758883768E+02  0.63983734304E+02  0.00000000000E+00 0. -1.
        -14    1    4    4    0    0  0.37675610958E+02  0.31674785418E+01  0.24180827121E+02  0.44879805945E+02  0.00000000000E+00 0.  1.
        -11    1    3    3    0    0  0.97362820548E-01 -0.38801231066E+02 -0.11481418353E+03  0.12119340638E+03  0.00000000000E+00 0.  1.
         11    1    3    3    0    0  0.35867092669E+02  0.27993477281E+02 -0.31604787221E+02  0.55398065689E+02  0.00000000000E+00 0. -1.
         -3    1    1    2    0  502 -0.35662454203E+02  0.16309470266E+02 -0.62059353507E+02  0.73410985675E+02  0.00000000000E+00 0.  1.
<scales pt_clust_5="13000.00000" pt_clust_6="13000.00000" pt_clust_7="13000.00000" pt_clust_8="13000.00000" pt_clust_9="39.21493"></scales>
<clustering>
<clus scale="   39.215">  1  9  2 -1</clus>
<clus scale="   78.772">  5  6 -1 -1</clus>
<clus scale="   85.055">  1  5  2 -1</clus>
<clus scale="   91.301">  7  8 -1 -1</clus>
<clus scale="   39.215">  1  5  2 -1</clus>
</clustering>
</event>
<event>
 9    1  0.4664604E-005  0.1234310E+03  0.7546771E-02  0.1240727E+00
         21   -1    0    0  501  502  0.00000000000E+00  0.00000000000E+00  0.38058620759E+02  0.38058620759E+02  0.00000000000E+00 0.  1.
          1   -1    0    0  502    0 -0.00000000000E+00 -0.00000000000E+00 -0.82818892767E+03  0.82818892767E+03  0.00000000000E+00 0. -1.
         23    2    1    2    0    0 -0.13280484998E+02  0.90671805244E+02 -0.27655884439E+03  0.30518664919E+03  0.90864453361E+02 0.  0.
        -24    2    1    2    0    0  0.93065909008E+02 -0.38548093607E+02 -0.25800732018E+03  0.28830528326E+03  0.80030869967E+02 0.  0.
         11    1    4    4    0    0  0.13163736440E+02 -0.37655314090E+02 -0.14159722313E+03  0.14710873610E+03  0.00000000000E+00 0. -1.
        -12    1    4    4    0    0  0.79902172568E+02 -0.89277951669E+00 -0.11641009705E+03  0.14119654716E+03  0.00000000000E+00 0.  1.
        -11    1    3    3    0    0 -0.86158032301E+01  0.59459464214E+02 -0.26476463851E+03  0.27149580799E+03  0.00000000000E+00 0.  1.
         11    1    3    3    0    0 -0.46646817681E+01  0.31212341030E+02 -0.11794205883E+02  0.33690841203E+02  0.00000000000E+00 0. -1.
          2    1    1    2  501    0 -0.79785424010E+02 -0.52123711637E+02 -0.25556414234E+03  0.27275561598E+03  0.00000000000E+00 0. -1.
<scales pt_clust_5="13000.00000" pt_clust_6="13000.00000" pt_clust_7="13000.00000" pt_clust_8="13000.00000" pt_clust_9="95.30270"></scales>
<clustering>
<clus scale="   80.031">  5  6 -1 -1</clus>
<clus scale="   90.864">  7  8 -1 -1</clus>
<clus scale="   95.303">  1  9  2 -1</clus>
<clus scale="  115.688">  1  5  2 -1</clus>
<clus scale="   95.303">  1  5  2 -1</clus>
</clustering>
</event>
<event>
 9    1  0.4664604E-005  0.1007196E+03  0.7546771E-02  0.1289519E+00
          1   -1    0    0  502    0 -0.00000000000E+00  0.00000000000E+00  0.20073807545E+03  0.20073807545E+03  0.00000000000E+00 0. -1.
         21   -1    0    0  501  502  0.00000000000E+00 -0.00000000000E+00 -0.83065128222E+02  0.83065128222E+02  0.00000000000E+00 0.  1.
         23    2    1    2    0    0 -0.18300334672E+02 -0.57352382042E+01  0.29491833615E+02  0.10485815293E+03  0.98780913028E+02 0.  0.
        -24    2    1    2    0    0  0.74555510896E+01  0.24722906673E+02 -0.41915881089E+01  0.84019517257E+02  0.79842986623E+02 0.  0.
         11    1    4    4    0    0 -0.10209750011E+02  0.31442101617E+02  0.30200547371E+02  0.44776308590E+02  0.00000000000E+00 0. -1.
        -12    1    4    4    0    0  0.17665301101E+02 -0.67191949441E+01 -0.34392135480E+02  0.39243208668E+02  0.00000000000E+00 0.  1.
        -13    1    3    3    0    0 -0.52103395490E+02 -0.25531841498E+02  0.30744476149E+02  0.65664766546E+02  0.00000000000E+00 0.  1.
         13    1    3    3    0    0  0.33803060818E+02  0.19796603294E+02 -0.12526425336E+01  0.39193386380E+02  0.00000000000E+00 0. -1.
          2    1    1    2  501    0  0.10844783583E+02 -0.18987668469E+02  0.92372701725E+02  0.94925533492E+02  0.00000000000E+00 0. -1.
<scales pt_clust_5="13000.00000" pt_clust_6="13000.00000" pt_clust_7="13000.00000" pt_clust_8="13000.00000" pt_clust_9="21.86644"></scales>
<clustering>
<clus scale="   21.866">  2  9  1 -1</clus>
<clus scale="   79.843">  5  6 -1 -1</clus>
<clus scale="   82.229">  2  5  1 -1</clus>
<clus scale="   98.781">  7  8 -1 -1</clus>
<clus scale="   21.866">  2  5  1 -1</clus>
</clustering>
</event>
<event>
 9    1  0.4664604E-005  0.3888289E+03  0.7546771E-02  0.1047718E+00
          1   -1    0    0  502    0 -0.00000000000E+00  0.00000000000E+00  0.41156508222E+03  0.41156508222E+03  0.00000000000E+00 0. -1.
         21   -1    0    0  501  502  0.00000000000E+00 -0.00000000000E+00 -0.34275337886E+03  0.34275337886E+03  0.00000000000E+00 0. -1.
        -24    2    1    2    0    0  0.83230852696E+02  0.25077180535E+03  0.14297315859E+03  0.31104023232E+03  0.80565680346E+02 0.  0.
         23    2    1    2    0    0  0.93352836329E+01  0.57032688291E+02  0.16643852273E+02  0.10927568420E+03  0.91237504819E+02 0.  0.
         11    1    3    3    0    0  0.80657264226E+02  0.25386754814E+03  0.14789976013E+03  0.30467796985E+03  0.00000000000E+00 0. -1.
        -12    1    3    3    0    0  0.25735884696E+01 -0.30957427894E+01 -0.49266015367E+01  0.63622624694E+01  0.00000000000E+00 0.  1.
        -13    1    4    4    0    0 -0.81424683584E+01  0.75957745238E+02 -0.36518794436E+01  0.76480161324E+02  0.00000000000E+00 0. -1.
         13    1    4    4    0    0  0.17477751991E+02 -0.18925056947E+02  0.20295731717E+02  0.32795522881E+02  0.00000000000E+00 0.  1.
          2    1    1    2  501    0 -0.92566136328E+02 -0.30780449364E+03 -0.90805307501E+02  0.33400254455E+03  0.00000000000E+00 0. -1.
<scales pt_clust_5="13000.00000" pt_clust_6="13000.00000" pt_clust_7="13000.00000" pt_clust_8="13000.00000" pt_clust_9="321.42199"></scales>
<clustering>
<clus scale="   80.566">  5  6 -1 -1</clus>
<clus scale="   91.238">  7  8 -1 -1</clus>
<clus scale="   93.409">  5  7 -1 -1</clus>
<clus scale="  321.422">  2  9  1 -1</clus>
<clus scale="  321.422">  2  5  1 -1</clus>
</clustering>
</event>
<event>
 9    1  0.4664604E-005  0.1324332E+03  0.7546771E-02  0.1227782E+00
         21   -1    0    0  501  502  0.00000000000E+00  0.00000000000E+00  0.53495427510E+03  0.53495427510E+03  0.00000000000E+00 0. -1.
          1   -1    0    0  502    0 -0.00000000000E+00 -0.00000000000E+00 -0.76240004206E+02  0.76240004206E+02  0.00000000000E+00 0. -1.
         23    2    1    2    0    0 -0.90851420226E+02  0.67074690082E+02  0.46247127532E+02  0.15404855115E+03  0.94016832008E+02 0.  0.
        -24    2    1    2    0    0  0.41957345220E+02  0.56617818361E+01  0.30822051189E+03  0.32095253783E+03  0.78855392937E+02 0.  0.
         13    1    4    4    0    0  0.58954753872E+02  0.99500494635E+01  0.28822463456E+03  0.29436050424E+03  0.00000000000E+00 0. -1.
        -14    1    4    4    0    0 -0.16997408651E+02 -0.42882676273E+01  0.19995877334E+02  0.26592033590E+02  0.00000000000E+00 0.  1.
        -11    1    3    3    0    0 -0.11040145498E+03  0.56424371703E+02  0.33654497544E+02  0.12847107140E+03  0.00000000000E+00 0. -1.
         11    1    3    3    0    0  0.19550034750E+02  0.10650318379E+02  0.12592629989E+02  0.25577479749E+02  0.00000000000E+00 0.  1.
          2    1    1    2  501    0  0.48894075006E+02 -0.72736471918E+02  0.10424663146E+03  0.13619319032E+03  0.00000000000E+00 0. -1.
<scales pt_clust_5="13000.00000" pt_clust_6="13000.00000" pt_clust_7="13000.00000" pt_clust_8="13000.00000" pt_clust_9="87.64260"></scales>
<clustering>
<clus scale="   78.855">  5  6 -1 -1</clus>
<clus scale="   87.643">  1  9  2 -1</clus>
<clus scale="   94.017">  7  8 -1 -1</clus>
<clus scale="  122.137">  1  5  2 -1</clus>
<clus scale="   87.643">  1  5  2 -1</clus>
</clustering>
</event>
<event>
 9    1  0.4664604E-005  0.9949631E+02  0.7546771E-02  0.1287363E+00
          3   -1    0    0  502    0 -0.00000000000E+00  0.00000000000E+00  0.25108038586E+03  0.25108038586E+03  0.00000000000E+00 0. -1.
         21   -1    0    0  501  502  0.00000000000E+00 -0.00000000000E+00 -0.86041035361E+02  0.86041035361E+02  0.00000000000E+00 0. -1.
         23    2    1    2    0    0 -0.15316802661E+02  0.47445484537E+02  0.10037499663E+03  0.14283348863E+03  0.88547089615E+02 0.  0.
        -24    2    1    2    0    0 -0.49530272450E+02 -0.39850759534E+02 -0.41305325549E+01  0.99443009709E+02  0.76357841486E+02 0.  0.
         13    1    4    4    0    0 -0.48245193612E+02 -0.56570648272E+02 -0.19318498073E+02  0.76818235598E+02  0.00000000000E+00 0. -1.
        -14    1    4    4    0    0 -0.12850788377E+01  0.16719888738E+02  0.15187965518E+02  0.22624774111E+02  0.00000000000E+00 0.  1.
        -13    1    3    3    0    0 -0.46136802514E+02  0.59208654901E+01  0.29435740311E+02  0.55046562127E+02  0.00000000000E+00 0.  1.
         13    1    3    3    0    0  0.30819999853E+02  0.41524619047E+02  0.70939256318E+02  0.87786926504E+02  0.00000000000E+00 0. -1.
          4    1    1    2  501    0  0.64847075110E+02 -0.75947250035E+01  0.68794886422E+02  0.94844922879E+02  0.00000000000E+00 0. -1.
<scales pt_clust_5="13000.00000" pt_clust_6="13000.00000" pt_clust_7="13000.00000" pt_clust_8="13000.00000" pt_clust_9="65.29033"></scales>
<clustering>
<clus scale="   65.290">  2  9  1 -1</clus>
<clus scale="   76.358">  5  6 -1 -1</clus>
<clus scale="   88.547">  7  8 -1 -1</clus>
<clus scale="   88.823">  2  5  1 -1</clus>
<clus scale="   65.290">  2  5  1 -1</clus>
</clustering>
</event>
<event>
 9    1  0.4664604E-005  0.1998583E+03  0.7546771E-02  0.1172257E+00
          1   -1    0    0  502    0 -0.00000000000E+00  0.00000000000E+00  0.10998801334E+04  0.10998801334E+04  0.00000000000E+00 0. -1.
         21   -1    0    0  501  502  0.00000000000E+00 -0.00000000000E+00 -0.71121720710E+02  0.71121720710E+02  0.00000000000E+00 0. -1.
        -24    2    1    2    0    0  0.15410402075E+02  0.87044058315E+02  0.81285472152E+02  0.14391754063E+03  0.79314449750E+02 0.  0.
         23    2    1    2    0    0  0.10220525312E+03 -0.19353204804E+03  0.60130959033E+03  0.64629277033E+03  0.90667271807E+02 0.  0.
         11    1    3    3    0    0 -0.16914647822E+02  0.84104958470E+02  0.52822133397E+02  0.10074684673E+03  0.00000000000E+00 0. -1.
        -12    1    3    3    0    0  0.32325049897E+02  0.29390998454E+01  0.28463338755E+02  0.43170693900E+02  0.00000000000E+00 0.  1.
        -11    1    4    4    0    0  0.29486392942E+02 -0.41040111695E+02  0.56084365023E+02  0.75493007204E+02  0.00000000000E+00 0.  1.
         11    1    4    4    0    0  0.72718860175E+02 -0.15249193634E+03  0.54522522531E+03  0.57079976313E+03  0.00000000000E+00 0. -1.
          2    1    1    2  501    0 -0.11761565519E+03  0.10648798973E+03  0.34616335020E+03  0.38079154314E+03  0.00000000000E+00 0. -1.
<scales pt_clust_5="13000.00000" pt_clust_6="13000.00000" pt_clust_7="13000.00000" pt_clust_8="13000.00000" pt_clust_9="178.10888"></scales>
<clustering>
<clus scale="   79.314">  5  6 -1 -1</clus>
<clus scale="   90.667">  7  8 -1 -1</clus>
<clus scale="  118.764">  1  5  2 -1</clus>
<clus scale="  178.109">  2  9  1 -1</clus>
<clus scale="  178.109">  2  5  1 -1</clus>
</clustering>
</event>
<event>
 9    1  0.4664604E-005  0.1064880E+03  0.7546771E-02  0.1275301E+00
         21   -1    0    0  501  502  0.00000000000E+00  0.00000000000E+00  0.76890080169E+02  0.76890080169E+02  0.00000000000E+00 0. -1.
          1   -1    0    0  502    0 -0.00000000000E+00 -0.00000000000E+00 -0.24204743001E+03  0.24204743001E+03  0.00000000000E+00 0. -1.
        -24    2    1    2    0    0  0.47734216926E+02  0.20605941852E+02 -0.96309923396E+02  0.13334474396E+03  0.76171248453E+02 0.  0.
         23    2    1    2    0    0 -0.28156039978E+02 -0.44437408537E+02 -0.96143178411E+02  0.14440658052E+03  0.94033525285E+02 0.  0.
         11    1    3    3    0    0  0.56595302649E+02 -0.10019817927E+02 -0.76948814809E+02  0.96044495593E+02  0.00000000000E+00 0. -1.
        -12    1    3    3    0    0 -0.88610857227E+01  0.30625759778E+02 -0.19361108587E+02  0.37300248363E+02  0.00000000000E+00 0.  1.
        -13    1    4    4    0    0 -0.51541199820E+02 -0.28946978523E+02 -0.99926562303E+02  0.11610228550E+03  0.00000000000E+00 0. -1.
         13    1    4    4    0    0  0.23385159842E+02 -0.15490430015E+02  0.37833838922E+01  0.28304295020E+02  0.00000000000E+00 0.  1.
          2    1    1    2  501    0 -0.19578176948E+02  0.23831466686E+02  0.27295751969E+02  0.41186185700E+02  0.00000000000E+00 0. -1.
<scales pt_clust_5="13000.00000" pt_clust_6="13000.00000" pt_clust_7="13000.00000" pt_clust_8="13000.00000" pt_clust_9="30.84224"></scales>
<clustering>
<clus scale="   30.842">  1  9  2 -1</clus>
<clus scale="   76.171">  5  6 -1 -1</clus>
<clus scale="   91.101">  2  5  1 -1</clus>
<clus scale="   94.034">  7  8 -1 -1</clus>
<clus scale="   30.842">  1  5  2 -1</clus>
</clustering>
</event>
<event>
 9    1  0.4664604E-005  0.1053760E+03  0.7546771E-02  0.1273763E+00
         21   -1    0    0  501  502  0.00000000000E+00  0.00000000000E+00  0.35404426031E+02  0.35404426031E+02  0.00000000000E+00 0.  1.
         -2   -1    0    0    0  501 -0.00000000000E+00 -0.00000000000E+00 -0.57445651713E+03  0.57445651713E+03  0.00000000000E+00 0.  1.
        -24    2    1    2    0    0 -0.94279704832E+01  0.42838669434E+02 -0.29222125819E+03  0.30658828331E+03  0.81725598777E+02 0.  0.
         23    2    1    2    0    0  0.60653402216E+02 -0.55213619513E+02 -0.18288362359E+03  0.22040873631E+03  0.91685398426E+02 0.  0.
         13    1    3    3    0    0 -0.36219280910E+02  0.52330052342E+02 -0.21842289622E+03  0.22750567527E+03  0.00000000000E+00 0. -1.
        -14    1    3    3    0    0  0.26791310427E+02 -0.94913829083E+01 -0.73798361970E+02  0.79082608033E+02  0.00000000000E+00 0.  1.
        -13    1    4    4    0    0  0.19183054653E+02  0.16176907369E+02 -0.10121340137E+03  0.10427767994E+03  0.00000000000E+00 0. -1.
         13    1    4    4    0    0  0.41470347563E+02 -0.71390526882E+02 -0.81670222226E+02  0.11613105637E+03  0.00000000000E+00 0.  1.
         -1    1    1    2    0  502 -0.51225431733E+02  0.12374950079E+02 -0.63947209317E+02  0.82863923544E+02  0.00000000000E+00 0.  1.
<scales pt_clust_5="13000.00000" pt_clust_6="13000.00000" pt_clust_7="13000.00000" pt_clust_8="13000.00000" pt_clust_9="52.69900"></scales>
<clustering>
<clus scale="   52.699">  1  9  2 -1</clus>
<clus scale="   81.726">  5  6 -1 -1</clus>
<clus scale="   91.685">  7  8 -1 -1</clus>
<clus scale="   96.835">  2  5  1 -1</clus>
<clus scale="   52.699">  1  5  2 -1</clus>
</clustering>
</event>
<event>
 9    1  0.4664604E-005  0.2704297E+03  0.7546771E-02  0.1101034E+00
         21   -1    0    0  501  502  0.00000000000E+00  0.00000000000E+00  0.31853552308E+03  0.31853552308E+03  0.00000000000E+00 0. -1.
          1   -1    0    0  502    0 -0.00000000000E+00 -0.00000000000E+00 -0.18750197831E+03  0.18750197831E+03  0.00000000000E+00 0. -1.
        -24    2    1    2    0    0  0.42552317981E+02 -0.96733389942E+02  0.88982595289E+02  0.15747315718E+03  0.75576745587E+02 0.  0.
         23    2    1    2    0    0 -0.31247571445E+02 -0.99100706264E+02  0.60530756771E+02  0.15153568180E+03  0.92204824382E+02 0.  0.
         11    1    3    3    0    0  0.35842325390E+02 -0.31445564114E+01  0.27645732304E+02  0.45374519711E+02  0.00000000000E+00 0. -1.
        -12    1    3    3    0    0  0.67099925910E+01 -0.93588833531E+02  0.61336862986E+02  0.11209863747E+03  0.00000000000E+00 0.  1.
        -11    1    4    4    0    0 -0.53981088814E+02 -0.21814534323E+02  0.28743107119E+02  0.64930717416E+02  0.00000000000E+00 0. -1.
         11    1    4    4    0    0  0.22733517369E+02 -0.77286171940E+02  0.31787649652E+02  0.86604964381E+02  0.00000000000E+00 0.  1.
          2    1    1    2  501    0 -0.11304746536E+02  0.19583409621E+03 -0.18479807289E+02  0.19702866240E+03  0.00000000000E+00 0. -1.
<scales pt_clust_5="13000.00000" pt_clust_6="13000.00000" pt_clust_7="13000.00000" pt_clust_8="13000.00000" pt_clust_9="196.16021"></scales>
<clustering>
<clus scale="   75.577">  5  6 -1 -1</clus>
<clus scale="   92.205">  7  8 -1 -1</clus>
<clus scale="  120.476">  5  7 -1 -1</clus>
<clus scale="  196.160">  1  9  2 -1</clus>
<clus scale="  196.160">  1  5  2 -1</clus>
</clustering>
</event>
<event>
 9    1  0.4664604E-005  0.9768400E+02  0.7546771E-02  0.1290396E+00
          1   -1    0    0  502    0 -0.00000000000E+00  0.00000000000E+00  0.10427901911E+04  0.10427901911E+04  0.00000000000E+00 0. -1.
         21   -1    0    0  501  502  0.00000000000E+00 -0.00000000000E+00 -0.12446196656E+02  0.12446196656E+02  0.00000000000E+00 0. -1.
         23    2    1    2    0    0  0.20431984112E+02 -0.70671231085E+01  0.41637878321E+03  0.42672322442E+03  0.90851576471E+02 0.  0.
        -24    2    1    2    0    0 -0.50675314875E+02 -0.15146350942E+02  0.45392695667E+03  0.46413451385E+03  0.81078760881E+02 0.  0.
         11    1    4    4    0    0 -0.35127605394E+02 -0.47771759111E+02  0.24274636830E+03  0.24988375088E+03  0.00000000000E+00 0. -1.
        -12    1    4    4    0    0 -0.15547709481E+02  0.32625408169E+02  0.21118058837E+03  0.21425076297E+03  0.00000000000E+00 0.  1.
        -13    1    3    3    0    0 -0.12561975136E+02  0.35450386949E+02  0.12998719913E+03  0.13531890146E+03  0.00000000000E+00 0. -1.
         13    1    3    3    0    0  0.32993959249E+02 -0.42517510057E+02  0.28639158408E+03  0.29140432296E+03  0.00000000000E+00 0.  1.
          2    1    1    2  501    0  0.30243330762E+02  0.22213474051E+02  0.16003825456E+03  0.16437864949E+03  0.00000000000E+00 0. -1.
<scales pt_clust_5="13000.00000" pt_clust_6="13000.00000" pt_clust_7="13000.00000" pt_clust_8="13000.00000" pt_clust_9="37.52463"></scales>
<clustering>
<clus scale="   37.525">  2  9  1 -1</clus>
<clus scale="   81.079">  5  6 -1 -1</clus>
<clus scale="   88.667">  2  5  1 -1</clus>
<clus scale="   90.852">  7  8 -1 -1</clus>
<clus scale="   37.525">  2  5  1 -1</clus>
</clustering>
</event>
<event>
 9    1  0.4664604E-005  0.1129152E+03  0.7546771E-02  0.1259473E+00
         21   -1    0    0  501  502  0.00000000000E+00  0.00000000000E+00  0.25690020558E+02  0.25690020558E+02  0.00000000000E+00 0.  1.
          1   -1    0    0  502    0 -0.00000000000E+00 -0.00000000000E+00 -0.73955714020E+03  0.73955714020E+03  0.00000000000E+00 0. -1.
        -24    2    1    2    0    0  0.34118313349E+01 -0.63148520873E+02 -0.47069159588E+03  0.48164874205E+03  0.80221917218E+02 0.  0.
         23    2    1    2    0    0 -0.27113740995E+02  0.71565897729E+02 -0.21439626377E+03  0.24537697760E+03  0.91582042733E+02 0.  0.
         11    1    3    3    0    0  0.40840342088E+02 -0.40206199590E+02 -0.29828355923E+03  0.30373928579E+03  0.00000000000E+00 0. -1.
        -12    1    3    3    0    0 -0.37428510753E+02 -0.22942321283E+02 -0.17240803665E+03  0.17790945625E+03  0.00000000000E+00 0.  1.
        -11    1    4    4    0    0 -0.75222868037E+01  0.45387717972E+02 -0.23425687061E+02  0.51627439950E+02  0.00000000000E+00 0.  1.
         11    1    4    4    0    0 -0.19591454191E+02  0.26178179756E+02 -0.19097057671E+03  0.19374953765E+03  0.00000000000E+00 0. -1.
          2    1    1    2  501    0  0.23701909660E+02 -0.84173768556E+01 -0.28779259997E+02  0.38221441111E+02  0.00000000000E+00 0. -1.
<scales pt_clust_5="13000.00000" pt_clust_6="13000.00000" pt_clust_7="13000.00000" pt_clust_8="13000.00000" pt_clust_9="25.15219"></scales>
<clustering>
<clus scale="   25.152">  1  9  2 -1</clus>
<clus scale="   80.222">  5  6 -1 -1</clus>
<clus scale="   91.582">  7  8 -1 -1</clus>
<clus scale="  103.914">  2  5  1 -1</clus>
<clus scale="   25.152">  1  5  2 -1</clus>
</clustering>
</event>
<event>
 9    1  0.4664604E-005  0.1914174E+03  0.7546771E-02  0.1158537E+00
         21   -1    0    0  501  502  0.00000000000E+00  0.00000000000E+00  0.25117731507E+03  0.25117731507E+03  0.00000000000E+00 0.  1.
          1   -1    0    0  502    0 -0.00000000000E+00 -0.00000000000E+00 -0.46489873410E+03  0.46489873410E+03  0.00000000000E+00 0. -1.
         23    2    1    2    0    0  0.56307895436E+02 -0.15425568795E+03 -0.36167925028E+03  0.40759418337E+03  0.91409747206E+02 0.  0.
        -24    2    1    2    0    0 -0.39675961898E+02  0.19133773016E+03  0.72218590476E+02  0.22252762412E+03  0.78222181979E+02 0.  0.
         13    1    4    4    0    0  0.13758650046E+02  0.30867775588E+02 -0.89007797925E+01  0.34947730996E+02  0.00000000000E+00 0. -1.
        -14    1    4    4    0    0 -0.53434611945E+02  0.16046995457E+03  0.81119370269E+02  0.18757989313E+03  0.00000000000E+00 0.  1.
        -13    1    3    3    0    0 -0.13707043194E+01 -0.12052259904E+03 -0.21689637675E+03  0.24813628102E+03  0.00000000000E+00 0.  1.
         13    1    3    3    0    0  0.57678599756E+02 -0.33733088917E+02 -0.14478287353E+03  0.15945790236E+03  0.00000000000E+00 0. -1.
          2    1    1    2  501    0 -0.16631933538E+02 -0.37082042205E+02  0.75739240774E+02  0.85954241666E+02  0.00000000000E+00 0. -1.
<scales pt_clust_5="13000.00000" pt_clust_6="13000.00000" pt_clust_7="13000.00000" pt_clust_8="13000.00000" pt_clust_9="40.64110"></scales>
<clustering>
<clus scale="   40.641">  1  9  2 -1</clus>
<clus scale="   78.222">  5  6 -1 -1</clus>
<clus scale="   91.410">  7  8 -1 -1</clus>
<clus scale="  185.482">  1  5  2 -1</clus>
<clus scale="   40.641">  1  5  2 -1</clus>
</clustering>
</event>
<event>
 9    1  0.4664604E-005  0.9657095E+02  0.7546771E-02  0.1294638E+00
          3   -1    0    0  502    0 -0.00000000000E+00  0.00000000000E+00  0.50197130625E+03  0.50197130625E+03  0.00000000000E+00 0. -1.
         21   -1    0    0  501  502  0.00000000000E+00 -0.00000000000E+00 -0.28537871776E+03  0.28537871776E+03  0.00000000000E+00 0. -1.
         23    2    1    2    0    0 -0.23526084017E+02 -0.25246919431E+02  0.46115175175E+03  0.47116243403E+03  0.90234237039E+02 0.  0.
        -24    2    1    2    0    0 -0.17104623266E+01  0.45342556895E+02 -0.23549361289E+02  0.92835736432E+02  0.77492118274E+02 0.  0.
         11    1    4    4    0    0 -0.35000196747E+02  0.13862060711E+02  0.62775641817E+01  0.38165145244E+02  0.00000000000E+00 0. -1.
        -12    1    4    4    0    0  0.33289734420E+02  0.31480496185E+02 -0.29826925471E+02  0.54670591188E+02  0.00000000000E+00 0.  1.
        -11    1    3    3    0    0 -0.49842515117E+02  0.95156801258E+01  0.29779619018E+03  0.30208838999E+03  0.00000000000E+00 0. -1.
         11    1    3    3    0    0  0.26316431100E+02 -0.34762599557E+02  0.16335556157E+03  0.16907404405E+03  0.00000000000E+00 0.  1.
          4    1    1    2  501    0  0.25236546344E+02 -0.20095637464E+02 -0.22100980197E+03  0.22335185354E+03  0.00000000000E+00 0. -1.
<scales pt_clust_5="13000.00000" pt_clust_6="13000.00000" pt_clust_7="13000.00000" pt_clust_8="13000.00000" pt_clust_9="32.26016"></scales>
<clustering>
<clus scale="   32.260">  2  9  1 -1</clus>
<clus scale="   77.492">  5  6 -1 -1</clus>
<clus scale="   84.787">  2  5  1 -1</clus>
<clus scale="   90.234">  7  8 -1 -1</clus>
<clus scale="   32.260">  2  5  1 -1</clus>
</clustering>
</event>
<event>
 9    1  0.4664604E-005  0.1175769E+03  0.7546771E-02  0.1249680E+00
         21   -1    0    0  501  502  0.00000000000E+00  0.00000000000E+00  0.84449635131E+02  0.84449635131E+02  0.00000000000E+00 0.  1.
          1   -1    0    0  502    0 -0.00000000000E+00 -0.00000000000E+00 -0.40590650041E+03  0.40590650041E+03  0.00000000000E+00 0. -1.
        -24    2    1    2    0    0 -0.79717141487E+02 -0.20513613046E+02 -0.32760532317E+03  0.34754865430E+03  0.81787458518E+02 0.  0.
         23    2    1    2    0    0  0.37428509558E+02  0.22680553593E+02  0.10508496500E+02  0.10023948905E+03  0.89566879079E+02 0.  0.
         13    1    3    3    0    0 -0.40369344910E+02  0.30734540534E+02 -0.16310981251E+03  0.17081893023E+03  0.00000000000E+00 0. -1.
        -14    1    3    3    0    0 -0.39347796577E+02 -0.51248153580E+02 -0.16449551067E+03  0.17672972407E+03  0.00000000000E+00 0.  1.
        -11    1    4    4    0    0 -0.28363014134E+02  0.76641738612E+01  0.14247395200E+02  0.32652540509E+02  0.00000000000E+00 0. -1.
         11    1    4    4    0    0  0.65791523692E+02  0.15016379731E+02 -0.37388987003E+01  0.67586948544E+02  0.00000000000E+00 0.  1.
          2    1    1    2  501    0  0.42288631929E+02 -0.21669405464E+01 -0.43600386036E+01  0.42567992182E+02  0.00000000000E+00 0. -1.
<scales pt_clust_5="13000.00000" pt_clust_6="13000.00000" pt_clust_7="13000.00000" pt_clust_8="13000.00000" pt_clust_9="42.34411"></scales>
<clustering>
<clus scale="   42.344">  1  9  2 -1</clus>
<clus scale="   81.787">  5  6 -1 -1</clus>
<clus scale="   89.567">  7  8 -1 -1</clus>
<clus scale="  111.764">  2  5  1 -1</clus>
<clus scale="   42.344">  1  5  2 -1</clus>
</clustering>
</event>
<event>
 9    1  0.4664604E-005  0.1113935E+03  0.7546771E-02  0.1261986E+00
         -2   -1    0    0    0  501 -0.00000000000E+00  0.00000000000E+00  0.18275159679E+03  0.18275159679E+03  0.00000000000E+00 0.  1.
         21   -1    0    0  501  502  0.00000000000E+00 -0.00000000000E+00 -0.13928873826E+03  0.13928873826E+03  0.00000000000E+00 0. -1.
         23    2    1    2    0    0  0.72122429469E+02  0.14311757608E+02  0.11966128011E+03  0.16779896001E+03  0.91821554036E+02 0.  0.
        -24    2    1    2    0    0 -0.32519568150E+02  0.89199251182E+01 -0.48662012547E+02  0.10070305671E+03  0.81461811848E+02 0.  0.
         13    1    4    4    0    0 -0.42478615235E+02 -0.16345684127E+02 -0.56390458122E+02  0.72467219549E+02  0.00000000000E+00 0. -1.
        -14    1    4    4    0    0  0.99590470849E+01  0.25265609246E+02  0.77284455754E+01  0.28235837165E+02  0.00000000000E+00 0.  1.
        -11    1    3    3    0    0 -0.12211407555E+01  0.36426867464E+02  0.18408074691E+02  0.40832157325E+02  0.00000000000E+00 0. -1.
         11    1    3    3    0    0  0.73343570224E+02 -0.22115109856E+02  0.10125320542E+03  0.12696680269E+03  0.00000000000E+00 0.  1.
         -1    1    1    2    0  502 -0.39602861318E+02 -0.23231682726E+02 -0.27536409030E+02  0.53538318326E+02  0.00000000000E+00 0.  1.
<scales pt_clust_5="13000.00000" pt_clust_6="13000.00000" pt_clust_7="13000.00000" pt_clust_8="13000.00000" pt_clust_9="45.91403"></scales>
<clustering>
<clus scale="   45.914">  2  9  1 -1</clus>
<clus scale="   81.462">  5  6 -1 -1</clus>
<clus scale="   91.822">  7  8 -1 -1</clus>
<clus scale="  103.021">  2  5  1 -1</clus>
<clus scale="   45.914">  2  5  1 -1</clus>
</clustering>
</event>
<event>
 9    1  0.4664604E-005  0.9378318E+02  0.7546771E-02  0.1295962E+00
         -4   -1    0    0    0  501 -0.00000000000E+00  0.00000000000E+00  0.57739222114E+03  0.57739222114E+03  0.00000000000E+00 0.  1.
         21   -1    0    0  501  502  0.00000000000E+00 -0.00000000000E+00 -0.24087095669E+02  0.24087095669E+02  0.00000000000E+00 0.  1.
        -24    2    1    2    0    0  0.37009481066E+02 -0.21857367771E+02  0.29896499531E+03  0.31234658084E+03  0.79579343617E+02 0.  0.
         23    2    1    2    0    0 -0.47997346771E+02 -0.36414668028E+01  0.13053418533E+03  0.16225154849E+03  0.83482847773E+02 0.  0.
         13    1    3    3    0    0 -0.12714357333E+02 -0.36345659377E+02  0.11872133548E+03  0.12480952422E+03  0.00000000000E+00 0. -1.
        -14    1    3    3    0    0  0.49723838398E+02  0.14488291606E+02  0.18024365983E+03  0.18753705663E+03  0.00000000000E+00 0.  1.
        -13    1    4    4    0    0 -0.67998132245E+02 -0.10371127222E+02  0.12080323445E+03  0.13901340842E+03  0.00000000000E+00 0.  1.
         13    1    4    4    0    0  0.20000785474E+02  0.67296604191E+01  0.97309508807E+01  0.23238140071E+02  0.00000000000E+00 0. -1.
         -3    1    1    2    0  502  0.10987865705E+02  0.25498834574E+02  0.12380594483E+03  0.12688118747E+03  0.00000000000E+00 0.  1.
<scales pt_clust_5="13000.00000" pt_clust_6="13000.00000" pt_clust_7="13000.00000" pt_clust_8="13000.00000" pt_clust_9="27.76553"></scales>
<clustering>
<clus scale="   27.766">  2  9  1 -1</clus>
<clus scale="   79.579">  5  6 -1 -1</clus>
<clus scale="   83.483">  7  8 -1 -1</clus>
<clus scale="   90.326">  1  5  2 -1</clus>
<clus scale="   27.766">  2  5  1 -1</clus>
</clustering>
</event>
<event>
 9    1  0.4664604E-005  0.3294186E+03  0.7546771E-02  0.1071394E+00
         21   -1    0    0  501  502  0.00000000000E+00  0.00000000000E+00  0.11831667280E+03  0.11831667280E+03  0.00000000000E+00 0.  1.
          1   -1    0    0  502    0 -0.00000000000E+00 -0.00000000000E+00 -0.78628106134E+03  0.78628106134E+03  0.00000000000E+00 0. -1.
        -24    2    1    2    0    0 -0.12178394572E+03 -0.13326444347E+03 -0.77558673318E+02  0.21283046222E+03  0.81796800142E+02 0.  0.
         23    2    1    2    0    0 -0.46007073993E+02 -0.46041070045E+02 -0.15006554003E+03  0.18758103315E+03  0.91818008606E+02 0.  0.
         11    1    3    3    0    0 -0.74538487896E+02 -0.57465672923E+02 -0.79933746208E+02  0.12348155136E+03  0.00000000000E+00 0. -1.
        -12    1    3    3    0    0 -0.47245457825E+02 -0.75798770549E+02  0.23750728896E+01  0.89348910867E+02  0.00000000000E+00 0.  1.
        -11    1    4    4    0    0 -0.55690091030E+01 -0.53763319483E+02 -0.13197174783E+03  0.14261153744E+03  0.00000000000E+00 0.  1.
         11    1    4    4    0    0 -0.40438064890E+02  0.77222494381E+01 -0.18093792197E+02  0.44969495711E+02  0.00000000000E+00 0. -1.
          2    1    1    2  501    0  0.16779101971E+03  0.17930551352E+03 -0.44034017520E+03  0.50418623877E+03  0.00000000000E+00 0. -1.
<scales pt_clust_5="13000.00000" pt_clust_6="13000.00000" pt_clust_7="13000.00000" pt_clust_8="13000.00000" pt_clust_9="245.56945"></scales>
<clustering>
<clus scale="   81.797">  5  6 -1 -1</clus>
<clus scale="   91.818">  7  8 -1 -1</clus>
<clus scale="  109.052">  5  7 -1 -1</clus>
<clus scale="  245.569">  1  9  2 -1</clus>
<clus scale="  245.569">  1  5  2 -1</clus>
</clustering>
</event>
<event>
 9    1  0.4664604E-005  0.1281343E+03  0.7546771E-02  0.1237966E+00
         -4   -1    0    0    0  501 -0.00000000000E+00  0.00000000000E+00  0.78966978970E+03  0.78966978970E+03  0.00000000000E+00 0.  1.
         21   -1    0    0  501  502  0.00000000000E+00 -0.00000000000E+00 -0.67023184883E+02  0.67023184883E+02  0.00000000000E+00 0.  1.
        -24    2    1    2    0    0 -0.70060931896E+02 -0.84216139621E+00  0.58703027538E+02  0.12413903654E+03  0.83995306636E+02 0.  0.
         23    2    1    2    0    0  0.90975002511E+01  0.91842634616E+02  0.11384705127E+03  0.17165839157E+03  0.89373476319E+02 0.  0.
         11    1    3    3    0    0  0.61024877003E+01  0.21281541774E+02 -0.46602322586E+01  0.22624370513E+02  0.00000000000E+00 0. -1.
        -12    1    3    3    0    0 -0.76163419596E+02 -0.22123703170E+02  0.63363259796E+02  0.10151466603E+03  0.00000000000E+00 0.  1.
        -13    1    4    4    0    0  0.33406978875E+02  0.10491344776E+00  0.33498647985E+02  0.47309583185E+02  0.00000000000E+00 0.  1.
         13    1    4    4    0    0 -0.24309478624E+02  0.91737721169E+02  0.80348403281E+02  0.12434880838E+03  0.00000000000E+00 0. -1.
         -3    1    1    2    0  502  0.60963431645E+02 -0.91000473220E+02  0.55009652601E+03  0.56089554648E+03  0.00000000000E+00 0.  1.
<scales pt_clust_5="13000.00000" pt_clust_6="13000.00000" pt_clust_7="13000.00000" pt_clust_8="13000.00000" pt_clust_9="91.81935"></scales>
<clustering>
<clus scale="   83.995">  5  6 -1 -1</clus>
<clus scale="   89.373">  7  8 -1 -1</clus>
<clus scale="  109.382">  1  5  2 -1</clus>
<clus scale="   91.819">  2  9  1 -1</clus>
<clus scale="   91.819">  2  5  1 -1</clus>
</clustering>
</event>
<event>
 9    1  0.4664604E-005  0.9165412E+02  0.7546771E-02  0.1303953E+00
          1   -1    0    0  502    0 -0.00000000000E+00  0.00000000000E+00  0.33774081817E+03  0.33774081817E+03  0.00000000000E+00 0. -1.
         21   -1    0    0  501  502  0.00000000000E+00 -0.00000000000E+00 -0.50490954965E+02  0.50490954965E+02  0.00000000000E+00 0. -1.
         23    2    1    2    0    0 -0.19591219028E+02  0.27768466774E+02  0.20871486251E+03  0.22941717455E+03  0.88968772810E+02 0.  0.
        -24    2    1    2    0    0 -0.27182790507E+02 -0.84927175079E+01  0.62090563554E+02  0.10561890336E+03  0.80554852830E+02 0.  0.
         11    1    4    4    0    0 -0.23890875784E+02  0.27491140660E+02  0.59021475571E+02  0.69354677846E+02  0.00000000000E+00 0. -1.
        -12    1    4    4    0    0 -0.32919147224E+01 -0.35983858168E+02  0.30690879834E+01  0.36264225516E+02  0.00000000000E+00 0.  1.
        -13    1    3    3    0    0  0.31182866124E+02  0.12775210656E+02  0.38527210707E+02  0.51185184496E+02  0.00000000000E+00 0.  1.
         13    1    3    3    0    0 -0.50774085151E+02  0.14993256118E+02  0.17018765180E+03  0.17823199005E+03  0.00000000000E+00 0. -1.
          2    1    1    2  501    0  0.46774009534E+02 -0.19275749266E+02  0.16444437143E+02  0.53195695226E+02  0.00000000000E+00 0. -1.
<scales pt_clust_5="13000.00000" pt_clust_6="13000.00000" pt_clust_7="13000.00000" pt_clust_8="13000.00000" pt_clust_9="50.59014"></scales>
<clustering>
<clus scale="   50.590">  2  9  1 -1</clus>
<clus scale="   80.555">  5  6 -1 -1</clus>
<clus scale="   83.511">  2  5  1 -1</clus>
<clus scale="   88.969">  7  8 -1 -1</clus>
<clus scale="   50.590">  2  5  1 -1</clus>
</clustering>
</event>
<event>
 9    1  0.4664604E-005  0.9862522E+02  0.7546771E-02  0.1288735E+00
         21   -1    0    0  501  502  0.00000000000E+00  0.00000000000E+00  0.91528864536E+02  0.91528864536E+02  0.00000000000E+00 0.  1.
         -2   -1    0    0    0  501 -0.00000000000E+00 -0.00000000000E+00 -0.26340944610E+03  0.26340944610E+03  0.00000000000E+00 0.  1.
        -24    2    1    2    0    0  0.30546296994E+02 -0.22880206490E+01 -0.17422185313E+03  0.19520633752E+03  0.82546646213E+02 0.  0.
         23    2    1    2    0    0 -0.34713805395E+02  0.40132357863E+02 -0.28461140456E+02  0.11075901556E+03  0.92961651120E+02 0.  0.
         13    1    3    3    0    0 -0.78569437791E+01 -0.30564713450E+02 -0.11455429730E+03  0.11882180063E+03  0.00000000000E+00 0. -1.
        -14    1    3    3    0    0  0.38403240774E+02  0.28276692801E+02 -0.59667555825E+02  0.76384536890E+02  0.00000000000E+00 0.  1.
        -11    1    4    4    0    0 -0.13323615630E+02 -0.28577288031E+02  0.40573836096E+01  0.31790603744E+02  0.00000000000E+00 0. -1.
         11    1    4    4    0    0 -0.21390189765E+02  0.68709645895E+02 -0.32518524066E+02  0.78968411815E+02  0.00000000000E+00 0.  1.
         -1    1    1    2    0  502  0.41675084007E+01 -0.37844337214E+02  0.30802412023E+02  0.48972957557E+02  0.00000000000E+00 0.  1.
<scales pt_clust_5="13000.00000" pt_clust_6="13000.00000" pt_clust_7="13000.00000" pt_clust_8="13000.00000" pt_clust_9="38.07311"></scales>
<clustering>
<clus scale="   38.073">  1  9  2 -1</clus>
<clus scale="   82.547">  5  6 -1 -1</clus>
<clus scale="   88.876">  2  5  1 -1</clus>
<clus scale="   92.962">  7  8 -1 -1</clus>
<clus scale="   38.073">  1  5  2 -1</clus>
</clustering>
</event>
<event>
 9    1  0.4664604E-005  0.9694398E+02  0.7546771E-02  0.1301259E+00
          1   -1    0    0  502    0 -0.00000000000E+00  0.00000000000E+00  0.48566781986E+03  0.48566781986E+03  0.00000000000E+00 0. -1.
         21   -1    0    0  501  502  0.00000000000E+00 -0.00000000000E+00 -0.73319040700E+02  0.73319040700E+02  0.00000000000E+00 0. -1.
         23    2    1    2    0    0 -0.32027090889E+02  0.24608405976E+02  0.40595120456E+03  0.41806851036E+03  0.91397979640E+02 0.  0.
        -24    2    1    2    0    0 -0.11640152499E+02 -0.21350475570E+02  0.43699369655E+02  0.83395605396E+02  0.66737217007E+02 0.  0.
         11    1    4    4    0    0 -0.33248629235E+02 -0.10497008046E+02  0.47494566750E+02  0.58918523358E+02  0.00000000000E+00 0. -1.
        -12    1    4    4    0    0  0.21608476736E+02 -0.10853467524E+02 -0.37951970947E+01  0.24477082038E+02  0.00000000000E+00 0.  1.
        -13    1    3    3    0    0 -0.35687415860E+02 -0.25494580898E+02  0.12056611101E+03  0.12829556668E+03  0.00000000000E+00 0.  1.
         13    1    3    3    0    0  0.36603249708E+01  0.50102986874E+02  0.28538509355E+03  0.28977294369E+03  0.00000000000E+00 0. -1.
          2    1    1    2  501    0  0.43667243388E+02 -0.32579304066E+01 -0.37301795049E+02  0.57522744802E+02  0.00000000000E+00 0. -1.
<scales pt_clust_5="13000.00000" pt_clust_6="13000.00000" pt_clust_7="13000.00000" pt_clust_8="13000.00000" pt_clust_9="43.78861"></scales>
<clustering>
<clus scale="   43.789">  2  9  1 -1</clus>
<clus scale="   66.737">  5  6 -1 -1</clus>
<clus scale="   74.151">  2  5  1 -1</clus>
<clus scale="   91.398">  7  8 -1 -1</clus>
<clus scale="   43.789">  2  5  1 -1</clus>
</clustering>
</event>
<event>
 9    1  0.4664604E-005  0.9382954E+02  0.7546771E-02  0.1299212E+00
         21   -1    0    0  501  502  0.00000000000E+00  0.00000000000E+00  0.43524777487E+02  0.43524777487E+02  0.00000000000E+00 0.  1.
          1   -1    0    0  502    0 -0.00000000000E+00 -0.00000000000E+00 -0.41940183878E+03  0.41940183878E+03  0.00000000000E+00 0. -1.
         23    2    1    2    0    0  0.17173476114E+02 -0.25569023895E-01 -0.10174014318E+03  0.13712131157E+03  0.90312061313E+02 0.  0.
        -24    2    1    2    0    0  0.12502225376E+01  0.53089463443E+02 -0.86269463369E+02  0.12972014432E+03  0.81023708559E+02 0.  0.
         11    1    4    4    0    0 -0.21481419681E+02  0.80602075617E+01 -0.74459640606E+02  0.77914417258E+02  0.00000000000E+00 0. -1.
        -12    1    4    4    0    0  0.22731642219E+02  0.45029255882E+02 -0.11809822762E+02  0.51805727067E+02  0.00000000000E+00 0.  1.
        -11    1    3    3    0    0 -0.29478887847E+02  0.24573179162E+02 -0.34009765893E+02  0.51278749390E+02  0.00000000000E+00 0. -1.
         11    1    3    3    0    0  0.46652363961E+02 -0.24598748186E+02 -0.67730377282E+02  0.85842562184E+02  0.00000000000E+00 0.  1.
          2    1    1    2  501    0 -0.18423698651E+02 -0.53063894419E+02 -0.18786745475E+03  0.19608516037E+03  0.00000000000E+00 0. -1.
<scales pt_clust_5="13000.00000" pt_clust_6="13000.00000" pt_clust_7="13000.00000" pt_clust_8="13000.00000" pt_clust_9="56.17128"></scales>
<clustering>
<clus scale="   56.171">  1  9  2 -1</clus>
<clus scale="   81.024">  5  6 -1 -1</clus>
<clus scale="   84.927">  1  5  2 -1</clus>
<clus scale="   90.312">  7  8 -1 -1</clus>
<clus scale="   56.171">  1  5  2 -1</clus>
</clustering>
</event>
<event>
 9    1  0.4664604E-005  0.2325100E+03  0.7546771E-02  0.1155267E+00
          1   -1    0    0  502    0 -0.00000000000E+00  0.00000000000E+00  0.11864469713E+04  0.11864469713E+04  0.00000000000E+00 0. -1.
         21   -1    0    0  501  502  0.00000000000E+00 -0.00000000000E+00 -0.73021763924E+02  0.73021763924E+02  0.00000000000E+00 0. -1.
         23    2    1    2    0    0 -0.27727473904E+02  0.53196216456E+02  0.37979062616E+03  0.39588380631E+03  0.94257191372E+02 0.  0.
        -24    2    1    2    0    0 -0.84420234976E+02 -0.22214065338E+03  0.35938269696E+03  0.43792801984E+03  0.78433294791E+02 0.  0.
         11    1    4    4    0    0 -0.41718911005E+02 -0.12515459747E+03  0.26499190080E+03  0.29601494606E+03  0.00000000000E+00 0. -1.
        -12    1    4    4    0    0 -0.42701323971E+02 -0.96986055913E+02  0.94390796163E+02  0.14191307378E+03  0.00000000000E+00 0.  1.
        -13    1    3    3    0    0  0.29436974983E+02  0.14428904291E+02  0.56721427428E+02  0.65513732183E+02  0.00000000000E+00 0.  1.
         13    1    3    3    0    0 -0.57164448887E+02  0.38767312165E+02  0.32306919873E+03  0.33037007412E+03  0.00000000000E+00 0. -1.
          2    1    1    2  501    0  0.11214770888E+03  0.16894443693E+03  0.37425188430E+03  0.42565690912E+03  0.00000000000E+00 0. -1.
<scales pt_clust_5="13000.00000" pt_clust_6="13000.00000" pt_clust_7="13000.00000" pt_clust_8="13000.00000" pt_clust_9="218.88162"></scales>
<clustering>
<clus scale="   78.433">  5  6 -1 -1</clus>
<clus scale="   94.257">  7  8 -1 -1</clus>
<clus scale="  111.728">  1  7  2 -1</clus>
<clus scale="  218.882">  2  9  1 -1</clus>
<clus scale="  218.882">  2  5  1 -1</clus>
</clustering>
</event>
<event>
 9    1  0.4664604E-005  0.1183949E+03  0.7546771E-02  0.1248958E+00
         21   -1    0    0  501  502  0.00000000000E+00  0.00000000000E+00  0.83534920427E+03  0.83534920427E+03  0.00000000000E+00 0. -1.
          1   -1    0    0  502    0 -0.00000000000E+00 -0.00000000000E+00 -0.11548045832E+03  0.11548045832E+03  0.00000000000E+00 0. -1.
         23    2    1    2    0    0  0.65293722252E+02 -0.87121930804E+01 -0.56614220504E+02  0.13225528162E+03  0.99735234890E+02 0.  0.
        -24    2    1    2    0    0 -0.21672364632E+02  0.11084267763E+03  0.32454243243E+03  0.35318883648E+03  0.81601306344E+02 0.  0.
         11    1    4    4    0    0 -0.42644925501E+02  0.74576403100E+02  0.14253817885E+03  0.16642524448E+03  0.00000000000E+00 0. -1.
        -12    1    4    4    0    0  0.20972560869E+02  0.36266274532E+02  0.18200425357E+03  0.18676359200E+03  0.00000000000E+00 0.  1.
        -11    1    3    3    0    0 -0.54587938873E+01  0.35455989075E+02 -0.13194720100E+02  0.38223372830E+02  0.00000000000E+00 0.  1.
         11    1    3    3    0    0  0.70752516139E+02 -0.44168182155E+02 -0.43419500404E+02  0.94031908788E+02  0.00000000000E+00 0. -1.
          2    1    1    2  501    0 -0.43621357619E+02 -0.10213048455E+03  0.45194053404E+03  0.46538554449E+03  0.00000000000E+00 0. -1.
<scales pt_clust_5="13000.00000" pt_clust_6="13000.00000" pt_clust_7="13000.00000" pt_clust_8="13000.00000" pt_clust_9="111.05611"></scales>
<clustering>
<clus scale="   81.601">  5  6 -1 -1</clus>
<clus scale="   99.735">  7  8 -1 -1</clus>
<clus scale="  111.056">  1  9  2 -1</clus>
<clus scale="  111.056">  1  5  2 -1</clus>
<clus scale="  111.056">  1  5  2 -1</clus>
</clustering>
</event>
<event>
 9    1  0.4664604E-005  0.1121257E+03  0.7546771E-02  0.1265279E+00
          1   -1    0    0  502    0 -0.00000000000E+00  0.00000000000E+00  0.19400623036E+03  0.19400623036E+03  0.00000000000E+00 0. -1.
         21   -1    0    0  501  502  0.00000000000E+00 -0.00000000000E+00 -0.25185198387E+03  0.25185198387E+03  0.00000000000E+00 0. -1.
         23    2    1    2    0    0  0.48291786171E+02 -0.16279935625E+02  0.15047562360E+03  0.18863026731E+03  0.10169233762E+03 0.  0.
        -24    2    1    2    0    0 -0.28109541072E+02  0.14498797984E+02 -0.57629118915E+02  0.10517975670E+03  0.82105447020E+02 0.  0.
         11    1    4    4    0    0 -0.36791246625E+01  0.45796875777E+02 -0.18790867378E+02  0.49638558460E+02  0.00000000000E+00 0. -1.
        -12    1    4    4    0    0 -0.24430416410E+02 -0.31298077793E+02 -0.38838251537E+02  0.55541198240E+02  0.00000000000E+00 0.  1.
        -13    1    3    3    0    0  0.57346380506E+02 -0.35136837758E+02  0.44579520385E+02  0.80687907164E+02  0.00000000000E+00 0.  1.
         13    1    3    3    0    0 -0.90545943347E+01  0.18856902133E+02  0.10589610322E+03  0.10794236014E+03  0.00000000000E+00 0. -1.
          2    1    1    2  501    0 -0.20182245099E+02  0.17811376419E+01 -0.15069225819E+03  0.15204819022E+03  0.00000000000E+00 0. -1.
<scales pt_clust_5="13000.00000" pt_clust_6="13000.00000" pt_clust_7="13000.00000" pt_clust_8="13000.00000" pt_clust_9="20.26069"></scales>
<clustering>
<clus scale="   20.261">  2  9  1 -1</clus>
<clus scale="   82.105">  5  6 -1 -1</clus>
<clus scale="   94.721">  2  5  1 -1</clus>
<clus scale="  101.692">  7  8 -1 -1</clus>
<clus scale="   20.261">  2  5  1 -1</clus>
</clustering>
</event>
<event>
 9    1  0.4664604E-005  0.2268614E+03  0.7546771E-02  0.1129377E+00
         21   -1    0    0  501  502  0.00000000000E+00  0.00000000000E+00  0.76132801608E+02  0.76132801608E+02  0.00000000000E+00 0. -1.
          1   -1    0    0  502    0 -0.00000000000E+00 -0.00000000000E+00 -0.11919646003E+04  0.11919646003E+04  0.00000000000E+00 0. -1.
        -24    2    1    2    0    0 -0.15707472555E+02  0.21004904585E+03 -0.79179548166E+03  0.82364547469E+03  0.84169215503E+02 0.  0.
         23    2    1    2    0    0 -0.19189193500E+02 -0.19801440679E+03 -0.14724130221E+03  0.26384437725E+03  0.91410742729E+02 0.  0.
         13    1    3    3    0    0 -0.14747359696E+02  0.11102653792E+03 -0.26619780890E+03  0.28880036393E+03  0.00000000000E+00 0. -1.
        -14    1    3    3    0    0 -0.96011285895E+00  0.99022507928E+02 -0.52559767276E+03  0.53484511076E+03  0.00000000000E+00 0.  1.
        -13    1    4    4    0    0 -0.14361102291E+02 -0.49246892612E+02  0.42397344824E+01  0.51473032157E+02  0.00000000000E+00 0.  1.
         13    1    4    4    0    0 -0.48280912095E+01 -0.14876751418E+03 -0.15148103669E+03  0.21237134509E+03  0.00000000000E+00 0. -1.
          2    1    1    2  501    0  0.34896666055E+02 -0.12034639060E+02 -0.17679501480E+03  0.18060754994E+03  0.00000000000E+00 0. -1.
<scales pt_clust_5="13000.00000" pt_clust_6="13000.00000" pt_clust_7="13000.00000" pt_clust_8="13000.00000" pt_clust_9="36.91356"></scales>
<clustering>
<clus scale="   36.914">  1  9  2 -1</clus>
<clus scale="   84.169">  5  6 -1 -1</clus>
<clus scale="   91.411">  7  8 -1 -1</clus>
<clus scale="  224.042">  2  5  1 -1</clus>
<clus scale="   36.914">  1  5  2 -1</clus>
</clustering>
</event>
<event>
 9    1  0.4664604E-005  0.3261080E+03  0.7546771E-02  0.1072952E+00
         21   -1    0    0  501  502  0.00000000000E+00  0.00000000000E+00  0.41598979947E+03  0.41598979947E+03  0.00000000000E+00 0.  1.
          1   -1    0    0  502    0 -0.00000000000E+00 -0.00000000000E+00 -0.29613486214E+03  0.29613486214E+03  0.00000000000E+00 0. -1.
        -24    2    1    2    0    0  0.20741506321E+03 -0.22131722162E+03  0.11788810844E+02  0.31817923998E+03  0.95376787829E+02 0.  0.
         23    2    1    2    0    0 -0.24712738265E+03  0.21025350902E+03  0.93401533961E+02  0.35019014393E+03  0.92902147711E+02 0.  0.
         13    1    3    3    0    0  0.16079559029E+03 -0.12008524146E+03 -0.21567997469E+02  0.20184366621E+03  0.00000000000E+00 0. -1.
        -14    1    3    3    0    0  0.46619472924E+02 -0.10123198017E+03  0.33356808313E+02  0.11633557377E+03  0.00000000000E+00 0.  1.
        -11    1    4    4    0    0 -0.13677401106E+03  0.85190189153E+02  0.87356644623E+02  0.18329124854E+03  0.00000000000E+00 0.  1.
         11    1    4    4    0    0 -0.11035337159E+03  0.12506331987E+03  0.60448893373E+01  0.16689889540E+03  0.00000000000E+00 0. -1.
          2    1    1    2  501    0  0.39712319442E+02  0.11063712605E+02  0.14664592524E+02  0.43755277692E+02  0.00000000000E+00 0. -1.
<scales pt_clust_5="13000.00000" pt_clust_6="13000.00000" pt_clust_7="13000.00000" pt_clust_8="13000.00000" pt_clust_9="41.22468"></scales>
<clustering>
<clus scale="   41.225">  1  9  2 -1</clus>
<clus scale="   92.902">  7  8 -1 -1</clus>
<clus scale="   95.377">  5  6 -1 -1</clus>
<clus scale="  325.393">  1  7  2 -1</clus>
<clus scale="   41.225">  1  5  2 -1</clus>
</clustering>
</event>
<event>
 9    1  0.4664604E-005  0.9296761E+02  0.7546771E-02  0.1302636E+00
         -2   -1    0    0    0  501 -0.00000000000E+00  0.00000000000E+00  0.69930277567E+03  0.69930277567E+03  0.00000000000E+00 0.  1.
         21   -1    0    0  501  502  0.00000000000E+00 -0.00000000000E+00 -0.19318138221E+02  0.19318138221E+02  0.00000000000E+00 0. -1.
        -24    2    1    2    0    0 -0.12251809660E+02 -0.15079568925E+02  0.37869553520E+03  0.38769633322E+03  0.80750468525E+02 0.  0.
         23    2    1    2    0    0  0.15614654274E+02 -0.21652279310E+02  0.17613189002E+03  0.20044521384E+03  0.91886900265E+02 0.  0.
         11    1    3    3    0    0  0.15151823350E+02 -0.37867070700E+02  0.12440107619E+03  0.13091646402E+03  0.00000000000E+00 0. -1.
        -12    1    3    3    0    0 -0.27403633010E+02  0.22787501775E+02  0.25429445902E+03  0.25677986920E+03  0.00000000000E+00 0.  1.
        -13    1    4    4    0    0  0.53881276847E+01 -0.57833868988E+02  0.10766537007E+03  0.12233405182E+03  0.00000000000E+00 0. -1.
         13    1    4    4    0    0  0.10226526589E+02  0.36181589677E+02  0.68466519946E+02  0.78111162014E+02  0.00000000000E+00 0.  1.
         -1    1    1    2    0  502 -0.33628446140E+01  0.36731848235E+02  0.12515721222E+03  0.13047936684E+03  0.00000000000E+00 0.  1.
<scales pt_clust_5="13000.00000" pt_clust_6="13000.00000" pt_clust_7="13000.00000" pt_clust_8="13000.00000" pt_clust_9="36.88548"></scales>
<clustering>
<clus scale="   36.885">  2  9  1 -1</clus>
<clus scale="   80.750">  5  6 -1 -1</clus>
<clus scale="   81.978">  1  5  2 -1</clus>
<clus scale="   91.887">  7  8 -1 -1</clus>
<clus scale="   36.885">  2  5  1 -1</clus>
</clustering>
</event>
<event>
 9    1  0.4664604E-005  0.1008033E+03  0.7546771E-02  0.1285417E+00
         21   -1    0    0  501  502  0.00000000000E+00  0.00000000000E+00  0.27180253553E+02  0.27180253553E+02  0.00000000000E+00 0.  1.
          1   -1    0    0  502    0 -0.00000000000E+00 -0.00000000000E+00 -0.82367637035E+03  0.82367637035E+03  0.00000000000E+00 0. -1.
         23    2    1    2    0    0 -0.12213528893E+02 -0.44383989225E+02 -0.52223231377E+03  0.53267622496E+03  0.94330601150E+02 0.  0.
        -24    2    1    2    0    0 -0.12234182065E+01  0.23812766467E+02 -0.28037716132E+03  0.29286044826E+03  0.81162460340E+02 0.  0.
         13    1    4    4    0    0  0.84407203349E+01  0.49617234614E+02 -0.11990432891E+03  0.13003908574E+03  0.00000000000E+00 0. -1.
        -14    1    4    4    0    0 -0.96641385414E+01 -0.25804468147E+02 -0.16047283241E+03  0.16282136252E+03  0.00000000000E+00 0.  1.
        -13    1    3    3    0    0 -0.60001724535E+01 -0.74029787359E+02 -0.39123624448E+03  0.39822381958E+03  0.00000000000E+00 0.  1.
         13    1    3    3    0    0 -0.62133564398E+01  0.29645798135E+02 -0.13099606929E+03  0.13445240539E+03  0.00000000000E+00 0. -1.
          2    1    1    2  501    0  0.13436947100E+02  0.20571222758E+02  0.61133582813E+01  0.25319950683E+02  0.00000000000E+00 0. -1.
<scales pt_clust_5="13000.00000" pt_clust_6="13000.00000" pt_clust_7="13000.00000" pt_clust_8="13000.00000" pt_clust_9="24.57085"></scales>
<clustering>
<clus scale="   24.571">  1  9  2 -1</clus>
<clus scale="   81.162">  5  6 -1 -1</clus>
<clus scale="   88.602">  1  5  2 -1</clus>
<clus scale="   94.331">  7  8 -1 -1</clus>
<clus scale="   24.571">  1  5  2 -1</clus>
</clustering>
</event>
<event>
 9    1  0.4664604E-005  0.1351025E+03  0.7546771E-02  0.1222334E+00
         21   -1    0    0  501  502  0.00000000000E+00  0.00000000000E+00  0.64212345766E+02  0.64212345766E+02  0.00000000000E+00 0. -1.
          1   -1    0    0  502    0 -0.00000000000E+00 -0.00000000000E+00 -0.42854661130E+03  0.42854661130E+03  0.00000000000E+00 0. -1.
        -24    2    1    2    0    0  0.80674820395E+02  0.78347962620E+02 -0.15489189233E+03  0.20773222071E+03  0.80711506737E+02 0.  0.
         23    2    1    2    0    0 -0.78989957093E+02 -0.37784832842E+02 -0.79357248438E+02  0.14875367979E+03  0.90349197315E+02 0.  0.
         11    1    3    3    0    0  0.80063032640E+02  0.34148087674E+02 -0.68776492899E+02  0.11093415643E+03  0.00000000000E+00 0. -1.
        -12    1    3    3    0    0  0.61178775567E+00  0.44199874946E+02 -0.86115399435E+02  0.96798064285E+02  0.00000000000E+00 0.  1.
        -13    1    4    4    0    0 -0.61883816320E+02 -0.63378932983E+02 -0.36084966901E+02  0.95648422384E+02  0.00000000000E+00 0. -1.
         13    1    4    4    0    0 -0.17106140773E+02  0.25594100141E+02 -0.43272281538E+02  0.53105257401E+02  0.00000000000E+00 0.  1.
          2    1    1    2  501    0 -0.16848633027E+01 -0.40563129778E+02 -0.13008512477E+03  0.13627305657E+03  0.00000000000E+00 0. -1.
<scales pt_clust_5="13000.00000" pt_clust_6="13000.00000" pt_clust_7="13000.00000" pt_clust_8="13000.00000" pt_clust_9="40.59813"></scales>
<clustering>
<clus scale="   40.598">  1  9  2 -1</clus>
<clus scale="   80.712">  5  6 -1 -1</clus>
<clus scale="   90.349">  7  8 -1 -1</clus>
<clus scale="  128.857">  2  5  1 -1</clus>
<clus scale="   40.598">  1  5  2 -1</clus>
</clustering>
</event>
<event>
 9    1  0.4664604E-005  0.2959403E+03  0.7546771E-02  0.1093389E+00
         21   -1    0    0  501  502  0.00000000000E+00  0.00000000000E+00  0.39206027722E+03  0.39206027722E+03  0.00000000000E+00 0. -1.
          1   -1    0    0  502    0 -0.00000000000E+00 -0.00000000000E+00 -0.57950063473E+03  0.57950063473E+03  0.00000000000E+00 0. -1.
         23    2    1    2    0    0 -0.18091215866E+03  0.15167392247E+03 -0.15687162283E+03  0.29673774252E+03  0.87808848523E+02 0.  0.
        -24    2    1    2    0    0 -0.41833485323E+02 -0.31492090652E+03  0.13344694353E+03  0.35362799135E+03  0.79494978906E+02 0.  0.
         13    1    4    4    0    0  0.11622000326E+02 -0.14947013840E+03  0.88292697321E+02  0.17398848688E+03  0.00000000000E+00 0. -1.
        -14    1    4    4    0    0 -0.53455485649E+02 -0.16545076812E+03  0.45154246212E+02  0.17963950448E+03  0.00000000000E+00 0.  1.
        -13    1    3    3    0    0 -0.38439900264E+02  0.79039590591E+02 -0.30908773921E+02  0.93167779401E+02  0.00000000000E+00 0. -1.
         13    1    3    3    0    0 -0.14247225840E+03  0.72634331882E+02 -0.12596284891E+03  0.20356996312E+03  0.00000000000E+00 0.  1.
          2    1    1    2  501    0  0.22274564398E+03  0.16324698405E+03 -0.16401567822E+03  0.32119517807E+03  0.00000000000E+00 0. -1.
<scales pt_clust_5="13000.00000" pt_clust_6="13000.00000" pt_clust_7="13000.00000" pt_clust_8="13000.00000" pt_clust_9="285.06369"></scales>
<clustering>
<clus scale="   79.495">  5  6 -1 -1</clus>
<clus scale="   87.809">  7  8 -1 -1</clus>
<clus scale="  251.882">  2  7  1 -1</clus>
<clus scale="  285.064">  1  9  2 -1</clus>
<clus scale="  285.064">  1  5  2 -1</clus>
</clustering>
</event>
<event>
 9    1  0.4664604E-005  0.9566734E+02  0.7546771E-02  0.1296946E+00
         21   -1    0    0  501  502  0.00000000000E+00  0.00000000000E+00  0.90814382284E+02  0.90814382284E+02  0.00000000000E+00 0. -1.
         -2   -1    0    0    0  501 -0.00000000000E+00 -0.00000000000E+00 -0.24687440358E+03  0.24687440358E+03  0.00000000000E+00 0.  1.
        -24    2    1    2    0    0 -0.13922581897E+02 -0.24498291126E+02 -0.18852549658E+03  0.20676004383E+03  0.80086505165E+02 0.  0.
         23    2    1    2    0    0 -0.46634131612E+01 -0.37839124318E+01  0.26587823126E+02  0.96579520137E+02  0.92653256585E+02 0.  0.
         13    1    3    3    0    0 -0.32502468717E+02 -0.18791378846E+02 -0.18262996743E+03  0.18644900481E+03  0.00000000000E+00 0. -1.
        -14    1    3    3    0    0  0.18579886820E+02 -0.57069122792E+01 -0.58955291461E+01  0.20311039016E+02  0.00000000000E+00 0.  1.
        -11    1    4    4    0    0  0.42407816447E+02 -0.11098297712E+02  0.44833381966E+01  0.44064673257E+02  0.00000000000E+00 0.  1.
         11    1    4    4    0    0 -0.47071229608E+02  0.73143852804E+01  0.22104484930E+02  0.52514846880E+02  0.00000000000E+00 0. -1.
         -1    1    1    2    0  502  0.18585995058E+02  0.28282203557E+02  0.58776521521E+01  0.34349221901E+02  0.00000000000E+00 0.  1.
<scales pt_clust_5="13000.00000" pt_clust_6="13000.00000" pt_clust_7="13000.00000" pt_clust_8="13000.00000" pt_clust_9="33.84261"></scales>
<clustering>
<clus scale="   33.843">  1  9  2 -1</clus>
<clus scale="   80.087">  5  6 -1 -1</clus>
<clus scale="   83.555">  2  5  1 -1</clus>
<clus scale="   92.653">  7  8 -1 -1</clus>
<clus scale="   33.843">  1  5  2 -1</clus>
</clustering>
</event>
<event>
 9    1  0.4664604E-005  0.9826302E+02  0.7546771E-02  0.1290510E+00
         21   -1    0    0  501  502  0.00000000000E+00  0.00000000000E+00  0.59947533659E+02  0.59947533659E+02  0.00000000000E+00 0. -1.
         -4   -1    0    0    0  501 -0.00000000000E+00 -0.00000000000E+00 -0.39655145510E+03  0.39655145510E+03  0.00000000000E+00 0.  1.
         23    2    1    2    0    0 -0.44456913727E+01 -0.30796443745E+02 -0.32535151559E+03  0.33971009687E+03  0.92634529744E+02 0.  0.
        -24    2    1    2    0    0 -0.14302054566E+02  0.44345598665E+02 -0.70980402275E+01  0.93287480645E+02  0.80505223335E+02 0.  0.
         11    1    4    4    0    0 -0.33810640359E+02  0.15198940801E+00  0.18579149267E+02  0.38579363522E+02  0.00000000000E+00 0. -1.
        -12    1    4    4    0    0  0.19508585793E+02  0.44193609257E+02 -0.25677189494E+02  0.54708117123E+02  0.00000000000E+00 0.  1.
        -11    1    3    3    0    0 -0.19568652152E+02  0.24245815145E+02 -0.53336657501E+02  0.61770468126E+02  0.00000000000E+00 0. -1.
         11    1    3    3    0    0  0.15122960779E+02 -0.55042258889E+02 -0.27201485809E+03  0.27793962874E+03  0.00000000000E+00 0.  1.
         -3    1    1    2    0  502  0.18747745939E+02 -0.13549154921E+02 -0.41543656291E+01  0.23501411247E+02  0.00000000000E+00 0.  1.
<scales pt_clust_5="13000.00000" pt_clust_6="13000.00000" pt_clust_7="13000.00000" pt_clust_8="13000.00000" pt_clust_9="23.13131"></scales>
<clustering>
<clus scale="   23.131">  1  9  2 -1</clus>
<clus scale="   80.505">  5  6 -1 -1</clus>
<clus scale="   86.923">  1  5  2 -1</clus>
<clus scale="   92.635">  7  8 -1 -1</clus>
<clus scale="   23.131">  1  5  2 -1</clus>
</clustering>
</event>
<event>
 9    1  0.4664604E-005  0.1131965E+03  0.7546771E-02  0.1261422E+00
         21   -1    0    0  501  502  0.00000000000E+00  0.00000000000E+00  0.76298677055E+03  0.76298677055E+03  0.00000000000E+00 0. -1.
          3   -1    0    0  502    0 -0.00000000000E+00 -0.00000000000E+00 -0.21238961623E+03  0.21238961623E+03  0.00000000000E+00 0. -1.
         23    2    1    2    0    0  0.34125398342E+02  0.48804554029E+02 -0.18448956898E+03  0.21611430257E+03  0.95512111303E+02 0.  0.
        -24    2    1    2    0    0 -0.37756836726E+02 -0.10194097777E+03  0.57950153688E+03  0.59481325599E+03  0.78506283672E+02 0.  0.
         13    1    4    4    0    0 -0.60990520647E+02 -0.74236130158E+02  0.37329995060E+03  0.38546556234E+03  0.00000000000E+00 0. -1.
        -14    1    4    4    0    0  0.23233683921E+02 -0.27704847614E+02  0.20620158629E+03  0.20934769365E+03  0.00000000000E+00 0.  1.
        -13    1    3    3    0    0  0.44620222537E+02  0.18726092106E+02 -0.26955828909E+02  0.55391763801E+02  0.00000000000E+00 0.  1.
         13    1    3    3    0    0 -0.10494824194E+02  0.30078461922E+02 -0.15753374007E+03  0.16072253877E+03  0.00000000000E+00 0. -1.
          4    1    1    2  501    0  0.36314383840E+01  0.53136423744E+02  0.15558518641E+03  0.16444882822E+03  0.00000000000E+00 0. -1.
<scales pt_clust_5="13000.00000" pt_clust_6="13000.00000" pt_clust_7="13000.00000" pt_clust_8="13000.00000" pt_clust_9="53.26037"></scales>
<clustering>
<clus scale="   53.260">  1  9  2 -1</clus>
<clus scale="   78.506">  5  6 -1 -1</clus>
<clus scale="   95.512">  7  8 -1 -1</clus>
<clus scale="   99.268">  1  5  2 -1</clus>
<clus scale="   53.260">  1  5  2 -1</clus>
</clustering>
</event>
<event>
 9    1  0.4664604E-005  0.1272048E+03  0.7546771E-02  0.1249187E+00
         21   -1    0    0  501  502  0.00000000000E+00  0.00000000000E+00  0.13126243384E+03  0.13126243384E+03  0.00000000000E+00 0.  1.
          1   -1    0    0  502    0 -0.00000000000E+00 -0.00000000000E+00 -0.18412572653E+03  0.18412572653E+03  0.00000000000E+00 0. -1.
        -24    2    1    2    0    0  0.73843952673E+01  0.20597884364E+02  0.26143620158E+00  0.89133765996E+02  0.86405773870E+02 0.  0.
         23    2    1    2    0    0  0.68798752176E+02  0.30658840108E+02 -0.60286301498E+02  0.13415438417E+03  0.93218709842E+02 0.  0.
         11    1    3    3    0    0 -0.85868734501E+01 -0.31426404717E+02 -0.92993449410E+01  0.33879656513E+02  0.00000000000E+00 0. -1.
        -12    1    3    3    0    0  0.15971268717E+02  0.52024289080E+02  0.95607811426E+01  0.55254109484E+02  0.00000000000E+00 0.  1.
        -11    1    4    4    0    0  0.50883635961E+02 -0.21393377404E+02 -0.56480826096E+02  0.78974076265E+02  0.00000000000E+00 0.  1.
         11    1    4    4    0    0  0.17915116215E+02  0.52052217512E+02 -0.38054754022E+01  0.55180307900E+02  0.00000000000E+00 0. -1.
          2    1    1    2  501    0 -0.76183147443E+02 -0.51256724471E+02  0.71615726079E+01  0.92100010207E+02  0.00000000000E+00 0. -1.
<scales pt_clust_5="13000.00000" pt_clust_6="13000.00000" pt_clust_7="13000.00000" pt_clust_8="13000.00000" pt_clust_9="86.55254"></scales>
<clustering>
<clus scale="   86.406">  5  6 -1 -1</clus>
<clus scale="   89.133">  2  5  1 -1</clus>
<clus scale="   86.553">  1  9  2 -1</clus>
<clus scale="   93.219">  7  8 -1 -1</clus>
<clus scale="   86.553">  1  5  2 -1</clus>
</clustering>
</event>
<event>
 9    1  0.4664604E-005  0.1828853E+03  0.7546771E-02  0.1166372E+00
          1   -1    0    0  502    0 -0.00000000000E+00  0.00000000000E+00  0.30023484856E+03  0.30023484856E+03  0.00000000000E+00 0. -1.
         21   -1    0    0  501  502  0.00000000000E+00 -0.00000000000E+00 -0.60292331276E+03  0.60292331276E+03  0.00000000000E+00 0. -1.
         23    2    1    2    0    0  0.14472492623E+03  0.70815430484E+02  0.24772274377E+03  0.30923942722E+03  0.91117155903E+02 0.  0.
        -24    2    1    2    0    0 -0.87387070383E+02 -0.10353105695E+03 -0.39392065815E+03  0.42407399879E+03  0.79436085700E+02 0.  0.
         13    1    4    4    0    0 -0.42437450604E+02 -0.10217034203E+03 -0.25245104922E+03  0.27562882335E+03  0.00000000000E+00 0. -1.
        -14    1    4    4    0    0 -0.44949619779E+02 -0.13607149139E+01 -0.14146960893E+03  0.14844517545E+03  0.00000000000E+00 0.  1.
        -11    1    3    3    0    0  0.12919044479E+03  0.92133930706E+02  0.21474959134E+03  0.26701351875E+03  0.00000000000E+00 0. -1.
         11    1    3    3    0    0  0.15534481443E+02 -0.21318500222E+02  0.32973152424E+02  0.42225908471E+02  0.00000000000E+00 0.  1.
          2    1    1    2  501    0 -0.57337855852E+02  0.32715626465E+02 -0.15649054981E+03  0.16984473530E+03  0.00000000000E+00 0. -1.
<scales pt_clust_5="13000.00000" pt_clust_6="13000.00000" pt_clust_7="13000.00000" pt_clust_8="13000.00000" pt_clust_9="66.01471"></scales>
<clustering>
<clus scale="   66.015">  2  9  1 -1</clus>
<clus scale="   79.436">  5  6 -1 -1</clus>
<clus scale="   91.117">  7  8 -1 -1</clus>
<clus scale="  177.355">  2  5  1 -1</clus>
<clus scale="   66.015">  2  5  1 -1</clus>
</clustering>
</event>
<event>
 9    1  0.4664604E-005  0.9699118E+02  0.7546771E-02  0.1292500E+00
         21   -1    0    0  501  502  0.00000000000E+00  0.00000000000E+00  0.83833627506E+02  0.83833627506E+02  0.00000000000E+00 0.  1.
         -2   -1    0    0    0  501 -0.00000000000E+00 -0.00000000000E+00 -0.19175528047E+03  0.19175528047E+03  0.00000000000E+00 0.  1.
        -24    2    1    2    0    0  0.35683085362E+02 -0.77962458830E+01 -0.12823561279E+03  0.15601338048E+03  0.81004558332E+02 0.  0.
         23    2    1    2    0    0 -0.16195540982E+02  0.16644504217E+01  0.34213981373E+01  0.93066624426E+02  0.91567596200E+02 0.  0.
         13    1    3    3    0    0 -0.22572934673E+02 -0.19024835763E+02 -0.43667855033E+02  0.52710182306E+02  0.00000000000E+00 0. -1.
        -14    1    3    3    0    0  0.58256020036E+02  0.11228589880E+02 -0.84567757754E+02  0.10330319817E+03  0.00000000000E+00 0.  1.
        -13    1    4    4    0    0  0.29191665935E+02  0.18176078018E+02 -0.19580374815E+02  0.39571634412E+02  0.00000000000E+00 0.  1.
         13    1    4    4    0    0 -0.45387206917E+02 -0.16511627596E+02  0.23001772952E+02  0.53494990013E+02  0.00000000000E+00 0. -1.
         -1    1    1    2    0  502 -0.19487544381E+02  0.61317954613E+01  0.16892561688E+02  0.26508903069E+02  0.00000000000E+00 0.  1.
<scales pt_clust_5="13000.00000" pt_clust_6="13000.00000" pt_clust_7="13000.00000" pt_clust_8="13000.00000" pt_clust_9="20.42947"></scales>
<clustering>
<clus scale="   20.429">  1  9  2 -1</clus>
<clus scale="   81.005">  5  6 -1 -1</clus>
<clus scale="   87.088">  2  5  1 -1</clus>
<clus scale="   91.568">  7  8 -1 -1</clus>
<clus scale="   20.429">  1  5  2 -1</clus>
</clustering>
</event>
<event>
 9    1  0.4664604E-005  0.9395938E+02  0.7546771E-02  0.1301052E+00
         21   -1    0    0  501  502  0.00000000000E+00  0.00000000000E+00  0.34295521022E+02  0.34295521022E+02  0.00000000000E+00 0. -1.
          1   -1    0    0  502    0 -0.00000000000E+00 -0.00000000000E+00 -0.32738763289E+03  0.32738763289E+03  0.00000000000E+00 0. -1.
        -24    2    1    2    0    0  0.25771327971E+02 -0.15199093728E+02 -0.13683888176E+03  0.16112885823E+03  0.79639535395E+02 0.  0.
         23    2    1    2    0    0  0.66370761862E+01  0.12477735214E+02 -0.11557069929E+03  0.14846995287E+03  0.92124891937E+02 0.  0.
         13    1    3    3    0    0  0.36998456570E+02 -0.41979809963E+02 -0.93327461894E+02  0.10881730275E+03  0.00000000000E+00 0. -1.
        -14    1    3    3    0    0 -0.11227128599E+02  0.26780716235E+02 -0.43511419861E+02  0.52311555482E+02  0.00000000000E+00 0.  1.
        -11    1    4    4    0    0 -0.38902147594E+02  0.95546428348E+01 -0.83752446117E+02  0.92839326353E+02  0.00000000000E+00 0.  1.
         11    1    4    4    0    0  0.45539223780E+02  0.29230923790E+01 -0.31818253170E+02  0.55630626514E+02  0.00000000000E+00 0. -1.
          2    1    1    2  501    0 -0.32408404157E+02  0.27213585139E+01 -0.40682530822E+02  0.52084342813E+02  0.00000000000E+00 0. -1.
<scales pt_clust_5="13000.00000" pt_clust_6="13000.00000" pt_clust_7="13000.00000" pt_clust_8="13000.00000" pt_clust_9="32.52246"></scales>
<clustering>
<clus scale="   32.522">  1  9  2 -1</clus>
<clus scale="   79.640">  5  6 -1 -1</clus>
<clus scale="   81.755">  2  5  1 -1</clus>
<clus scale="   92.125">  7  8 -1 -1</clus>
<clus scale="   32.522">  1  5  2 -1</clus>
</clustering>
</event>
<event>
 9    1  0.4664604E-005  0.9124313E+02  0.7546771E-02  0.1306955E+00
         21   -1    0    0  501  502  0.00000000000E+00  0.00000000000E+00  0.23398161773E+02  0.23398161773E+02  0.00000000000E+00 0.  1.
         -4   -1    0    0    0  501 -0.00000000000E+00 -0.00000000000E+00 -0.50780553054E+03  0.50780553054E+03  0.00000000000E+00 0.  1.
         23    2    1    2    0    0 -0.24344676954E+01 -0.11008558235E+02 -0.25467493029E+03  0.27071181044E+03  0.91095824332E+02 0.  0.
        -24    2    1    2    0    0  0.51246099753E+01 -0.89969991136E+01 -0.96540171783E+02  0.12577870843E+03  0.79956682681E+02 0.  0.
         11    1    4    4    0    0 -0.84855725328E+01 -0.27268085215E+02 -0.98837065749E+02  0.10288011945E+03  0.00000000000E+00 0. -1.
        -12    1    4    4    0    0  0.13610182508E+02  0.18271086102E+02  0.22968939652E+01  0.22898588977E+02  0.00000000000E+00 0.  1.
        -11    1    3    3    0    0 -0.41231799396E+02  0.16083560968E+02 -0.13230572684E+03  0.13951181875E+03  0.00000000000E+00 0. -1.
         11    1    3    3    0    0  0.38797331701E+02 -0.27092119203E+02 -0.12236920344E+03  0.13119999170E+03  0.00000000000E+00 0.  1.
         -3    1    1    2    0  502 -0.26901422799E+01  0.20005557349E+02 -0.13319226670E+03  0.13471317344E+03  0.00000000000E+00 0.  1.
<scales pt_clust_5="13000.00000" pt_clust_6="13000.00000" pt_clust_7="13000.00000" pt_clust_8="13000.00000" pt_clust_9="20.18563"></scales>
<clustering>
<clus scale="   20.186">  1  9  2 -1</clus>
<clus scale="   79.957">  5  6 -1 -1</clus>
<clus scale="   80.124">  1  5  2 -1</clus>
<clus scale="   91.096">  7  8 -1 -1</clus>
<clus scale="   20.186">  1  5  2 -1</clus>
</clustering>
</event>
<event>
 9    1  0.4664604E-005  0.9331899E+02  0.7546771E-02  0.1301166E+00
         -2   -1    0    0    0  501 -0.00000000000E+00  0.00000000000E+00  0.23028341709E+03  0.23028341709E+03  0.00000000000E+00 0.  1.
         21   -1    0    0  501  502  0.00000000000E+00 -0.00000000000E+00 -0.67468383534E+02  0.67468383534E+02  0.00000000000E+00 0.  1.
        -24    2    1    2    0    0 -0.31293423881E+02 -0.12433224804E+02  0.53182591247E+02  0.10183774779E+03  0.80054202925E+02 0.  0.
         23    2    1    2    0    0  0.61525731493E+01 -0.40455095113E+02  0.45947688024E+02  0.10939824684E+03  0.90456163414E+02 0.  0.
         13    1    3    3    0    0 -0.23505320981E+02 -0.20245968429E+01 -0.17875991103E+02  0.29599833863E+02  0.00000000000E+00 0. -1.
        -14    1    3    3    0    0 -0.77881028994E+01 -0.10408627961E+02  0.71058582350E+02  0.72237913926E+02  0.00000000000E+00 0.  1.
        -13    1    4    4    0    0 -0.13831577756E+02 -0.53242793000E+02  0.60337605516E+02  0.81650071580E+02  0.00000000000E+00 0. -1.
         13    1    4    4    0    0  0.19984150906E+02  0.12787697888E+02 -0.14389917492E+02  0.27748175257E+02  0.00000000000E+00 0.  1.
         -1    1    1    2    0  502  0.25140850731E+02  0.52888319916E+02  0.63684754287E+02  0.86515805999E+02  0.00000000000E+00 0.  1.
<scales pt_clust_5="13000.00000" pt_clust_6="13000.00000" pt_clust_7="13000.00000" pt_clust_8="13000.00000" pt_clust_9="58.55971"></scales>
<clustering>
<clus scale="   58.560">  2  9  1 -1</clus>
<clus scale="   80.054">  5  6 -1 -1</clus>
<clus scale="   83.275">  1  5  2 -1</clus>
<clus scale="   90.456">  7  8 -1 -1</clus>
<clus scale="   58.560">  2  5  1 -1</clus>
</clustering>
</event>
<event>
 9    1  0.4664604E-005  0.1041376E+03  0.7546771E-02  0.1276868E+00
          3   -1    0    0  502    0 -0.00000000000E+00  0.00000000000E+00  0.15753387805E+03  0.15753387805E+03  0.00000000000E+00 0. -1.
         21   -1    0    0  501  502  0.00000000000E+00 -0.00000000000E+00 -0.52347992594E+03  0.52347992594E+03  0.00000000000E+00 0. -1.
        -24    2    1    2    0    0 -0.26599977979E+02  0.55876060396E+02  0.92781709490E+02  0.13572328091E+03  0.77347724024E+02 0.  0.
         23    2    1    2    0    0 -0.65458793661E+02 -0.43526439208E+02 -0.54521625321E+02  0.13054972720E+03  0.88832533824E+02 0.  0.
         13    1    3    3    0    0 -0.33615340835E+02  0.28503545563E+02  0.97570824797E+02  0.10706310803E+03  0.00000000000E+00 0. -1.
        -14    1    3    3    0    0  0.70153628555E+01  0.27372514833E+02 -0.47891153076E+01  0.28660172883E+02  0.00000000000E+00 0.  1.
        -13    1    4    4    0    0  0.15115365719E+02 -0.26109162593E+02 -0.34281812269E+02  0.45666238125E+02  0.00000000000E+00 0.  1.
         13    1    4    4    0    0 -0.80574159379E+02 -0.17417276615E+02 -0.20239813052E+02  0.84883489070E+02  0.00000000000E+00 0. -1.
          4    1    1    2  501    0  0.92058771640E+02 -0.12349621188E+02 -0.40420613206E+03  0.41474079589E+03  0.00000000000E+00 0. -1.
<scales pt_clust_5="13000.00000" pt_clust_6="13000.00000" pt_clust_7="13000.00000" pt_clust_8="13000.00000" pt_clust_9="92.88342"></scales>
<clustering>
<clus scale="   77.348">  5  6 -1 -1</clus>
<clus scale="   88.833">  7  8 -1 -1</clus>
<clus scale="   92.883">  2  9  1 -1</clus>
<clus scale="   94.531">  1  5  2 -1</clus>
<clus scale="   92.883">  2  5  1 -1</clus>
</clustering>
</event>
<event>
 9    1  0.4664604E-005  0.2569034E+03  0.7546771E-02  0.1152405E+00
         21   -1    0    0  501  502  0.00000000000E+00  0.00000000000E+00  0.30937368027E+03  0.30937368027E+03  0.00000000000E+00 0. -1.
          1   -1    0    0  502    0 -0.00000000000E+00 -0.00000000000E+00 -0.38023727493E+03  0.38023727493E+03  0.00000000000E+00 0. -1.
        -24    2    1    2    0    0  0.27926446412E+02  0.22639971597E+02  0.10232282857E+03  0.13535016489E+03  0.80976855743E+02 0.  0.
         23    2    1    2    0    0  0.16452136412E+03  0.14133336953E+03 -0.18881471132E+03  0.30094742753E+03  0.88746596164E+02 0.  0.
         11    1    3    3    0    0 -0.25302881795E+01  0.32016942758E+02  0.44544899593E+01  0.32424211057E+02  0.00000000000E+00 0. -1.
        -12    1    3    3    0    0  0.30456734592E+02 -0.93769711617E+01  0.97868338606E+02  0.10292595383E+03  0.00000000000E+00 0.  1.
        -11    1    4    4    0    0  0.13151769093E+03  0.11435389472E+03 -0.19061890526E+03  0.25828140334E+03  0.00000000000E+00 0.  1.
         11    1    4    4    0    0  0.33003673183E+02  0.26979474810E+02  0.18041939397E+01  0.42666024192E+02  0.00000000000E+00 0. -1.
          2    1    1    2  501    0 -0.19244781053E+03 -0.16397334113E+03  0.15628288095E+02  0.25331336279E+03  0.00000000000E+00 0. -1.
<scales pt_clust_5="13000.00000" pt_clust_6="13000.00000" pt_clust_7="13000.00000" pt_clust_8="13000.00000" pt_clust_9="241.08800"></scales>
<clustering>
<clus scale="   80.977">  5  6 -1 -1</clus>
<clus scale="   88.599">  2  5  1 -1</clus>
<clus scale="   88.747">  7  8 -1 -1</clus>
<clus scale="  241.088">  1  9  2 -1</clus>
<clus scale="  241.088">  1  5  2 -1</clus>
</clustering>
</event>
<event>
 9    1  0.4664604E-005  0.1208405E+03  0.7546771E-02  0.1243856E+00
          1   -1    0    0  502    0 -0.00000000000E+00  0.00000000000E+00  0.67856420524E+03  0.67856420524E+03  0.00000000000E+00 0. -1.
         21   -1    0    0  501  502  0.00000000000E+00 -0.00000000000E+00 -0.57599232723E+02  0.57599232723E+02  0.00000000000E+00 0. -1.
         23    2    1    2    0    0 -0.46324394777E+02  0.71859272916E+02  0.40778586241E+03  0.42617203157E+03  0.89574473225E+02 0.  0.
        -24    2    1    2    0    0  0.19701952534E+02 -0.56724584104E+02  0.78343762746E+01  0.10237572069E+03  0.82544323614E+02 0.  0.
         13    1    4    4    0    0  0.25775634349E+02  0.13393498197E+02 -0.82177023458E+01  0.30187741749E+02  0.00000000000E+00 0. -1.
        -14    1    4    4    0    0 -0.60736818148E+01 -0.70118082301E+02  0.16052078620E+02  0.72187978946E+02  0.00000000000E+00 0.  1.
        -11    1    3    3    0    0 -0.26374968518E+02 -0.11777855195E+02  0.46065535717E+02  0.54372699199E+02  0.00000000000E+00 0.  1.
         11    1    3    3    0    0 -0.19949426259E+02  0.83637128111E+02  0.36172032669E+03  0.37179933237E+03  0.00000000000E+00 0. -1.
          2    1    1    2  501    0  0.26622442243E+02 -0.15134688813E+02  0.20534473383E+03  0.20761568570E+03  0.00000000000E+00 0. -1.
<scales pt_clust_5="13000.00000" pt_clust_6="13000.00000" pt_clust_7="13000.00000" pt_clust_8="13000.00000" pt_clust_9="30.62375"></scales>
<clustering>
<clus scale="   30.624">  2  9  1 -1</clus>
<clus scale="   82.544">  5  6 -1 -1</clus>
<clus scale="   89.574">  7  8 -1 -1</clus>
<clus scale="  115.726">  2  5  1 -1</clus>
<clus scale="   30.624">  2  5  1 -1</clus>
</clustering>
</event>
<event>
 9    1  0.4664604E-005  0.1008853E+03  0.7546771E-02  0.1285977E+00
          1   -1    0    0  502    0 -0.00000000000E+00  0.00000000000E+00  0.72692788283E+03  0.72692788283E+03  0.00000000000E+00 0. -1.
         21   -1    0    0  501  502  0.00000000000E+00 -0.00000000000E+00 -0.34882010193E+02  0.34882010193E+02  0.00000000000E+00 0. -1.
        -24    2    1    2    0    0  0.23384901368E+02 -0.13929648468E+02  0.51921592042E+03  0.52663156698E+03  0.83754084081E+02 0.  0.
         23    2    1    2    0    0  0.17624959366E+02  0.43728791350E+02  0.12468333917E+03  0.16526485136E+03  0.97691809505E+02 0.  0.
         11    1    3    3    0    0  0.37731772472E+02 -0.37751331613E+02  0.23142622202E+03  0.23750146511E+03  0.00000000000E+00 0. -1.
        -12    1    3    3    0    0 -0.14346871104E+02  0.23821683145E+02  0.28778969841E+03  0.28913010187E+03  0.00000000000E+00 0.  1.
        -13    1    4    4    0    0  0.16756781242E+02 -0.25362781678E+02  0.11190632843E+02  0.32392756528E+02  0.00000000000E+00 0.  1.
         13    1    4    4    0    0  0.86817812381E+00  0.69091573028E+02  0.11349270632E+03  0.13287209483E+03  0.00000000000E+00 0. -1.
          2    1    1    2  501    0 -0.41009860734E+02 -0.29799142882E+02  0.48146613046E+02  0.69913474679E+02  0.00000000000E+00 0. -1.
<scales pt_clust_5="13000.00000" pt_clust_6="13000.00000" pt_clust_7="13000.00000" pt_clust_8="13000.00000" pt_clust_9="50.69317"></scales>
<clustering>
<clus scale="   50.693">  2  9  1 -1</clus>
<clus scale="   83.754">  5  6 -1 -1</clus>
<clus scale="   87.458">  1  5  2 -1</clus>
<clus scale="   97.692">  7  8 -1 -1</clus>
<clus scale="   50.693">  2  5  1 -1</clus>
</clustering>
</event>
<event>
 9    1  0.4664604E-005  0.1967178E+03  0.7546771E-02  0.1183673E+00
         -2   -1    0    0    0  501 -0.00000000000E+00  0.00000000000E+00  0.99780745072E+02  0.99780745072E+02  0.00000000000E+00 0.  1.
         21   -1    0    0  501  502  0.00000000000E+00 -0.00000000000E+00 -0.69119209426E+03  0.69119209426E+03  0.00000000000E+00 0. -1.
        -24    2    1    2    0    0 -0.35315422103E+02  0.38123476827E+02 -0.26455487007E+03  0.28152499290E+03  0.81033720281E+02 0.  0.
         23    2    1    2    0    0 -0.94226071170E+02  0.12172824918E+03 -0.19535828673E+03  0.26526482617E+03  0.92218483350E+02 0.  0.
         11    1    3    3    0    0 -0.18657839668E+02  0.58305304505E+02 -0.23099124966E+03  0.23896564803E+03  0.00000000000E+00 0. -1.
        -12    1    3    3    0    0 -0.16657582435E+02 -0.20181827678E+02 -0.33563620409E+02  0.42559344873E+02  0.00000000000E+00 0.  1.
        -13    1    4    4    0    0 -0.97151849769E+02  0.55024348518E+02 -0.10826455062E+03  0.15552290431E+03  0.00000000000E+00 0. -1.
         13    1    4    4    0    0  0.29257785993E+01  0.66703900663E+02 -0.87093736106E+02  0.10974192186E+03  0.00000000000E+00 0.  1.
         -1    1    1    2    0  502  0.12954149327E+03 -0.15985172601E+03 -0.13149819239E+03  0.24418302027E+03  0.00000000000E+00 0.  1.
<scales pt_clust_5="13000.00000" pt_clust_6="13000.00000" pt_clust_7="13000.00000" pt_clust_8="13000.00000" pt_clust_9="173.76329"></scales>
<clustering>
<clus scale="   81.034">  5  6 -1 -1</clus>
<clus scale="   92.218">  7  8 -1 -1</clus>
<clus scale="   96.266">  1  5  2 -1</clus>
<clus scale="  173.763">  2  9  1 -1</clus>
<clus scale="  173.763">  2  5  1 -1</clus>
</clustering>
</event>
<event>
 9    1  0.4664604E-005  0.1486368E+03  0.7546771E-02  0.1218552E+00
          1   -1    0    0  502    0 -0.00000000000E+00  0.00000000000E+00  0.34580477637E+03  0.34580477637E+03  0.00000000000E+00 0. -1.
         21   -1    0    0  501  502  0.00000000000E+00 -0.00000000000E+00 -0.29634152430E+03  0.29634152430E+03  0.00000000000E+00 0. -1.
         23    2    1    2    0    0 -0.49322321635E+02  0.17548668914E+02 -0.13951401619E+03  0.17446547000E+03  0.90738042266E+02 0.  0.
        -24    2    1    2    0    0  0.16734434174E+03 -0.40549387580E+02  0.26463307470E+03  0.32561735424E+03  0.79671924881E+02 0.  0.
         11    1    4    4    0    0  0.17292806700E+03 -0.44168641379E+02  0.23415137065E+03  0.29441781471E+03  0.00000000000E+00 0. -1.
        -12    1    4    4    0    0 -0.55837252593E+01  0.36192537992E+01  0.30481704045E+02  0.31199539537E+02  0.00000000000E+00 0.  1.
        -11    1    3    3    0    0  0.74961766364E+00 -0.30729143080E+02 -0.68408905802E+02  0.74997470318E+02  0.00000000000E+00 0.  1.
         11    1    3    3    0    0 -0.50071939299E+02  0.48277811995E+02 -0.71105110393E+02  0.99467999679E+02  0.00000000000E+00 0. -1.
          2    1    1    2  501    0 -0.11802202010E+03  0.23000718665E+02 -0.75655806440E+02  0.14206347643E+03  0.00000000000E+00 0. -1.
<scales pt_clust_5="13000.00000" pt_clust_6="13000.00000" pt_clust_7="13000.00000" pt_clust_8="13000.00000" pt_clust_9="125.48018"></scales>
<clustering>
<clus scale="   79.672">  5  6 -1 -1</clus>
<clus scale="   90.738">  7  8 -1 -1</clus>
<clus scale="  104.757">  1  7  2 -1</clus>
<clus scale="  125.480">  2  9  1 -1</clus>
<clus scale="  125.480">  2  5  1 -1</clus>
</clustering>
</event>
<event>
 9    1  0.4664604E-005  0.2041019E+03  0.7546771E-02  0.1146324E+00
         21   -1    0    0  501  502  0.00000000000E+00  0.00000000000E+00  0.24228039274E+03  0.24228039274E+03  0.00000000000E+00 0. -1.
          1   -1    0    0  502    0 -0.00000000000E+00 -0.00000000000E+00 -0.14478345385E+03  0.14478345385E+03  0.00000000000E+00 0. -1.
        -24    2    1    2    0    0  0.50926481464E+02  0.53786631081E+02 -0.25591556269E+02  0.11143305600E+03  0.79220515145E+02 0.  0.
         23    2    1    2    0    0  0.20848536780E+02  0.16609619370E+02 -0.22922701233E+02  0.98355426268E+02  0.91857491274E+02 0.  0.
         13    1    3    3    0    0  0.51522352682E+02  0.75591816192E+01  0.10078846682E+02  0.53040335624E+02  0.00000000000E+00 0. -1.
        -14    1    3    3    0    0 -0.59587121796E+00  0.46227449461E+02 -0.35670402951E+02  0.58392720376E+02  0.00000000000E+00 0.  1.
        -13    1    4    4    0    0  0.49160655844E+02  0.38264206075E+01 -0.39468172307E+02  0.63159703949E+02  0.00000000000E+00 0. -1.
         13    1    4    4    0    0 -0.28312119064E+02  0.12783198763E+02  0.16545471074E+02  0.35195722319E+02  0.00000000000E+00 0.  1.
          2    1    1    2  501    0 -0.71775018244E+02 -0.70396250451E+02  0.14601119640E+03  0.17727536432E+03  0.00000000000E+00 0. -1.
<scales pt_clust_5="13000.00000" pt_clust_6="13000.00000" pt_clust_7="13000.00000" pt_clust_8="13000.00000" pt_clust_9="100.53500"></scales>
<clustering>
<clus scale="   79.221">  5  6 -1 -1</clus>
<clus scale="   91.857">  7  8 -1 -1</clus>
<clus scale="   93.783">  5  7 -1 -1</clus>
<clus scale="  100.535">  1  9  2 -1</clus>
<clus scale="  100.535">  1  5  2 -1</clus>
</clustering>
</event>
<event>
 9    1  0.4664604E-005  0.2159242E+03  0.7546771E-02  0.1137432E+00
         21   -1    0    0  501  502  0.00000000000E+00  0.00000000000E+00  0.22653996218E+03  0.22653996218E+03  0.00000000000E+00 0.  1.
          1   -1    0    0  502    0 -0.00000000000E+00 -0.00000000000E+00 -0.39581845240E+03  0.39581845240E+03  0.00000000000E+00 0. -1.
        -24    2    1    2    0    0  0.94493325175E+02 -0.20024429087E+03 -0.81554975515E+02  0.25078461303E+03  0.84940823938E+02 0.  0.
         23    2    1    2    0    0  0.39415139199E+02  0.18313745062E+03  0.41412569962E+01  0.20828492534E+03  0.90953730519E+02 0.  0.
         13    1    3    3    0    0  0.56432771528E+02 -0.32514516341E+02 -0.20624504457E+02  0.68317067116E+02  0.00000000000E+00 0. -1.
        -14    1    3    3    0    0  0.38060553647E+02 -0.16772977453E+03 -0.60930471058E+02  0.18246754591E+03  0.00000000000E+00 0.  1.
        -11    1    4    4    0    0  0.30043910326E+02  0.66527569494E+01 -0.56267132627E+01  0.31281873743E+02  0.00000000000E+00 0. -1.
         11    1    4    4    0    0  0.93712288725E+01  0.17648469367E+03  0.97679702590E+01  0.17700305159E+03  0.00000000000E+00 0.  1.
          2    1    1    2  501    0 -0.13390846437E+03  0.17106840252E+02 -0.91864771702E+02  0.16328887621E+03  0.00000000000E+00 0. -1.
<scales pt_clust_5="13000.00000" pt_clust_6="13000.00000" pt_clust_7="13000.00000" pt_clust_8="13000.00000" pt_clust_9="134.99681"></scales>
<clustering>
<clus scale="   84.941">  5  6 -1 -1</clus>
<clus scale="   90.954">  7  8 -1 -1</clus>
<clus scale="  134.997">  1  9  2 -1</clus>
<clus scale="  213.461">  2  5  1 -1</clus>
<clus scale="  134.997">  1  5  2 -1</clus>
</clustering>
</event>
<event>
 9    1  0.4664604E-005  0.1222574E+03  0.7546771E-02  0.1251628E+00
         21   -1    0    0  501  502  0.00000000000E+00  0.00000000000E+00  0.54942696720E+03  0.54942696720E+03  0.00000000000E+00 0.  1.
         -4   -1    0    0    0  501 -0.00000000000E+00 -0.00000000000E+00 -0.47847828807E+02  0.47847828807E+02  0.00000000000E+00 0.  1.
         23    2    1    2    0    0  0.27724700284E+02 -0.18757530321E+02  0.10343776745E+03  0.14086480352E+03  0.89571296662E+02 0.  0.
        -24    2    1    2    0    0  0.12328553252E+02 -0.80643513240E+02  0.23409988118E+03  0.26046499780E+03  0.79899256925E+02 0.  0.
         11    1    4    4    0    0  0.31864234786E+02 -0.12657911635E+02  0.13113559025E+03  0.13554370224E+03  0.00000000000E+00 0. -1.
        -12    1    4    4    0    0 -0.19535681534E+02 -0.67985601605E+02  0.10296429093E+03  0.12492129556E+03  0.00000000000E+00 0.  1.
        -11    1    3    3    0    0  0.59863842031E+02 -0.33231314270E+01  0.65969036656E+02  0.89143909396E+02  0.00000000000E+00 0.  1.
         11    1    3    3    0    0 -0.32139141747E+02 -0.15434398894E+02  0.37468730798E+02  0.51720894125E+02  0.00000000000E+00 0. -1.
         -3    1    1    2    0  502 -0.40053253536E+02  0.99401043561E+02  0.16404148975E+03  0.19594499468E+03  0.00000000000E+00 0.  1.
<scales pt_clust_5="13000.00000" pt_clust_6="13000.00000" pt_clust_7="13000.00000" pt_clust_8="13000.00000" pt_clust_9="92.53645"></scales>
<clustering>
<clus scale="   79.899">  5  6 -1 -1</clus>
<clus scale="   89.571">  7  8 -1 -1</clus>
<clus scale="   95.622">  2  7  1 -1</clus>
<clus scale="   92.536">  1  9  2 -1</clus>
<clus scale="   92.536">  1  5  2 -1</clus>
</clustering>
</event>
<event>
 9    1  0.4664604E-005  0.9188519E+02  0.7546771E-02  0.1305533E+00
         -2   -1    0    0    0  501 -0.00000000000E+00  0.00000000000E+00  0.18682460367E+03  0.18682460367E+03  0.00000000000E+00 0.  1.
         21   -1    0    0  501  502  0.00000000000E+00 -0.00000000000E+00 -0.11839814063E+03  0.11839814063E+03  0.00000000000E+00 0. -1.
         23    2    1    2    0    0  0.57435809233E+01 -0.55630736640E+00  0.13951348837E+03  0.16698562681E+03  0.91579953719E+02 0.  0.
        -24    2    1    2    0    0 -0.11401981171E+01  0.29478630169E+02 -0.36449582335E+02  0.92878057243E+02  0.80171514745E+02 0.  0.
         11    1    4    4    0    0 -0.35662221713E+02  0.31886537944E+02 -0.32965810941E+02  0.58097246497E+02  0.00000000000E+00 0. -1.
        -12    1    4    4    0    0  0.34522023596E+02 -0.24079077747E+01 -0.34837713942E+01  0.34780810746E+02  0.00000000000E+00 0.  1.
        -13    1    3    3    0    0  0.70437576172E+01 -0.41479291476E+02  0.10610280409E+03  0.11414005072E+03  0.00000000000E+00 0.  1.
         13    1    3    3    0    0 -0.13001766939E+01  0.40922984110E+02  0.33410684282E+02  0.52845576088E+02  0.00000000000E+00 0. -1.
         -1    1    1    2    0  502 -0.46033828062E+01 -0.28922322803E+02 -0.34637442992E+02  0.45359060248E+02  0.00000000000E+00 0.  1.
<scales pt_clust_5="13000.00000" pt_clust_6="13000.00000" pt_clust_7="13000.00000" pt_clust_8="13000.00000" pt_clust_9="29.28638"></scales>
<clustering>
<clus scale="   29.286">  2  9  1 -1</clus>
<clus scale="   80.172">  5  6 -1 -1</clus>
<clus scale="   80.520">  2  5  1 -1</clus>
<clus scale="   91.580">  7  8 -1 -1</clus>
<clus scale="   29.286">  2  5  1 -1</clus>
</clustering>
</event>
<event>
 9    1  0.4664604E-005  0.1840892E+03  0.7546771E-02  0.1165230E+00
          1   -1    0    0  502    0 -0.00000000000E+00  0.00000000000E+00  0.93907530519E+03  0.93907530519E+03  0.00000000000E+00 0. -1.
         21   -1    0    0  501  502  0.00000000000E+00 -0.00000000000E+00 -0.10170215225E+03  0.10170215225E+03  0.00000000000E+00 0. -1.
        -24    2    1    2    0    0  0.13511807916E+03 -0.11299061436E+03  0.79429681006E+03  0.81749510873E+03  0.79793834813E+02 0.  0.
         23    2    1    2    0    0 -0.78264291706E+02  0.54620755088E+02  0.50268548203E+02  0.14148307343E+03  0.91552208519E+02 0.  0.
         13    1    3    3    0    0  0.14494627254E+03 -0.96407223375E+02  0.71254551590E+03  0.73350179746E+03  0.00000000000E+00 0. -1.
        -14    1    3    3    0    0 -0.98281933797E+01 -0.16583390984E+02  0.81751294157E+02  0.83993311269E+02  0.00000000000E+00 0.  1.
        -11    1    4    4    0    0  0.18616281886E+01  0.46438174861E+02 -0.12287272833E+00  0.46475637076E+02  0.00000000000E+00 0. -1.
         11    1    4    4    0    0 -0.80125919894E+02  0.81825802268E+01  0.50391420932E+02  0.95007436349E+02  0.00000000000E+00 0.  1.
          2    1    1    2  501    0 -0.56853787458E+02  0.58369859272E+02 -0.71922053275E+01  0.81799275285E+02  0.00000000000E+00 0. -1.
<scales pt_clust_5="13000.00000" pt_clust_6="13000.00000" pt_clust_7="13000.00000" pt_clust_8="13000.00000" pt_clust_9="81.48247"></scales>
<clustering>
<clus scale="   79.794">  5  6 -1 -1</clus>
<clus scale="   81.482">  2  9  1 -1</clus>
<clus scale="   91.552">  7  8 -1 -1</clus>
<clus scale="  178.533">  1  5  2 -1</clus>
<clus scale="   81.482">  2  5  1 -1</clus>
</clustering>
</event>
<event>
 9    1  0.4664604E-005  0.1545693E+03  0.7546771E-02  0.1197585E+00
         -2   -1    0    0    0  501 -0.00000000000E+00  0.00000000000E+00  0.78877893880E+02  0.78877893880E+02  0.00000000000E+00 0.  1.
         21   -1    0    0  501  502  0.00000000000E+00 -0.00000000000E+00 -0.64027170643E+03  0.64027170643E+03  0.00000000000E+00 0.  1.
        -24    2    1    2    0    0 -0.21715702713E+01  0.93862458346E+02 -0.18805107029E+03  0.22348412928E+03  0.75941254897E+02 0.  0.
         23    2    1    2    0    0  0.10670712516E+03 -0.14938884144E+03 -0.26603068545E+03  0.33589457571E+03  0.91375072561E+02 0.  0.
         13    1    3    3    0    0  0.70546828224E+01  0.31291423380E+02 -0.85945171905E+01  0.33208243745E+02  0.00000000000E+00 0. -1.
        -14    1    3    3    0    0 -0.92262530937E+01  0.62571034966E+02 -0.17945655310E+03  0.19027588553E+03  0.00000000000E+00 0.  1.
        -13    1    4    4    0    0  0.10785019001E+03 -0.81802096210E+02 -0.15384973686E+03  0.20492190698E+03  0.00000000000E+00 0.  1.
         13    1    4    4    0    0 -0.11430648476E+01 -0.67586745230E+02 -0.11218094859E+03  0.13097266873E+03  0.00000000000E+00 0. -1.
         -1    1    1    2    0  502 -0.10453555489E+03  0.55526383094E+02 -0.10731205681E+03  0.15977089532E+03  0.00000000000E+00 0.  1.
<scales pt_clust_5="13000.00000" pt_clust_6="13000.00000" pt_clust_7="13000.00000" pt_clust_8="13000.00000" pt_clust_9="118.36754"></scales>
<clustering>
<clus scale="   75.941">  5  6 -1 -1</clus>
<clus scale="   91.375">  7  8 -1 -1</clus>
<clus scale="  118.368">  2  9  1 -1</clus>
<clus scale="  145.977">  1  5  2 -1</clus>
<clus scale="  118.368">  2  5  1 -1</clus>
</clustering>
</event>
<event>
 9    1  0.4664604E-005  0.1196207E+03  0.7546771E-02  0.1247238E+00
         21   -1    0    0  501  502  0.00000000000E+00  0.00000000000E+00  0.36605769154E+03  0.36605769154E+03  0.00000000000E+00 0. -1.
          1   -1    0    0  502    0 -0.00000000000E+00 -0.00000000000E+00 -0.14995855386E+03  0.14995855386E+03  0.00000000000E+00 0. -1.
         23    2    1    2    0    0 -0.18158821412E+02  0.76340549704E+02 -0.89523970478E+02  0.15234965908E+03  0.95069737604E+02 0.  0.
        -24    2    1    2    0    0 -0.14297093852E+02 -0.58045954699E+02  0.69727385624E+02  0.12484684142E+03  0.84564092604E+02 0.  0.
         11    1    4    4    0    0  0.34441914082E+02 -0.34306643744E+02  0.25578112393E+02  0.54931148579E+02  0.00000000000E+00 0. -1.
        -12    1    4    4    0    0 -0.48739007934E+02 -0.23739310955E+02  0.44149273231E+02  0.69915692844E+02  0.00000000000E+00 0.  1.
        -11    1    3    3    0    0 -0.70726324464E+01  0.32980936875E+02 -0.10071827940E+03  0.10621645886E+03  0.00000000000E+00 0. -1.
         11    1    3    3    0    0 -0.11086188966E+02  0.43359612830E+02  0.11194308924E+02  0.46133200223E+02  0.00000000000E+00 0.  1.
          2    1    1    2  501    0  0.32455915264E+02 -0.18294595005E+02  0.23589572253E+03  0.23881974489E+03  0.00000000000E+00 0. -1.
<scales pt_clust_5="13000.00000" pt_clust_6="13000.00000" pt_clust_7="13000.00000" pt_clust_8="13000.00000" pt_clust_9="37.25693"></scales>
<clustering>
<clus scale="   37.257">  1  9  2 -1</clus>
<clus scale="   84.564">  5  6 -1 -1</clus>
<clus scale="   95.070">  7  8 -1 -1</clus>
<clus scale="  111.454">  1  5  2 -1</clus>
<clus scale="   37.257">  1  5  2 -1</clus>
</clustering>
</event>
<event>
 9    1  0.4664604E-005  0.1268024E+03  0.7546771E-02  0.1249534E+00
          3   -1    0    0  502    0 -0.00000000000E+00  0.00000000000E+00  0.12576594525E+03  0.12576594525E+03  0.00000000000E+00 0. -1.
         21   -1    0    0  501  502  0.00000000000E+00 -0.00000000000E+00 -0.78490662770E+03  0.78490662770E+03  0.00000000000E+00 0. -1.
        -24    2    1    2    0    0 -0.33035357687E+02 -0.17899416062E+02 -0.84301489638E+02  0.12285153419E+03  0.81080419003E+02 0.  0.
         23    2    1    2    0    0 -0.56488314476E+02  0.76792317949E+01  0.75839861008E+02  0.13093279017E+03  0.90231982970E+02 0.  0.
         13    1    3    3    0    0 -0.28877605364E+01 -0.45659241471E+02 -0.29559412630E+02  0.54468930296E+02  0.00000000000E+00 0. -1.
        -14    1    3    3    0    0 -0.30147597150E+02  0.27759825409E+02 -0.54742077008E+02  0.68382603897E+02  0.00000000000E+00 0.  1.
        -13    1    4    4    0    0 -0.81947839726E+01  0.44941721474E+02  0.30474750136E+02  0.54914690286E+02  0.00000000000E+00 0.  1.
         13    1    4    4    0    0 -0.48293530504E+02 -0.37262489679E+02  0.45365110872E+02  0.76018099884E+02  0.00000000000E+00 0. -1.
          4    1    1    2  501    0  0.89523672163E+02  0.10220184267E+02 -0.65067905382E+03  0.65688824858E+03  0.00000000000E+00 0. -1.
<scales pt_clust_5="13000.00000" pt_clust_6="13000.00000" pt_clust_7="13000.00000" pt_clust_8="13000.00000" pt_clust_9="89.09003"></scales>
<clustering>
<clus scale="   81.080">  5  6 -1 -1</clus>
<clus scale="   89.363">  1  5  2 -1</clus>
<clus scale="   89.090">  2  9  1 -1</clus>
<clus scale="   90.232">  7  8 -1 -1</clus>
<clus scale="   89.090">  2  5  1 -1</clus>
</clustering>
</event>
<event>
 9    1  0.4664604E-005  0.3185692E+03  0.7546771E-02  0.1076662E+00
         21   -1    0    0  501  502  0.00000000000E+00  0.00000000000E+00  0.31873673326E+03  0.31873673326E+03  0.00000000000E+00 0. -1.
          1   -1    0    0  502    0 -0.00000000000E+00 -0.00000000000E+00 -0.61989700702E+03  0.61989700702E+03  0.00000000000E+00 0. -1.
         23    2    1    2    0    0  0.32688680517E+03 -0.13783662924E+03 -0.41164757609E+03  0.55109725392E+03  0.91654441368E+02 0.  0.
        -24    2    1    2    0    0 -0.19328615818E+03  0.67840241093E+02  0.55405201378E+02  0.22696667265E+03  0.80512712646E+02 0.  0.
         13    1    4    4    0    0 -0.82406036072E+02  0.61851162380E+02  0.53071477917E+02  0.11590040050E+03  0.00000000000E+00 0. -1.
        -14    1    4    4    0    0 -0.11088012211E+03  0.59890787132E+01  0.23337234607E+01  0.11106627215E+03  0.00000000000E+00 0.  1.
        -13    1    3    3    0    0  0.23630229863E+03 -0.90751811195E+02 -0.34963822527E+03  0.43164980730E+03  0.00000000000E+00 0. -1.
         13    1    3    3    0    0  0.90584506532E+02 -0.47084818044E+02 -0.62009350827E+02  0.11944744662E+03  0.00000000000E+00 0.  1.
          2    1    1    2  501    0 -0.13360064698E+03  0.69996388146E+02  0.55082100954E+02  0.16056981371E+03  0.00000000000E+00 0. -1.
<scales pt_clust_5="13000.00000" pt_clust_6="13000.00000" pt_clust_7="13000.00000" pt_clust_8="13000.00000" pt_clust_9="150.82648"></scales>
<clustering>
<clus scale="   80.513">  5  6 -1 -1</clus>
<clus scale="   91.654">  7  8 -1 -1</clus>
<clus scale="  150.826">  1  9  2 -1</clus>
<clus scale="  315.544">  1  5  2 -1</clus>
<clus scale="  150.826">  1  5  2 -1</clus>
</clustering>
</event>
<event>
 9    1  0.4664604E-005  0.1740878E+03  0.7546771E-02  0.1206552E+00
         21   -1    0    0  501  502  0.00000000000E+00  0.00000000000E+00  0.50952586721E+03  0.50952586721E+03  0.00000000000E+00 0.  1.
          1   -1    0    0  502    0 -0.00000000000E+00 -0.00000000000E+00 -0.14062448258E+03  0.14062448258E+03  0.00000000000E+00 0. -1.
        -24    2    1    2    0    0 -0.25038432605E+02 -0.15255597617E+02 -0.66075701695E+02  0.10699220733E+03  0.78877612212E+02 0.  0.
         23    2    1    2    0    0 -0.21758224086E+02  0.15302332586E+03  0.26251334338E+03  0.31751768365E+03  0.89524663676E+02 0.  0.
         13    1    3    3    0    0  0.11167186686E+02  0.19547763196E+02 -0.49040305462E+02  0.53960843806E+02  0.00000000000E+00 0. -1.
        -14    1    3    3    0    0 -0.36205619291E+02 -0.34803360813E+02 -0.17035396233E+02  0.53031363521E+02  0.00000000000E+00 0.  1.
        -11    1    4    4    0    0  0.29450963552E+02  0.88076571287E+02  0.10947732513E+03  0.14356227353E+03  0.00000000000E+00 0. -1.
         11    1    4    4    0    0 -0.51209187638E+02  0.64946754570E+02  0.15303601825E+03  0.17395541012E+03  0.00000000000E+00 0.  1.
          2    1    1    2  501    0  0.46796656691E+02 -0.13776772824E+03  0.17246374294E+03  0.22564045881E+03  0.00000000000E+00 0. -1.
<scales pt_clust_5="13000.00000" pt_clust_6="13000.00000" pt_clust_7="13000.00000" pt_clust_8="13000.00000" pt_clust_9="149.30476"></scales>
<clustering>
<clus scale="   78.878">  5  6 -1 -1</clus>
<clus scale="   84.151">  2  5  1 -1</clus>
<clus scale="   89.525">  7  8 -1 -1</clus>
<clus scale="  149.305">  1  9  2 -1</clus>
<clus scale="  149.305">  1  5  2 -1</clus>
</clustering>
</event>
<event>
 9    1  0.4664604E-005  0.9186282E+02  0.7546771E-02  0.1304907E+00
         21   -1    0    0  501  502  0.00000000000E+00  0.00000000000E+00  0.17351048997E+03  0.17351048997E+03  0.00000000000E+00 0.  1.
         -2   -1    0    0    0  501 -0.00000000000E+00 -0.00000000000E+00 -0.96817886852E+02  0.96817886852E+02  0.00000000000E+00 0.  1.
        -24    2    1    2    0    0 -0.11355614957E+02 -0.51867519192E+01 -0.81803989189E+01  0.82107106321E+02  0.80739120601E+02 0.  0.
         23    2    1    2    0    0 -0.92517805727E+01  0.21744316335E+02  0.11466364649E+03  0.14839288633E+03  0.91182707515E+02 0.  0.
         11    1    3    3    0    0 -0.39183963055E+02  0.20125777330E+02 -0.55193900967E+01  0.44394746771E+02  0.00000000000E+00 0. -1.
        -12    1    3    3    0    0  0.27828348098E+02 -0.25312529249E+02 -0.26610088222E+01  0.37712359550E+02  0.00000000000E+00 0.  1.
        -11    1    4    4    0    0 -0.16115195828E+02  0.55215057754E+02  0.54686120039E+02  0.79366075021E+02  0.00000000000E+00 0.  1.
         11    1    4    4    0    0  0.68634152549E+01 -0.33470741419E+02  0.59977526448E+02  0.69026811305E+02  0.00000000000E+00 0. -1.
         -1    1    1    2    0  502  0.20607395530E+02 -0.16557564416E+02 -0.29790644446E+02  0.39828384180E+02  0.00000000000E+00 0.  1.
<scales pt_clust_5="13000.00000" pt_clust_6="13000.00000" pt_clust_7="13000.00000" pt_clust_8="13000.00000" pt_clust_9="26.43517"></scales>
<clustering>
<clus scale="   26.435">  1  9  2 -1</clus>
<clus scale="   80.739">  5  6 -1 -1</clus>
<clus scale="   81.506">  2  5  1 -1</clus>
<clus scale="   91.183">  7  8 -1 -1</clus>
<clus scale="   26.435">  1  5  2 -1</clus>
</clustering>
</event>
<event>
 9    1  0.4664604E-005  0.1892670E+03  0.7546771E-02  0.1160481E+00
         21   -1    0    0  501  502  0.00000000000E+00  0.00000000000E+00  0.27850584000E+03  0.27850584000E+03  0.00000000000E+00 0. -1.
         -2   -1    0    0    0  501 -0.00000000000E+00 -0.00000000000E+00 -0.78541595196E+03  0.78541595196E+03  0.00000000000E+00 0.  1.
         23    2    1    2    0    0 -0.16303291515E+03 -0.53720338043E+02 -0.72139692287E+03  0.74702097383E+03  0.90339409337E+02 0.  0.
        -24    2    1    2    0    0  0.10749077845E+03  0.55956030118E+02  0.65601117018E+02  0.15797669436E+03  0.77251437850E+02 0.  0.
         11    1    4    4    0    0  0.62822047981E+02  0.15426815806E+02  0.72621126747E+02  0.97254431305E+02  0.00000000000E+00 0. -1.
        -12    1    4    4    0    0  0.44668730470E+02  0.40529214311E+02 -0.70200097291E+01  0.60722263059E+02  0.00000000000E+00 0.  1.
        -13    1    3    3    0    0 -0.14664178424E+02 -0.36520555727E+02 -0.90535001179E+02  0.98718668741E+02  0.00000000000E+00 0.  1.
         13    1    3    3    0    0 -0.14836873673E+03 -0.17199782317E+02 -0.63086192169E+03  0.64830230509E+03  0.00000000000E+00 0. -1.
         -1    1    1    2    0  502  0.55542136704E+02 -0.22356920741E+01  0.14888569389E+03  0.15892412376E+03  0.00000000000E+00 0.  1.
<scales pt_clust_5="13000.00000" pt_clust_6="13000.00000" pt_clust_7="13000.00000" pt_clust_8="13000.00000" pt_clust_9="55.58711"></scales>
<clustering>
<clus scale="   55.587">  1  9  2 -1</clus>
<clus scale="   77.251">  5  6 -1 -1</clus>
<clus scale="   90.339">  7  8 -1 -1</clus>
<clus scale="  183.381">  1  5  2 -1</clus>
<clus scale="   55.587">  1  5  2 -1</clus>
</clustering>
</event>
<event>
 9    1  0.4664604E-005  0.1047114E+03  0.7546771E-02  0.1283637E+00
          1   -1    0    0  502    0 -0.00000000000E+00  0.00000000000E+00  0.26902780952E+03  0.26902780952E+03  0.00000000000E+00 0. -1.
         21   -1    0    0  501  502  0.00000000000E+00 -0.00000000000E+00 -0.56836794061E+02  0.56836794061E+02  0.00000000000E+00 0. -1.
         23    2    1    2    0    0  0.16390722239E+02  0.44169050816E+02  0.88043174538E+02  0.13915219502E+03  0.96913218757E+02 0.  0.
        -24    2    1    2    0    0 -0.45974134908E+02 -0.48469957168E+01  0.53268216028E+02  0.10042612027E+03  0.71489777913E+02 0.  0.
         13    1    4    4    0    0 -0.52736160757E+02  0.13269116265E+02  0.59018935008E+02  0.80252145063E+02  0.00000000000E+00 0. -1.
        -14    1    4    4    0    0  0.67620258491E+01 -0.18116111982E+02 -0.57507189797E+01  0.20173975208E+02  0.00000000000E+00 0.  1.
        -11    1    3    3    0    0 -0.40815480241E+01  0.63998355305E+02  0.90083672756E+02  0.11057810187E+03  0.00000000000E+00 0. -1.
         11    1    3    3    0    0  0.20472270263E+02 -0.19829304489E+02 -0.20404982173E+01  0.28574093147E+02  0.00000000000E+00 0.  1.
          2    1    1    2  501    0  0.29583412669E+02 -0.39322055099E+02  0.70879624890E+02  0.86286288290E+02  0.00000000000E+00 0. -1.
<scales pt_clust_5="13000.00000" pt_clust_6="13000.00000" pt_clust_7="13000.00000" pt_clust_8="13000.00000" pt_clust_9="49.20777"></scales>
<clustering>
<clus scale="   49.208">  2  9  1 -1</clus>
<clus scale="   71.490">  5  6 -1 -1</clus>
<clus scale="   81.750">  2  5  1 -1</clus>
<clus scale="   96.913">  7  8 -1 -1</clus>
<clus scale="   49.208">  2  5  1 -1</clus>
</clustering>
</event>
<event>
 9    1  0.4664604E-005  0.9640392E+02  0.7546771E-02  0.1294105E+00
         21   -1    0    0  501  502  0.00000000000E+00  0.00000000000E+00  0.77592177008E+02  0.77592177008E+02  0.00000000000E+00 0.  1.
         -2   -1    0    0    0  501 -0.00000000000E+00 -0.00000000000E+00 -0.26148264126E+03  0.26148264126E+03  0.00000000000E+00 0.  1.
        -24    2    1    2    0    0  0.21945380811E+02  0.15319515416E+02 -0.15807966071E+03  0.17861869956E+03  0.78734829729E+02 0.  0.
         23    2    1    2    0    0 -0.57206470737E+02 -0.40559790709E+02 -0.26599976417E+02  0.11708517506E+03  0.89909413055E+02 0.  0.
         11    1    3    3    0    0 -0.20075380421E+01  0.29530813744E+02 -0.14474367918E+03  0.14773906671E+03  0.00000000000E+00 0. -1.
        -12    1    3    3    0    0  0.23952918853E+02 -0.14211298328E+02 -0.13335981523E+02  0.30879632849E+02  0.00000000000E+00 0.  1.
        -13    1    4    4    0    0 -0.20728479911E+02  0.28785581368E+02 -0.51204560884E+01  0.35839902967E+02  0.00000000000E+00 0. -1.
         13    1    4    4    0    0 -0.36477990826E+02 -0.69345372077E+02 -0.21479520329E+02  0.81245272089E+02  0.00000000000E+00 0.  1.
         -1    1    1    2    0  502  0.35261089926E+02  0.25240275293E+02  0.78917286746E+00  0.43370943654E+02  0.00000000000E+00 0.  1.
<scales pt_clust_5="13000.00000" pt_clust_6="13000.00000" pt_clust_7="13000.00000" pt_clust_8="13000.00000" pt_clust_9="43.36376"></scales>
<clustering>
<clus scale="   43.364">  1  9  2 -1</clus>
<clus scale="   78.735">  5  6 -1 -1</clus>
<clus scale="   86.077">  2  5  1 -1</clus>
<clus scale="   89.909">  7  8 -1 -1</clus>
<clus scale="   43.364">  1  5  2 -1</clus>
</clustering>
</event>
<event>
 9    1  0.4664604E-005  0.2943592E+03  0.7546771E-02  0.1088551E+00
         21   -1    0    0  501  502  0.00000000000E+00  0.00000000000E+00  0.14527231234E+03  0.14527231234E+03  0.00000000000E+00 0. -1.
          1   -1    0    0  502    0 -0.00000000000E+00 -0.00000000000E+00 -0.95384290746E+03  0.95384290746E+03  0.00000000000E+00 0. -1.
         23    2    1    2    0    0 -0.97999277311E+02  0.26634458583E+03 -0.68211016552E+03  0.74446639797E+03  0.91720461392E+02 0.  0.
        -24    2    1    2    0    0  0.55831896245E+02 -0.26200344147E+03 -0.77776859295E+02  0.29009633483E+03  0.79646968937E+02 0.  0.
         13    1    4    4    0    0  0.19449784958E+02 -0.18267849659E+03 -0.85209271781E+02  0.20251011641E+03  0.00000000000E+00 0. -1.
        -14    1    4    4    0    0  0.36382111287E+02 -0.79324944887E+02  0.74324124867E+01  0.87586218428E+02  0.00000000000E+00 0.  1.
        -13    1    3    3    0    0 -0.29036861023E+02  0.85495673157E+02 -0.33592246727E+03  0.34784558851E+03  0.00000000000E+00 0. -1.
         13    1    3    3    0    0 -0.68962416288E+02  0.18084891268E+03 -0.34618769825E+03  0.39662080946E+03  0.00000000000E+00 0.  1.
          2    1    1    2  501    0  0.42167381066E+02 -0.43411443598E+01 -0.48683570298E+02  0.64552486996E+02  0.00000000000E+00 0. -1.
<scales pt_clust_5="13000.00000" pt_clust_6="13000.00000" pt_clust_7="13000.00000" pt_clust_8="13000.00000" pt_clust_9="42.39027"></scales>
<clustering>
<clus scale="   42.390">  1  9  2 -1</clus>
<clus scale="   79.647">  5  6 -1 -1</clus>
<clus scale="   91.720">  7  8 -1 -1</clus>
<clus scale="  290.824">  1  5  2 -1</clus>
<clus scale="   42.390">  1  5  2 -1</clus>
</clustering>
</event>
<event>
 9    1  0.4664604E-005  0.9406960E+02  0.7546771E-02  0.1299235E+00
          1   -1    0    0  502    0 -0.00000000000E+00  0.00000000000E+00  0.20997340572E+03  0.20997340572E+03  0.00000000000E+00 0. -1.
         21   -1    0    0  501  502  0.00000000000E+00 -0.00000000000E+00 -0.10968166246E+03  0.10968166246E+03  0.00000000000E+00 0. -1.
         23    2    1    2    0    0  0.12303524174E+02 -0.25693616209E+02  0.94181880491E+02  0.13410998668E+03  0.91124767725E+02 0.  0.
        -24    2    1    2    0    0  0.45309975857E+02  0.14320409326E+02 -0.48238729876E+02  0.10552986581E+03  0.80941395356E+02 0.  0.
         11    1    4    4    0    0  0.51384418599E+02 -0.80651155534E+00  0.32784597656E+01  0.51495215643E+02  0.00000000000E+00 0. -1.
        -12    1    4    4    0    0 -0.60744427422E+01  0.15126920882E+02 -0.51517189641E+02  0.54034650166E+02  0.00000000000E+00 0.  1.
        -13    1    3    3    0    0  0.46106094710E+02  0.83306215493E+01  0.54419417512E+02  0.71809778075E+02  0.00000000000E+00 0.  1.
         13    1    3    3    0    0 -0.33802570536E+02 -0.34024237758E+02  0.39762462979E+02  0.62300208604E+02  0.00000000000E+00 0. -1.
          2    1    1    2  501    0 -0.57613500031E+02  0.11373206882E+02  0.54348592638E+02  0.80015215693E+02  0.00000000000E+00 0. -1.
<scales pt_clust_5="13000.00000" pt_clust_6="13000.00000" pt_clust_7="13000.00000" pt_clust_8="13000.00000" pt_clust_9="58.72537"></scales>
<clustering>
<clus scale="   58.725">  2  9  1 -1</clus>
<clus scale="   80.941">  5  6 -1 -1</clus>
<clus scale="   84.243">  2  5  1 -1</clus>
<clus scale="   91.125">  7  8 -1 -1</clus>
<clus scale="   58.725">  2  5  1 -1</clus>
</clustering>
</event>
<event>
 9    1  0.4664604E-005  0.1018571E+03  0.7546771E-02  0.1284513E+00
         21   -1    0    0  501  502  0.00000000000E+00  0.00000000000E+00  0.25558914778E+03  0.25558914778E+03  0.00000000000E+00 0.  1.
          1   -1    0    0  502    0 -0.00000000000E+00 -0.00000000000E+00 -0.11240188999E+03  0.11240188999E+03  0.00000000000E+00 0. -1.
         23    2    1    2    0    0  0.16992368246E+00 -0.28258184917E+02 -0.52213505158E+02  0.11273381728E+03  0.95833759962E+02 0.  0.
        -24    2    1    2    0    0 -0.44363286209E+02  0.51834370210E+02  0.89954297870E+02  0.13851885147E+03  0.80254553817E+02 0.  0.
         11    1    4    4    0    0 -0.15137353541E+02  0.14549923472E+02 -0.13342411427E+02  0.24876890641E+02  0.00000000000E+00 0. -1.
        -12    1    4    4    0    0 -0.29225932668E+02  0.37284446738E+02  0.10329670930E+03  0.11364196083E+03  0.00000000000E+00 0.  1.
        -11    1    3    3    0    0  0.40868222245E+02  0.92803088931E+01 -0.99338348760E+01  0.43069905943E+02  0.00000000000E+00 0.  1.
         11    1    3    3    0    0 -0.40698298562E+02 -0.37538493810E+02 -0.42279670282E+02  0.69663911335E+02  0.00000000000E+00 0. -1.
          2    1    1    2  501    0  0.44193362527E+02 -0.23576185293E+02  0.10544646508E+03  0.11673836903E+03  0.00000000000E+00 0. -1.
<scales pt_clust_5="13000.00000" pt_clust_6="13000.00000" pt_clust_7="13000.00000" pt_clust_8="13000.00000" pt_clust_9="50.08882"></scales>
<clustering>
<clus scale="   50.089">  1  9  2 -1</clus>
<clus scale="   80.255">  5  6 -1 -1</clus>
<clus scale="   87.359">  1  5  2 -1</clus>
<clus scale="   95.834">  7  8 -1 -1</clus>
<clus scale="   50.089">  1  5  2 -1</clus>
</clustering>
</event>
<event>
 9    1  0.4664604E-005  0.1059566E+03  0.7546771E-02  0.1271996E+00
         21   -1    0    0  501  502  0.00000000000E+00  0.00000000000E+00  0.92567672540E+02  0.92567672540E+02  0.00000000000E+00 0.  1.
          3   -1    0    0  502    0 -0.00000000000E+00 -0.00000000000E+00 -0.25243116649E+03  0.25243116649E+03  0.00000000000E+00 0. -1.
         23    2    1    2    0    0  0.35668982724E+02  0.44036959441E+02 -0.17758884069E+03  0.20754388736E+03  0.91242198119E+02 0.  0.
        -24    2    1    2    0    0 -0.62967976770E+01 -0.51195530098E+02 -0.81580499367E+01  0.97656451548E+02  0.82520281066E+02 0.  0.
         13    1    4    4    0    0 -0.39852055065E+02 -0.24907272704E+02  0.14761081029E+02  0.49258989430E+02  0.00000000000E+00 0. -1.
        -14    1    4    4    0    0  0.33555257388E+02 -0.26288257394E+02 -0.22919130966E+02  0.48397462118E+02  0.00000000000E+00 0.  1.
        -11    1    3    3    0    0  0.26698235157E+02  0.72476230801E+02 -0.13538716081E+03  0.15586944250E+03  0.00000000000E+00 0. -1.
         11    1    3    3    0    0  0.89707475665E+01 -0.28439271360E+02 -0.42201679878E+02  0.51674444863E+02  0.00000000000E+00 0.  1.
          4    1    1    2  501    0 -0.29372185047E+02  0.71585706578E+01  0.25883396678E+02  0.39798500121E+02  0.00000000000E+00 0. -1.
<scales pt_clust_5="13000.00000" pt_clust_6="13000.00000" pt_clust_7="13000.00000" pt_clust_8="13000.00000" pt_clust_9="30.23194"></scales>
<clustering>
<clus scale="   30.232">  1  9  2 -1</clus>
<clus scale="   82.520">  5  6 -1 -1</clus>
<clus scale="   91.242">  7  8 -1 -1</clus>
<clus scale="   98.546">  1  5  2 -1</clus>
<clus scale="   30.232">  1  5  2 -1</clus>
</clustering>
</event>
<event>
 9    1  0.4664604E-005  0.1075581E+03  0.7546771E-02  0.1275249E+00
         21   -1    0    0  501  502  0.00000000000E+00  0.00000000000E+00  0.13658473391E+03  0.13658473391E+03  0.00000000000E+00 0.  1.
          3   -1    0    0  502    0 -0.00000000000E+00 -0.00000000000E+00 -0.30479240849E+03  0.30479240849E+03  0.00000000000E+00 0. -1.
        -24    2    1    2    0    0  0.41753143323E+02 -0.35297050097E+01 -0.26066863033E+03  0.27555193546E+03  0.78898355530E+02 0.  0.
         23    2    1    2    0    0 -0.22035729234E+02 -0.61374932147E+01  0.41780946205E+02  0.11059211444E+03  0.99808447159E+02 0.  0.
         11    1    3    3    0    0  0.63924163055E+02 -0.58523409751E+01 -0.15901548195E+03  0.17148315374E+03  0.00000000000E+00 0. -1.
        -12    1    3    3    0    0 -0.22171019733E+02  0.23226359654E+01 -0.10165314838E+03  0.10406878172E+03  0.00000000000E+00 0.  1.
        -13    1    4    4    0    0  0.58407748723E+01 -0.36859077920E+02  0.55516070549E+02  0.66893500173E+02  0.00000000000E+00 0.  1.
         13    1    4    4    0    0 -0.27876504106E+02  0.30721584705E+02 -0.13735124344E+02  0.43698614265E+02  0.00000000000E+00 0. -1.
          4    1    1    2  501    0 -0.19717414089E+02  0.96671982245E+01  0.50680009541E+02  0.55233092498E+02  0.00000000000E+00 0. -1.
<scales pt_clust_5="13000.00000" pt_clust_6="13000.00000" pt_clust_7="13000.00000" pt_clust_8="13000.00000" pt_clust_9="21.95976"></scales>
<clustering>
<clus scale="   21.960">  1  9  2 -1</clus>
<clus scale="   78.898">  5  6 -1 -1</clus>
<clus scale="   88.498">  2  5  1 -1</clus>
<clus scale="   99.808">  7  8 -1 -1</clus>
<clus scale="   21.960">  1  5  2 -1</clus>
</clustering>
</event>
<event>
 9    1  0.4664604E-005  0.9447028E+02  0.7546771E-02  0.1298530E+00
         21   -1    0    0  501  502  0.00000000000E+00  0.00000000000E+00  0.13226792264E+03  0.13226792264E+03  0.00000000000E+00 0. -1.
         -2   -1    0    0    0  501 -0.00000000000E+00 -0.00000000000E+00 -0.19660953092E+03  0.19660953092E+03  0.00000000000E+00 0.  1.
        -24    2    1    2    0    0  0.46076526621E+01  0.15960827242E+02 -0.98672597615E+00  0.85124040819E+02  0.83481436427E+02 0.  0.
         23    2    1    2    0    0  0.39691358380E+02  0.16017013121E+02  0.52488290678E+02  0.11567287019E+03  0.93772296554E+02 0.  0.
         13    1    3    3    0    0  0.39013535365E+02 -0.99414360253E+01 -0.91600968532E+01  0.41289168874E+02  0.00000000000E+00 0. -1.
        -14    1    3    3    0    0 -0.34405882703E+02  0.25902263267E+02  0.81733708770E+01  0.43834871945E+02  0.00000000000E+00 0.  1.
        -13    1    4    4    0    0 -0.23910246960E+01  0.33710203461E+02 -0.12689090004E+02  0.36098584759E+02  0.00000000000E+00 0.  1.
         13    1    4    4    0    0  0.42082383076E+02 -0.17693190340E+02  0.65177380682E+02  0.79574285434E+02  0.00000000000E+00 0. -1.
         -1    1    1    2    0  502 -0.44299011042E+02 -0.31977840363E+02 -0.11584317298E+03  0.12808054255E+03  0.00000000000E+00 0.  1.
<scales pt_clust_5="13000.00000" pt_clust_6="13000.00000" pt_clust_7="13000.00000" pt_clust_8="13000.00000" pt_clust_9="54.63504"></scales>
<clustering>
<clus scale="   54.635">  1  9  2 -1</clus>
<clus scale="   83.481">  5  6 -1 -1</clus>
<clus scale="   84.265">  2  5  1 -1</clus>
<clus scale="   93.772">  7  8 -1 -1</clus>
<clus scale="   54.635">  1  5  2 -1</clus>
</clustering>
</event>
<event>
 9    1  0.4664604E-005  0.1145527E+03  0.7546771E-02  0.1255975E+00
          3   -1    0    0  502    0 -0.00000000000E+00  0.00000000000E+00  0.36304576699E+02  0.36304576699E+02  0.00000000000E+00 0. -1.
         21   -1    0    0  501  502  0.00000000000E+00 -0.00000000000E+00 -0.85085038305E+03  0.85085038305E+03  0.00000000000E+00 0.  1.
         23    2    1    2    0    0  0.38681933743E+02 -0.49622159710E+02 -0.87566753422E+02  0.14191151459E+03  0.92262077446E+02 0.  0.
        -24    2    1    2    0    0 -0.62670191822E+02  0.72527924932E+02 -0.63576384243E+03  0.64818508523E+03  0.82221581949E+02 0.  0.
         11    1    4    4    0    0 -0.31638322493E+02  0.81346209429E+02 -0.35493298077E+03  0.36550733245E+03  0.00000000000E+00 0. -1.
        -12    1    4    4    0    0 -0.31031869329E+02 -0.88182844975E+01 -0.28083086166E+03  0.28267775278E+03  0.00000000000E+00 0.  1.
        -13    1    3    3    0    0 -0.20937683990E+02  0.83626466014E+01 -0.40492806711E+02  0.46346389982E+02  0.00000000000E+00 0.  1.
         13    1    3    3    0    0  0.59619617733E+02 -0.57984806311E+02 -0.47073946712E+02  0.95565124604E+02  0.00000000000E+00 0. -1.
          4    1    1    2  501    0  0.23988258079E+02 -0.22905765222E+02 -0.91215210493E+02  0.97058359925E+02  0.00000000000E+00 0. -1.
<scales pt_clust_5="13000.00000" pt_clust_6="13000.00000" pt_clust_7="13000.00000" pt_clust_8="13000.00000" pt_clust_9="33.16792"></scales>
<clustering>
<clus scale="   33.168">  2  9  1 -1</clus>
<clus scale="   82.222">  5  6 -1 -1</clus>
<clus scale="   92.262">  7  8 -1 -1</clus>
<clus scale="  106.632">  2  5  1 -1</clus>
<clus scale="   33.168">  2  5  1 -1</clus>
</clustering>
</event>
<event>
 9    1  0.4664604E-005  0.2318727E+03  0.7546771E-02  0.1126156E+00
          1   -1    0    0  502    0 -0.00000000000E+00  0.00000000000E+00  0.12013892067E+04  0.12013892067E+04  0.00000000000E+00 0. -1.
         21   -1    0    0  501  502  0.00000000000E+00 -0.00000000000E+00 -0.64543799493E+02  0.64543799493E+02  0.00000000000E+00 0. -1.
        -24    2    1    2    0    0 -0.18373811835E+03  0.27287446750E+02  0.44138111301E+03  0.48533351087E+03  0.78911526201E+02 0.  0.
         23    2    1    2    0    0  0.23520042264E+03 -0.77236582449E+02  0.63172862774E+03  0.68465409365E+03  0.91572050135E+02 0.  0.
         11    1    3    3    0    0 -0.15496702569E+03 -0.78769678940E+01  0.31761495137E+03  0.35349127713E+03  0.00000000000E+00 0. -1.
        -12    1    3    3    0    0 -0.28771092658E+02  0.35164414644E+02  0.12376616164E+03  0.13184223374E+03  0.00000000000E+00 0.  1.
        -11    1    4    4    0    0  0.41538790500E+02 -0.13479875319E+02  0.41664563885E+02  0.60358214342E+02  0.00000000000E+00 0.  1.
         11    1    4    4    0    0  0.19366163214E+03 -0.63756707130E+02  0.59006406385E+03  0.62429587931E+03  0.00000000000E+00 0. -1.
          2    1    1    2  501    0 -0.51462304294E+02  0.49949135699E+02  0.63735666408E+02  0.95945401624E+02  0.00000000000E+00 0. -1.
<scales pt_clust_5="13000.00000" pt_clust_6="13000.00000" pt_clust_7="13000.00000" pt_clust_8="13000.00000" pt_clust_9="71.71670"></scales>
<clustering>
<clus scale="   71.717">  2  9  1 -1</clus>
<clus scale="   78.912">  5  6 -1 -1</clus>
<clus scale="   91.572">  7  8 -1 -1</clus>
<clus scale="  227.171">  1  5  2 -1</clus>
<clus scale="   71.717">  2  5  1 -1</clus>
</clustering>
</event>
<event>
 9    1  0.4664604E-005  0.2798121E+03  0.7546771E-02  0.1096374E+00
         21   -1    0    0  501  502  0.00000000000E+00  0.00000000000E+00  0.21813840804E+03  0.21813840804E+03  0.00000000000E+00 0. -1.
          1   -1    0    0  502    0 -0.00000000000E+00 -0.00000000000E+00 -0.14057338292E+04  0.14057338292E+04  0.00000000000E+00 0. -1.
         23    2    1    2    0    0  0.13009244474E+03 -0.22657878593E+03 -0.81013836705E+03  0.85672993944E+03  0.96953725802E+02 0.  0.
        -24    2    1    2    0    0 -0.29467520264E+03  0.10903443790E+03 -0.44742002281E+03  0.55313534713E+03  0.83976495153E+02 0.  0.
         11    1    4    4    0    0 -0.29155497104E+03  0.93417730310E+02 -0.40408917834E+03  0.50697064759E+03  0.00000000000E+00 0. -1.
        -12    1    4    4    0    0 -0.31202316089E+01  0.15616707586E+02 -0.43330844468E+02  0.46164699538E+02  0.00000000000E+00 0.  1.
        -13    1    3    3    0    0 -0.11572562882E+02 -0.27038587153E+02 -0.14619517463E+03  0.14912423845E+03  0.00000000000E+00 0. -1.
         13    1    3    3    0    0  0.14166500762E+03 -0.19954019877E+03 -0.66394319242E+03  0.70760570099E+03  0.00000000000E+00 0.  1.
          2    1    1    2  501    0  0.16458275790E+03  0.11754434803E+03  0.69962968689E+02  0.21400695068E+03  0.00000000000E+00 0. -1.
<scales pt_clust_5="13000.00000" pt_clust_6="13000.00000" pt_clust_7="13000.00000" pt_clust_8="13000.00000" pt_clust_9="202.24776"></scales>
<clustering>
<clus scale="   83.976">  5  6 -1 -1</clus>
<clus scale="   96.954">  7  8 -1 -1</clus>
<clus scale="  202.248">  1  9  2 -1</clus>
<clus scale="  275.585">  1  5  2 -1</clus>
<clus scale="  202.248">  1  5  2 -1</clus>
</clustering>
</event>
<event>
 9    1  0.4664604E-005  0.1228020E+03  0.7546771E-02  0.1240355E+00
          1   -1    0    0  502    0 -0.00000000000E+00  0.00000000000E+00  0.14222028851E+03  0.14222028851E+03  0.00000000000E+00 0. -1.
         21   -1    0    0  501  502  0.00000000000E+00 -0.00000000000E+00 -0.42361187760E+03  0.42361187760E+03  0.00000000000E+00 0. -1.
         23    2    1    2    0    0  0.58725714284E+02  0.60959392633E+02 -0.45296288529E+01  0.12264062494E+03  0.88630966824E+02 0.  0.
        -24    2    1    2    0    0 -0.91653270964E+02 -0.29903627427E+02 -0.34149931140E+03  0.36428227868E+03  0.82372628120E+02 0.  0.
         13    1    4    4    0    0 -0.25516553322E+02 -0.49278828222E+02 -0.18806255192E+03  0.19607911882E+03  0.00000000000E+00 0. -1.
        -14    1    4    4    0    0 -0.66136717642E+02  0.19375200795E+02 -0.15343675949E+03  0.16820315986E+03  0.00000000000E+00 0.  1.
        -13    1    3    3    0    0  0.55750800488E+02 -0.22423746898E+01 -0.16631606284E+02  0.58221905902E+02  0.00000000000E+00 0.  1.
         13    1    3    3    0    0  0.29749137954E+01  0.63201767323E+02  0.12101977431E+02  0.64418719039E+02  0.00000000000E+00 0. -1.
          2    1    1    2  501    0  0.32927556681E+02 -0.31055765206E+02  0.64637351163E+02  0.78909262491E+02  0.00000000000E+00 0. -1.
<scales pt_clust_5="13000.00000" pt_clust_6="13000.00000" pt_clust_7="13000.00000" pt_clust_8="13000.00000" pt_clust_9="45.26242"></scales>
<clustering>
<clus scale="   45.262">  2  9  1 -1</clus>
<clus scale="   82.373">  5  6 -1 -1</clus>
<clus scale="   88.631">  7  8 -1 -1</clus>
<clus scale="  118.364">  2  5  1 -1</clus>
<clus scale="   45.262">  2  5  1 -1</clus>
</clustering>
</event>
<event>
 9    1  0.4664604E-005  0.1011667E+03  0.7546771E-02  0.1282433E+00
          1   -1    0    0  502    0 -0.00000000000E+00  0.00000000000E+00  0.78815225578E+03  0.78815225578E+03  0.00000000000E+00 0. -1.
         21   -1    0    0  501  502  0.00000000000E+00 -0.00000000000E+00 -0.60273331522E+02  0.60273331522E+02  0.00000000000E+00 0. -1.
         23    2    1    2    0    0  0.23712158813E+02 -0.21119116942E+02  0.44881403341E+03  0.45891055296E+03  0.90313761180E+02 0.  0.
        -24    2    1    2    0    0 -0.58618283757E+02  0.38074417439E+02  0.31744692281E+03  0.33493390069E+03  0.80761405214E+02 0.  0.
         11    1    4    4    0    0 -0.77311187033E+02  0.35663024716E+02  0.22465713176E+03  0.24024924105E+03  0.00000000000E+00 0. -1.
        -12    1    4    4    0    0  0.18692903276E+02  0.24113927233E+01  0.92789791052E+02  0.94684659640E+02  0.00000000000E+00 0.  1.
        -13    1    3    3    0    0 -0.31519255487E+02 -0.24939799915E+02  0.20268629105E+03  0.20663298300E+03  0.00000000000E+00 0.  1.
         13    1    3    3    0    0  0.55231414300E+02  0.38206829735E+01  0.24612774236E+03  0.25227756996E+03  0.00000000000E+00 0. -1.
          2    1    1    2  501    0  0.34906124943E+02 -0.16955300497E+02 -0.38382031963E+02  0.54581133655E+02  0.00000000000E+00 0. -1.
<scales pt_clust_5="13000.00000" pt_clust_6="13000.00000" pt_clust_7="13000.00000" pt_clust_8="13000.00000" pt_clust_9="38.80618"></scales>
<clustering>
<clus scale="   38.806">  2  9  1 -1</clus>
<clus scale="   80.761">  5  6 -1 -1</clus>
<clus scale="   90.314">  7  8 -1 -1</clus>
<clus scale="   92.739">  2  5  1 -1</clus>
<clus scale="   38.806">  2  5  1 -1</clus>
</clustering>
</event>
<event>
 9    1  0.4664604E-005  0.1029180E+03  0.7546771E-02  0.1280541E+00
         21   -1    0    0  501  502  0.00000000000E+00  0.00000000000E+00  0.42342761626E+03  0.42342761626E+03  0.00000000000E+00 0.  1.
          1   -1    0    0  502    0 -0.00000000000E+00 -0.00000000000E+00 -0.72599822171E+02  0.72599822171E+02  0.00000000000E+00 0. -1.
         23    2    1    2    0    0 -0.47158860708E+02  0.31715432487E+02  0.39317218261E+02  0.11678116420E+03  0.94139098462E+02 0.  0.
        -24    2    1    2    0    0 -0.44109145696E+02 -0.34370472052E+02  0.25231910400E+03  0.27043208138E+03  0.79634378968E+02 0.  0.
         11    1    4    4    0    0 -0.41913657036E+02 -0.50993664080E+02  0.11915795955E+03  0.13621941032E+03  0.00000000000E+00 0. -1.
        -12    1    4    4    0    0 -0.21954886601E+01  0.16623192029E+02  0.13316114444E+03  0.13421267106E+03  0.00000000000E+00 0.  1.
        -13    1    3    3    0    0 -0.27119052422E+02  0.38999092728E+02 -0.21642958452E+02  0.52199520001E+02  0.00000000000E+00 0. -1.
         13    1    3    3    0    0 -0.20039808287E+02 -0.72836602402E+01  0.60960176713E+02  0.64581644200E+02  0.00000000000E+00 0.  1.
          2    1    1    2  501    0  0.91268006404E+02  0.26550395641E+01  0.59191471829E+02  0.10881419285E+03  0.00000000000E+00 0. -1.
<scales pt_clust_5="13000.00000" pt_clust_6="13000.00000" pt_clust_7="13000.00000" pt_clust_8="13000.00000" pt_clust_9="91.30666"></scales>
<clustering>
<clus scale="   79.634">  5  6 -1 -1</clus>
<clus scale="   91.307">  1  9  2 -1</clus>
<clus scale="   91.307">  1  5  2 -1</clus>
<clus scale="   94.139">  7  8 -1 -1</clus>
<clus scale="   91.307">  1  5  2 -1</clus>
</clustering>
</event>
<event>
 9    1  0.4664604E-005  0.9464958E+02  0.7546771E-02  0.1297714E+00
         21   -1    0    0  501  502  0.00000000000E+00  0.00000000000E+00  0.88608557441E+02  0.88608557441E+02  0.00000000000E+00 0. -1.
         -2   -1    0    0    0  501 -0.00000000000E+00 -0.00000000000E+00 -0.27660731693E+03  0.27660731693E+03  0.00000000000E+00 0.  1.
         23    2    1    2    0    0  0.71047190210E+01 -0.21722933624E+02 -0.21378059785E+03  0.23342479651E+03  0.90899002911E+02 0.  0.
        -24    2    1    2    0    0 -0.33596584664E+02  0.32905976690E+02  0.57052373046E+00  0.93548565093E+02  0.80867018806E+02 0.  0.
         13    1    4    4    0    0 -0.55142651606E+02  0.13562249410E+01  0.32090073611E+01  0.55252593609E+02  0.00000000000E+00 0. -1.
        -14    1    4    4    0    0  0.21546066942E+02  0.31549751749E+02 -0.26384836306E+01  0.38295971484E+02  0.00000000000E+00 0.  1.
        -11    1    3    3    0    0 -0.34494568989E+02 -0.29315431086E+02 -0.68433140717E+02  0.82050987428E+02  0.00000000000E+00 0. -1.
         11    1    3    3    0    0  0.41599288010E+02  0.75924974618E+01 -0.14534745713E+03  0.15137380908E+03  0.00000000000E+00 0.  1.
         -1    1    1    2    0  502  0.26491865643E+02 -0.11183043065E+02  0.25211314631E+02  0.38242512769E+02  0.00000000000E+00 0.  1.
<scales pt_clust_5="13000.00000" pt_clust_6="13000.00000" pt_clust_7="13000.00000" pt_clust_8="13000.00000" pt_clust_9="28.75551"></scales>
<clustering>
<clus scale="   28.756">  1  9  2 -1</clus>
<clus scale="   80.867">  5  6 -1 -1</clus>
<clus scale="   85.061">  1  5  2 -1</clus>
<clus scale="   90.899">  7  8 -1 -1</clus>
<clus scale="   28.756">  1  5  2 -1</clus>
</clustering>
</event>
<event>
 9    1  0.4664604E-005  0.1228261E+03  0.7546771E-02  0.1243075E+00
         21   -1    0    0  501  502  0.00000000000E+00  0.00000000000E+00  0.53459895137E+03  0.53459895137E+03  0.00000000000E+00 0.  1.
          1   -1    0    0  502    0 -0.00000000000E+00 -0.00000000000E+00 -0.37301971355E+02  0.37301971355E+02  0.00000000000E+00 0. -1.
        -24    2    1    2    0    0  0.13004823878E+02 -0.71964334296E+02  0.13696079951E+03  0.17438760255E+03  0.79402672929E+02 0.  0.
         23    2    1    2    0    0 -0.44416722920E+02  0.82633598003E+02  0.30937096603E+03  0.33670218898E+03  0.94110640473E+02 0.  0.
         13    1    3    3    0    0 -0.21707563264E+02 -0.69813216341E+02  0.90093093552E+02  0.11602529459E+03  0.00000000000E+00 0. -1.
        -14    1    3    3    0    0  0.34712387143E+02 -0.21511179556E+01  0.46867705954E+02  0.58362307965E+02  0.00000000000E+00 0.  1.
        -11    1    4    4    0    0 -0.44913848838E+02  0.44489997705E+02  0.28385177705E+03  0.29080654230E+03  0.00000000000E+00 0.  1.
         11    1    4    4    0    0  0.49712591866E+00  0.38143600298E+02  0.25519188980E+02  0.45895646679E+02  0.00000000000E+00 0. -1.
          2    1    1    2  501    0  0.31411899041E+02 -0.10669263706E+02  0.50965214488E+02  0.60811131195E+02  0.00000000000E+00 0. -1.
<scales pt_clust_5="13000.00000" pt_clust_6="13000.00000" pt_clust_7="13000.00000" pt_clust_8="13000.00000" pt_clust_9="33.17441"></scales>
<clustering>
<clus scale="   33.174">  1  9  2 -1</clus>
<clus scale="   79.403">  5  6 -1 -1</clus>
<clus scale="   94.111">  7  8 -1 -1</clus>
<clus scale="  111.956">  2  5  1 -1</clus>
<clus scale="   33.174">  1  5  2 -1</clus>
</clustering>
</event>
<event>
 9    1  0.4664604E-005  0.1169145E+03  0.7546771E-02  0.1251787E+00
         21   -1    0    0  501  502  0.00000000000E+00  0.00000000000E+00  0.52447978470E+02  0.52447978470E+02  0.00000000000E+00 0.  1.
          1   -1    0    0  502    0 -0.00000000000E+00 -0.00000000000E+00 -0.37785275994E+03  0.37785275994E+03  0.00000000000E+00 0. -1.
         23    2    1    2    0    0  0.11654121086E+02  0.86452286912E+02 -0.15204119757E+03  0.19718087623E+03  0.90299256608E+02 0.  0.
        -24    2    1    2    0    0  0.24670052740E+02 -0.60488481407E+02 -0.83148399277E+02  0.13246031550E+03  0.79778512108E+02 0.  0.
         11    1    4    4    0    0 -0.26328991088E+02 -0.23096982994E+02 -0.50040952648E+02  0.61080138647E+02  0.00000000000E+00 0. -1.
        -12    1    4    4    0    0  0.50999043828E+02 -0.37391498413E+02 -0.33107446629E+02  0.71380176851E+02  0.00000000000E+00 0.  1.
        -13    1    3    3    0    0 -0.10713779500E+02  0.96009940758E+02 -0.13984942248E+03  0.16997221762E+03  0.00000000000E+00 0.  1.
         13    1    3    3    0    0  0.22367900586E+02 -0.95576538458E+01 -0.12191775087E+02  0.27208658612E+02  0.00000000000E+00 0. -1.
          2    1    1    2  501    0 -0.36324173826E+02 -0.25963805505E+02 -0.90215184624E+02  0.10065954668E+03  0.00000000000E+00 0. -1.
<scales pt_clust_5="13000.00000" pt_clust_6="13000.00000" pt_clust_7="13000.00000" pt_clust_8="13000.00000" pt_clust_9="44.64938"></scales>
<clustering>
<clus scale="   44.649">  1  9  2 -1</clus>
<clus scale="   79.779">  5  6 -1 -1</clus>
<clus scale="   90.299">  7  8 -1 -1</clus>
<clus scale="  108.994">  1  5  2 -1</clus>
<clus scale="   44.649">  1  5  2 -1</clus>
</clustering>
</event>
<event>
 9    1  0.4664604E-005  0.1718551E+03  0.7546771E-02  0.1177482E+00
         21   -1    0    0  501  502  0.00000000000E+00  0.00000000000E+00  0.19901343056E+03  0.19901343056E+03  0.00000000000E+00 0.  1.
         -2   -1    0    0    0  501 -0.00000000000E+00 -0.00000000000E+00 -0.47724960162E+03  0.47724960162E+03  0.00000000000E+00 0.  1.
        -24    2    1    2    0    0 -0.13265421722E+03  0.17974978588E+02 -0.27035893622E+03  0.31212053358E+03  0.80031443124E+02 0.  0.
         23    2    1    2    0    0  0.18336302186E+03  0.39404159677E+02 -0.11041307115E+03  0.23616849302E+03  0.91705099247E+02 0.  0.
         11    1    3    3    0    0 -0.22244259506E+02 -0.12260281623E+02 -0.92697623991E+01  0.27037937817E+02  0.00000000000E+00 0. -1.
        -12    1    3    3    0    0 -0.11040995772E+03  0.30235260211E+02 -0.26108917382E+03  0.28508259577E+03  0.00000000000E+00 0.  1.
        -11    1    4    4    0    0  0.92415442354E+02  0.61909264422E+02 -0.82232920112E+02  0.13833157325E+03  0.00000000000E+00 0.  1.
         11    1    4    4    0    0  0.90947579507E+02 -0.22505104746E+02 -0.28180151039E+02  0.97836919771E+02  0.00000000000E+00 0. -1.
         -1    1    1    2    0  502 -0.50708804636E+02 -0.57379138264E+02  0.10253583631E+03  0.12797400558E+03  0.00000000000E+00 0.  1.
<scales pt_clust_5="13000.00000" pt_clust_6="13000.00000" pt_clust_7="13000.00000" pt_clust_8="13000.00000" pt_clust_9="76.57512"></scales>
<clustering>
<clus scale="   76.575">  1  9  2 -1</clus>
<clus scale="   80.031">  5  6 -1 -1</clus>
<clus scale="   91.705">  7  8 -1 -1</clus>
<clus scale="  165.920">  2  5  1 -1</clus>
<clus scale="   76.575">  1  5  2 -1</clus>
</clustering>
</event>
<event>
 9    1  0.4664604E-005  0.1162076E+03  0.7546771E-02  0.1255013E+00
         21   -1    0    0  501  502  0.00000000000E+00  0.00000000000E+00  0.41777258140E+02  0.41777258140E+02  0.00000000000E+00 0. -1.
          3   -1    0    0  502    0 -0.00000000000E+00 -0.00000000000E+00 -0.89424308476E+03  0.89424308476E+03  0.00000000000E+00 0. -1.
         23    2    1    2    0    0 -0.87103441527E+02 -0.29897695526E+02 -0.56318272202E+03  0.57880445816E+03  0.96741618161E+02 0.  0.
        -24    2    1    2    0    0 -0.59567787540E+01  0.57735804208E+02 -0.20656994039E+03  0.22963597869E+03  0.81808533386E+02 0.  0.
         13    1    4    4    0    0 -0.34292000164E+02  0.58658862605E+02 -0.11289776097E+03  0.13176762830E+03  0.00000000000E+00 0. -1.
        -14    1    4    4    0    0  0.28335221410E+02 -0.92305839688E+00 -0.93672179422E+02  0.97868350383E+02  0.00000000000E+00 0.  1.
        -11    1    3    3    0    0  0.63430258248E+01  0.22466951906E+02 -0.60779182401E+02  0.65108424324E+02  0.00000000000E+00 0.  1.
         11    1    3    3    0    0 -0.93446467352E+02 -0.52364647432E+02 -0.50240353962E+03  0.51369603384E+03  0.00000000000E+00 0. -1.
          4    1    1    2  501    0  0.93060220281E+02 -0.27838108682E+02 -0.82713164215E+02  0.12757990605E+03  0.00000000000E+00 0. -1.
<scales pt_clust_5="13000.00000" pt_clust_6="13000.00000" pt_clust_7="13000.00000" pt_clust_8="13000.00000" pt_clust_9="97.13478"></scales>
<clustering>
<clus scale="   81.809">  5  6 -1 -1</clus>
<clus scale="   96.742">  7  8 -1 -1</clus>
<clus scale="   97.135">  1  9  2 -1</clus>
<clus scale="  104.105">  1  5  2 -1</clus>
<clus scale="   97.135">  1  5  2 -1</clus>
</clustering>
</event>
<event>
 9    1  0.4664604E-005  0.1683909E+03  0.7546771E-02  0.1181320E+00
          1   -1    0    0  502    0 -0.00000000000E+00  0.00000000000E+00  0.36548886314E+03  0.36548886314E+03  0.00000000000E+00 0. -1.
         21   -1    0    0  501  502  0.00000000000E+00 -0.00000000000E+00 -0.11616340677E+03  0.11616340677E+03  0.00000000000E+00 0. -1.
         23    2    1    2    0    0  0.17248814604E+01  0.11976317178E+03  0.68608468682E+02  0.16672391963E+03  0.93506956273E+02 0.  0.
        -24    2    1    2    0    0 -0.15302187634E+02 -0.16519599089E+03  0.75389681058E+02  0.19941936441E+03  0.80997571205E+02 0.  0.
         11    1    4    4    0    0 -0.45135577692E+02 -0.95499694188E+02  0.61857457232E+02  0.12240815732E+03  0.00000000000E+00 0. -1.
        -12    1    4    4    0    0  0.29833390058E+02 -0.69696296699E+02  0.13532223826E+02  0.77011207091E+02  0.00000000000E+00 0.  1.
        -11    1    3    3    0    0 -0.11887207224E+02  0.10063243771E+03  0.79073701355E+01  0.10164014816E+03  0.00000000000E+00 0. -1.
         11    1    3    3    0    0  0.13612088684E+02  0.19130734070E+02  0.60701098546E+02  0.65083771473E+02  0.00000000000E+00 0.  1.
          2    1    1    2  501    0  0.13577306174E+02  0.45432819104E+02  0.10532730663E+03  0.11550898587E+03  0.00000000000E+00 0. -1.
<scales pt_clust_5="13000.00000" pt_clust_6="13000.00000" pt_clust_7="13000.00000" pt_clust_8="13000.00000" pt_clust_9="47.41821"></scales>
<clustering>
<clus scale="   47.418">  2  9  1 -1</clus>
<clus scale="   80.998">  5  6 -1 -1</clus>
<clus scale="   93.507">  7  8 -1 -1</clus>
<clus scale="  161.779">  2  5  1 -1</clus>
<clus scale="   47.418">  2  5  1 -1</clus>
</clustering>
</event>
<event>
 9    1  0.4664604E-005  0.1024833E+03  0.7546771E-02  0.1277178E+00
         21   -1    0    0  501  502  0.00000000000E+00  0.00000000000E+00  0.18069162428E+03  0.18069162428E+03  0.00000000000E+00 0.  1.
         -2   -1    0    0    0  501 -0.00000000000E+00 -0.00000000000E+00 -0.40061695688E+03  0.40061695688E+03  0.00000000000E+00 0.  1.
         23    2    1    2    0    0  0.24772089856E+02 -0.31830078930E+02 -0.34510988060E+03  0.35958103593E+03  0.92579054595E+02 0.  0.
        -24    2    1    2    0    0  0.14933994379E+02 -0.28719239906E+02  0.39048804416E+02  0.10920128403E+03  0.96707250914E+02 0.  0.
         13    1    4    4    0    0  0.27441706619E+02  0.15055946452E+02  0.53027703786E+02  0.61576506515E+02  0.00000000000E+00 0. -1.
        -14    1    4    4    0    0 -0.12507712240E+02 -0.43775186358E+02 -0.13978899370E+02  0.47624777519E+02  0.00000000000E+00 0.  1.
        -11    1    3    3    0    0 -0.29109085389E+02 -0.27528135233E+02 -0.21481562337E+03  0.21851976828E+03  0.00000000000E+00 0. -1.
         11    1    3    3    0    0  0.53881175244E+02 -0.43019436974E+01 -0.13029425723E+03  0.14106126765E+03  0.00000000000E+00 0.  1.
         -1    1    1    2    0  502 -0.39706084235E+02  0.60549318836E+02  0.86135743586E+02  0.11252626120E+03  0.00000000000E+00 0.  1.
<scales pt_clust_5="13000.00000" pt_clust_6="13000.00000" pt_clust_7="13000.00000" pt_clust_8="13000.00000" pt_clust_9="72.40713"></scales>
<clustering>
<clus scale="   72.407">  1  9  2 -1</clus>
<clus scale="   92.579">  7  8 -1 -1</clus>
<clus scale="   96.707">  5  6 -1 -1</clus>
<clus scale="   98.597">  2  7  1 -1</clus>
<clus scale="   72.407">  1  5  2 -1</clus>
</clustering>
</event>
<event>
 9    1  0.4664604E-005  0.3264777E+03  0.7546771E-02  0.1104719E+00
          1   -1    0    0  502    0 -0.00000000000E+00  0.00000000000E+00  0.80632818740E+03  0.80632818740E+03  0.00000000000E+00 0. -1.
         21   -1    0    0  501  502  0.00000000000E+00 -0.00000000000E+00 -0.20049694965E+03  0.20049694965E+03  0.00000000000E+00 0. -1.
         23    2    1    2    0    0 -0.37673979427E+02 -0.98582426783E+02  0.17680874677E+03  0.22537042967E+03  0.91611538783E+02 0.  0.
        -24    2    1    2    0    0  0.33045881246E+03  0.11645048574E+03  0.23399078294E+03  0.42920537364E+03  0.81864668147E+02 0.  0.
         13    1    4    4    0    0  0.20052024413E+03  0.54309469875E+02  0.92861677045E+02  0.22755477997E+03  0.00000000000E+00 0. -1.
        -14    1    4    4    0    0  0.12993856833E+03  0.62141015869E+02  0.14112910590E+03  0.20165059367E+03  0.00000000000E+00 0.  1.
        -13    1    3    3    0    0  0.21217603126E+01 -0.96050052340E+02  0.14688820106E+03  0.17551711606E+03  0.00000000000E+00 0.  1.
         13    1    3    3    0    0 -0.39795739739E+02 -0.25323744427E+01  0.29920545717E+02  0.49853313608E+02  0.00000000000E+00 0. -1.
          2    1    1    2  501    0 -0.29278483304E+03 -0.17868058961E+02  0.19503170803E+03  0.35224933375E+03  0.00000000000E+00 0. -1.
<scales pt_clust_5="13000.00000" pt_clust_6="13000.00000" pt_clust_7="13000.00000" pt_clust_8="13000.00000" pt_clust_9="316.04721"></scales>
<clustering>
<clus scale="   81.865">  5  6 -1 -1</clus>
<clus scale="   91.612">  7  8 -1 -1</clus>
<clus scale="  139.752">  1  7  2 -1</clus>
<clus scale="  316.047">  2  9  1 -1</clus>
<clus scale="  316.047">  2  5  1 -1</clus>
</clustering>
</event>
<event>
 9    1  0.4664604E-005  0.9667834E+02  0.7546771E-02  0.1294401E+00
         21   -1    0    0  501  502  0.00000000000E+00  0.00000000000E+00  0.19185499926E+03  0.19185499926E+03  0.00000000000E+00 0.  1.
         -4   -1    0    0    0  501 -0.00000000000E+00 -0.00000000000E+00 -0.16150964587E+03  0.16150964587E+03  0.00000000000E+00 0.  1.
        -24    2    1    2    0    0  0.21516459038E+02  0.14322220225E+02 -0.10510019860E+03  0.13512795918E+03  0.80903829366E+02 0.  0.
         23    2    1    2    0    0 -0.74390725823E+01 -0.30126743905E+02  0.15879236570E+03  0.18672431554E+03  0.93209409969E+02 0.  0.
         13    1    3    3    0    0  0.49753617992E+02  0.23647798839E+02 -0.64970472217E+02  0.85181002303E+02  0.00000000000E+00 0. -1.
        -14    1    3    3    0    0 -0.28237158954E+02 -0.93255786141E+01 -0.40129726381E+02  0.49946956881E+02  0.00000000000E+00 0.  1.
        -11    1    4    4    0    0  0.24558167061E+02 -0.32383986268E+02  0.14705425969E+03  0.15256730131E+03  0.00000000000E+00 0.  1.
         11    1    4    4    0    0 -0.31997239643E+02  0.22572423626E+01  0.11738106012E+02  0.34157014223E+02  0.00000000000E+00 0. -1.
         -3    1    1    2    0  502 -0.14077386456E+02  0.15804523680E+02 -0.23346813720E+02  0.31512370413E+02  0.00000000000E+00 0.  1.
<scales pt_clust_5="13000.00000" pt_clust_6="13000.00000" pt_clust_7="13000.00000" pt_clust_8="13000.00000" pt_clust_9="21.16498"></scales>
<clustering>
<clus scale="   21.165">  1  9  2 -1</clus>
<clus scale="   80.904">  5  6 -1 -1</clus>
<clus scale="   84.877">  2  5  1 -1</clus>
<clus scale="   93.209">  7  8 -1 -1</clus>
<clus scale="   21.165">  1  5  2 -1</clus>
</clustering>
</event>
<event>
 9    1  0.4664604E-005  0.1026456E+03  0.7546771E-02  0.1279926E+00
          1   -1    0    0  502    0 -0.00000000000E+00  0.00000000000E+00  0.40973275795E+02  0.40973275795E+02  0.00000000000E+00 0. -1.
         21   -1    0    0  501  502  0.00000000000E+00 -0.00000000000E+00 -0.37963460385E+03  0.37963460385E+03  0.00000000000E+00 0.  1.
        -24    2    1    2    0    0  0.61973789009E+01 -0.42961072453E+02 -0.63230189467E+02  0.11157267965E+03  0.81032985459E+02 0.  0.
         23    2    1    2    0    0  0.16750403016E+02  0.52023458232E+02 -0.17030821463E+03  0.20105577291E+03  0.91823306656E+02 0.  0.
         13    1    3    3    0    0  0.41626326681E+02 -0.36141276279E+02 -0.44932318742E+02  0.71118606507E+02  0.00000000000E+00 0. -1.
        -14    1    3    3    0    0 -0.35428947780E+02 -0.68197961743E+01 -0.18297870724E+02  0.40454073141E+02  0.00000000000E+00 0.  1.
        -11    1    4    4    0    0 -0.33067246284E+02  0.45361294537E+02 -0.80492220201E+02  0.98133008370E+02  0.00000000000E+00 0. -1.
         11    1    4    4    0    0  0.49817649300E+02  0.66621636952E+01 -0.89815994425E+02  0.10292276454E+03  0.00000000000E+00 0.  1.
          2    1    1    2  501    0 -0.22947781917E+02 -0.90623857789E+01 -0.10512292396E+03  0.10797942709E+03  0.00000000000E+00 0. -1.
<scales pt_clust_5="13000.00000" pt_clust_6="13000.00000" pt_clust_7="13000.00000" pt_clust_8="13000.00000" pt_clust_9="24.67240"></scales>
<clustering>
<clus scale="   24.672">  2  9  1 -1</clus>
<clus scale="   81.033">  5  6 -1 -1</clus>
<clus scale="   91.823">  7  8 -1 -1</clus>
<clus scale="   93.118">  1  5  2 -1</clus>
<clus scale="   24.672">  2  5  1 -1</clus>
</clustering>
</event>
<event>
 9    1  0.4664604E-005  0.1011060E+03  0.7546771E-02  0.1284451E+00
         21   -1    0    0  501  502  0.00000000000E+00  0.00000000000E+00  0.77252626627E+03  0.77252626627E+03  0.00000000000E+00 0.  1.
          1   -1    0    0  502    0 -0.00000000000E+00 -0.00000000000E+00 -0.21018373921E+02  0.21018373921E+02  0.00000000000E+00 0. -1.
         23    2    1    2    0    0 -0.22802035764E+02 -0.33210371878E+02  0.14722286831E+03  0.17928459660E+03  0.94050688418E+02 0.  0.
        -24    2    1    2    0    0  0.26383636826E+02  0.13313800529E+02  0.53930131173E+03  0.54620429965E+03  0.81362636016E+02 0.  0.
         13    1    4    4    0    0  0.11217887626E+02 -0.30083319057E+02  0.11429384315E+03  0.11871785742E+03  0.00000000000E+00 0. -1.
        -14    1    4    4    0    0  0.15165749201E+02  0.43397119586E+02  0.42500746859E+03  0.42748644223E+03  0.00000000000E+00 0.  1.
        -13    1    3    3    0    0 -0.42757118197E+02 -0.52822080263E+02  0.71904558349E+02  0.98937398547E+02  0.00000000000E+00 0. -1.
         13    1    3    3    0    0  0.19955082433E+02  0.19611708386E+02  0.75318309958E+02  0.80347198057E+02  0.00000000000E+00 0.  1.
          2    1    1    2  501    0 -0.35816010624E+01  0.19896571349E+02  0.64983712312E+02  0.68055743941E+02  0.00000000000E+00 0. -1.
<scales pt_clust_5="13000.00000" pt_clust_6="13000.00000" pt_clust_7="13000.00000" pt_clust_8="13000.00000" pt_clust_9="20.21637"></scales>
<clustering>
<clus scale="   20.216">  1  9  2 -1</clus>
<clus scale="   81.363">  5  6 -1 -1</clus>
<clus scale="   89.425">  1  5  2 -1</clus>
<clus scale="   94.051">  7  8 -1 -1</clus>
<clus scale="   20.216">  1  5  2 -1</clus>
</clustering>
</event>
<event>
 9    1  0.4664604E-005  0.9357802E+02  0.7546771E-02  0.1300109E+00
          3   -1    0    0  502    0 -0.00000000000E+00  0.00000000000E+00  0.15645649453E+03  0.15645649453E+03  0.00000000000E+00 0. -1.
         21   -1    0    0  501  502  0.00000000000E+00 -0.00000000000E+00 -0.18258981531E+03  0.18258981531E+03  0.00000000000E+00 0.  1.
         23    2    1    2    0    0 -0.95617375065E+00  0.20540301378E+02  0.12088258851E+03  0.15252991825E+03  0.90719113236E+02 0.  0.
        -24    2    1    2    0    0 -0.34815739245E+01 -0.43051571281E+02 -0.11610301531E+03  0.14801888659E+03  0.81019266071E+02 0.  0.
         11    1    4    4    0    0  0.27476863035E+02 -0.24277199042E+01 -0.84257660189E+01  0.28842076194E+02  0.00000000000E+00 0. -1.
        -12    1    4    4    0    0 -0.30958436959E+02 -0.40623851377E+02 -0.10767724930E+03  0.11917681039E+03  0.00000000000E+00 0.  1.
        -11    1    3    3    0    0  0.99281636624E+01 -0.34599950878E+02  0.37564449057E+02  0.52027039772E+02  0.00000000000E+00 0.  1.
         11    1    3    3    0    0 -0.10884337413E+02  0.55140252256E+02  0.83318139457E+02  0.10050287848E+03  0.00000000000E+00 0. -1.
          4    1    1    2  501    0  0.44377476751E+01  0.22511269903E+02 -0.30912893984E+02  0.38497505004E+02  0.00000000000E+00 0. -1.
<scales pt_clust_5="13000.00000" pt_clust_6="13000.00000" pt_clust_7="13000.00000" pt_clust_8="13000.00000" pt_clust_9="22.94452"></scales>
<clustering>
<clus scale="   22.945">  2  9  1 -1</clus>
<clus scale="   81.019">  5  6 -1 -1</clus>
<clus scale="   84.208">  2  5  1 -1</clus>
<clus scale="   90.719">  7  8 -1 -1</clus>
<clus scale="   22.945">  2  5  1 -1</clus>
</clustering>
</event>
<event>
 9    1  0.4664604E-005  0.1075065E+03  0.7546771E-02  0.1269381E+00
         21   -1    0    0  501  502  0.00000000000E+00  0.00000000000E+00  0.20298291040E+03  0.20298291040E+03  0.00000000000E+00 0.  1.
          1   -1    0    0  502    0 -0.00000000000E+00 -0.00000000000E+00 -0.16819932100E+03  0.16819932100E+03  0.00000000000E+00 0. -1.
        -24    2    1    2    0    0  0.55676289298E+02  0.76137233972E+01 -0.12726422118E+03  0.16127842461E+03  0.81588787688E+02 0.  0.
         23    2    1    2    0    0 -0.61180181559E+02  0.14161827914E+02  0.13414340903E+03  0.17408309922E+03  0.91470756317E+02 0.  0.
         13    1    3    3    0    0  0.57215844242E+02  0.20476103141E+02 -0.13366386456E+03  0.14682967112E+03  0.00000000000E+00 0. -1.
        -14    1    3    3    0    0 -0.15395549444E+01 -0.12862379744E+02  0.63996433732E+01  0.14448753490E+02  0.00000000000E+00 0.  1.
        -11    1    4    4    0    0 -0.82922183845E+02  0.33397485776E+01  0.12023870464E+03  0.14609787332E+03  0.00000000000E+00 0.  1.
         11    1    4    4    0    0  0.21742002286E+02  0.10822079337E+02  0.13904704394E+02  0.27985225903E+02  0.00000000000E+00 0. -1.
          2    1    1    2  501    0  0.55038922616E+01 -0.21775551312E+02  0.27904401556E+02  0.35820707575E+02  0.00000000000E+00 0. -1.
<scales pt_clust_5="13000.00000" pt_clust_6="13000.00000" pt_clust_7="13000.00000" pt_clust_8="13000.00000" pt_clust_9="22.46035"></scales>
<clustering>
<clus scale="   22.460">  1  9  2 -1</clus>
<clus scale="   81.589">  5  6 -1 -1</clus>
<clus scale="   91.471">  7  8 -1 -1</clus>
<clus scale="   99.235">  2  5  1 -1</clus>
<clus scale="   22.460">  1  5  2 -1</clus>
</clustering>
</event>
<event>
 9    1  0.4664604E-005  0.1047269E+03  0.7546771E-02  0.1275523E+00
         -4   -1    0    0    0  501 -0.00000000000E+00  0.00000000000E+00  0.29168579264E+03  0.29168579264E+03  0.00000000000E+00 0.  1.
         21   -1    0    0  501  502  0.00000000000E+00 -0.00000000000E+00 -0.50633189646E+02  0.50633189646E+02  0.00000000000E+00 0. -1.
         23    2    1    2    0    0  0.25812605565E+02 -0.48699101787E+02  0.16861970728E+03  0.19966528464E+03  0.91628200285E+02 0.  0.
        -24    2    1    2    0    0 -0.45390552892E+01  0.46463814793E+02  0.76785484869E+02  0.12082469213E+03  0.80765750380E+02 0.  0.
         13    1    4    4    0    0  0.20358652946E+02  0.34830895728E+02  0.11602150716E+01  0.40361022609E+02  0.00000000000E+00 0. -1.
        -14    1    4    4    0    0 -0.24897708236E+02  0.11632919065E+02  0.75625269797E+02  0.80463669524E+02  0.00000000000E+00 0.  1.
        -13    1    3    3    0    0 -0.20179568086E+02 -0.50061411145E+02  0.12546335837E+03  0.13658116323E+03  0.00000000000E+00 0.  1.
         13    1    3    3    0    0  0.45992173651E+02  0.13623093577E+01  0.43156348905E+02  0.63084121416E+02  0.00000000000E+00 0. -1.
         -3    1    1    2    0  502 -0.21273550276E+02  0.22352869947E+01 -0.43525891538E+01  0.21829005512E+02  0.00000000000E+00 0.  1.
<scales pt_clust_5="13000.00000" pt_clust_6="13000.00000" pt_clust_7="13000.00000" pt_clust_8="13000.00000" pt_clust_9="21.39066"></scales>
<clustering>
<clus scale="   21.391">  2  9  1 -1</clus>
<clus scale="   80.766">  5  6 -1 -1</clus>
<clus scale="   91.628">  7  8 -1 -1</clus>
<clus scale="   95.368">  2  5  1 -1</clus>
<clus scale="   21.391">  2  5  1 -1</clus>
</clustering>
</event>
<event>
 9    1  0.4664604E-005  0.2012974E+03  0.7546771E-02  0.1149454E+00
          1   -1    0    0  502    0 -0.00000000000E+00  0.00000000000E+00  0.23551245058E+03  0.23551245058E+03  0.00000000000E+00 0. -1.
         21   -1    0    0  501  502  0.00000000000E+00 -0.00000000000E+00 -0.91512223255E+03  0.91512223255E+03  0.00000000000E+00 0. -1.
         23    2    1    2    0    0 -0.14286505072E+03  0.82984580395E+02  0.11742589618E+03  0.22232973337E+03  0.91349909380E+02 0.  0.
        -24    2    1    2    0    0  0.21728378398E+03 -0.16833285257E+03 -0.28712660828E+03  0.40597389100E+03  0.82613067715E+02 0.  0.
         13    1    4    4    0    0  0.11297107356E+03 -0.13540409512E+03 -0.15830077260E+03  0.23697229171E+03  0.00000000000E+00 0. -1.
        -14    1    4    4    0    0  0.10431271042E+03 -0.32928757459E+02 -0.12882583568E+03  0.16900159929E+03  0.00000000000E+00 0.  1.
        -13    1    3    3    0    0 -0.13542321504E+03  0.34917521219E+02  0.92500802598E+02  0.16767551682E+03  0.00000000000E+00 0. -1.
         13    1    3    3    0    0 -0.74418356833E+01  0.48067059176E+02  0.24925093580E+02  0.54654216545E+02  0.00000000000E+00 0.  1.
          2    1    1    2  501    0 -0.74418733254E+02  0.85348272178E+02 -0.50990906987E+03  0.52233105877E+03  0.00000000000E+00 0. -1.
<scales pt_clust_5="13000.00000" pt_clust_6="13000.00000" pt_clust_7="13000.00000" pt_clust_8="13000.00000" pt_clust_9="113.23637"></scales>
<clustering>
<clus scale="   82.613">  5  6 -1 -1</clus>
<clus scale="   91.350">  7  8 -1 -1</clus>
<clus scale="  113.236">  2  9  1 -1</clus>
<clus scale="  197.486">  2  5  1 -1</clus>
<clus scale="  113.236">  2  5  1 -1</clus>
</clustering>
</event>
<event>
 9    1  0.4664604E-005  0.9247222E+02  0.7546771E-02  0.1303738E+00
         -4   -1    0    0    0  501 -0.00000000000E+00  0.00000000000E+00  0.20531401305E+03  0.20531401305E+03  0.00000000000E+00 0.  1.
         21   -1    0    0  501  502  0.00000000000E+00 -0.00000000000E+00 -0.76799539241E+02  0.76799539241E+02  0.00000000000E+00 0. -1.
        -24    2    1    2    0    0 -0.16062223210E+02 -0.27002060300E+01  0.13205424502E+03  0.15561423442E+03  0.80698080517E+02 0.  0.
         23    2    1    2    0    0 -0.62854790939E+01 -0.97535344812E+01 -0.21986959738E+02  0.94958642301E+02  0.91646487476E+02 0.  0.
         11    1    3    3    0    0  0.31504230304E+02 -0.77892158411E+01  0.37104515378E+02  0.49294355376E+02  0.00000000000E+00 0. -1.
        -12    1    3    3    0    0 -0.47566453514E+02  0.50890098111E+01  0.94949729643E+02  0.10631987904E+03  0.00000000000E+00 0.  1.
        -11    1    4    4    0    0 -0.29734376621E+02 -0.39895786183E+02  0.21106686758E+01  0.49802227163E+02  0.00000000000E+00 0.  1.
         11    1    4    4    0    0  0.23448897527E+02  0.30142251702E+02 -0.24097628414E+02  0.45156415137E+02  0.00000000000E+00 0. -1.
         -3    1    1    2    0  502  0.22347702304E+02  0.12453740511E+02  0.18447188531E+02  0.31540675574E+02  0.00000000000E+00 0.  1.
<scales pt_clust_5="13000.00000" pt_clust_6="13000.00000" pt_clust_7="13000.00000" pt_clust_8="13000.00000" pt_clust_9="25.58351"></scales>
<clustering>
<clus scale="   25.584">  2  9  1 -1</clus>
<clus scale="   80.698">  5  6 -1 -1</clus>
<clus scale="   81.635">  1  5  2 -1</clus>
<clus scale="   91.646">  7  8 -1 -1</clus>
<clus scale="   25.584">  2  5  1 -1</clus>
</clustering>
</event>
<event>
 9    1  0.4664604E-005  0.9993411E+02  0.7546771E-02  0.1284322E+00
         21   -1    0    0  501  502  0.00000000000E+00  0.00000000000E+00  0.20210330554E+03  0.20210330554E+03  0.00000000000E+00 0.  1.
          3   -1    0    0  502    0 -0.00000000000E+00 -0.00000000000E+00 -0.10124333308E+03  0.10124333308E+03  0.00000000000E+00 0. -1.
        -24    2    1    2    0    0  0.29067219563E+02 -0.26546512657E+02 -0.29618799009E+02  0.95198426680E+02  0.81460705866E+02 0.  0.
         23    2    1    2    0    0 -0.69843832253E+02  0.19114690384E+02  0.11805267595E+03  0.16487729821E+03  0.89468189173E+02 0.  0.
         13    1    3    3    0    0  0.34185977818E+02 -0.28207509899E+02 -0.54211915697E+02  0.70023399643E+02  0.00000000000E+00 0. -1.
        -14    1    3    3    0    0 -0.51187582548E+01  0.16609972419E+01  0.24593116687E+02  0.25175027037E+02  0.00000000000E+00 0.  1.
        -13    1    4    4    0    0 -0.16082986338E+01 -0.25798017614E+02  0.57969175086E+02  0.63470856285E+02  0.00000000000E+00 0. -1.
         13    1    4    4    0    0 -0.68235533620E+02  0.44912707998E+02  0.60083500867E+02  0.10140644193E+03  0.00000000000E+00 0.  1.
          4    1    1    2  501    0  0.40776612690E+02  0.74318222734E+01  0.12426095516E+02  0.43270913724E+02  0.00000000000E+00 0. -1.
<scales pt_clust_5="13000.00000" pt_clust_6="13000.00000" pt_clust_7="13000.00000" pt_clust_8="13000.00000" pt_clust_9="41.44835"></scales>
<clustering>
<clus scale="   41.448">  1  9  2 -1</clus>
<clus scale="   81.461">  5  6 -1 -1</clus>
<clus scale="   89.468">  7  8 -1 -1</clus>
<clus scale="   92.834">  2  5  1 -1</clus>
<clus scale="   41.448">  1  5  2 -1</clus>
</clustering>
</event>
<event>
 9    1  0.4664604E-005  0.2892914E+03  0.7546771E-02  0.1090720E+00
         21   -1    0    0  501  502  0.00000000000E+00  0.00000000000E+00  0.69812543799E+03  0.69812543799E+03  0.00000000000E+00 0.  1.
         -2   -1    0    0    0  501 -0.00000000000E+00 -0.00000000000E+00 -0.18011670117E+03  0.18011670117E+03  0.00000000000E+00 0.  1.
        -24    2    1    2    0    0 -0.56099562417E+02  0.52648974555E+00 -0.37890751113E+01  0.98054484244E+02  0.80329861790E+02 0.  0.
         23    2    1    2    0    0 -0.13976996275E+03  0.93517457429E+02 -0.24159221063E+02  0.19258386257E+03  0.90684722137E+02 0.  0.
         13    1    3    3    0    0  0.86743715845E+01  0.26730353124E+02 -0.15415105457E+01  0.28144853087E+02  0.00000000000E+00 0. -1.
        -14    1    3    3    0    0 -0.64773934002E+02 -0.26203863378E+02 -0.22475645656E+01  0.69909631157E+02  0.00000000000E+00 0.  1.
        -11    1    4    4    0    0 -0.11987665144E+03  0.65443304787E+02 -0.54169727705E+02  0.14692718299E+03  0.00000000000E+00 0.  1.
         11    1    4    4    0    0 -0.19893311313E+02  0.28074152643E+02  0.30010506642E+02  0.45656679582E+02  0.00000000000E+00 0. -1.
         -1    1    1    2    0  502  0.19586952517E+03 -0.94043947175E+02  0.54595703300E+03  0.58760379234E+03  0.00000000000E+00 0.  1.
<scales pt_clust_5="13000.00000" pt_clust_6="13000.00000" pt_clust_7="13000.00000" pt_clust_8="13000.00000" pt_clust_9="217.27663"></scales>
<clustering>
<clus scale="   80.330">  5  6 -1 -1</clus>
<clus scale="   90.685">  7  8 -1 -1</clus>
<clus scale="   97.013">  5  7 -1 -1</clus>
<clus scale="  217.277">  1  9  2 -1</clus>
<clus scale="  217.277">  1  5  2 -1</clus>
</clustering>
</event>
<event>
 9    1  0.4664604E-005  0.1074284E+03  0.7546771E-02  0.1269160E+00
         21   -1    0    0  501  502  0.00000000000E+00  0.00000000000E+00  0.19412302877E+03  0.19412302877E+03  0.00000000000E+00 0.  1.
          1   -1    0    0  502    0 -0.00000000000E+00 -0.00000000000E+00 -0.17075521078E+03  0.17075521078E+03  0.00000000000E+00 0. -1.
         23    2    1    2    0    0  0.11588549794E+02 -0.62579407784E+02 -0.10015408370E+03  0.14877170115E+03  0.89731275579E+02 0.  0.
        -24    2    1    2    0    0  0.12981500995E+02  0.31759234932E+02  0.14636825639E+03  0.17054859317E+03  0.80535630512E+02 0.  0.
         13    1    4    4    0    0  0.81473057831E+01  0.20623522457E+02 -0.14601921749E+01  0.22222520813E+02  0.00000000000E+00 0. -1.
        -14    1    4    4    0    0  0.48341952124E+01  0.11135712474E+02  0.14782844857E+03  0.14832607236E+03  0.00000000000E+00 0.  1.
        -11    1    3    3    0    0 -0.35509066025E+02 -0.47455783007E+02 -0.65729169151E+02  0.88505755678E+02  0.00000000000E+00 0.  1.
         11    1    3    3    0    0  0.47097615818E+02 -0.15123624777E+02 -0.34424914546E+02  0.60265945472E+02  0.00000000000E+00 0. -1.
          2    1    1    2  501    0 -0.24570050789E+02  0.30820172852E+02 -0.22846354708E+02  0.45557945233E+02  0.00000000000E+00 0. -1.
<scales pt_clust_5="13000.00000" pt_clust_6="13000.00000" pt_clust_7="13000.00000" pt_clust_8="13000.00000" pt_clust_9="39.41538"></scales>
<clustering>
<clus scale="   39.415">  1  9  2 -1</clus>
<clus scale="   80.536">  5  6 -1 -1</clus>
<clus scale="   89.731">  7  8 -1 -1</clus>
<clus scale="   99.876">  1  5  2 -1</clus>
<clus scale="   39.415">  1  5  2 -1</clus>
</clustering>
</event>
<event>
 9    1  0.4664604E-005  0.9516952E+02  0.7546771E-02  0.1298696E+00
          1   -1    0    0  502    0 -0.00000000000E+00  0.00000000000E+00  0.18484641021E+03  0.18484641021E+03  0.00000000000E+00 0. -1.
         21   -1    0    0  501  502  0.00000000000E+00 -0.00000000000E+00 -0.35080916036E+03  0.35080916036E+03  0.00000000000E+00 0. -1.
         23    2    1    2    0    0  0.17373859300E+02 -0.15367842960E+02  0.13916815428E+03  0.16858721516E+03  0.92281376043E+02 0.  0.
        -24    2    1    2    0    0  0.22000186283E+02  0.47356904668E+02 -0.50002879976E+02  0.10694545292E+03  0.78805820083E+02 0.  0.
         13    1    4    4    0    0  0.46919053046E+02  0.37644645189E+02 -0.13426677822E+02  0.61634345356E+02  0.00000000000E+00 0. -1.
        -14    1    4    4    0    0 -0.24918866764E+02  0.97122594793E+01 -0.36576202154E+02  0.45311107567E+02  0.00000000000E+00 0.  1.
        -13    1    3    3    0    0  0.25840094417E+02 -0.44038452350E+02  0.39565581586E+02  0.64595131481E+02  0.00000000000E+00 0.  1.
         13    1    3    3    0    0 -0.84662351176E+01  0.28670609389E+02  0.99602572698E+02  0.10399208368E+03  0.00000000000E+00 0. -1.
          2    1    1    2  501    0 -0.39374045582E+02 -0.31989061708E+02 -0.25512802446E+03  0.26012290249E+03  0.00000000000E+00 0. -1.
<scales pt_clust_5="13000.00000" pt_clust_6="13000.00000" pt_clust_7="13000.00000" pt_clust_8="13000.00000" pt_clust_9="50.73081"></scales>
<clustering>
<clus scale="   50.731">  2  9  1 -1</clus>
<clus scale="   78.806">  5  6 -1 -1</clus>
<clus scale="   82.169">  2  5  1 -1</clus>
<clus scale="   92.281">  7  8 -1 -1</clus>
<clus scale="   50.731">  2  5  1 -1</clus>
</clustering>
</event>
<event>
 9    1  0.4664604E-005  0.1954546E+03  0.7546771E-02  0.1154671E+00
         21   -1    0    0  501  502  0.00000000000E+00  0.00000000000E+00  0.56503255854E+03  0.56503255854E+03  0.00000000000E+00 0. -1.
         -4   -1    0    0    0  501 -0.00000000000E+00 -0.00000000000E+00 -0.12102981656E+03  0.12102981656E+03  0.00000000000E+00 0.  1.
        -24    2    1    2    0    0  0.13687307078E+03  0.11227862285E+03 -0.39542003017E+01  0.19448992609E+03  0.80436117477E+02 0.  0.
         23    2    1    2    0    0 -0.12260044290E+03 -0.94686729492E+02  0.40209732611E+03  0.44042279590E+03  0.91068842876E+02 0.  0.
         11    1    3    3    0    0  0.14097563511E+03  0.81649256018E+02 -0.90740962104E+01  0.16316577437E+03  0.00000000000E+00 0. -1.
        -12    1    3    3    0    0 -0.41025643299E+01  0.30629366835E+02  0.51198959087E+01  0.31324151719E+02  0.00000000000E+00 0.  1.
        -11    1    4    4    0    0 -0.40570054447E+02 -0.77039107114E+02  0.13666531372E+03  0.16204431899E+03  0.00000000000E+00 0.  1.
         11    1    4    4    0    0 -0.82030388454E+02 -0.17647622378E+02  0.26543201239E+03  0.27837847691E+03  0.00000000000E+00 0. -1.
         -3    1    1    2    0  502 -0.14272627881E+02 -0.17591893360E+02  0.45859616163E+02  0.51149653110E+02  0.00000000000E+00 0.  1.
<scales pt_clust_5="13000.00000" pt_clust_6="13000.00000" pt_clust_7="13000.00000" pt_clust_8="13000.00000" pt_clust_9="22.65353"></scales>
<clustering>
<clus scale="   22.654">  1  9  2 -1</clus>
<clus scale="   80.436">  5  6 -1 -1</clus>
<clus scale="   91.069">  7  8 -1 -1</clus>
<clus scale="  190.733">  2  5  1 -1</clus>
<clus scale="   22.654">  1  5  2 -1</clus>
</clustering>
</event>
<event>
 9    1  0.4664604E-005  0.2109652E+03  0.7546771E-02  0.1153872E+00
         21   -1    0    0  501  502  0.00000000000E+00  0.00000000000E+00  0.84519642531E+02  0.84519642531E+02  0.00000000000E+00 0. -1.
          1   -1    0    0  502    0 -0.00000000000E+00 -0.00000000000E+00 -0.16832515428E+04  0.16832515428E+04  0.00000000000E+00 0. -1.
         23    2    1    2    0    0 -0.18562474220E+01  0.12431893153E+03 -0.11269126150E+03  0.19127830920E+03  0.91811920584E+02 0.  0.
        -24    2    1    2    0    0 -0.19091516636E+03 -0.13151557724E+03 -0.12387329546E+04  0.12628470562E+04  0.81107378742E+02 0.  0.
         11    1    4    4    0    0 -0.11870340408E+03 -0.11353837384E+03 -0.97817020767E+03  0.99186612788E+03  0.00000000000E+00 0. -1.
        -12    1    4    4    0    0 -0.72211762280E+02 -0.17977203395E+02 -0.26056274691E+03  0.27098092835E+03  0.00000000000E+00 0.  1.
        -13    1    3    3    0    0 -0.25819676426E+02  0.86250100398E+00 -0.34832648150E+02  0.43367187779E+02  0.00000000000E+00 0. -1.
         13    1    3    3    0    0  0.23963429004E+02  0.12345643052E+03 -0.77858613351E+02  0.14791112142E+03  0.00000000000E+00 0.  1.
          2    1    1    2  501    0  0.19277141378E+03  0.71966457116E+01 -0.24730768419E+03  0.31364581990E+03  0.00000000000E+00 0. -1.
<scales pt_clust_5="13000.00000" pt_clust_6="13000.00000" pt_clust_7="13000.00000" pt_clust_8="13000.00000" pt_clust_9="194.75090"></scales>
<clustering>
<clus scale="   81.107">  5  6 -1 -1</clus>
<clus scale="   91.812">  7  8 -1 -1</clus>
<clus scale="  154.558">  2  7  1 -1</clus>
<clus scale="  194.751">  1  9  2 -1</clus>
<clus scale="  194.751">  1  5  2 -1</clus>
</clustering>
</event>
<event>
 9    1  0.4664604E-005  0.2069561E+03  0.7546771E-02  0.1154972E+00
         21   -1    0    0  501  502  0.00000000000E+00  0.00000000000E+00  0.36802022062E+03  0.36802022062E+03  0.00000000000E+00 0. -1.
          1   -1    0    0  502    0 -0.00000000000E+00 -0.00000000000E+00 -0.31927494938E+03  0.31927494938E+03  0.00000000000E+00 0. -1.
        -24    2    1    2    0    0  0.76707701256E+02  0.11450832154E+03  0.11415262322E+03  0.19617058206E+03  0.80348296448E+02 0.  0.
         23    2    1    2    0    0 -0.41501090743E+02 -0.27519305991E+03 -0.12190151660E+03  0.31719735833E+03  0.91107758302E+02 0.  0.
         11    1    3    3    0    0  0.88182517647E+02  0.68215559605E+02  0.85847656507E+02  0.14071012444E+03  0.00000000000E+00 0. -1.
        -12    1    3    3    0    0 -0.11474816391E+02  0.46292761939E+02  0.28304966715E+02  0.55460457624E+02  0.00000000000E+00 0.  1.
        -13    1    4    4    0    0  0.27522193468E+02 -0.76905704792E+02 -0.21473925342E+02  0.84457610862E+02  0.00000000000E+00 0.  1.
         13    1    4    4    0    0 -0.69023284211E+02 -0.19828735512E+03 -0.10042759125E+03  0.23273974746E+03  0.00000000000E+00 0. -1.
          2    1    1    2  501    0 -0.35206610513E+02  0.16068473837E+03  0.56494164613E+02  0.17392722962E+03  0.00000000000E+00 0. -1.
<scales pt_clust_5="13000.00000" pt_clust_6="13000.00000" pt_clust_7="13000.00000" pt_clust_8="13000.00000" pt_clust_9="185.82301"></scales>
<clustering>
<clus scale="   80.348">  5  6 -1 -1</clus>
<clus scale="   91.108">  7  8 -1 -1</clus>
<clus scale="  159.537">  2  5  1 -1</clus>
<clus scale="  185.823">  1  9  2 -1</clus>
<clus scale="  185.823">  1  5  2 -1</clus>
</clustering>
</event>
<event>
 9    1  0.4664604E-005  0.2043972E+03  0.7546771E-02  0.1161573E+00
          1   -1    0    0  502    0 -0.00000000000E+00  0.00000000000E+00  0.58213005964E+03  0.58213005964E+03  0.00000000000E+00 0. -1.
         21   -1    0    0  501  502  0.00000000000E+00 -0.00000000000E+00 -0.17330826145E+03  0.17330826145E+03  0.00000000000E+00 0.  1.
         23    2    1    2    0    0 -0.49259941820E+02  0.95003463259E+02 -0.40903043979E+02  0.14772308585E+03  0.93256909593E+02 0.  0.
        -24    2    1    2    0    0 -0.14346020396E+03  0.42541042802E+02  0.21880905521E+03  0.27698627308E+03  0.80333196086E+02 0.  0.
         13    1    4    4    0    0 -0.57507696945E+02 -0.78043326652E+01  0.34591781867E+02  0.67562076560E+02  0.00000000000E+00 0. -1.
        -14    1    4    4    0    0 -0.85952507014E+02  0.50345375467E+02  0.18421727334E+03  0.20942419652E+03  0.00000000000E+00 0.  1.
        -11    1    3    3    0    0 -0.31009653957E+02  0.11053480810E+03 -0.45193740343E+02  0.12337753688E+03  0.00000000000E+00 0.  1.
         11    1    3    3    0    0 -0.18250287863E+02 -0.15531344837E+02  0.42906963646E+01  0.24345548974E+02  0.00000000000E+00 0. -1.
          2    1    1    2  501    0  0.19272014578E+03 -0.13754450606E+03  0.23091578696E+03  0.33072896215E+03  0.00000000000E+00 0. -1.
<scales pt_clust_5="13000.00000" pt_clust_6="13000.00000" pt_clust_7="13000.00000" pt_clust_8="13000.00000" pt_clust_9="187.94898"></scales>
<clustering>
<clus scale="   80.333">  5  6 -1 -1</clus>
<clus scale="   93.257">  7  8 -1 -1</clus>
<clus scale="  141.947">  1  7  2 -1</clus>
<clus scale="  187.949">  2  9  1 -1</clus>
<clus scale="  187.949">  2  5  1 -1</clus>
</clustering>
</event>
<event>
 9    1  0.4664604E-005  0.1662472E+03  0.7546771E-02  0.1184112E+00
          1   -1    0    0  502    0 -0.00000000000E+00  0.00000000000E+00  0.60731326307E+03  0.60731326307E+03  0.00000000000E+00 0. -1.
         21   -1    0    0  501  502  0.00000000000E+00 -0.00000000000E+00 -0.10776366000E+03  0.10776366000E+03  0.00000000000E+00 0. -1.
        -24    2    1    2    0    0  0.14883059227E+03 -0.45430859542E+02  0.47335010892E+03  0.50465976514E+03  0.80041518884E+02 0.  0.
         23    2    1    2    0    0 -0.65315749051E+02  0.43136248842E+02  0.29230997234E+02  0.12681581651E+03  0.95398726817E+02 0.  0.
         13    1    3    3    0    0  0.12677260230E+03 -0.44851260966E+02  0.45910971307E+03  0.47839801101E+03  0.00000000000E+00 0. -1.
        -14    1    3    3    0    0  0.22057989975E+02 -0.57959857665E+00  0.14240395853E+02  0.26261754136E+02  0.00000000000E+00 0.  1.
        -13    1    4    4    0    0 -0.17467776021E+02  0.23804625904E+02 -0.34109840793E+02  0.45113907528E+02  0.00000000000E+00 0. -1.
         13    1    4    4    0    0 -0.47847973030E+02  0.19331622939E+02  0.63340838027E+02  0.81701908977E+02  0.00000000000E+00 0.  1.
          2    1    1    2  501    0 -0.83514843222E+02  0.22946106998E+01 -0.30315030760E+01  0.83601341422E+02  0.00000000000E+00 0. -1.
<scales pt_clust_5="13000.00000" pt_clust_6="13000.00000" pt_clust_7="13000.00000" pt_clust_8="13000.00000" pt_clust_9="83.54636"></scales>
<clustering>
<clus scale="   80.042">  5  6 -1 -1</clus>
<clus scale="   83.546">  2  9  1 -1</clus>
<clus scale="   95.399">  7  8 -1 -1</clus>
<clus scale="  157.936">  1  5  2 -1</clus>
<clus scale="   83.546">  2  5  1 -1</clus>
</clustering>
</event>
<event>
 9    1  0.4664604E-005  0.1081879E+03  0.7546771E-02  0.1267205E+00
         21   -1    0    0  501  502  0.00000000000E+00  0.00000000000E+00  0.15752535380E+03  0.15752535380E+03  0.00000000000E+00 0. -1.
         -4   -1    0    0    0  501 -0.00000000000E+00 -0.00000000000E+00 -0.14554779979E+03  0.14554779979E+03  0.00000000000E+00 0.  1.
         23    2    1    2    0    0  0.23493965315E+01  0.51653013633E+02 -0.24102660113E+02  0.10553838312E+03  0.88791095308E+02 0.  0.
        -24    2    1    2    0    0 -0.33604811534E+02 -0.84568743040E+02  0.70542648282E+02  0.14054349414E+03  0.80591890781E+02 0.  0.
         11    1    4    4    0    0 -0.36865926158E+02 -0.77573629985E+02  0.87070116588E+02  0.12230277913E+03  0.00000000000E+00 0. -1.
        -12    1    4    4    0    0  0.32611146241E+01 -0.69951130548E+01 -0.16527468306E+02  0.18240715004E+02  0.00000000000E+00 0.  1.
        -11    1    3    3    0    0 -0.25625802104E+02 -0.13452808702E+02  0.41768250130E+01  0.29242189772E+02  0.00000000000E+00 0.  1.
         11    1    3    3    0    0  0.27975198636E+02  0.65105822336E+02 -0.28279485126E+02  0.76296193350E+02  0.00000000000E+00 0. -1.
         -3    1    1    2    0  502  0.31255415003E+02  0.32915729406E+02 -0.34462434161E+02  0.56991276329E+02  0.00000000000E+00 0.  1.
<scales pt_clust_5="13000.00000" pt_clust_6="13000.00000" pt_clust_7="13000.00000" pt_clust_8="13000.00000" pt_clust_9="45.39106"></scales>
<clustering>
<clus scale="   45.391">  1  9  2 -1</clus>
<clus scale="   80.592">  5  6 -1 -1</clus>
<clus scale="   88.791">  7  8 -1 -1</clus>
<clus scale="  101.567">  1  5  2 -1</clus>
<clus scale="   45.391">  1  5  2 -1</clus>
</clustering>
</event>
<event>
 9    1  0.4664604E-005  0.9104402E+02  0.7546771E-02  0.1302770E+00
          1   -1    0    0  502    0 -0.00000000000E+00  0.00000000000E+00  0.34273289281E+03  0.34273289281E+03  0.00000000000E+00 0. -1.
         21   -1    0    0  501  502  0.00000000000E+00 -0.00000000000E+00 -0.43843461932E+02  0.43843461932E+02  0.00000000000E+00 0. -1.
         23    2    1    2    0    0 -0.38717588241E+02  0.34142200322E+02  0.11951153336E+03  0.15578580019E+03  0.85565573988E+02 0.  0.
        -24    2    1    2    0    0 -0.14738512054E+02 -0.22716323783E+02  0.79366076725E+02  0.11681481322E+03  0.81323252209E+02 0.  0.
         11    1    4    4    0    0 -0.31518142552E+02 -0.34499161927E+02  0.14715919815E+02  0.48991262278E+02  0.00000000000E+00 0. -1.
        -12    1    4    4    0    0  0.16779630498E+02  0.11782838144E+02  0.64650156909E+02  0.67823550945E+02  0.00000000000E+00 0.  1.
        -13    1    3    3    0    0 -0.17316508492E+02 -0.25389524089E+02  0.66467512909E+02  0.73228544108E+02  0.00000000000E+00 0.  1.
         13    1    3    3    0    0 -0.21401079749E+02  0.59531724411E+02  0.53044020450E+02  0.82557256079E+02  0.00000000000E+00 0. -1.
          2    1    1    2  501    0  0.53456100295E+02 -0.11425876539E+02  0.10001182079E+03  0.11397574133E+03  0.00000000000E+00 0. -1.
<scales pt_clust_5="13000.00000" pt_clust_6="13000.00000" pt_clust_7="13000.00000" pt_clust_8="13000.00000" pt_clust_9="54.66359"></scales>
<clustering>
<clus scale="   54.664">  2  9  1 -1</clus>
<clus scale="   81.323">  5  6 -1 -1</clus>
<clus scale="   85.566">  7  8 -1 -1</clus>
<clus scale="   87.069">  2  5  1 -1</clus>
<clus scale="   54.664">  2  5  1 -1</clus>
</clustering>
</event>
<event>
 9    1  0.4664604E-005  0.1673866E+03  0.7546771E-02  0.1182335E+00
          1   -1    0    0  502    0 -0.00000000000E+00  0.00000000000E+00  0.35283057624E+03  0.35283057624E+03  0.00000000000E+00 0. -1.
         21   -1    0    0  501  502  0.00000000000E+00 -0.00000000000E+00 -0.10427191897E+03  0.10427191897E+03  0.00000000000E+00 0. -1.
        -24    2    1    2    0    0 -0.10852770517E+03 -0.61826852117E+02  0.94688813551E+02  0.17603082723E+03  0.80125266239E+02 0.  0.
         23    2    1    2    0    0  0.13205582446E+03  0.92343800850E+02  0.89704680742E+02  0.20622499340E+03  0.92280549542E+02 0.  0.
         13    1    3    3    0    0 -0.97273993878E+02 -0.78921321424E+02  0.68421470845E+02  0.14273157511E+03  0.00000000000E+00 0. -1.
        -14    1    3    3    0    0 -0.11253711293E+02  0.17094469308E+02  0.26267342705E+02  0.33299252118E+02  0.00000000000E+00 0.  1.
        -13    1    4    4    0    0  0.10642086766E+03  0.67361177497E+02  0.10810211101E+03  0.16597890140E+03  0.00000000000E+00 0. -1.
         13    1    4    4    0    0  0.25634956807E+02  0.24982623353E+02 -0.18397430268E+02  0.40246091991E+02  0.00000000000E+00 0.  1.
          2    1    1    2  501    0 -0.23528119292E+02 -0.30516948733E+02  0.64165162973E+02  0.74846674588E+02  0.00000000000E+00 0. -1.
<scales pt_clust_5="13000.00000" pt_clust_6="13000.00000" pt_clust_7="13000.00000" pt_clust_8="13000.00000" pt_clust_9="38.53386"></scales>
<clustering>
<clus scale="   38.534">  2  9  1 -1</clus>
<clus scale="   80.125">  5  6 -1 -1</clus>
<clus scale="   92.281">  7  8 -1 -1</clus>
<clus scale="  161.005">  1  5  2 -1</clus>
<clus scale="   38.534">  2  5  1 -1</clus>
</clustering>
</event>
<event>
 9    1  0.4664604E-005  0.2414165E+03  0.7546771E-02  0.1157209E+00
         21   -1    0    0  501  502  0.00000000000E+00  0.00000000000E+00  0.41686885669E+03  0.41686885669E+03  0.00000000000E+00 0. -1.
          1   -1    0    0  502    0 -0.00000000000E+00 -0.00000000000E+00 -0.29724180109E+03  0.29724180109E+03  0.00000000000E+00 0. -1.
         23    2    1    2    0    0  0.38681937753E+02  0.42602784730E+01 -0.12225741601E+03  0.15505662705E+03  0.87070313769E+02 0.  0.
        -24    2    1    2    0    0 -0.11827696525E+03  0.20535488987E+03  0.32845856203E+02  0.25250708501E+03  0.80752129439E+02 0.  0.
         11    1    4    4    0    0 -0.54876091443E+02  0.16555260734E+03  0.33732363171E+02  0.17764268500E+03  0.00000000000E+00 0. -1.
        -12    1    4    4    0    0 -0.63400873811E+02  0.39802282529E+02 -0.88650696867E+00  0.74864400012E+02  0.00000000000E+00 0.  1.
        -11    1    3    3    0    0 -0.25395471475E+02  0.16182929398E+02 -0.41638873453E+02  0.51386894806E+02  0.00000000000E+00 0.  1.
         11    1    3    3    0    0  0.64077409227E+02 -0.11922650925E+02 -0.80618542562E+02  0.10366973224E+03  0.00000000000E+00 0. -1.
          2    1    1    2  501    0  0.79595027501E+02 -0.20961516834E+03  0.20903861541E+03  0.30654694573E+03  0.00000000000E+00 0. -1.
<scales pt_clust_5="13000.00000" pt_clust_6="13000.00000" pt_clust_7="13000.00000" pt_clust_8="13000.00000" pt_clust_9="227.51053"></scales>
<clustering>
<clus scale="   80.752">  5  6 -1 -1</clus>
<clus scale="   87.070">  7  8 -1 -1</clus>
<clus scale="   95.371">  2  7  1 -1</clus>
<clus scale="  227.511">  1  9  2 -1</clus>
<clus scale="  227.511">  1  5  2 -1</clus>
</clustering>
</event>
<event>
 9    1  0.4664604E-005  0.2070680E+03  0.7546771E-02  0.1162692E+00
         -4   -1    0    0    0  501 -0.00000000000E+00  0.00000000000E+00  0.40964185657E+02  0.40964185657E+02  0.00000000000E+00 0.  1.
         21   -1    0    0  501  502  0.00000000000E+00 -0.00000000000E+00 -0.19397289372E+04  0.19397289372E+04  0.00000000000E+00 0.  1.
         23    2    1    2    0    0 -0.78158923633E+02  0.38362623943E+02 -0.68334459834E+03  0.69617314414E+03  0.10058179897E+03 0.  0.
        -24    2    1    2    0    0  0.21563517418E+03 -0.72058714691E+02 -0.98565500888E+03  0.10146548873E+04  0.79484320323E+02 0.  0.
         11    1    4    4    0    0  0.34451575388E+02  0.12539771566E+02 -0.94996789365E+02  0.10182606202E+03  0.00000000000E+00 0. -1.
        -12    1    4    4    0    0  0.18118359879E+03 -0.84598486257E+02 -0.89065821952E+03  0.91282882532E+03  0.00000000000E+00 0.  1.
        -13    1    3    3    0    0 -0.84690654187E+02  0.64245577051E+02 -0.53968297691E+03  0.55005246717E+03  0.00000000000E+00 0.  1.
         13    1    3    3    0    0  0.65317305536E+01 -0.25882953108E+02 -0.14366162143E+03  0.14612067697E+03  0.00000000000E+00 0. -1.
         -3    1    1    2    0  502 -0.13747625054E+03  0.33696090748E+02 -0.22976514433E+03  0.26986509137E+03  0.00000000000E+00 0.  1.
<scales pt_clust_5="13000.00000" pt_clust_6="13000.00000" pt_clust_7="13000.00000" pt_clust_8="13000.00000" pt_clust_9="191.20525"></scales>
<clustering>
<clus scale="   79.484">  5  6 -1 -1</clus>
<clus scale="  100.582">  7  8 -1 -1</clus>
<clus scale="  133.031">  1  7  2 -1</clus>
<clus scale="  191.205">  2  9  1 -1</clus>
<clus scale="  191.205">  2  5  1 -1</clus>
</clustering>
</event>
<event>
 9    1  0.4664604E-005  0.1117256E+03  0.7546771E-02  0.1266683E+00
         21   -1    0    0  501  502  0.00000000000E+00  0.00000000000E+00  0.33714995083E+03  0.33714995083E+03  0.00000000000E+00 0. -1.
          3   -1    0    0  502    0 -0.00000000000E+00 -0.00000000000E+00 -0.17602443944E+03  0.17602443944E+03  0.00000000000E+00 0. -1.
         23    2    1    2    0    0 -0.20828940045E+02 -0.39008965315E+02 -0.13194208055E+03  0.17288900001E+03  0.10259799991E+03 0.  0.
        -24    2    1    2    0    0 -0.17805952184E+02  0.56343469113E+02  0.98367906864E+02  0.14103402316E+03  0.81992146845E+02 0.  0.
         11    1    4    4    0    0 -0.27687681512E+02  0.24002791528E+02 -0.39134350814E+00  0.36645529855E+02  0.00000000000E+00 0. -1.
        -12    1    4    4    0    0  0.98817293281E+01  0.32340677585E+02  0.98759250372E+02  0.10438849331E+03  0.00000000000E+00 0.  1.
        -13    1    3    3    0    0 -0.32432565974E+02 -0.11328686849E+02 -0.13804950212E+03  0.14225988724E+03  0.00000000000E+00 0. -1.
         13    1    3    3    0    0  0.11603625929E+02 -0.27680278466E+02  0.61074215703E+01  0.30629112767E+02  0.00000000000E+00 0.  1.
          4    1    1    2  501    0  0.38634892229E+02 -0.17334503798E+02  0.19469968508E+03  0.19925136710E+03  0.00000000000E+00 0. -1.
<scales pt_clust_5="13000.00000" pt_clust_6="13000.00000" pt_clust_7="13000.00000" pt_clust_8="13000.00000" pt_clust_9="42.34548"></scales>
<clustering>
<clus scale="   42.345">  1  9  2 -1</clus>
<clus scale="   81.992">  5  6 -1 -1</clus>
<clus scale="   93.161">  1  5  2 -1</clus>
<clus scale="  102.598">  7  8 -1 -1</clus>
<clus scale="   42.345">  1  5  2 -1</clus>
</clustering>
</event>
<event>
 9    1  0.4664604E-005  0.9724984E+02  0.7546771E-02  0.1293767E+00
         21   -1    0    0  501  502  0.00000000000E+00  0.00000000000E+00  0.68831246010E+02  0.68831246010E+02  0.00000000000E+00 0. -1.
          1   -1    0    0  502    0 -0.00000000000E+00 -0.00000000000E+00 -0.40221660653E+03  0.40221660653E+03  0.00000000000E+00 0. -1.
        -24    2    1    2    0    0 -0.17059558359E+02  0.24139892524E+02 -0.19843108213E+03  0.21592211223E+03  0.79835463631E+02 0.  0.
         23    2    1    2    0    0 -0.21039730580E+02 -0.27002484166E+02  0.14857811018E+02  0.10051845593E+03  0.93334886409E+02 0.  0.
         11    1    3    3    0    0  0.29424655144E+02 -0.42613315795E+01 -0.85892404242E+02  0.90892653079E+02  0.00000000000E+00 0. -1.
        -12    1    3    3    0    0 -0.46484213503E+02  0.28401224103E+02 -0.11253867789E+03  0.12502945915E+03  0.00000000000E+00 0.  1.
        -11    1    4    4    0    0  0.25825040398E+02 -0.22607972877E+02 -0.21970800659E+02  0.40752536495E+02  0.00000000000E+00 0.  1.
         11    1    4    4    0    0 -0.46864770978E+02 -0.43945112888E+01  0.36828611678E+02  0.59765919439E+02  0.00000000000E+00 0. -1.
          2    1    1    2  501    0  0.38099288939E+02  0.28625916421E+01 -0.14981208940E+03  0.15460728437E+03  0.00000000000E+00 0. -1.
<scales pt_clust_5="13000.00000" pt_clust_6="13000.00000" pt_clust_7="13000.00000" pt_clust_8="13000.00000" pt_clust_9="38.20670"></scales>
<clustering>
<clus scale="   38.207">  1  9  2 -1</clus>
<clus scale="   79.835">  5  6 -1 -1</clus>
<clus scale="   84.379">  2  5  1 -1</clus>
<clus scale="   93.335">  7  8 -1 -1</clus>
<clus scale="   38.207">  1  5  2 -1</clus>
</clustering>
</event>
<event>
 9    1  0.4664604E-005  0.9191444E+02  0.7546771E-02  0.1302772E+00
          1   -1    0    0  502    0 -0.00000000000E+00  0.00000000000E+00  0.75863505308E+03  0.75863505308E+03  0.00000000000E+00 0. -1.
         21   -1    0    0  501  502  0.00000000000E+00 -0.00000000000E+00 -0.23512228244E+02  0.23512228244E+02  0.00000000000E+00 0. -1.
        -24    2    1    2    0    0 -0.10841463440E+02 -0.39503521782E+02  0.33494690287E+03  0.34700000803E+03  0.80879615872E+02 0.  0.
         23    2    1    2    0    0 -0.41977046980E+02 -0.15589060994E+01  0.29162882742E+03  0.30763888236E+03  0.88486192672E+02 0.  0.
         13    1    3    3    0    0  0.67101349019E+01 -0.61762399732E+02  0.21933168550E+03  0.22796054088E+03  0.00000000000E+00 0. -1.
        -14    1    3    3    0    0 -0.17551598342E+02  0.22258877949E+02  0.11561521737E+03  0.11903946715E+03  0.00000000000E+00 0.  1.
        -13    1    4    4    0    0 -0.17275696178E+02 -0.40722204175E+02  0.84282455668E+02  0.95185502703E+02  0.00000000000E+00 0. -1.
         13    1    4    4    0    0 -0.24701350802E+02  0.39163298075E+02  0.20734637175E+03  0.21245337966E+03  0.00000000000E+00 0.  1.
          2    1    1    2  501    0  0.52818510420E+02  0.41062427882E+02  0.10854709454E+03  0.12750839094E+03  0.00000000000E+00 0. -1.
<scales pt_clust_5="13000.00000" pt_clust_6="13000.00000" pt_clust_7="13000.00000" pt_clust_8="13000.00000" pt_clust_9="66.90230"></scales>
<clustering>
<clus scale="   66.902">  2  9  1 -1</clus>
<clus scale="   80.880">  5  6 -1 -1</clus>
<clus scale="   84.617">  1  5  2 -1</clus>
<clus scale="   88.486">  7  8 -1 -1</clus>
<clus scale="   66.902">  2  5  1 -1</clus>
</clustering>
</event>
<event>
 9    1  0.4664604E-005  0.1072856E+03  0.7546771E-02  0.1269849E+00
         21   -1    0    0  501  502  0.00000000000E+00  0.00000000000E+00  0.25311981906E+02  0.25311981906E+02  0.00000000000E+00 0. -1.
         -4   -1    0    0    0  501 -0.00000000000E+00 -0.00000000000E+00 -0.69678235848E+03  0.69678235848E+03  0.00000000000E+00 0.  1.
        -24    2    1    2    0    0  0.17314427582E+02  0.67454648377E+02 -0.35085994110E+03  0.36683813234E+03  0.81348620651E+02 0.  0.
         23    2    1    2    0    0 -0.66592295328E+01 -0.30125563921E+02 -0.13649410050E+03  0.16709186871E+03  0.91308040052E+02 0.  0.
         11    1    3    3    0    0 -0.15562336372E+02  0.68762967519E+02 -0.27955359026E+03  0.28830668019E+03  0.00000000000E+00 0. -1.
        -12    1    3    3    0    0  0.32876763954E+02 -0.13083191412E+01 -0.71306350845E+02  0.78531452157E+02  0.00000000000E+00 0.  1.
        -13    1    4    4    0    0  0.25672692020E+02  0.21726241782E+02 -0.63840399716E+02  0.72157559087E+02  0.00000000000E+00 0.  1.
         13    1    4    4    0    0 -0.32331921553E+02 -0.51851805703E+02 -0.72653700779E+02  0.94934309619E+02  0.00000000000E+00 0. -1.
         -3    1    1    2    0  502 -0.10655198049E+02 -0.37329084456E+02 -0.18411633498E+03  0.18816433933E+03  0.00000000000E+00 0.  1.
<scales pt_clust_5="13000.00000" pt_clust_6="13000.00000" pt_clust_7="13000.00000" pt_clust_8="13000.00000" pt_clust_9="38.82004"></scales>
<clustering>
<clus scale="   38.820">  1  9  2 -1</clus>
<clus scale="   81.349">  5  6 -1 -1</clus>
<clus scale="   91.308">  7  8 -1 -1</clus>
<clus scale="   98.948">  2  5  1 -1</clus>
<clus scale="   38.820">  1  5  2 -1</clus>
</clustering>
</event>
<event>
 9    1  0.4664604E-005  0.9766512E+02  0.7546771E-02  0.1296703E+00
          1   -1    0    0  502    0 -0.00000000000E+00  0.00000000000E+00  0.46695224402E+03  0.46695224402E+03  0.00000000000E+00 0. -1.
         21   -1    0    0  501  502  0.00000000000E+00 -0.00000000000E+00 -0.31110245837E+02  0.31110245837E+02  0.00000000000E+00 0.  1.
         23    2    1    2    0    0 -0.82746714419E+01  0.42940032563E+01  0.29622044362E+03  0.31204377058E+03  0.97661941861E+02 0.  0.
        -24    2    1    2    0    0 -0.10822852984E+02  0.37698173104E+01  0.14422261152E+03  0.16478406914E+03  0.78881443318E+02 0.  0.
         13    1    4    4    0    0  0.46152254180E+01 -0.33475052007E+02  0.96858162982E+02  0.10258354229E+03  0.00000000000E+00 0. -1.
        -14    1    4    4    0    0 -0.15438078402E+02  0.37244869318E+02  0.47364448535E+02  0.62200526849E+02  0.00000000000E+00 0.  1.
        -11    1    3    3    0    0 -0.53091916118E+02  0.12945728520E+00  0.15900004677E+03  0.16762989945E+03  0.00000000000E+00 0.  1.
         11    1    3    3    0    0  0.44817244677E+02  0.41645459711E+01  0.13722039684E+03  0.14441387112E+03  0.00000000000E+00 0. -1.
          2    1    1    2  501    0  0.19097524426E+02 -0.80638205667E+01 -0.46010569550E+01  0.21234650137E+02  0.00000000000E+00 0. -1.
<scales pt_clust_5="13000.00000" pt_clust_6="13000.00000" pt_clust_7="13000.00000" pt_clust_8="13000.00000" pt_clust_9="20.73019"></scales>
<clustering>
<clus scale="   20.730">  2  9  1 -1</clus>
<clus scale="   78.881">  5  6 -1 -1</clus>
<clus scale="   78.885">  2  5  1 -1</clus>
<clus scale="   97.662">  7  8 -1 -1</clus>
<clus scale="   20.730">  2  5  1 -1</clus>
</clustering>
</event>
<event>
 9    1  0.4664604E-005  0.1060057E+03  0.7546771E-02  0.1273187E+00
         21   -1    0    0  501  502  0.00000000000E+00  0.00000000000E+00  0.13915659446E+03  0.13915659446E+03  0.00000000000E+00 0. -1.
          1   -1    0    0  502    0 -0.00000000000E+00 -0.00000000000E+00 -0.27008174235E+03  0.27008174235E+03  0.00000000000E+00 0. -1.
         23    2    1    2    0    0 -0.29292136878E+02  0.37315770402E+02 -0.15812075397E+03  0.18899229077E+03  0.92007701488E+02 0.  0.
        -24    2    1    2    0    0  0.58377434186E+02 -0.30243771360E+02 -0.65494108975E+02  0.12284301237E+03  0.80487991958E+02 0.  0.
         11    1    4    4    0    0  0.53954133399E+02  0.67571382573E+01 -0.66077350927E+02  0.85574083306E+02  0.00000000000E+00 0. -1.
        -12    1    4    4    0    0  0.44233007871E+01 -0.37000909618E+02  0.58324195162E+00  0.37268929064E+02  0.00000000000E+00 0.  1.
        -11    1    3    3    0    0 -0.71569460411E+01 -0.30942191992E+02 -0.48085614758E+02  0.57626968240E+02  0.00000000000E+00 0.  1.
         11    1    3    3    0    0 -0.22135190837E+02  0.68257962393E+02 -0.11003513921E+03  0.13136532253E+03  0.00000000000E+00 0. -1.
          2    1    1    2  501    0 -0.29085297308E+02 -0.70719990415E+01  0.92689715051E+02  0.97403033659E+02  0.00000000000E+00 0. -1.
<scales pt_clust_5="13000.00000" pt_clust_6="13000.00000" pt_clust_7="13000.00000" pt_clust_8="13000.00000" pt_clust_9="29.93272"></scales>
<clustering>
<clus scale="   29.933">  1  9  2 -1</clus>
<clus scale="   80.488">  5  6 -1 -1</clus>
<clus scale="   92.008">  7  8 -1 -1</clus>
<clus scale="   96.177">  1  5  2 -1</clus>
<clus scale="   29.933">  1  5  2 -1</clus>
</clustering>
</event>
<event>
 9    1  0.4664604E-005  0.9414501E+02  0.7546771E-02  0.1300595E+00
         21   -1    0    0  501  502  0.00000000000E+00  0.00000000000E+00  0.16896771051E+03  0.16896771051E+03  0.00000000000E+00 0.  1.
          1   -1    0    0  502    0 -0.00000000000E+00 -0.00000000000E+00 -0.86258465509E+02  0.86258465509E+02  0.00000000000E+00 0. -1.
         23    2    1    2    0    0  0.15360680312E+02  0.26054393698E+02  0.34457240551E+02  0.10451358419E+03  0.93920210411E+02 0.  0.
        -24    2    1    2    0    0  0.21269198090E+01  0.27417642211E+02  0.34077501461E+02  0.92695427840E+02  0.81700155106E+02 0.  0.
         11    1    4    4    0    0 -0.79409103834E+01  0.38678519164E+02 -0.14315132956E+02  0.42000106357E+02  0.00000000000E+00 0. -1.
        -12    1    4    4    0    0  0.10067830192E+02 -0.11260876953E+02  0.48392634417E+02  0.50695321484E+02  0.00000000000E+00 0.  1.
        -13    1    3    3    0    0  0.42077589146E+02 -0.14915528537E+02 -0.70338913718E-01  0.44643044782E+02  0.00000000000E+00 0. -1.
         13    1    3    3    0    0 -0.26716908833E+02  0.40969922235E+02  0.34527579465E+02  0.59870539410E+02  0.00000000000E+00 0.  1.
          2    1    1    2  501    0 -0.17487600121E+02 -0.53472035909E+02  0.14174502990E+02  0.58017163989E+02  0.00000000000E+00 0. -1.
<scales pt_clust_5="13000.00000" pt_clust_6="13000.00000" pt_clust_7="13000.00000" pt_clust_8="13000.00000" pt_clust_9="56.25903"></scales>
<clustering>
<clus scale="   56.259">  1  9  2 -1</clus>
<clus scale="   81.700">  5  6 -1 -1</clus>
<clus scale="   81.958">  1  5  2 -1</clus>
<clus scale="   93.920">  7  8 -1 -1</clus>
<clus scale="   56.259">  1  5  2 -1</clus>
</clustering>
</event>
<event>
 9    1  0.4664604E-005  0.1336885E+03  0.7546771E-02  0.1234251E+00
         21   -1    0    0  501  502  0.00000000000E+00  0.00000000000E+00  0.14900750657E+03  0.14900750657E+03  0.00000000000E+00 0. -1.
          1   -1    0    0  502    0 -0.00000000000E+00 -0.00000000000E+00 -0.26929411624E+03  0.26929411624E+03  0.00000000000E+00 0. -1.
        -24    2    1    2    0    0  0.51823185509E+01  0.34328717018E+02 -0.12342674562E+03  0.16133976780E+03  0.97933864932E+02 0.  0.
         23    2    1    2    0    0 -0.46347911964E+02  0.64311592044E+02 -0.59396969424E+02  0.13312564786E+03  0.88940026579E+02 0.  0.
         11    1    3    3    0    0 -0.23859049942E+02 -0.12360481538E+02 -0.72376800790E+00  0.26880468897E+02  0.00000000000E+00 0. -1.
        -12    1    3    3    0    0  0.29041368493E+02  0.46689198556E+02 -0.12270297761E+03  0.13445929890E+03  0.00000000000E+00 0.  1.
        -13    1    4    4    0    0 -0.75755323756E+01 -0.22596076550E+02 -0.93185043218E+01  0.25589175231E+02  0.00000000000E+00 0.  1.
         13    1    4    4    0    0 -0.38772379588E+02  0.86907668594E+02 -0.50078465102E+02  0.10753647263E+03  0.00000000000E+00 0. -1.
          2    1    1    2  501    0  0.41165593413E+02 -0.98640309062E+02  0.62537105367E+02  0.12383620715E+03  0.00000000000E+00 0. -1.
<scales pt_clust_5="13000.00000" pt_clust_6="13000.00000" pt_clust_7="13000.00000" pt_clust_8="13000.00000" pt_clust_9="99.81130"></scales>
<clustering>
<clus scale="   88.940">  7  8 -1 -1</clus>
<clus scale="   97.934">  5  6 -1 -1</clus>
<clus scale="  103.906">  2  5  1 -1</clus>
<clus scale="   99.811">  1  9  2 -1</clus>
<clus scale="   99.811">  1  5  2 -1</clus>
</clustering>
</event>
<event>
 9    1  0.4664604E-005  0.1283318E+03  0.7546771E-02  0.1232724E+00
          1   -1    0    0  502    0 -0.00000000000E+00  0.00000000000E+00  0.55464827387E+03  0.55464827387E+03  0.00000000000E+00 0. -1.
         21   -1    0    0  501  502  0.00000000000E+00 -0.00000000000E+00 -0.45491131516E+02  0.45491131516E+02  0.00000000000E+00 0. -1.
        -24    2    1    2    0    0 -0.23164321422E+02 -0.75359511778E+02  0.21982434571E+03  0.24684732206E+03  0.79970092167E+02 0.  0.
         23    2    1    2    0    0  0.37661243638E+02  0.11132596537E+03  0.15941530498E+03  0.21771073808E+03  0.90404016360E+02 0.  0.
         13    1    3    3    0    0  0.26486651288E+02 -0.18108100612E+02  0.10045318238E+03  0.10545277547E+03  0.00000000000E+00 0. -1.
        -14    1    3    3    0    0 -0.49650972710E+02 -0.57251411166E+02  0.11937116333E+03  0.14139454659E+03  0.00000000000E+00 0.  1.
        -13    1    4    4    0    0  0.44589329772E+02  0.87268183305E+01  0.48080921463E+02  0.66152405069E+02  0.00000000000E+00 0.  1.
         13    1    4    4    0    0 -0.69280861335E+01  0.10259914704E+03  0.11133438352E+03  0.15155833301E+03  0.00000000000E+00 0. -1.
          2    1    1    2  501    0 -0.14496922216E+02 -0.35966453596E+02  0.12991749167E+03  0.13558134525E+03  0.00000000000E+00 0. -1.
<scales pt_clust_5="13000.00000" pt_clust_6="13000.00000" pt_clust_7="13000.00000" pt_clust_8="13000.00000" pt_clust_9="38.77819"></scales>
<clustering>
<clus scale="   38.778">  2  9  1 -1</clus>
<clus scale="   79.970">  5  6 -1 -1</clus>
<clus scale="   90.404">  7  8 -1 -1</clus>
<clus scale="  121.208">  1  5  2 -1</clus>
<clus scale="   38.778">  2  5  1 -1</clus>
</clustering>
</event>
<event>
 9    1  0.4664604E-005  0.2484858E+03  0.7546771E-02  0.1114940E+00
         21   -1    0    0  501  502  0.00000000000E+00  0.00000000000E+00  0.19821758641E+03  0.19821758641E+03  0.00000000000E+00 0.  1.
          3   -1    0    0  502    0 -0.00000000000E+00 -0.00000000000E+00 -0.33641604880E+03  0.33641604880E+03  0.00000000000E+00 0. -1.
        -24    2    1    2    0    0  0.21726047827E+03  0.51984177634E+02 -0.68251827481E+02  0.24689073608E+03  0.79951569514E+02 0.  0.
         23    2    1    2    0    0 -0.23616932348E+03 -0.39854383524E+02 -0.62417734872E+02  0.26404984807E+03  0.91989278738E+02 0.  0.
         13    1    3    3    0    0  0.10825204198E+03 -0.14020534711E+02 -0.22200291981E+02  0.11139090156E+03  0.00000000000E+00 0. -1.
        -14    1    3    3    0    0  0.10900843628E+03  0.66004712345E+02 -0.46051535500E+02  0.13549983452E+03  0.00000000000E+00 0.  1.
        -11    1    4    4    0    0 -0.75979562439E+02  0.26968131458E+02 -0.36710372319E+02  0.88587953236E+02  0.00000000000E+00 0. -1.
         11    1    4    4    0    0 -0.16018976104E+03 -0.66822514983E+02 -0.25707362553E+02  0.17546189484E+03  0.00000000000E+00 0.  1.
          4    1    1    2  501    0  0.18908845209E+02 -0.12129794110E+02 -0.75289000371E+01  0.23693051050E+02  0.00000000000E+00 0. -1.
<scales pt_clust_5="13000.00000" pt_clust_6="13000.00000" pt_clust_7="13000.00000" pt_clust_8="13000.00000" pt_clust_9="22.46501"></scales>
<clustering>
<clus scale="   22.465">  1  9  2 -1</clus>
<clus scale="   79.952">  5  6 -1 -1</clus>
<clus scale="   91.989">  7  8 -1 -1</clus>
<clus scale="  244.286">  2  5  1 -1</clus>
<clus scale="   22.465">  1  5  2 -1</clus>
</clustering>
</event>
<event>
 9    1  0.4664604E-005  0.1507638E+03  0.7546771E-02  0.1227713E+00
          1   -1    0    0  502    0 -0.00000000000E+00  0.00000000000E+00  0.16989389170E+03  0.16989389170E+03  0.00000000000E+00 0. -1.
         21   -1    0    0  501  502  0.00000000000E+00 -0.00000000000E+00 -0.18604933332E+03  0.18604933332E+03  0.00000000000E+00 0. -1.
        -24    2    1    2    0    0 -0.13875953582E+02  0.42234843432E+00  0.58235354842E+01  0.83106961235E+02  0.81732080447E+02 0.  0.
         23    2    1    2    0    0  0.48831461825E+02 -0.11380376962E+03 -0.16148417380E+02  0.15404556695E+03  0.90185673301E+02 0.  0.
         13    1    3    3    0    0 -0.62797083187E+01  0.39542037996E+02  0.14022004747E+02  0.42421976882E+02  0.00000000000E+00 0. -1.
        -14    1    3    3    0    0 -0.75962452631E+01 -0.39119689562E+02 -0.81984692629E+01  0.40684984353E+02  0.00000000000E+00 0.  1.
        -11    1    4    4    0    0  0.18106265456E+02 -0.25075411496E+02 -0.46075750501E+02  0.55494034767E+02  0.00000000000E+00 0.  1.
         11    1    4    4    0    0  0.30725196369E+02 -0.88728358129E+02  0.29927333121E+02  0.98551532184E+02  0.00000000000E+00 0. -1.
          2    1    1    2  501    0 -0.34955508244E+02  0.11338142119E+03 -0.58305597199E+01  0.11879069683E+03  0.00000000000E+00 0. -1.
<scales pt_clust_5="13000.00000" pt_clust_6="13000.00000" pt_clust_7="13000.00000" pt_clust_8="13000.00000" pt_clust_9="120.81505"></scales>
<clustering>
<clus scale="   81.732">  5  6 -1 -1</clus>
<clus scale="   82.903">  1  5  2 -1</clus>
<clus scale="   90.186">  7  8 -1 -1</clus>
<clus scale="  120.815">  2  9  1 -1</clus>
<clus scale="  120.815">  2  5  1 -1</clus>
</clustering>
</event>
<event>
 9    1  0.4664604E-005  0.2787124E+03  0.7546771E-02  0.1096394E+00
         21   -1    0    0  501  502  0.00000000000E+00  0.00000000000E+00  0.20460715990E+03  0.20460715990E+03  0.00000000000E+00 0. -1.
         -4   -1    0    0    0  501 -0.00000000000E+00 -0.00000000000E+00 -0.35458829974E+03  0.35458829974E+03  0.00000000000E+00 0.  1.
        -24    2    1    2    0    0  0.88807239098E+02 -0.76665137813E+02  0.23612002330E+02  0.14559554388E+03  0.82923257731E+02 0.  0.
         23    2    1    2    0    0  0.63771115905E+01 -0.10240109189E+03  0.16081041988E+02  0.13592911899E+03  0.87701050762E+02 0.  0.
         11    1    3    3    0    0  0.25966362859E+02 -0.50688988185E+02  0.46839421472E+02  0.73739792020E+02  0.00000000000E+00 0. -1.
        -12    1    3    3    0    0  0.62840876239E+02 -0.25976149629E+02 -0.23227419142E+02  0.71855751864E+02  0.00000000000E+00 0.  1.
        -11    1    4    4    0    0 -0.23855359414E+02 -0.10054744326E+03  0.20401705944E+02  0.10533326219E+03  0.00000000000E+00 0. -1.
         11    1    4    4    0    0  0.30232471004E+02 -0.18536486371E+01 -0.43206639558E+01  0.30595856800E+02  0.00000000000E+00 0.  1.
         -3    1    1    2    0  502 -0.95184350689E+02  0.17906622971E+03 -0.18967418416E+03  0.27767079676E+03  0.00000000000E+00 0.  1.
<scales pt_clust_5="13000.00000" pt_clust_6="13000.00000" pt_clust_7="13000.00000" pt_clust_8="13000.00000" pt_clust_9="202.79255"></scales>
<clustering>
<clus scale="   82.923">  5  6 -1 -1</clus>
<clus scale="   87.701">  7  8 -1 -1</clus>
<clus scale="  118.438">  5  7 -1 -1</clus>
<clus scale="  202.793">  1  9  2 -1</clus>
<clus scale="  202.793">  1  5  2 -1</clus>
</clustering>
</event>
<event>
 9    1  0.4664604E-005  0.1820259E+03  0.7546771E-02  0.1199364E+00
         21   -1    0    0  501  502  0.00000000000E+00  0.00000000000E+00  0.50766106517E+02  0.50766106517E+02  0.00000000000E+00 0. -1.
          1   -1    0    0  502    0 -0.00000000000E+00 -0.00000000000E+00 -0.89905079974E+03  0.89905079974E+03  0.00000000000E+00 0. -1.
        -24    2    1    2    0    0  0.29699549671E+02 -0.16083698122E+02 -0.16228516114E+03  0.18365766576E+03  0.79075382201E+02 0.  0.
         23    2    1    2    0    0 -0.99647615757E+01 -0.14884848626E+03 -0.35985831847E+03  0.40015353218E+03  0.91485909315E+02 0.  0.
         11    1    3    3    0    0 -0.10275861697E+02 -0.36719426568E+02 -0.98334909706E+02  0.10546878253E+03  0.00000000000E+00 0. -1.
        -12    1    3    3    0    0  0.39975411368E+02  0.20635728446E+02 -0.63950251431E+02  0.78188883229E+02  0.00000000000E+00 0.  1.
        -13    1    4    4    0    0 -0.30223802212E+02 -0.62393220396E+01 -0.58533455989E+02  0.66170785318E+02  0.00000000000E+00 0.  1.
         13    1    4    4    0    0  0.20259040636E+02 -0.14260916422E+03 -0.30132486248E+03  0.33398274686E+03  0.00000000000E+00 0. -1.
          2    1    1    2  501    0 -0.19734788095E+02  0.16493218439E+03 -0.32614121362E+03  0.36600570833E+03  0.00000000000E+00 0. -1.
<scales pt_clust_5="13000.00000" pt_clust_6="13000.00000" pt_clust_7="13000.00000" pt_clust_8="13000.00000" pt_clust_9="157.36517"></scales>
<clustering>
<clus scale="   79.075">  5  6 -1 -1</clus>
<clus scale="   85.986">  2  5  1 -1</clus>
<clus scale="   91.486">  7  8 -1 -1</clus>
<clus scale="  157.365">  1  9  2 -1</clus>
<clus scale="  157.365">  1  5  2 -1</clus>
</clustering>
</event>
<event>
 9    1  0.4664604E-005  0.9645996E+02  0.7546771E-02  0.1296897E+00
         21   -1    0    0  501  502  0.00000000000E+00  0.00000000000E+00  0.20989560534E+03  0.20989560534E+03  0.00000000000E+00 0. -1.
          3   -1    0    0  502    0 -0.00000000000E+00 -0.00000000000E+00 -0.98167852923E+02  0.98167852923E+02  0.00000000000E+00 0. -1.
        -24    2    1    2    0    0  0.20361312817E+01  0.64938515354E+01 -0.87658475731E+01  0.78027508848E+02  0.77234293646E+02 0.  0.
         23    2    1    2    0    0 -0.23145891627E+01 -0.66065919879E+02  0.23707431906E+02  0.11638529522E+03  0.92808574626E+02 0.  0.
         13    1    3    3    0    0  0.22778156468E+02 -0.18361455681E+02 -0.27895710876E+02  0.40424722041E+02  0.00000000000E+00 0. -1.
        -14    1    3    3    0    0 -0.20742025187E+02  0.24855307217E+02  0.19129863303E+02  0.37602786807E+02  0.00000000000E+00 0.  1.
        -11    1    4    4    0    0 -0.21534979084E+02  0.13443129943E+02  0.23488363959E+02  0.34585781880E+02  0.00000000000E+00 0.  1.
         11    1    4    4    0    0  0.19220389921E+02 -0.79509049823E+02  0.21906794684E+00  0.81799513343E+02  0.00000000000E+00 0. -1.
          4    1    1    2  501    0  0.27845788104E+00  0.59572068344E+02  0.96786168082E+02  0.11365065419E+03  0.00000000000E+00 0. -1.
<scales pt_clust_5="13000.00000" pt_clust_6="13000.00000" pt_clust_7="13000.00000" pt_clust_8="13000.00000" pt_clust_9="59.57272"></scales>
<clustering>
<clus scale="   59.573">  1  9  2 -1</clus>
<clus scale="   77.234">  5  6 -1 -1</clus>
<clus scale="   81.586">  2  5  1 -1</clus>
<clus scale="   92.809">  7  8 -1 -1</clus>
<clus scale="   59.573">  1  5  2 -1</clus>
</clustering>
</event>
<event>
 9    1  0.4664604E-005  0.2717442E+03  0.7546771E-02  0.1127512E+00
         21   -1    0    0  501  502  0.00000000000E+00  0.00000000000E+00  0.73024219902E+02  0.73024219902E+02  0.00000000000E+00 0. -1.
          1   -1    0    0  502    0 -0.00000000000E+00 -0.00000000000E+00 -0.17191041152E+04  0.17191041152E+04  0.00000000000E+00 0. -1.
         23    2    1    2    0    0  0.82372352146E+01 -0.95583526765E+02 -0.31391575981E+03  0.34230177263E+03  0.97073872159E+02 0.  0.
        -24    2    1    2    0    0  0.15046743759E+03  0.24209159397E+03 -0.42999653949E+03  0.52216382301E+03  0.80679888655E+02 0.  0.
         13    1    4    4    0    0  0.14608587034E+03  0.20371564399E+03 -0.40450880959E+03  0.47588708972E+03  0.00000000000E+00 0. -1.
        -14    1    4    4    0    0  0.43815672518E+01  0.38375949982E+02 -0.25487729898E+02  0.46276733290E+02  0.00000000000E+00 0.  1.
        -11    1    3    3    0    0  0.42241212121E+02 -0.43503912886E+02 -0.80748197274E+02  0.10098109625E+03  0.00000000000E+00 0. -1.
         11    1    3    3    0    0 -0.34003976907E+02 -0.52079613879E+02 -0.23316756254E+03  0.24132067638E+03  0.00000000000E+00 0.  1.
          2    1    1    2  501    0 -0.15870467281E+03 -0.14650806721E+03 -0.90216759596E+03  0.92766273943E+03  0.00000000000E+00 0. -1.
<scales pt_clust_5="13000.00000" pt_clust_6="13000.00000" pt_clust_7="13000.00000" pt_clust_8="13000.00000" pt_clust_9="259.49130"></scales>
<clustering>
<clus scale="   80.680">  5  6 -1 -1</clus>
<clus scale="   97.074">  7  8 -1 -1</clus>
<clus scale="  136.482">  2  7  1 -1</clus>
<clus scale="  259.491">  1  9  2 -1</clus>
<clus scale="  259.491">  1  5  2 -1</clus>
</clustering>
</event>
<event>
 9    1  0.4664604E-005  0.1008400E+03  0.7546771E-02  0.1282607E+00
          1   -1    0    0  502    0 -0.00000000000E+00  0.00000000000E+00  0.29998654224E+03  0.29998654224E+03  0.00000000000E+00 0. -1.
         21   -1    0    0  501  502  0.00000000000E+00 -0.00000000000E+00 -0.91860864262E+02  0.91860864262E+02  0.00000000000E+00 0. -1.
        -24    2    1    2    0    0  0.31372285678E+02 -0.28078275676E+02  0.14755913523E+03  0.17460753995E+03  0.83315573236E+02 0.  0.
         23    2    1    2    0    0 -0.50778239661E+02 -0.33193664148E+01  0.11234382936E+03  0.15365299378E+03  0.91644196150E+02 0.  0.
         11    1    3    3    0    0  0.57854976580E+02 -0.24751796485E+02  0.12379464512E+03  0.13887031326E+03  0.00000000000E+00 0. -1.
        -12    1    3    3    0    0 -0.26482690903E+02 -0.33264791919E+01  0.23764490109E+02  0.35737226689E+02  0.00000000000E+00 0.  1.
        -11    1    4    4    0    0 -0.40087798974E+02  0.28929429307E+02  0.16742794540E+02  0.52194488939E+02  0.00000000000E+00 0.  1.
         11    1    4    4    0    0 -0.10690440687E+02 -0.32248795722E+02  0.95601034815E+02  0.10145850484E+03  0.00000000000E+00 0. -1.
          2    1    1    2  501    0  0.19405953983E+02  0.31397642091E+02 -0.51777286613E+02  0.63586872764E+02  0.00000000000E+00 0. -1.
<scales pt_clust_5="13000.00000" pt_clust_6="13000.00000" pt_clust_7="13000.00000" pt_clust_8="13000.00000" pt_clust_9="36.91074"></scales>
<clustering>
<clus scale="   36.911">  2  9  1 -1</clus>
<clus scale="   83.316">  5  6 -1 -1</clus>
<clus scale="   91.644">  7  8 -1 -1</clus>
<clus scale="   93.336">  1  5  2 -1</clus>
<clus scale="   36.911">  2  5  1 -1</clus>
</clustering>
</event>
<event>
 9    1  0.4664604E-005  0.1217664E+03  0.7546771E-02  0.1253770E+00
         21   -1    0    0  501  502  0.00000000000E+00  0.00000000000E+00  0.95868574680E+02  0.95868574680E+02  0.00000000000E+00 0. -1.
          1   -1    0    0  502    0 -0.00000000000E+00 -0.00000000000E+00 -0.36172777690E+03  0.36172777690E+03  0.00000000000E+00 0. -1.
         23    2    1    2    0    0 -0.19341790866E+02 -0.99015082243E+01 -0.21769041522E+03  0.23662466206E+03  0.90166341159E+02 0.  0.
        -24    2    1    2    0    0 -0.69862081923E+02 -0.32271365801E+02 -0.49538300249E+02  0.12229161154E+03  0.81111303290E+02 0.  0.
         11    1    4    4    0    0 -0.62593703014E+02  0.49435424302E+01 -0.55629853661E+02  0.83887370248E+02  0.00000000000E+00 0. -1.
        -12    1    4    4    0    0 -0.72683789086E+01 -0.37214908231E+02  0.60915534118E+01  0.38404241297E+02  0.00000000000E+00 0.  1.
        -13    1    3    3    0    0 -0.33609335349E+02 -0.40511942171E+02 -0.87389903054E+02  0.10201862593E+03  0.00000000000E+00 0.  1.
         13    1    3    3    0    0  0.14267544483E+02  0.30610433947E+02 -0.13030051216E+03  0.13460603613E+03  0.00000000000E+00 0. -1.
          2    1    1    2  501    0  0.89203872789E+02  0.42172874025E+02  0.13695132397E+01  0.98680077982E+02  0.00000000000E+00 0. -1.
<scales pt_clust_5="13000.00000" pt_clust_6="13000.00000" pt_clust_7="13000.00000" pt_clust_8="13000.00000" pt_clust_9="90.81850"></scales>
<clustering>
<clus scale="   81.111">  5  6 -1 -1</clus>
<clus scale="   90.166">  7  8 -1 -1</clus>
<clus scale="   92.748">  2  7  1 -1</clus>
<clus scale="   90.819">  1  9  2 -1</clus>
<clus scale="   90.819">  1  5  2 -1</clus>
</clustering>
</event>
<event>
 9    1  0.4664604E-005  0.1433665E+03  0.7546771E-02  0.1211305E+00
          1   -1    0    0  502    0 -0.00000000000E+00  0.00000000000E+00  0.14526851606E+03  0.14526851606E+03  0.00000000000E+00 0. -1.
         21   -1    0    0  501  502  0.00000000000E+00 -0.00000000000E+00 -0.27179273840E+03  0.27179273840E+03  0.00000000000E+00 0. -1.
        -24    2    1    2    0    0 -0.30877774577E+02  0.10377045339E+03  0.17651819834E+02  0.15005105950E+03  0.10238158895E+03 0.  0.
         23    2    1    2    0    0  0.57976082524E+02 -0.61799954086E+02 -0.16979866065E+03  0.21086431637E+03  0.91933205579E+02 0.  0.
         11    1    3    3    0    0 -0.43843715048E+02  0.92491744867E+02 -0.23878561226E+02  0.10510556552E+03  0.00000000000E+00 0. -1.
        -12    1    3    3    0    0  0.12965940472E+02  0.11278708520E+02  0.41530381059E+02  0.44945493980E+02  0.00000000000E+00 0.  1.
        -11    1    4    4    0    0  0.27333126096E+02  0.12057376138E+02 -0.10117382729E+03  0.10549229086E+03  0.00000000000E+00 0.  1.
         11    1    4    4    0    0  0.30642956427E+02 -0.73857330224E+02 -0.68624833360E+02  0.10537202551E+03  0.00000000000E+00 0. -1.
          2    1    1    2  501    0 -0.27098307947E+02 -0.41970499301E+02  0.25622618473E+02  0.56145878589E+02  0.00000000000E+00 0. -1.
<scales pt_clust_5="13000.00000" pt_clust_6="13000.00000" pt_clust_7="13000.00000" pt_clust_8="13000.00000" pt_clust_9="49.95842"></scales>
<clustering>
<clus scale="   49.958">  2  9  1 -1</clus>
<clus scale="   91.933">  7  8 -1 -1</clus>
<clus scale="  102.382">  5  6 -1 -1</clus>
<clus scale="  136.102">  2  7  1 -1</clus>
<clus scale="   49.958">  2  5  1 -1</clus>
</clustering>
</event>
<event>
 9    1  0.4664604E-005  0.1345007E+03  0.7546771E-02  0.1233255E+00
          1   -1    0    0  502    0 -0.00000000000E+00  0.00000000000E+00  0.79157723240E+03  0.79157723240E+03  0.00000000000E+00 0. -1.
         21   -1    0    0  501  502  0.00000000000E+00 -0.00000000000E+00 -0.56855694077E+02  0.56855694077E+02  0.00000000000E+00 0. -1.
         23    2    1    2    0    0  0.46445751028E+02 -0.20432305528E+02  0.32752101027E+03  0.34367963475E+03  0.90944995890E+02 0.  0.
        -24    2    1    2    0    0 -0.12470219529E+03 -0.48708506295E+02  0.35587541106E+03  0.38839698307E+03  0.79257505456E+02 0.  0.
         13    1    4    4    0    0 -0.12408858196E+03 -0.19138207878E+02  0.27581911596E+03  0.30305186339E+03  0.00000000000E+00 0. -1.
        -14    1    4    4    0    0 -0.61361332988E+00 -0.29570298417E+02  0.80056295096E+02  0.85345119686E+02  0.00000000000E+00 0.  1.
        -13    1    3    3    0    0  0.63377203074E+02 -0.42335933270E+02  0.22955961045E+03  0.24188140868E+03  0.00000000000E+00 0.  1.
         13    1    3    3    0    0 -0.16931452046E+02  0.21903627743E+02  0.97961399821E+02  0.10179822607E+03  0.00000000000E+00 0. -1.
          2    1    1    2  501    0  0.78256444264E+02  0.69140811822E+02  0.51325116999E+02  0.11635630865E+03  0.00000000000E+00 0. -1.
<scales pt_clust_5="13000.00000" pt_clust_6="13000.00000" pt_clust_7="13000.00000" pt_clust_8="13000.00000" pt_clust_9="108.66775"></scales>
<clustering>
<clus scale="   79.258">  5  6 -1 -1</clus>
<clus scale="   90.945">  7  8 -1 -1</clus>
<clus scale="  104.143">  1  7  2 -1</clus>
<clus scale="  108.668">  2  9  1 -1</clus>
<clus scale="  108.668">  2  5  1 -1</clus>
</clustering>
</event>
<event>
 9    1  0.4664604E-005  0.9148561E+02  0.7546771E-02  0.1305806E+00
          1   -1    0    0  502    0 -0.00000000000E+00  0.00000000000E+00  0.36299922913E+03  0.36299922913E+03  0.00000000000E+00 0. -1.
         21   -1    0    0  501  502  0.00000000000E+00 -0.00000000000E+00 -0.46480292211E+02  0.46480292211E+02  0.00000000000E+00 0. -1.
        -24    2    1    2    0    0 -0.28378316637E+01  0.15641996070E+02  0.20431169553E+03  0.22028216953E+03  0.80797524421E+02 0.  0.
         23    2    1    2    0    0  0.11893170929E+02  0.15432588760E+02  0.12366807370E+03  0.15486107844E+03  0.91151241651E+02 0.  0.
         11    1    3    3    0    0 -0.40802966298E+02 -0.10782940063E+01  0.97670891924E+02  0.10585673293E+03  0.00000000000E+00 0. -1.
        -12    1    3    3    0    0  0.37965134634E+02  0.16720290077E+02  0.10664080360E+03  0.11442543660E+03  0.00000000000E+00 0.  1.
        -13    1    4    4    0    0  0.29069577231E+02 -0.22078289398E+02  0.16563770871E+02  0.40085529666E+02  0.00000000000E+00 0.  1.
         13    1    4    4    0    0 -0.17176406302E+02  0.37510878159E+02  0.10710430282E+03  0.11477554878E+03  0.00000000000E+00 0. -1.
          2    1    1    2  501    0 -0.90553392655E+01 -0.31074584831E+02 -0.11460832307E+02  0.34336273368E+02  0.00000000000E+00 0. -1.
<scales pt_clust_5="13000.00000" pt_clust_6="13000.00000" pt_clust_7="13000.00000" pt_clust_8="13000.00000" pt_clust_9="32.36710"></scales>
<clustering>
<clus scale="   32.367">  2  9  1 -1</clus>
<clus scale="   80.798">  5  6 -1 -1</clus>
<clus scale="   81.175">  1  5  2 -1</clus>
<clus scale="   91.151">  7  8 -1 -1</clus>
<clus scale="   32.367">  2  5  1 -1</clus>
</clustering>
</event>
<event>
 9    1  0.4664604E-005  0.1427239E+03  0.7546771E-02  0.1211593E+00
         21   -1    0    0  501  502  0.00000000000E+00  0.00000000000E+00  0.76548576565E+02  0.76548576565E+02  0.00000000000E+00 0. -1.
         -4   -1    0    0    0  501 -0.00000000000E+00 -0.00000000000E+00 -0.45131546868E+03  0.45131546868E+03  0.00000000000E+00 0.  1.
        -24    2    1    2    0    0 -0.43182009934E+01 -0.11409523065E+03 -0.30265472883E+03  0.33340070220E+03  0.80745122629E+02 0.  0.
         23    2    1    2    0    0  0.26143747096E+02  0.10100761738E+03 -0.88918710860E+02  0.16396580011E+03  0.89956723945E+02 0.  0.
         13    1    3    3    0    0  0.26728857482E+02 -0.83418052293E+01 -0.42888297006E+02  0.51219367009E+02  0.00000000000E+00 0. -1.
        -14    1    3    3    0    0 -0.31047058476E+02 -0.10575342542E+03 -0.25976643182E+03  0.28218133519E+03  0.00000000000E+00 0.  1.
        -13    1    4    4    0    0  0.37834015629E+02  0.76156092517E+01 -0.47319580280E+02  0.61061877803E+02  0.00000000000E+00 0.  1.
         13    1    4    4    0    0 -0.11690268534E+02  0.93392008129E+02 -0.41599130580E+02  0.10290392231E+03  0.00000000000E+00 0. -1.
         -3    1    1    2    0  502 -0.21825546102E+02  0.13087613264E+02  0.16806547577E+02  0.30497542935E+02  0.00000000000E+00 0.  1.
<scales pt_clust_5="13000.00000" pt_clust_6="13000.00000" pt_clust_7="13000.00000" pt_clust_8="13000.00000" pt_clust_9="25.44877"></scales>
<clustering>
<clus scale="   25.449">  1  9  2 -1</clus>
<clus scale="   80.745">  5  6 -1 -1</clus>
<clus scale="   89.957">  7  8 -1 -1</clus>
<clus scale="  137.105">  2  5  1 -1</clus>
<clus scale="   25.449">  1  5  2 -1</clus>
</clustering>
</event>
<event>
 9    1  0.4664604E-005  0.1256669E+03  0.7546771E-02  0.1245153E+00
         21   -1    0    0  501  502  0.00000000000E+00  0.00000000000E+00  0.16069051012E+03  0.16069051012E+03  0.00000000000E+00 0.  1.
          3   -1    0    0  502    0 -0.00000000000E+00 -0.00000000000E+00 -0.14182326862E+03  0.14182326862E+03  0.00000000000E+00 0. -1.
        -24    2    1    2    0    0  0.66995191476E+02  0.11853498690E+02 -0.36184898420E+02  0.11083050898E+03  0.79656724354E+02 0.  0.
         23    2    1    2    0    0 -0.34687749074E+02 -0.22349072804E+02  0.86135035023E+02  0.14563900543E+03  0.10994887290E+03 0.  0.
         11    1    3    3    0    0  0.52699863612E+02 -0.14907681391E+02 -0.52939616364E+02  0.76171632318E+02  0.00000000000E+00 0. -1.
        -12    1    3    3    0    0  0.14295327864E+02  0.26761180081E+02  0.16754717944E+02  0.34658876662E+02  0.00000000000E+00 0.  1.
        -11    1    4    4    0    0  0.35025098154E+01 -0.26708449972E+02 -0.19482584714E+02  0.33244247353E+02  0.00000000000E+00 0. -1.
         11    1    4    4    0    0 -0.38190258889E+02  0.43593771683E+01  0.10561761974E+03  0.11239475807E+03  0.00000000000E+00 0.  1.
          4    1    1    2  501    0 -0.32307442402E+02  0.10495574114E+02 -0.31082895095E+02  0.46044264334E+02  0.00000000000E+00 0. -1.
<scales pt_clust_5="13000.00000" pt_clust_6="13000.00000" pt_clust_7="13000.00000" pt_clust_8="13000.00000" pt_clust_9="33.96953"></scales>
<clustering>
<clus scale="   33.970">  1  9  2 -1</clus>
<clus scale="   79.657">  5  6 -1 -1</clus>
<clus scale="  100.243">  2  5  1 -1</clus>
<clus scale="  109.949">  7  8 -1 -1</clus>
<clus scale="   33.970">  1  5  2 -1</clus>
</clustering>
</event>
<event>
 9    1  0.4664604E-005  0.9299173E+02  0.7546771E-02  0.1301094E+00
         21   -1    0    0  501  502  0.00000000000E+00  0.00000000000E+00  0.19832489239E+03  0.19832489239E+03  0.00000000000E+00 0. -1.
          1   -1    0    0  502    0 -0.00000000000E+00 -0.00000000000E+00 -0.41018564630E+03  0.41018564630E+03  0.00000000000E+00 0. -1.
         23    2    1    2    0    0 -0.35177460007E+01 -0.26324311161E+02 -0.24038642677E+03  0.25762955277E+03  0.88780675777E+02 0.  0.
        -24    2    1    2    0    0  0.38323773502E+02  0.13920335502E+02 -0.14669458843E+03  0.17180709579E+03  0.79598294786E+02 0.  0.
         11    1    4    4    0    0 -0.87423292811E+01  0.33146847830E+02 -0.86314887380E+02  0.92873040361E+02  0.00000000000E+00 0. -1.
        -12    1    4    4    0    0  0.47066102783E+02 -0.19226512328E+02 -0.60379701050E+02  0.78934055429E+02  0.00000000000E+00 0.  1.
        -11    1    3    3    0    0  0.25936855426E+02  0.16500920278E+02 -0.39082313351E+02  0.49723516129E+02  0.00000000000E+00 0.  1.
         11    1    3    3    0    0 -0.29454601427E+02 -0.42825231439E+02 -0.20130411342E+03  0.20790603664E+03  0.00000000000E+00 0. -1.
          2    1    1    2  501    0 -0.34806027501E+02  0.12403975659E+02  0.17522026129E+03  0.17907389013E+03  0.00000000000E+00 0. -1.
<scales pt_clust_5="13000.00000" pt_clust_6="13000.00000" pt_clust_7="13000.00000" pt_clust_8="13000.00000" pt_clust_9="36.95021"></scales>
<clustering>
<clus scale="   36.950">  1  9  2 -1</clus>
<clus scale="   79.598">  5  6 -1 -1</clus>
<clus scale="   84.269">  1  5  2 -1</clus>
<clus scale="   88.781">  7  8 -1 -1</clus>
<clus scale="   36.950">  1  5  2 -1</clus>
</clustering>
</event>
<event>
 9    1  0.4664604E-005  0.1535232E+03  0.7546771E-02  0.1198737E+00
         21   -1    0    0  501  502  0.00000000000E+00  0.00000000000E+00  0.77269859962E+02  0.77269859962E+02  0.00000000000E+00 0.  1.
          3   -1    0    0  502    0 -0.00000000000E+00 -0.00000000000E+00 -0.65904929367E+03  0.65904929367E+03  0.00000000000E+00 0. -1.
        -24    2    1    2    0    0  0.61485104058E+02 -0.74802755884E+02 -0.19711455983E+03  0.23313974010E+03  0.78256746719E+02 0.  0.
         23    2    1    2    0    0 -0.17566991407E+03  0.63500858505E+02 -0.26779025078E+03  0.33939424557E+03  0.92652888606E+02 0.  0.
         13    1    3    3    0    0  0.47282201579E+02 -0.56286699219E+02 -0.19649524550E+03  0.20979556859E+03  0.00000000000E+00 0. -1.
        -14    1    3    3    0    0  0.14202902479E+02 -0.18516056665E+02 -0.61931433074E+00  0.23344171510E+02  0.00000000000E+00 0.  1.
        -13    1    4    4    0    0 -0.87630343915E+02  0.11312233308E+02 -0.57213702405E+02  0.10526372376E+03  0.00000000000E+00 0.  1.
         13    1    4    4    0    0 -0.88039570158E+02  0.52188625197E+02 -0.21057654838E+03  0.23413052181E+03  0.00000000000E+00 0. -1.
          4    1    1    2  501    0  0.11418481001E+03  0.11301897379E+02 -0.11687462309E+03  0.16378516796E+03  0.00000000000E+00 0. -1.
<scales pt_clust_5="13000.00000" pt_clust_6="13000.00000" pt_clust_7="13000.00000" pt_clust_8="13000.00000" pt_clust_9="114.74277"></scales>
<clustering>
<clus scale="   78.257">  5  6 -1 -1</clus>
<clus scale="   92.653">  7  8 -1 -1</clus>
<clus scale="  114.743">  1  9  2 -1</clus>
<clus scale="  145.289">  2  5  1 -1</clus>
<clus scale="  114.743">  1  5  2 -1</clus>
</clustering>
</event>
<event>
 9    1  0.4664604E-005  0.1183592E+03  0.7546771E-02  0.1251491E+00
          1   -1    0    0  502    0 -0.00000000000E+00  0.00000000000E+00  0.13474673645E+03  0.13474673645E+03  0.00000000000E+00 0. -1.
         21   -1    0    0  501  502  0.00000000000E+00 -0.00000000000E+00 -0.54407348488E+03  0.54407348488E+03  0.00000000000E+00 0.  1.
         23    2    1    2    0    0 -0.48517193958E+02  0.45621213074E+02  0.89476537893E+02  0.14683673793E+03  0.95497453267E+02 0.  0.
        -24    2    1    2    0    0  0.77878384963E+02 -0.64883587564E+02 -0.25452650605E+03  0.28519559069E+03  0.79232946984E+02 0.  0.
         11    1    4    4    0    0  0.27844411716E+02 -0.53369706006E+02 -0.63952582154E+02  0.87826929510E+02  0.00000000000E+00 0. -1.
        -12    1    4    4    0    0  0.50033973246E+02 -0.11513881558E+02 -0.19057392389E+03  0.19736866118E+03  0.00000000000E+00 0.  1.
        -13    1    3    3    0    0 -0.41143195109E+02  0.74139769321E+02  0.53165401457E+02  0.10008010697E+03  0.00000000000E+00 0. -1.
         13    1    3    3    0    0 -0.73739988490E+01 -0.28518556248E+02  0.36311136436E+02  0.46756630961E+02  0.00000000000E+00 0.  1.
          2    1    1    2  501    0 -0.29361191004E+02  0.19262374490E+02 -0.24427678027E+03  0.24678789271E+03  0.00000000000E+00 0. -1.
<scales pt_clust_5="13000.00000" pt_clust_6="13000.00000" pt_clust_7="13000.00000" pt_clust_8="13000.00000" pt_clust_9="35.11579"></scales>
<clustering>
<clus scale="   35.116">  2  9  1 -1</clus>
<clus scale="   79.233">  5  6 -1 -1</clus>
<clus scale="   95.497">  7  8 -1 -1</clus>
<clus scale="  105.674">  2  5  1 -1</clus>
<clus scale="   35.116">  2  5  1 -1</clus>
</clustering>
</event>
<event>
 9    1  0.4664604E-005  0.9730576E+02  0.7546771E-02  0.1291938E+00
          1   -1    0    0  502    0 -0.00000000000E+00  0.00000000000E+00  0.10271059372E+03  0.10271059372E+03  0.00000000000E+00 0. -1.
         21   -1    0    0  501  502  0.00000000000E+00 -0.00000000000E+00 -0.32465238073E+03  0.32465238073E+03  0.00000000000E+00 0. -1.
         23    2    1    2    0    0  0.33334248955E+02  0.16837386360E+02  0.32504325483E+02  0.10328222046E+03  0.90642242662E+02 0.  0.
        -24    2    1    2    0    0 -0.38157532071E+02  0.16870460760E+02 -0.26687391734E+02  0.93790680612E+02  0.79648384742E+02 0.  0.
         13    1    4    4    0    0 -0.14875334489E+02  0.48409658787E+02 -0.13227301919E+02  0.52342450803E+02  0.00000000000E+00 0. -1.
        -14    1    4    4    0    0 -0.23282197582E+02 -0.31539198027E+02 -0.13460089815E+02  0.41448229809E+02  0.00000000000E+00 0.  1.
        -11    1    3    3    0    0  0.39260775880E+02 -0.29747468046E+02  0.26517189437E+02  0.55941770740E+02  0.00000000000E+00 0.  1.
         11    1    3    3    0    0 -0.59265269256E+01  0.46584854406E+02  0.59871360453E+01  0.47340449718E+02  0.00000000000E+00 0. -1.
          2    1    1    2  501    0  0.48232831163E+01 -0.33707847120E+02 -0.22775872076E+03  0.23029007338E+03  0.00000000000E+00 0. -1.
<scales pt_clust_5="13000.00000" pt_clust_6="13000.00000" pt_clust_7="13000.00000" pt_clust_8="13000.00000" pt_clust_9="34.05118"></scales>
<clustering>
<clus scale="   34.051">  2  9  1 -1</clus>
<clus scale="   79.648">  5  6 -1 -1</clus>
<clus scale="   87.157">  2  5  1 -1</clus>
<clus scale="   90.642">  7  8 -1 -1</clus>
<clus scale="   34.051">  2  5  1 -1</clus>
</clustering>
</event>
<event>
 9    1  0.4664604E-005  0.1760062E+03  0.7546771E-02  0.1191059E+00
          1   -1    0    0  502    0 -0.00000000000E+00  0.00000000000E+00  0.89940715710E+03  0.89940715710E+03  0.00000000000E+00 0. -1.
         21   -1    0    0  501  502  0.00000000000E+00 -0.00000000000E+00 -0.74184188759E+02  0.74184188759E+02  0.00000000000E+00 0. -1.
         23    2    1    2    0    0 -0.66533504804E+02  0.19250875853E+02  0.92262260547E+02  0.14672315354E+03  0.90653491834E+02 0.  0.
        -24    2    1    2    0    0  0.99016965112E+02 -0.16302854939E+03  0.57303838288E+03  0.60937717041E+03  0.81147275203E+02 0.  0.
         11    1    4    4    0    0  0.86308015685E+02 -0.74760893861E+02  0.37899757918E+03  0.39582499902E+03  0.00000000000E+00 0. -1.
        -12    1    4    4    0    0  0.12708949426E+02 -0.88267655530E+02  0.19404080370E+03  0.21355217139E+03  0.00000000000E+00 0.  1.
        -13    1    3    3    0    0 -0.85199212153E+01  0.43133185704E+02  0.13426689570E+02  0.45971042617E+02  0.00000000000E+00 0.  1.
         13    1    3    3    0    0 -0.58013583589E+02 -0.23882309851E+02  0.78835570978E+02  0.10075211093E+03  0.00000000000E+00 0. -1.
          2    1    1    2  501    0 -0.32483460308E+02  0.14377767354E+03  0.15992232491E+03  0.21749102190E+03  0.00000000000E+00 0. -1.
<scales pt_clust_5="13000.00000" pt_clust_6="13000.00000" pt_clust_7="13000.00000" pt_clust_8="13000.00000" pt_clust_9="156.18358"></scales>
<clustering>
<clus scale="   81.147">  5  6 -1 -1</clus>
<clus scale="   90.653">  7  8 -1 -1</clus>
<clus scale="  114.085">  1  7  2 -1</clus>
<clus scale="  156.184">  2  9  1 -1</clus>
<clus scale="  156.184">  2  5  1 -1</clus>
</clustering>
</event>
<event>
 9    1  0.4664604E-005  0.1076211E+03  0.7546771E-02  0.1270425E+00
          1   -1    0    0  502    0 -0.00000000000E+00  0.00000000000E+00  0.42638594726E+03  0.42638594726E+03  0.00000000000E+00 0. -1.
         21   -1    0    0  501  502  0.00000000000E+00 -0.00000000000E+00 -0.58656288190E+02  0.58656288190E+02  0.00000000000E+00 0. -1.
         23    2    1    2    0    0 -0.40572991835E+02 -0.13668528990E+02  0.20892485789E+03  0.23265097708E+03  0.92972493467E+02 0.  0.
        -24    2    1    2    0    0  0.87261353586E+02  0.34091508877E+02  0.51781984534E+02  0.13385525323E+03  0.80368402303E+02 0.  0.
         13    1    4    4    0    0  0.81913098668E+02  0.36076473464E+01  0.11102507945E+02  0.82740779157E+02  0.00000000000E+00 0. -1.
        -14    1    4    4    0    0  0.53482549174E+01  0.30483861530E+02  0.40679476590E+02  0.51114474076E+02  0.00000000000E+00 0.  1.
        -11    1    3    3    0    0 -0.64747713378E+02 -0.29665540596E+02  0.12506352050E+03  0.14392079366E+03  0.00000000000E+00 0. -1.
         11    1    3    3    0    0  0.24174721543E+02  0.15997011606E+02  0.83861337390E+02  0.88730183426E+02  0.00000000000E+00 0.  1.
          2    1    1    2  501    0 -0.46688361751E+02 -0.20422979886E+02  0.10702281664E+03  0.11853600513E+03  0.00000000000E+00 0. -1.
<scales pt_clust_5="13000.00000" pt_clust_6="13000.00000" pt_clust_7="13000.00000" pt_clust_8="13000.00000" pt_clust_9="50.95983"></scales>
<clustering>
<clus scale="   50.960">  2  9  1 -1</clus>
<clus scale="   80.368">  5  6 -1 -1</clus>
<clus scale="   92.972">  7  8 -1 -1</clus>
<clus scale="   96.941">  2  5  1 -1</clus>
<clus scale="   50.960">  2  5  1 -1</clus>
</clustering>
</event>
<event>
 9    1  0.4664604E-005  0.1406729E+03  0.7546771E-02  0.1232183E+00
          1   -1    0    0  502    0 -0.00000000000E+00  0.00000000000E+00  0.14615576404E+04  0.14615576404E+04  0.00000000000E+00 0. -1.
         21   -1    0    0  501  502  0.00000000000E+00 -0.00000000000E+00 -0.27830579253E+02  0.27830579253E+02  0.00000000000E+00 0.  1.
        -24    2    1    2    0    0  0.32992960791E+02 -0.99845113313E+01  0.18421036584E+03  0.20637999978E+03  0.86435059446E+02 0.  0.
         23    2    1    2    0    0  0.53839867794E+02  0.86911671521E+02  0.35550402577E+03  0.38150038219E+03  0.93311624476E+02 0.  0.
         11    1    3    3    0    0 -0.25135350148E+02  0.15470211039E+02  0.62596608001E+02  0.69205842166E+02  0.00000000000E+00 0. -1.
        -12    1    3    3    0    0  0.58128310939E+02 -0.25454722370E+02  0.12161375783E+03  0.13717415762E+03  0.00000000000E+00 0.  1.
        -11    1    4    4    0    0 -0.14794418291E+02  0.48440416555E+02  0.77550470279E+02  0.92625181290E+02  0.00000000000E+00 0.  1.
         11    1    4    4    0    0  0.68634286085E+02  0.38471254966E+02  0.27795355549E+03  0.28887520090E+03  0.00000000000E+00 0. -1.
          2    1    1    2  501    0 -0.86832828585E+02 -0.76927160190E+02  0.89401266955E+03  0.90150783769E+03  0.00000000000E+00 0. -1.
<scales pt_clust_5="13000.00000" pt_clust_6="13000.00000" pt_clust_7="13000.00000" pt_clust_8="13000.00000" pt_clust_9="105.27025"></scales>
<clustering>
<clus scale="   86.435">  5  6 -1 -1</clus>
<clus scale="   93.055">  1  5  2 -1</clus>
<clus scale="   93.312">  7  8 -1 -1</clus>
<clus scale="  105.270">  2  9  1 -1</clus>
<clus scale="  105.270">  2  5  1 -1</clus>
</clustering>
</event>
<event>
 9    1  0.4664604E-005  0.1415412E+03  0.7546771E-02  0.1233297E+00
         21   -1    0    0  501  502  0.00000000000E+00  0.00000000000E+00  0.11068616980E+03  0.11068616980E+03  0.00000000000E+00 0.  1.
          3   -1    0    0  502    0 -0.00000000000E+00 -0.00000000000E+00 -0.34757654521E+03  0.34757654521E+03  0.00000000000E+00 0. -1.
        -24    2    1    2    0    0  0.44873484096E+01  0.38781658214E+02 -0.10405467132E+02  0.89888860446E+02  0.80296825445E+02 0.  0.
         23    2    1    2    0    0 -0.11128619768E+03 -0.34488627808E+02 -0.21455337240E+03  0.26082486172E+03  0.91773501841E+02 0.  0.
         11    1    3    3    0    0 -0.10453066742E+02  0.30023222482E+02 -0.42705288587E+02  0.53239103729E+02  0.00000000000E+00 0. -1.
        -12    1    3    3    0    0  0.14940415152E+02  0.87584357313E+01  0.32299821455E+02  0.36649756717E+02  0.00000000000E+00 0.  1.
        -11    1    4    4    0    0 -0.89208192238E+02  0.28030923891E+01 -0.81401720773E+02  0.12079817480E+03  0.00000000000E+00 0.  1.
         11    1    4    4    0    0 -0.22078005442E+02 -0.37291720197E+02 -0.13315165162E+03  0.14002668692E+03  0.00000000000E+00 0. -1.
          4    1    1    2  501    0  0.10679884927E+03 -0.42930304054E+01 -0.11931535882E+02  0.10754899286E+03  0.00000000000E+00 0. -1.
<scales pt_clust_5="13000.00000" pt_clust_6="13000.00000" pt_clust_7="13000.00000" pt_clust_8="13000.00000" pt_clust_9="107.75690"></scales>
<clustering>
<clus scale="   80.297">  5  6 -1 -1</clus>
<clus scale="   89.285">  2  5  1 -1</clus>
<clus scale="   91.774">  7  8 -1 -1</clus>
<clus scale="  107.757">  1  9  2 -1</clus>
<clus scale="  107.757">  1  5  2 -1</clus>
</clustering>
</event>
<event>
 9    1  0.4664604E-005  0.9563991E+02  0.7546771E-02  0.1297037E+00
         21   -1    0    0  501  502  0.00000000000E+00  0.00000000000E+00  0.14927487266E+03  0.14927487266E+03  0.00000000000E+00 0.  1.
          1   -1    0    0  502    0 -0.00000000000E+00 -0.00000000000E+00 -0.35248406260E+03  0.35248406260E+03  0.00000000000E+00 0. -1.
         23    2    1    2    0    0  0.14701523513E+02 -0.18568412741E+01 -0.30834587079E+03  0.32267545313E+03  0.93929172056E+02 0.  0.
        -24    2    1    2    0    0 -0.54219893053E+02  0.18294554341E+02  0.57344986681E+02  0.11492784346E+03  0.81519777863E+02 0.  0.
         11    1    4    4    0    0  0.13687941243E+02  0.27176408211E+02  0.11579353855E+02  0.32557615613E+02  0.00000000000E+00 0. -1.
        -12    1    4    4    0    0 -0.67907834296E+02 -0.88818538697E+01  0.45765632826E+02  0.82370227843E+02  0.00000000000E+00 0.  1.
        -13    1    3    3    0    0 -0.11599681835E+02 -0.42409569251E+02 -0.10855538614E+03  0.11712128775E+03  0.00000000000E+00 0.  1.
         13    1    3    3    0    0  0.26301205348E+02  0.40552727977E+02 -0.19979048465E+03  0.20555416538E+03  0.00000000000E+00 0. -1.
          2    1    1    2  501    0  0.39518369540E+02 -0.16437713067E+02  0.47791694172E+02  0.64155638675E+02  0.00000000000E+00 0. -1.
<scales pt_clust_5="13000.00000" pt_clust_6="13000.00000" pt_clust_7="13000.00000" pt_clust_8="13000.00000" pt_clust_9="42.80070"></scales>
<clustering>
<clus scale="   42.801">  1  9  2 -1</clus>
<clus scale="   81.520">  5  6 -1 -1</clus>
<clus scale="   83.485">  1  5  2 -1</clus>
<clus scale="   93.929">  7  8 -1 -1</clus>
<clus scale="   42.801">  1  5  2 -1</clus>
</clustering>
</event>
<event>
 9    1  0.4664604E-005  0.2875551E+03  0.7546771E-02  0.1129828E+00
          1   -1    0    0  502    0 -0.00000000000E+00  0.00000000000E+00  0.43111155587E+03  0.43111155587E+03  0.00000000000E+00 0. -1.
         21   -1    0    0  501  502  0.00000000000E+00 -0.00000000000E+00 -0.36232732951E+03  0.36232732951E+03  0.00000000000E+00 0. -1.
         23    2    1    2    0    0 -0.49033549685E+01  0.31981740140E+02 -0.65021040296E+02  0.12674856751E+03  0.10387776034E+03 0.  0.
        -24    2    1    2    0    0 -0.26222976127E+03 -0.94332378024E+02 -0.10047725690E+03  0.30594663506E+03  0.76450108663E+02 0.  0.
         13    1    4    4    0    0 -0.13919434421E+03 -0.58587861365E+02 -0.14644137476E+02  0.15173020042E+03  0.00000000000E+00 0. -1.
        -14    1    4    4    0    0 -0.12303541706E+03 -0.35744516659E+02 -0.85833119427E+02  0.15421643464E+03  0.00000000000E+00 0.  1.
        -13    1    3    3    0    0 -0.16588689656E+02  0.68462360956E+02 -0.43948488768E+02  0.83028604452E+02  0.00000000000E+00 0. -1.
         13    1    3    3    0    0  0.11685334688E+02 -0.36480620816E+02 -0.21072551529E+02  0.43719963059E+02  0.00000000000E+00 0.  1.
          2    1    1    2  501    0  0.26713311624E+03  0.62350637883E+02  0.23428252356E+03  0.36074368280E+03  0.00000000000E+00 0. -1.
<scales pt_clust_5="13000.00000" pt_clust_6="13000.00000" pt_clust_7="13000.00000" pt_clust_8="13000.00000" pt_clust_9="277.20646"></scales>
<clustering>
<clus scale="   76.450">  5  6 -1 -1</clus>
<clus scale="  103.878">  7  8 -1 -1</clus>
<clus scale="  108.800">  1  7  2 -1</clus>
<clus scale="  277.206">  2  9  1 -1</clus>
<clus scale="  277.206">  2  5  1 -1</clus>
</clustering>
</event>
<event>
 9    1  0.4664604E-005  0.1407198E+03  0.7546771E-02  0.1214463E+00
         21   -1    0    0  501  502  0.00000000000E+00  0.00000000000E+00  0.15648769891E+03  0.15648769891E+03  0.00000000000E+00 0.  1.
          3   -1    0    0  502    0 -0.00000000000E+00 -0.00000000000E+00 -0.19241744851E+03  0.19241744851E+03  0.00000000000E+00 0. -1.
         23    2    1    2    0    0 -0.99087115368E+02  0.25796082426E+02 -0.99513217670E+02  0.16977460210E+03  0.91852276656E+02 0.  0.
        -24    2    1    2    0    0  0.11348005951E+03 -0.39878366282E+02  0.63741690503E+02  0.15899369864E+03  0.82146120383E+02 0.  0.
         11    1    4    4    0    0  0.67699998289E+02 -0.26276923349E+02 -0.77335910607E+01  0.73031328207E+02  0.00000000000E+00 0. -1.
        -12    1    4    4    0    0  0.45780061225E+02 -0.13601442934E+02  0.71475281563E+02  0.85962370432E+02  0.00000000000E+00 0.  1.
        -13    1    3    3    0    0 -0.35865126067E+02 -0.15973081307E+02  0.61603105883E+01  0.39741615729E+02  0.00000000000E+00 0.  1.
         13    1    3    3    0    0 -0.63221989301E+02  0.41769163733E+02 -0.10567352826E+03  0.13003298637E+03  0.00000000000E+00 0. -1.
          4    1    1    2  501    0 -0.14392944147E+02  0.14082283856E+02 -0.15822242934E+00  0.20136846679E+02  0.00000000000E+00 0. -1.
<scales pt_clust_5="13000.00000" pt_clust_6="13000.00000" pt_clust_7="13000.00000" pt_clust_8="13000.00000" pt_clust_9="20.13623"></scales>
<clustering>
<clus scale="   20.136">  1  9  2 -1</clus>
<clus scale="   82.146">  5  6 -1 -1</clus>
<clus scale="   91.852">  7  8 -1 -1</clus>
<clus scale="  134.585">  1  5  2 -1</clus>
<clus scale="   20.136">  1  5  2 -1</clus>
</clustering>
</event>
<event>
 9    1  0.4664604E-005  0.1044997E+03  0.7546771E-02  0.1273230E+00
          1   -1    0    0  502    0 -0.00000000000E+00  0.00000000000E+00  0.31529072408E+03  0.31529072408E+03  0.00000000000E+00 0. -1.
         21   -1    0    0  501  502  0.00000000000E+00 -0.00000000000E+00 -0.83412249559E+02  0.83412249559E+02  0.00000000000E+00 0. -1.
        -24    2    1    2    0    0  0.54948088602E+02 -0.40398538644E+02  0.22013439398E+03  0.24383530497E+03  0.79656576469E+02 0.  0.
         23    2    1    2    0    0 -0.49844906141E+02 -0.51657289628E+01  0.33530355144E+02  0.10410560887E+03  0.84867506487E+02 0.  0.
         13    1    3    3    0    0  0.68217797452E+02 -0.33392025291E+02  0.21492558450E+03  0.22795109588E+03  0.00000000000E+00 0. -1.
        -14    1    3    3    0    0 -0.13269708850E+02 -0.70065133530E+01  0.52088094809E+01  0.15884209094E+02  0.00000000000E+00 0.  1.
        -11    1    4    4    0    0  0.13241917315E+02  0.25005389526E+02  0.13579539694E+02  0.31385056601E+02  0.00000000000E+00 0.  1.
         11    1    4    4    0    0 -0.63086823457E+02 -0.30171118489E+02  0.19950815450E+02  0.72720552266E+02  0.00000000000E+00 0. -1.
          2    1    1    2  501    0 -0.51031824610E+01  0.45564267607E+02 -0.21786274601E+02  0.50762059797E+02  0.00000000000E+00 0. -1.
<scales pt_clust_5="13000.00000" pt_clust_6="13000.00000" pt_clust_7="13000.00000" pt_clust_8="13000.00000" pt_clust_9="45.84915"></scales>
<clustering>
<clus scale="   45.849">  2  9  1 -1</clus>
<clus scale="   79.657">  5  6 -1 -1</clus>
<clus scale="   84.868">  7  8 -1 -1</clus>
<clus scale="  100.314">  1  5  2 -1</clus>
<clus scale="   45.849">  2  5  1 -1</clus>
</clustering>
</event>
<event>
 9    1  0.4664604E-005  0.1952493E+03  0.7546771E-02  0.1182460E+00
         21   -1    0    0  501  502  0.00000000000E+00  0.00000000000E+00  0.12096533020E+03  0.12096533020E+03  0.00000000000E+00 0. -1.
          1   -1    0    0  502    0 -0.00000000000E+00 -0.00000000000E+00 -0.48764114274E+03  0.48764114274E+03  0.00000000000E+00 0. -1.
         23    2    1    2    0    0 -0.16760322631E+02  0.36982364945E+02 -0.12956096453E+03  0.16437646825E+03  0.92655145848E+02 0.  0.
        -24    2    1    2    0    0  0.17543696626E+03  0.42880386957E+02 -0.11525629129E+03  0.22880984727E+03  0.80331045115E+02 0.  0.
         11    1    4    4    0    0  0.90508767271E+02 -0.33187408208E+01 -0.19318508102E+02  0.92606996220E+02  0.00000000000E+00 0. -1.
        -12    1    4    4    0    0  0.84928198990E+02  0.46199127777E+02 -0.95937783189E+02  0.13620285105E+03  0.00000000000E+00 0.  1.
        -13    1    3    3    0    0  0.25654938153E+02  0.19360331105E+02 -0.10974374683E+03  0.11435334818E+03  0.00000000000E+00 0.  1.
         13    1    3    3    0    0 -0.42415260784E+02  0.17622033840E+02 -0.19817217705E+02  0.50023120070E+02  0.00000000000E+00 0. -1.
          2    1    1    2  501    0 -0.15867664363E+03 -0.79862751901E+02 -0.12185855672E+03  0.21542015741E+03  0.00000000000E+00 0. -1.
<scales pt_clust_5="13000.00000" pt_clust_6="13000.00000" pt_clust_7="13000.00000" pt_clust_8="13000.00000" pt_clust_9="177.95852"></scales>
<clustering>
<clus scale="   80.331">  5  6 -1 -1</clus>
<clus scale="   92.655">  7  8 -1 -1</clus>
<clus scale="  101.161">  2  7  1 -1</clus>
<clus scale="  177.959">  1  9  2 -1</clus>
<clus scale="  177.959">  1  5  2 -1</clus>
</clustering>
</event>
<event>
 9    1  0.4664604E-005  0.1876517E+03  0.7546771E-02  0.1161594E+00
         21   -1    0    0  501  502  0.00000000000E+00  0.00000000000E+00  0.30715187904E+02  0.30715187904E+02  0.00000000000E+00 0.  1.
         -2   -1    0    0    0  501 -0.00000000000E+00 -0.00000000000E+00 -0.14618324556E+04  0.14618324556E+04  0.00000000000E+00 0.  1.
        -24    2    1    2    0    0 -0.14738687176E+03 -0.50555832474E+02 -0.60872876083E+03  0.63340475497E+03  0.79825416966E+02 0.  0.
         23    2    1    2    0    0  0.17855814876E+03  0.18796018109E+02 -0.60881450321E+03  0.64098196317E+03  0.89255111921E+02 0.  0.
         11    1    3    3    0    0 -0.66848880460E+02  0.20763042780E+00 -0.37702224237E+03  0.38290284299E+03  0.00000000000E+00 0. -1.
        -12    1    3    3    0    0 -0.80537991302E+02 -0.50763462902E+02 -0.23170651846E+03  0.25050191198E+03  0.00000000000E+00 0.  1.
        -11    1    4    4    0    0  0.73786492046E+02  0.15392882876E+02 -0.40323042095E+03  0.41021477257E+03  0.00000000000E+00 0.  1.
         11    1    4    4    0    0  0.10477165671E+03  0.34031352336E+01 -0.20558408225E+03  0.23076719060E+03  0.00000000000E+00 0. -1.
         -1    1    1    2    0  502 -0.31171276999E+02  0.31759814365E+02 -0.21357400368E+03  0.21816092539E+03  0.00000000000E+00 0.  1.
<scales pt_clust_5="13000.00000" pt_clust_6="13000.00000" pt_clust_7="13000.00000" pt_clust_8="13000.00000" pt_clust_9="44.50097"></scales>
<clustering>
<clus scale="   44.501">  1  9  2 -1</clus>
<clus scale="   79.825">  5  6 -1 -1</clus>
<clus scale="   89.255">  7  8 -1 -1</clus>
<clus scale="  183.354">  2  5  1 -1</clus>
<clus scale="   44.501">  1  5  2 -1</clus>
</clustering>
</event>
<event>
 9    1  0.4664604E-005  0.8845160E+02  0.7546771E-02  0.1310262E+00
         21   -1    0    0  501  502  0.00000000000E+00  0.00000000000E+00  0.61040903512E+02  0.61040903512E+02  0.00000000000E+00 0.  1.
         -4   -1    0    0    0  501 -0.00000000000E+00 -0.00000000000E+00 -0.43895717780E+03  0.43895717780E+03  0.00000000000E+00 0.  1.
         23    2    1    2    0    0  0.13791101407E+02  0.86325671127E+01 -0.44538163824E+02  0.88970083445E+02  0.75281551647E+02 0.  0.
        -24    2    1    2    0    0 -0.64892670104E+02  0.33593029142E+02 -0.50536403024E+02  0.12052188301E+03  0.81437374794E+02 0.  0.
         13    1    4    4    0    0 -0.14142678187E+02  0.48988612978E+02 -0.61389336201E+01  0.51357434260E+02  0.00000000000E+00 0. -1.
        -14    1    4    4    0    0 -0.50749991918E+02 -0.15395583836E+02 -0.44397469404E+02  0.69164448749E+02  0.00000000000E+00 0.  1.
        -13    1    3    3    0    0 -0.13140521069E+02 -0.28046336799E+02 -0.12917970787E+02  0.33558073113E+02  0.00000000000E+00 0. -1.
         13    1    3    3    0    0  0.26931622476E+02  0.36678903911E+02 -0.31620193037E+02  0.55412010332E+02  0.00000000000E+00 0.  1.
         -3    1    1    2    0  502  0.51101568697E+02 -0.42225596255E+02 -0.28284170744E+03  0.29050611486E+03  0.00000000000E+00 0.  1.
<scales pt_clust_5="13000.00000" pt_clust_6="13000.00000" pt_clust_7="13000.00000" pt_clust_8="13000.00000" pt_clust_9="66.29009"></scales>
<clustering>
<clus scale="   66.290">  1  9  2 -1</clus>
<clus scale="   75.282">  7  8 -1 -1</clus>
<clus scale="   81.437">  5  6 -1 -1</clus>
<clus scale="   82.819">  2  7  1 -1</clus>
<clus scale="   66.290">  1  5  2 -1</clus>
</clustering>
</event>
<event>
 9    1  0.4664604E-005  0.1218244E+03  0.7546771E-02  0.1247794E+00
         -2   -1    0    0    0  501 -0.00000000000E+00  0.00000000000E+00  0.49905936245E+02  0.49905936245E+02  0.00000000000E+00 0.  1.
         21   -1    0    0  501  502  0.00000000000E+00 -0.00000000000E+00 -0.40669700873E+03  0.40669700873E+03  0.00000000000E+00 0. -1.
         23    2    1    2    0    0  0.59186956657E+02 -0.50618806389E+01 -0.68715908125E+02  0.13728308575E+03  0.10293712221E+03 0.  0.
        -24    2    1    2    0    0 -0.76381726990E+02  0.20137701442E+02 -0.22078170473E+03  0.24824700781E+03  0.81500432539E+02 0.  0.
         11    1    4    4    0    0 -0.40572428501E+02  0.41445901984E+02 -0.18310021032E+03  0.19206658159E+03  0.00000000000E+00 0. -1.
        -12    1    4    4    0    0 -0.35809298489E+02 -0.21308200542E+02 -0.37681494413E+02  0.56180426216E+02  0.00000000000E+00 0.  1.
        -13    1    3    3    0    0  0.17186893631E+02 -0.27869184134E+02 -0.81481859270E+02  0.87814430062E+02  0.00000000000E+00 0. -1.
         13    1    3    3    0    0  0.42000063026E+02  0.22807303496E+02  0.12765951145E+02  0.49468655688E+02  0.00000000000E+00 0.  1.
         -1    1    1    2    0  502  0.17194770333E+02 -0.15075820803E+02 -0.67293459623E+02  0.71072851412E+02  0.00000000000E+00 0.  1.
<scales pt_clust_5="13000.00000" pt_clust_6="13000.00000" pt_clust_7="13000.00000" pt_clust_8="13000.00000" pt_clust_9="22.86789"></scales>
<clustering>
<clus scale="   22.868">  2  9  1 -1</clus>
<clus scale="   81.500">  5  6 -1 -1</clus>
<clus scale="  102.937">  7  8 -1 -1</clus>
<clus scale="  104.343">  2  5  1 -1</clus>
<clus scale="   22.868">  2  5  1 -1</clus>
</clustering>
</event>
<event>
 9    1  0.4664604E-005  0.2558012E+03  0.7546771E-02  0.1145088E+00
          3   -1    0    0  502    0 -0.00000000000E+00  0.00000000000E+00  0.31981179531E+03  0.31981179531E+03  0.00000000000E+00 0. -1.
         21   -1    0    0  501  502  0.00000000000E+00 -0.00000000000E+00 -0.39934424008E+03  0.39934424008E+03  0.00000000000E+00 0. -1.
         23    2    1    2    0    0 -0.52566209173E+02 -0.12930131957E+02  0.13456461657E+03  0.17178384677E+03  0.92041617312E+02 0.  0.
        -24    2    1    2    0    0  0.18503873984E+03 -0.17990921655E+03 -0.10679634078E+03  0.28998254169E+03  0.77959955366E+02 0.  0.
         13    1    4    4    0    0  0.19096455560E+03 -0.17673667201E+03 -0.96156804492E+02  0.27739762756E+03  0.00000000000E+00 0. -1.
        -14    1    4    4    0    0 -0.59258157547E+01 -0.31725445361E+01 -0.10639536286E+02  0.12584914127E+02  0.00000000000E+00 0.  1.
        -13    1    3    3    0    0  0.25760392287E+02 -0.99352862195E+01  0.26370489473E+02  0.38179974307E+02  0.00000000000E+00 0.  1.
         13    1    3    3    0    0 -0.78326601461E+02 -0.29948457375E+01  0.10819412710E+03  0.13360387246E+03  0.00000000000E+00 0. -1.
          4    1    1    2  501    0 -0.13247253067E+03  0.19283934851E+03 -0.10730072056E+03  0.25738964693E+03  0.00000000000E+00 0. -1.
<scales pt_clust_5="13000.00000" pt_clust_6="13000.00000" pt_clust_7="13000.00000" pt_clust_8="13000.00000" pt_clust_9="243.63193"></scales>
<clustering>
<clus scale="   77.960">  5  6 -1 -1</clus>
<clus scale="   92.042">  7  8 -1 -1</clus>
<clus scale="  106.780">  1  7  2 -1</clus>
<clus scale="  243.632">  2  9  1 -1</clus>
<clus scale="  243.632">  2  5  1 -1</clus>
</clustering>
</event>
<event>
 9    1  0.4664604E-005  0.9424403E+02  0.7546771E-02  0.1305926E+00
         21   -1    0    0  501  502  0.00000000000E+00  0.00000000000E+00  0.81273606929E+02  0.81273606929E+02  0.00000000000E+00 0. -1.
          1   -1    0    0  502    0 -0.00000000000E+00 -0.00000000000E+00 -0.14255154796E+03  0.14255154796E+03  0.00000000000E+00 0. -1.
        -24    2    1    2    0    0 -0.79910533917E+01 -0.67436101930E+01 -0.11786625082E+02  0.72052037147E+02  0.70308166763E+02 0.  0.
         23    2    1    2    0    0  0.32846379365E+02  0.27398447773E+02 -0.10859785763E+02  0.10140641575E+03  0.91300419667E+02 0.  0.
         11    1    3    3    0    0 -0.13509407259E+02 -0.37486875883E+02 -0.65929285943E+01  0.40388570851E+02  0.00000000000E+00 0. -1.
        -12    1    3    3    0    0  0.55183538676E+01  0.30743265690E+02 -0.51936964875E+01  0.31663466296E+02  0.00000000000E+00 0.  1.
        -13    1    4    4    0    0 -0.18680449918E+02  0.42234181351E+02  0.21485861215E+01  0.46230960469E+02  0.00000000000E+00 0.  1.
         13    1    4    4    0    0  0.51526829283E+02 -0.14835733578E+02 -0.13008371885E+02  0.55175455284E+02  0.00000000000E+00 0. -1.
          2    1    1    2  501    0 -0.24855325973E+02 -0.20654837580E+02 -0.38631530183E+02  0.50366701986E+02  0.00000000000E+00 0. -1.
<scales pt_clust_5="13000.00000" pt_clust_6="13000.00000" pt_clust_7="13000.00000" pt_clust_8="13000.00000" pt_clust_9="32.31734"></scales>
<clustering>
<clus scale="   32.317">  1  9  2 -1</clus>
<clus scale="   70.308">  5  6 -1 -1</clus>
<clus scale="   74.091">  2  5  1 -1</clus>
<clus scale="   91.300">  7  8 -1 -1</clus>
<clus scale="   32.317">  1  5  2 -1</clus>
</clustering>
</event>
<event>
 9    1  0.4664604E-005  0.2057686E+03  0.7546771E-02  0.1158979E+00
         21   -1    0    0  501  502  0.00000000000E+00  0.00000000000E+00  0.10278288709E+03  0.10278288709E+03  0.00000000000E+00 0.  1.
          1   -1    0    0  502    0 -0.00000000000E+00 -0.00000000000E+00 -0.77306126419E+03  0.77306126419E+03  0.00000000000E+00 0. -1.
        -24    2    1    2    0    0  0.74190068331E+02  0.99004306340E+02 -0.12237221381E+03  0.19187290785E+03  0.80834615993E+02 0.  0.
         23    2    1    2    0    0  0.13402158152E+03  0.57239587699E+01 -0.31543237452E+03  0.35478411865E+03  0.91540373265E+02 0.  0.
         11    1    3    3    0    0  0.46284082937E+01  0.61183349473E+02 -0.83628582558E+02  0.10372349896E+03  0.00000000000E+00 0. -1.
        -12    1    3    3    0    0  0.69561660037E+02  0.37820956867E+02 -0.38743631249E+02  0.88149408891E+02  0.00000000000E+00 0.  1.
        -11    1    4    4    0    0  0.11551343892E+03 -0.32083950503E+02 -0.22187651174E+03  0.25219421268E+03  0.00000000000E+00 0. -1.
         11    1    4    4    0    0  0.18508142602E+02  0.37807909273E+02 -0.93555862781E+02  0.10258990597E+03  0.00000000000E+00 0.  1.
          2    1    1    2  501    0 -0.20821164985E+03 -0.10472826511E+03 -0.23247378877E+03  0.32918712477E+03  0.00000000000E+00 0. -1.
<scales pt_clust_5="13000.00000" pt_clust_6="13000.00000" pt_clust_7="13000.00000" pt_clust_8="13000.00000" pt_clust_9="184.28531"></scales>
<clustering>
<clus scale="   80.835">  5  6 -1 -1</clus>
<clus scale="   91.540">  7  8 -1 -1</clus>
<clus scale="  147.785">  2  5  1 -1</clus>
<clus scale="  184.285">  1  9  2 -1</clus>
<clus scale="  184.285">  1  5  2 -1</clus>
</clustering>
</event>
<event>
 9    1  0.4664604E-005  0.1118322E+03  0.7546771E-02  0.1263355E+00
         21   -1    0    0  501  502  0.00000000000E+00  0.00000000000E+00  0.19243177052E+03  0.19243177052E+03  0.00000000000E+00 0. -1.
         -2   -1    0    0    0  501 -0.00000000000E+00 -0.00000000000E+00 -0.90363736047E+02  0.90363736047E+02  0.00000000000E+00 0.  1.
         23    2    1    2    0    0 -0.19001625946E+02  0.66174464902E+02  0.18383513783E+02  0.11792952886E+03  0.93964347513E+02 0.  0.
        -24    2    1    2    0    0  0.47922491738E+02 -0.32938350537E+02  0.63096872854E+02  0.11623566803E+03  0.78409278835E+02 0.  0.
         11    1    4    4    0    0  0.40763443451E+02 -0.33581615436E+02  0.81139336613E+02  0.96814126878E+02  0.00000000000E+00 0. -1.
        -12    1    4    4    0    0  0.71590482872E+01  0.64326489825E+00 -0.18042463759E+02  0.19421541149E+02  0.00000000000E+00 0.  1.
        -13    1    3    3    0    0  0.19592491557E+02 -0.15060678662E+02  0.12772458025E+02  0.27817718296E+02  0.00000000000E+00 0. -1.
         13    1    3    3    0    0 -0.38594117503E+02  0.81235143564E+02  0.56110557577E+01  0.90111810560E+02  0.00000000000E+00 0.  1.
         -1    1    1    2    0  502 -0.28920865792E+02 -0.33236114364E+02  0.20587647832E+02  0.48630309679E+02  0.00000000000E+00 0.  1.
<scales pt_clust_5="13000.00000" pt_clust_6="13000.00000" pt_clust_7="13000.00000" pt_clust_8="13000.00000" pt_clust_9="44.05741"></scales>
<clustering>
<clus scale="   44.057">  1  9  2 -1</clus>
<clus scale="   78.409">  5  6 -1 -1</clus>
<clus scale="   93.964">  7  8 -1 -1</clus>
<clus scale="   99.122">  1  5  2 -1</clus>
<clus scale="   44.057">  1  5  2 -1</clus>
</clustering>
</event>
<event>
 9    1  0.4664604E-005  0.1111541E+03  0.7546771E-02  0.1261821E+00
         21   -1    0    0  501  502  0.00000000000E+00  0.00000000000E+00  0.56164355943E+03  0.56164355943E+03  0.00000000000E+00 0. -1.
          3   -1    0    0  502    0 -0.00000000000E+00 -0.00000000000E+00 -0.49576935571E+02  0.49576935571E+02  0.00000000000E+00 0. -1.
         23    2    1    2    0    0  0.58110414586E+02  0.24291147798E+02  0.20176038324E+03  0.22920142299E+03  0.88651903032E+02 0.  0.
        -24    2    1    2    0    0 -0.76780805162E+02 -0.78700729020E-01  0.32838935274E+03  0.34649689554E+03  0.79531335915E+02 0.  0.
         13    1    4    4    0    0 -0.63713337990E+02 -0.33402958978E+02  0.25321443425E+03  0.26323506001E+03  0.00000000000E+00 0. -1.
        -14    1    4    4    0    0 -0.13067467173E+02  0.33324258249E+02  0.75174918487E+02  0.83261835529E+02  0.00000000000E+00 0.  1.
        -13    1    3    3    0    0  0.30480018624E+02 -0.15442121426E+02  0.16916249508E+02  0.38126764180E+02  0.00000000000E+00 0.  1.
         13    1    3    3    0    0  0.27630395961E+02  0.39733269224E+02  0.18484413373E+03  0.19107465881E+03  0.00000000000E+00 0. -1.
          4    1    1    2  501    0  0.18670390577E+02 -0.24212447069E+02 -0.18083112118E+02  0.35522176471E+02  0.00000000000E+00 0. -1.
<scales pt_clust_5="13000.00000" pt_clust_6="13000.00000" pt_clust_7="13000.00000" pt_clust_8="13000.00000" pt_clust_9="30.57494"></scales>
<clustering>
<clus scale="   30.575">  1  9  2 -1</clus>
<clus scale="   79.531">  5  6 -1 -1</clus>
<clus scale="   88.652">  7  8 -1 -1</clus>
<clus scale="  104.026">  1  5  2 -1</clus>
<clus scale="   30.575">  1  5  2 -1</clus>
</clustering>
</event>
<event>
 9    1  0.4664604E-005  0.9049236E+02  0.7546771E-02  0.1306981E+00
         -2   -1    0    0    0  501 -0.00000000000E+00  0.00000000000E+00  0.26327489521E+03  0.26327489521E+03  0.00000000000E+00 0.  1.
         21   -1    0    0  501  502  0.00000000000E+00 -0.00000000000E+00 -0.49411483810E+02  0.49411483810E+02  0.00000000000E+00 0.  1.
         23    2    1    2    0    0 -0.33785884208E+01  0.10147595353E+01  0.86267214150E+02  0.12388922655E+03  0.88848543161E+02 0.  0.
        -24    2    1    2    0    0 -0.39440509141E+02  0.15412982388E+02  0.67061315904E+02  0.11285100260E+03  0.80280850202E+02 0.  0.
         13    1    4    4    0    0  0.21528853125E+02  0.72300873947E+01  0.39235810778E+02  0.45334473947E+02  0.00000000000E+00 0. -1.
        -14    1    4    4    0    0 -0.60969362266E+02  0.81828949930E+01  0.27825505125E+02  0.67516528651E+02  0.00000000000E+00 0.  1.
        -13    1    3    3    0    0  0.85097360389E+01 -0.42209837712E+02  0.51682990922E+02  0.67269737310E+02  0.00000000000E+00 0. -1.
         13    1    3    3    0    0 -0.11888324460E+02  0.43224597248E+02  0.34584223228E+02  0.56619489242E+02  0.00000000000E+00 0.  1.
         -1    1    1    2    0  502  0.42819097562E+02 -0.16427741923E+02  0.60534881345E+02  0.75946149870E+02  0.00000000000E+00 0.  1.
<scales pt_clust_5="13000.00000" pt_clust_6="13000.00000" pt_clust_7="13000.00000" pt_clust_8="13000.00000" pt_clust_9="45.86227"></scales>
<clustering>
<clus scale="   45.862">  2  9  1 -1</clus>
<clus scale="   80.281">  5  6 -1 -1</clus>
<clus scale="   82.096">  2  5  1 -1</clus>
<clus scale="   88.849">  7  8 -1 -1</clus>
<clus scale="   45.862">  2  5  1 -1</clus>
</clustering>
</event>
<event>
 9    1  0.4664604E-005  0.9265761E+02  0.7546771E-02  0.1302005E+00
         21   -1    0    0  501  502  0.00000000000E+00  0.00000000000E+00  0.19290720246E+03  0.19290720246E+03  0.00000000000E+00 0. -1.
         -2   -1    0    0    0  501 -0.00000000000E+00 -0.00000000000E+00 -0.93335521491E+02  0.93335521491E+02  0.00000000000E+00 0.  1.
        -24    2    1    2    0    0  0.94609912565E+01 -0.27199791293E+02 -0.31085222835E+02  0.92128443457E+02  0.81804767668E+02 0.  0.
         23    2    1    2    0    0  0.24582098457E+01 -0.21306852676E+02  0.90254173271E+02  0.12986988386E+03  0.90886446598E+02 0.  0.
         11    1    3    3    0    0 -0.29817789717E+01 -0.55488786161E+02 -0.16583171675E+02  0.57990499034E+02  0.00000000000E+00 0. -1.
        -12    1    3    3    0    0  0.12442770228E+02  0.28288994868E+02 -0.14502051161E+02  0.34137944423E+02  0.00000000000E+00 0.  1.
        -13    1    4    4    0    0  0.26277093932E+02 -0.18591000778E+02 -0.41629914742E+01  0.32456763139E+02  0.00000000000E+00 0.  1.
         13    1    4    4    0    0 -0.23818884087E+02 -0.27158518982E+01  0.94417164745E+02  0.97413120724E+02  0.00000000000E+00 0. -1.
         -1    1    1    2    0  502 -0.11919201102E+02  0.48506643969E+02  0.40402730537E+02  0.64244396635E+02  0.00000000000E+00 0.  1.
<scales pt_clust_5="13000.00000" pt_clust_6="13000.00000" pt_clust_7="13000.00000" pt_clust_8="13000.00000" pt_clust_9="49.94959"></scales>
<clustering>
<clus scale="   49.950">  1  9  2 -1</clus>
<clus scale="   81.805">  5  6 -1 -1</clus>
<clus scale="   83.768">  2  5  1 -1</clus>
<clus scale="   90.886">  7  8 -1 -1</clus>
<clus scale="   49.950">  1  5  2 -1</clus>
</clustering>
</event>
<event>
 9    1  0.4664604E-005  0.1517233E+03  0.7546771E-02  0.1200350E+00
         21   -1    0    0  501  502  0.00000000000E+00  0.00000000000E+00  0.20128252559E+03  0.20128252559E+03  0.00000000000E+00 0.  1.
         -4   -1    0    0    0  501 -0.00000000000E+00 -0.00000000000E+00 -0.23198026035E+03  0.23198026035E+03  0.00000000000E+00 0.  1.
         23    2    1    2    0    0 -0.51086603907E+02  0.11309548081E+03 -0.14172437720E+03  0.20941447272E+03  0.91477830182E+02 0.  0.
        -24    2    1    2    0    0  0.75955603279E+02 -0.87723326841E+02  0.43829499521E+02  0.14783733149E+03  0.80437651706E+02 0.  0.
         13    1    4    4    0    0  0.46353482498E+02 -0.81884886685E+02  0.61935792741E+02  0.11264911198E+03  0.00000000000E+00 0. -1.
        -14    1    4    4    0    0  0.29602120781E+02 -0.58384401567E+01 -0.18106293220E+02  0.35188219511E+02  0.00000000000E+00 0.  1.
        -11    1    3    3    0    0  0.15925833339E+02  0.41120532003E+02 -0.10324144932E+02  0.45289273435E+02  0.00000000000E+00 0. -1.
         11    1    3    3    0    0 -0.67012437246E+02  0.71974948810E+02 -0.13140023227E+03  0.16412519929E+03  0.00000000000E+00 0.  1.
         -3    1    1    2    0  502 -0.24868999371E+02 -0.25372153971E+02  0.67197142921E+02  0.76010981730E+02  0.00000000000E+00 0.  1.
<scales pt_clust_5="13000.00000" pt_clust_6="13000.00000" pt_clust_7="13000.00000" pt_clust_8="13000.00000" pt_clust_9="35.52764"></scales>
<clustering>
<clus scale="   35.528">  1  9  2 -1</clus>
<clus scale="   80.438">  5  6 -1 -1</clus>
<clus scale="   91.478">  7  8 -1 -1</clus>
<clus scale="  145.334">  1  5  2 -1</clus>
<clus scale="   35.528">  1  5  2 -1</clus>
</clustering>
</event>
<event>
 9    1  0.4664604E-005  0.1590892E+03  0.7546771E-02  0.1207987E+00
         21   -1    0    0  501  502  0.00000000000E+00  0.00000000000E+00  0.51771453056E+03  0.51771453056E+03  0.00000000000E+00 0. -1.
          1   -1    0    0  502    0 -0.00000000000E+00 -0.00000000000E+00 -0.11741065571E+03  0.11741065571E+03  0.00000000000E+00 0. -1.
        -24    2    1    2    0    0  0.14206324713E+02 -0.47553368491E+02  0.27214405289E+03  0.29239576453E+03  0.94708790915E+02 0.  0.
         23    2    1    2    0    0 -0.13480264046E+03  0.29566965005E+02  0.14467697944E+03  0.21968553293E+03  0.91018392120E+02 0.  0.
         13    1    3    3    0    0  0.46093244518E+02 -0.57336254546E+02  0.18602422708E+03  0.20004261131E+03  0.00000000000E+00 0. -1.
        -14    1    3    3    0    0 -0.31886919805E+02  0.97828860547E+01  0.86119825802E+02  0.92353153224E+02  0.00000000000E+00 0.  1.
        -11    1    4    4    0    0 -0.33861852394E+02  0.47266195617E+02  0.28451590408E+02  0.64731841411E+02  0.00000000000E+00 0.  1.
         11    1    4    4    0    0 -0.10094078806E+03 -0.17699230612E+02  0.11622538904E+03  0.15495369152E+03  0.00000000000E+00 0. -1.
          2    1    1    2  501    0  0.12059631575E+03  0.17986403486E+02 -0.16517157476E+02  0.12304388881E+03  0.00000000000E+00 0. -1.
<scales pt_clust_5="13000.00000" pt_clust_6="13000.00000" pt_clust_7="13000.00000" pt_clust_8="13000.00000" pt_clust_9="130.48007"></scales>
<clustering>
<clus scale="   91.018">  7  8 -1 -1</clus>
<clus scale="   94.709">  5  6 -1 -1</clus>
<clus scale="  106.925">  2  5  1 -1</clus>
<clus scale="  130.480">  1  9  2 -1</clus>
<clus scale="  130.480">  1  5  2 -1</clus>
</clustering>
</event>
<event>
 9    1  0.4664604E-005  0.1002526E+03  0.7546771E-02  0.1281993E+00
         21   -1    0    0  501  502  0.00000000000E+00  0.00000000000E+00  0.23865417803E+03  0.23865417803E+03  0.00000000000E+00 0. -1.
         -4   -1    0    0    0  501 -0.00000000000E+00 -0.00000000000E+00 -0.96893972428E+02  0.96893972428E+02  0.00000000000E+00 0.  1.
         23    2    1    2    0    0 -0.56207789698E+02  0.49731046399E+02 -0.52668111072E+01  0.11299849824E+03  0.84311498064E+02 0.  0.
        -24    2    1    2    0    0 -0.74214609805E+01 -0.12766985780E+02  0.11906253211E+03  0.14382839894E+03  0.79326211187E+02 0.  0.
         11    1    4    4    0    0 -0.24434972058E+02 -0.18086293014E+02  0.12202798391E+03  0.12575774613E+03  0.00000000000E+00 0. -1.
        -12    1    4    4    0    0  0.17013511077E+02  0.53193072343E+01 -0.29654518036E+01  0.18070652812E+02  0.00000000000E+00 0.  1.
        -13    1    3    3    0    0 -0.57245306194E+02  0.72478455548E-01  0.15276055472E+02  0.59248529139E+02  0.00000000000E+00 0.  1.
         13    1    3    3    0    0  0.10375164967E+01  0.49658567943E+02 -0.20542866579E+02  0.53749969097E+02  0.00000000000E+00 0. -1.
         -3    1    1    2    0  502  0.63629250678E+02 -0.36964060619E+02  0.27964484606E+02  0.78721253284E+02  0.00000000000E+00 0.  1.
<scales pt_clust_5="13000.00000" pt_clust_6="13000.00000" pt_clust_7="13000.00000" pt_clust_8="13000.00000" pt_clust_9="73.58688"></scales>
<clustering>
<clus scale="   73.587">  1  9  2 -1</clus>
<clus scale="   79.326">  5  6 -1 -1</clus>
<clus scale="   84.311">  7  8 -1 -1</clus>
<clus scale="   96.098">  1  5  2 -1</clus>
<clus scale="   73.587">  1  5  2 -1</clus>
</clustering>
</event>
<event>
 9    1  0.4664604E-005  0.8948535E+02  0.7546771E-02  0.1308449E+00
         21   -1    0    0  501  502  0.00000000000E+00  0.00000000000E+00  0.23791605460E+03  0.23791605460E+03  0.00000000000E+00 0.  1.
          3   -1    0    0  502    0 -0.00000000000E+00 -0.00000000000E+00 -0.50108180253E+02  0.50108180253E+02  0.00000000000E+00 0. -1.
         23    2    1    2    0    0  0.16036514047E+02 -0.69998927371E+01  0.30822188272E+02  0.95449035760E+02  0.88624730502E+02 0.  0.
        -24    2    1    2    0    0  0.84505402253E+01  0.15223596020E+02  0.10226135728E+03  0.13206076045E+03  0.81728145404E+02 0.  0.
         13    1    4    4    0    0 -0.36658641350E+02  0.92583283837E+01  0.51527533048E+02  0.63911339308E+02  0.00000000000E+00 0. -1.
        -14    1    4    4    0    0  0.45109181576E+02  0.59652676368E+01  0.50733824235E+02  0.68149421142E+02  0.00000000000E+00 0.  1.
        -13    1    3    3    0    0  0.47371847487E+02 -0.24542240314E+02  0.11157691217E+02  0.54506032393E+02  0.00000000000E+00 0.  1.
         13    1    3    3    0    0 -0.31335333440E+02  0.17542347577E+02  0.19664497055E+02  0.40943003367E+02  0.00000000000E+00 0. -1.
          4    1    1    2  501    0 -0.24487054272E+02 -0.82237032834E+01  0.54724328789E+02  0.60514438641E+02  0.00000000000E+00 0. -1.
<scales pt_clust_5="13000.00000" pt_clust_6="13000.00000" pt_clust_7="13000.00000" pt_clust_8="13000.00000" pt_clust_9="25.83109"></scales>
<clustering>
<clus scale="   25.831">  1  9  2 -1</clus>
<clus scale="   81.728">  5  6 -1 -1</clus>
<clus scale="   82.661">  1  5  2 -1</clus>
<clus scale="   88.625">  7  8 -1 -1</clus>
<clus scale="   25.831">  1  5  2 -1</clus>
</clustering>
</event>
<event>
 9    1  0.4664604E-005  0.1191229E+03  0.7546771E-02  0.1254272E+00
         21   -1    0    0  501  502  0.00000000000E+00  0.00000000000E+00  0.29180838255E+02  0.29180838255E+02  0.00000000000E+00 0. -1.
          3   -1    0    0  502    0 -0.00000000000E+00 -0.00000000000E+00 -0.56603642276E+03  0.56603642276E+03  0.00000000000E+00 0. -1.
         23    2    1    2    0    0  0.77013560535E+02 -0.34441126266E+02 -0.39787375798E+03  0.41671887717E+03  0.90740374784E+02 0.  0.
        -24    2    1    2    0    0 -0.63896043836E+02  0.17996744242E+02 -0.12177475594E+03  0.15132173536E+03  0.60519329045E+02 0.  0.
         11    1    4    4    0    0 -0.26340478580E+02  0.15285918560E+02 -0.80137256275E+01  0.31491267305E+02  0.00000000000E+00 0. -1.
        -12    1    4    4    0    0 -0.37555565256E+02  0.27108256822E+01 -0.11376103031E+03  0.11983046805E+03  0.00000000000E+00 0.  1.
        -13    1    3    3    0    0  0.91487360042E+02 -0.48594122133E+02 -0.32774222086E+03  0.34372414679E+03  0.00000000000E+00 0. -1.
         13    1    3    3    0    0 -0.14473799507E+02  0.14152995867E+02 -0.70131537118E+02  0.72994730377E+02  0.00000000000E+00 0.  1.
          4    1    1    2  501    0 -0.13117516700E+02  0.16444382024E+02 -0.17207070585E+02  0.27176648480E+02  0.00000000000E+00 0. -1.
<scales pt_clust_5="13000.00000" pt_clust_6="13000.00000" pt_clust_7="13000.00000" pt_clust_8="13000.00000" pt_clust_9="21.03537"></scales>
<clustering>
<clus scale="   21.035">  1  9  2 -1</clus>
<clus scale="   60.519">  5  6 -1 -1</clus>
<clus scale="   90.740">  7  8 -1 -1</clus>
<clus scale="   98.077">  1  5  2 -1</clus>
<clus scale="   21.035">  1  5  2 -1</clus>
</clustering>
</event>
<event>
 9    1  0.4664604E-005  0.2204900E+03  0.7546771E-02  0.1134307E+00
          1   -1    0    0  502    0 -0.00000000000E+00  0.00000000000E+00  0.21095421867E+04  0.21095421867E+04  0.00000000000E+00 0. -1.
         21   -1    0    0  501  502  0.00000000000E+00 -0.00000000000E+00 -0.35877405105E+02  0.35877405105E+02  0.00000000000E+00 0. -1.
        -24    2    1    2    0    0 -0.18728374542E+03  0.14355661492E+03  0.13745080244E+04  0.13969121207E+04  0.80046617480E+02 0.  0.
         23    2    1    2    0    0  0.10241444390E+03 -0.11163264350E+03  0.46163675194E+03  0.49426803433E+03  0.90784544969E+02 0.  0.
         11    1    3    3    0    0 -0.17008711780E+03  0.12913603524E+03  0.10426136741E+04  0.10642598446E+04  0.00000000000E+00 0. -1.
        -12    1    3    3    0    0 -0.17196627624E+02  0.14420579676E+02  0.33189435021E+03  0.33265227614E+03  0.00000000000E+00 0.  1.
        -11    1    4    4    0    0 -0.12515103962E+02 -0.20941028626E+02  0.12209088642E+03  0.12450437363E+03  0.00000000000E+00 0.  1.
         11    1    4    4    0    0  0.11492954786E+03 -0.90691614876E+02  0.33954586552E+03  0.36976366070E+03  0.00000000000E+00 0. -1.
          2    1    1    2  501    0  0.84869301523E+02 -0.31923971418E+02  0.23752000532E+03  0.25423943679E+03  0.00000000000E+00 0. -1.
<scales pt_clust_5="13000.00000" pt_clust_6="13000.00000" pt_clust_7="13000.00000" pt_clust_8="13000.00000" pt_clust_9="90.67490"></scales>
<clustering>
<clus scale="   80.047">  5  6 -1 -1</clus>
<clus scale="   90.675">  2  9  1 -1</clus>
<clus scale="   90.785">  7  8 -1 -1</clus>
<clus scale="  216.290">  1  5  2 -1</clus>
<clus scale="   90.675">  2  5  1 -1</clus>
</clustering>
</event>
<event>
 9    1  0.4664604E-005  0.1071236E+03  0.7546771E-02  0.1272050E+00
          1   -1    0    0  502    0 -0.00000000000E+00  0.00000000000E+00  0.23202035876E+03  0.23202035876E+03  0.00000000000E+00 0. -1.
         21   -1    0    0  501  502  0.00000000000E+00 -0.00000000000E+00 -0.11186480841E+03  0.11186480841E+03  0.00000000000E+00 0. -1.
         23    2    1    2    0    0  0.43750982099E+02  0.75486344008E+02  0.13102684637E+03  0.18169016434E+03  0.90724554455E+02 0.  0.
        -24    2    1    2    0    0 -0.24765838924E+02  0.21591071512E+01  0.59158902026E+01  0.80518437226E+02  0.76355827905E+02 0.  0.
         13    1    4    4    0    0  0.21997154957E+01  0.25570926067E+02 -0.23081260787E+02  0.34517468153E+02  0.00000000000E+00 0. -1.
        -14    1    4    4    0    0 -0.26965554419E+02 -0.23411818915E+02  0.28997150990E+02  0.46000969072E+02  0.00000000000E+00 0.  1.
        -11    1    3    3    0    0  0.35745664515E+02  0.43967882645E+02  0.13733398372E+03  0.14856497003E+03  0.00000000000E+00 0. -1.
         11    1    3    3    0    0  0.80053175840E+01  0.31518461363E+02 -0.63071373506E+01  0.33125194307E+02  0.00000000000E+00 0.  1.
          2    1    1    2  501    0 -0.18985143176E+02 -0.77645451159E+02 -0.16787186222E+02  0.81676565601E+02  0.00000000000E+00 0. -1.
<scales pt_clust_5="13000.00000" pt_clust_6="13000.00000" pt_clust_7="13000.00000" pt_clust_8="13000.00000" pt_clust_9="79.93280"></scales>
<clustering>
<clus scale="   76.356">  5  6 -1 -1</clus>
<clus scale="   79.933">  2  9  1 -1</clus>
<clus scale="   90.725">  7  8 -1 -1</clus>
<clus scale="   95.261">  2  5  1 -1</clus>
<clus scale="   79.933">  2  5  1 -1</clus>
</clustering>
</event>
<event>
 9    1  0.4664604E-005  0.1267984E+03  0.7546771E-02  0.1234902E+00
          1   -1    0    0  502    0 -0.00000000000E+00  0.00000000000E+00  0.21445681903E+03  0.21445681903E+03  0.00000000000E+00 0. -1.
         21   -1    0    0  501  502  0.00000000000E+00 -0.00000000000E+00 -0.14041470553E+03  0.14041470553E+03  0.00000000000E+00 0. -1.
        -24    2    1    2    0    0 -0.61910249027E+02 -0.76090158098E+02  0.12471260514E+03  0.17739307096E+03  0.79325132529E+02 0.  0.
         23    2    1    2    0    0  0.11016765239E+02  0.70833281598E+02 -0.53535575329E+02  0.12623403783E+03  0.89051960018E+02 0.  0.
         11    1    3    3    0    0 -0.76496069206E+02 -0.43562806993E+02  0.10364933890E+03  0.13598732372E+03  0.00000000000E+00 0. -1.
        -12    1    3    3    0    0  0.14585820178E+02 -0.32527351105E+02  0.21063266232E+02  0.41405747240E+02  0.00000000000E+00 0.  1.
        -13    1    4    4    0    0  0.28147983280E+02  0.38018025556E+01  0.12094692505E+02  0.30871414807E+02  0.00000000000E+00 0.  1.
         13    1    4    4    0    0 -0.17131218040E+02  0.67031479042E+02 -0.65630267834E+02  0.95362623024E+02  0.00000000000E+00 0. -1.
          2    1    1    2  501    0  0.50893483788E+02  0.52568765001E+01  0.28650836963E+01  0.51244415766E+02  0.00000000000E+00 0. -1.
<scales pt_clust_5="13000.00000" pt_clust_6="13000.00000" pt_clust_7="13000.00000" pt_clust_8="13000.00000" pt_clust_9="51.16426"></scales>
<clustering>
<clus scale="   51.164">  2  9  1 -1</clus>
<clus scale="   79.325">  5  6 -1 -1</clus>
<clus scale="   89.052">  7  8 -1 -1</clus>
<clus scale="  120.167">  1  5  2 -1</clus>
<clus scale="   51.164">  2  5  1 -1</clus>
</clustering>
</event>
<event>
 9    1  0.4664604E-005  0.9209812E+02  0.7546771E-02  0.1304160E+00
          1   -1    0    0  502    0 -0.00000000000E+00  0.00000000000E+00  0.33675277333E+03  0.33675277333E+03  0.00000000000E+00 0. -1.
         21   -1    0    0  501  502  0.00000000000E+00 -0.00000000000E+00 -0.24297403032E+03  0.24297403032E+03  0.00000000000E+00 0. -1.
         23    2    1    2    0    0 -0.14537622620E+02 -0.13305826018E+02  0.29886374365E+03  0.31276618851E+03  0.90081984496E+02 0.  0.
        -24    2    1    2    0    0 -0.75102268525E+01  0.27146597928E+02 -0.29647898005E+02  0.89602639230E+02  0.79726368376E+02 0.  0.
         11    1    4    4    0    0 -0.30534857359E+02 -0.28355853357E+00  0.13620299446E+02  0.33436065504E+02  0.00000000000E+00 0. -1.
        -12    1    4    4    0    0  0.23024630506E+02  0.27430156461E+02 -0.43268197452E+02  0.56166573726E+02  0.00000000000E+00 0.  1.
        -11    1    3    3    0    0 -0.27148859151E+02  0.33762275424E+02  0.14989324290E+03  0.15602863859E+03  0.00000000000E+00 0.  1.
         11    1    3    3    0    0  0.12611236531E+02 -0.47068101442E+02  0.14897050076E+03  0.15673754992E+03  0.00000000000E+00 0. -1.
          2    1    1    2  501    0  0.22047849472E+02 -0.13840771910E+02 -0.17543710264E+03  0.17735797591E+03  0.00000000000E+00 0. -1.
<scales pt_clust_5="13000.00000" pt_clust_6="13000.00000" pt_clust_7="13000.00000" pt_clust_8="13000.00000" pt_clust_9="26.03218"></scales>
<clustering>
<clus scale="   26.032">  2  9  1 -1</clus>
<clus scale="   79.726">  5  6 -1 -1</clus>
<clus scale="   81.998">  2  5  1 -1</clus>
<clus scale="   90.082">  7  8 -1 -1</clus>
<clus scale="   26.032">  2  5  1 -1</clus>
</clustering>
</event>
<event>
 9    1  0.4664604E-005  0.3060560E+03  0.7546771E-02  0.1129228E+00
         21   -1    0    0  501  502  0.00000000000E+00  0.00000000000E+00  0.12492242752E+03  0.12492242752E+03  0.00000000000E+00 0. -1.
         -2   -1    0    0    0  501 -0.00000000000E+00 -0.00000000000E+00 -0.96939791731E+03  0.96939791731E+03  0.00000000000E+00 0.  1.
         23    2    1    2    0    0  0.21288115228E+02  0.21461908902E+02 -0.11082798355E+03  0.14376923856E+03  0.86446252866E+02 0.  0.
        -24    2    1    2    0    0 -0.29934487393E+03  0.50026029195E+02 -0.33129562075E+03  0.45627069384E+03  0.79474527881E+02 0.  0.
         13    1    4    4    0    0 -0.26751806254E+03  0.17686766629E+02 -0.28961147457E+03  0.39465623231E+03  0.00000000000E+00 0. -1.
        -14    1    4    4    0    0 -0.31826811392E+02  0.32339262566E+02 -0.41684146175E+02  0.61614461525E+02  0.00000000000E+00 0.  1.
        -11    1    3    3    0    0  0.26009343719E+02 -0.11584319698E+02 -0.47360041164E+00  0.28476423949E+02  0.00000000000E+00 0. -1.
         11    1    3    3    0    0 -0.47212284916E+01  0.33046228599E+02 -0.11035438313E+03  0.11529281461E+03  0.00000000000E+00 0.  1.
         -1    1    1    2    0  502  0.27805675870E+03 -0.71487938097E+02 -0.40235188549E+03  0.49428041243E+03  0.00000000000E+00 0.  1.
<scales pt_clust_5="13000.00000" pt_clust_6="13000.00000" pt_clust_7="13000.00000" pt_clust_8="13000.00000" pt_clust_9="295.55739"></scales>
<clustering>
<clus scale="   79.475">  5  6 -1 -1</clus>
<clus scale="   86.446">  7  8 -1 -1</clus>
<clus scale="   91.579">  2  7  1 -1</clus>
<clus scale="  295.557">  1  9  2 -1</clus>
<clus scale="  295.557">  1  5  2 -1</clus>
</clustering>
</event>
<event>
 9    1  0.4664604E-005  0.1160552E+03  0.7546771E-02  0.1253881E+00
         21   -1    0    0  501  502  0.00000000000E+00  0.00000000000E+00  0.32267584269E+03  0.32267584269E+03  0.00000000000E+00 0. -1.
          3   -1    0    0  502    0 -0.00000000000E+00 -0.00000000000E+00 -0.10149078700E+03  0.10149078700E+03  0.00000000000E+00 0. -1.
         23    2    1    2    0    0  0.42486401337E+02  0.86055512793E+02  0.60680978591E+02  0.14746699090E+03  0.94094030963E+02 0.  0.
        -24    2    1    2    0    0  0.25692924233E+02 -0.31086970095E+02  0.16517577622E+03  0.18899681161E+03  0.82524127898E+02 0.  0.
         13    1    4    4    0    0  0.55133703798E+02 -0.11161846970E+02  0.98153107634E+02  0.11312976912E+03  0.00000000000E+00 0. -1.
        -14    1    4    4    0    0 -0.29440779565E+02 -0.19925123125E+02  0.67022668585E+02  0.75867042497E+02  0.00000000000E+00 0.  1.
        -11    1    3    3    0    0  0.57952608760E+01  0.95754530486E+02  0.49237279821E+02  0.10782775562E+03  0.00000000000E+00 0. -1.
         11    1    3    3    0    0  0.36691140461E+02 -0.96990176937E+01  0.11443698770E+02  0.39639235287E+02  0.00000000000E+00 0.  1.
          4    1    1    2  501    0 -0.68179325571E+02 -0.54968542697E+02 -0.46716991248E+01  0.87702827174E+02  0.00000000000E+00 0. -1.
<scales pt_clust_5="13000.00000" pt_clust_6="13000.00000" pt_clust_7="13000.00000" pt_clust_8="13000.00000" pt_clust_9="87.57836"></scales>
<clustering>
<clus scale="   82.524">  5  6 -1 -1</clus>
<clus scale="   87.578">  1  9  2 -1</clus>
<clus scale="   94.094">  7  8 -1 -1</clus>
<clus scale="  106.889">  1  5  2 -1</clus>
<clus scale="   87.578">  1  5  2 -1</clus>
</clustering>
</event>
<event>
 9    1  0.4664604E-005  0.9355436E+02  0.7546771E-02  0.1300673E+00
         21   -1    0    0  501  502  0.00000000000E+00  0.00000000000E+00  0.40304747029E+02  0.40304747029E+02  0.00000000000E+00 0. -1.
          1   -1    0    0  502    0 -0.00000000000E+00 -0.00000000000E+00 -0.44394094526E+03  0.44394094526E+03  0.00000000000E+00 0. -1.
        -24    2    1    2    0    0 -0.21387707065E+02 -0.83892236848E+01 -0.30343674105E+03  0.31509386171E+03  0.81746393081E+02 0.  0.
         23    2    1    2    0    0 -0.43477892866E+01 -0.23662079146E+02 -0.69512739208E+02  0.11785586148E+03  0.92082495145E+02 0.  0.
         13    1    3    3    0    0 -0.42487599224E+02 -0.26186914685E+02 -0.25016655715E+03  0.25509656388E+03  0.00000000000E+00 0. -1.
        -14    1    3    3    0    0  0.21099892159E+02  0.17797691000E+02 -0.53270183906E+02  0.59997297834E+02  0.00000000000E+00 0.  1.
        -11    1    4    4    0    0 -0.28476272278E+02 -0.31915875575E+02  0.10921376830E+01  0.42786843320E+02  0.00000000000E+00 0. -1.
         11    1    4    4    0    0  0.24128482991E+02  0.82537964295E+01 -0.70604876891E+02  0.75069018161E+02  0.00000000000E+00 0.  1.
          2    1    1    2  501    0  0.25735496352E+02  0.32051302830E+02 -0.30686717973E+02  0.51295969097E+02  0.00000000000E+00 0. -1.
<scales pt_clust_5="13000.00000" pt_clust_6="13000.00000" pt_clust_7="13000.00000" pt_clust_8="13000.00000" pt_clust_9="41.10477"></scales>
<clustering>
<clus scale="   41.105">  1  9  2 -1</clus>
<clus scale="   81.746">  5  6 -1 -1</clus>
<clus scale="   83.401">  2  5  1 -1</clus>
<clus scale="   92.082">  7  8 -1 -1</clus>
<clus scale="   41.105">  1  5  2 -1</clus>
</clustering>
</event>
<event>
 9    1  0.4664604E-005  0.1569217E+03  0.7546771E-02  0.1211251E+00
          3   -1    0    0  502    0 -0.00000000000E+00  0.00000000000E+00  0.11966651470E+03  0.11966651470E+03  0.00000000000E+00 0. -1.
         21   -1    0    0  501  502  0.00000000000E+00 -0.00000000000E+00 -0.36316419812E+03  0.36316419812E+03  0.00000000000E+00 0. -1.
        -24    2    1    2    0    0 -0.56876045940E+02  0.31314728241E+02 -0.70729239540E+01  0.10415017992E+03  0.81127904673E+02 0.  0.
         23    2    1    2    0    0 -0.49390391555E+02  0.86200949383E+02 -0.11558119236E+03  0.17941774677E+03  0.94666263140E+02 0.  0.
         13    1    3    3    0    0 -0.62228002045E+02  0.35185959482E+02  0.21637488728E+02  0.74689737593E+02  0.00000000000E+00 0. -1.
        -14    1    3    3    0    0  0.53519561051E+01 -0.38712312410E+01 -0.28710412682E+02  0.29460442323E+02  0.00000000000E+00 0.  1.
        -13    1    4    4    0    0  0.25112277038E+02  0.46210732616E+01 -0.12981653520E+02  0.28644442816E+02  0.00000000000E+00 0.  1.
         13    1    4    4    0    0 -0.74502668593E+02  0.81579876122E+02 -0.10259953884E+03  0.15077330396E+03  0.00000000000E+00 0. -1.
          4    1    1    2  501    0  0.10626643750E+03 -0.11751567762E+03 -0.12084356711E+03  0.19926278613E+03  0.00000000000E+00 0. -1.
<scales pt_clust_5="13000.00000" pt_clust_6="13000.00000" pt_clust_7="13000.00000" pt_clust_8="13000.00000" pt_clust_9="125.15081"></scales>
<clustering>
<clus scale="   81.128">  5  6 -1 -1</clus>
<clus scale="   94.666">  7  8 -1 -1</clus>
<clus scale="  103.910">  1  5  2 -1</clus>
<clus scale="  125.151">  2  9  1 -1</clus>
<clus scale="  125.151">  2  5  1 -1</clus>
</clustering>
</event>
<event>
 9    1  0.4664604E-005  0.1071346E+03  0.7546771E-02  0.1272389E+00
          1   -1    0    0  502    0 -0.00000000000E+00  0.00000000000E+00  0.91518750540E+03  0.91518750540E+03  0.00000000000E+00 0. -1.
         21   -1    0    0  501  502  0.00000000000E+00 -0.00000000000E+00 -0.42191533192E+02  0.42191533192E+02  0.00000000000E+00 0. -1.
         23    2    1    2    0    0  0.44097458657E+02  0.70803527092E+01  0.49058881942E+03  0.50172634674E+03  0.95169427944E+02 0.  0.
        -24    2    1    2    0    0 -0.15108308338E+02 -0.90271375409E+02  0.33292881077E+03  0.35461199004E+03  0.80813911182E+02 0.  0.
         13    1    4    4    0    0  0.32124842800E+02 -0.37817695695E+02  0.16895771423E+03  0.17609342075E+03  0.00000000000E+00 0. -1.
        -14    1    4    4    0    0 -0.47233151138E+02 -0.52453679714E+02  0.16397109654E+03  0.17851856929E+03  0.00000000000E+00 0.  1.
        -11    1    3    3    0    0  0.19947563751E+02 -0.43856451640E+02  0.25244405901E+03  0.25700057700E+03  0.00000000000E+00 0.  1.
         11    1    3    3    0    0  0.24149894906E+02  0.50936804350E+02  0.23814476041E+03  0.24472576974E+03  0.00000000000E+00 0. -1.
          2    1    1    2  501    0 -0.28989150320E+02  0.83191022700E+02  0.49478342017E+02  0.10104070181E+03  0.00000000000E+00 0. -1.
<scales pt_clust_5="13000.00000" pt_clust_6="13000.00000" pt_clust_7="13000.00000" pt_clust_8="13000.00000" pt_clust_9="88.09720"></scales>
<clustering>
<clus scale="   80.814">  5  6 -1 -1</clus>
<clus scale="   88.097">  2  9  1 -1</clus>
<clus scale="   94.612">  2  5  1 -1</clus>
<clus scale="   95.169">  7  8 -1 -1</clus>
<clus scale="   88.097">  2  5  1 -1</clus>
</clustering>
</event>
<event>
 9    1  0.4664604E-005  0.1164516E+03  0.7546771E-02  0.1249557E+00
          1   -1    0    0  502    0 -0.00000000000E+00  0.00000000000E+00  0.23351753084E+03  0.23351753084E+03  0.00000000000E+00 0. -1.
         21   -1    0    0  501  502  0.00000000000E+00 -0.00000000000E+00 -0.12561709315E+03  0.12561709315E+03  0.00000000000E+00 0. -1.
        -24    2    1    2    0    0  0.41817928419E+02  0.83931474024E+02  0.57817325953E+02  0.14138270265E+03  0.88617120004E+02 0.  0.
         23    2    1    2    0    0 -0.64045105781E+02 -0.67557303710E+01 -0.18337569458E+02  0.11224584362E+03  0.90085778505E+02 0.  0.
         11    1    3    3    0    0 -0.10715161282E+02  0.34410267176E+02  0.59047836194E+02  0.69177511719E+02  0.00000000000E+00 0. -1.
        -12    1    3    3    0    0  0.52533089701E+02  0.49521206848E+02 -0.12305102407E+01  0.72205190926E+02  0.00000000000E+00 0.  1.
        -13    1    4    4    0    0 -0.22139327622E+02  0.12156717911E+02 -0.50276941271E+02  0.56264610916E+02  0.00000000000E+00 0. -1.
         13    1    4    4    0    0 -0.41905778160E+02 -0.18912448282E+02  0.31939371813E+02  0.55981232703E+02  0.00000000000E+00 0.  1.
          2    1    1    2  501    0  0.22227177362E+02 -0.77175743653E+02  0.68420681200E+02  0.10550607773E+03  0.00000000000E+00 0. -1.
<scales pt_clust_5="13000.00000" pt_clust_6="13000.00000" pt_clust_7="13000.00000" pt_clust_8="13000.00000" pt_clust_9="80.31282"></scales>
<clustering>
<clus scale="   80.313">  2  9  1 -1</clus>
<clus scale="   88.617">  5  6 -1 -1</clus>
<clus scale="   90.086">  7  8 -1 -1</clus>
<clus scale="  115.319">  1  5  2 -1</clus>
<clus scale="   80.313">  2  5  1 -1</clus>
</clustering>
</event>
<event>
 9    1  0.4664604E-005  0.9382511E+02  0.7546771E-02  0.1299347E+00
         21   -1    0    0  501  502  0.00000000000E+00  0.00000000000E+00  0.11086608325E+03  0.11086608325E+03  0.00000000000E+00 0.  1.
         -2   -1    0    0    0  501 -0.00000000000E+00 -0.00000000000E+00 -0.19214791906E+03  0.19214791906E+03  0.00000000000E+00 0.  1.
        -24    2    1    2    0    0  0.36880750772E+02 -0.52642735649E+01 -0.98737083751E+02  0.13303835762E+03  0.81007965880E+02 0.  0.
         23    2    1    2    0    0  0.28071530763E+02  0.28406000405E+02  0.20304949532E+02  0.10096507161E+03  0.90480622300E+02 0.  0.
         11    1    3    3    0    0  0.46530796374E+02 -0.17242512685E+02 -0.10522916979E+03  0.11634258648E+03  0.00000000000E+00 0. -1.
        -12    1    3    3    0    0 -0.96500456022E+01  0.11978239121E+02  0.64920860403E+01  0.16695771132E+02  0.00000000000E+00 0.  1.
        -11    1    4    4    0    0  0.55758178813E+02  0.27842703413E+02  0.32978060629E+02  0.70510588713E+02  0.00000000000E+00 0.  1.
         11    1    4    4    0    0 -0.27686648050E+02  0.56329699213E+00 -0.12673111097E+02  0.30454482899E+02  0.00000000000E+00 0. -1.
         -1    1    1    2    0  502 -0.64952281534E+02 -0.23141726840E+02 -0.28497015954E+01  0.69010573080E+02  0.00000000000E+00 0.  1.
<scales pt_clust_5="13000.00000" pt_clust_6="13000.00000" pt_clust_7="13000.00000" pt_clust_8="13000.00000" pt_clust_9="68.95171"></scales>
<clustering>
<clus scale="   68.952">  1  9  2 -1</clus>
<clus scale="   81.008">  5  6 -1 -1</clus>
<clus scale="   84.727">  2  5  1 -1</clus>
<clus scale="   90.481">  7  8 -1 -1</clus>
<clus scale="   68.952">  1  5  2 -1</clus>
</clustering>
</event>
<event>
 9    1  0.8698223E-005  0.1109530E+03  0.7546771E-02  0.1262704E+00
         21   -1    0    0  501  502  0.00000000000E+00  0.00000000000E+00  0.19846641020E+03  0.19846641020E+03  0.00000000000E+00 0. -1.
          1   -1    0    0  502    0 -0.00000000000E+00 -0.00000000000E+00 -0.72198220363E+03  0.72198220363E+03  0.00000000000E+00 0. -1.
        -24    2    1    2    0    0 -0.43814131235E+02 -0.76471454563E+02  0.29982970556E+02  0.12350739552E+03  0.81163641895E+02 0.  0.
         23    2    1    2    0    0 -0.35923847999E+02  0.39187944851E+02  0.95261162400E+02  0.14223697401E+03  0.91271297989E+02 0.  0.
         13    1    3    3    0    0 -0.49858663222E+02 -0.83207051109E+02  0.52193532070E+01  0.97141861730E+02  0.00000000000E+00 0. -1.
        -14    1    3    3    0    0  0.60445319867E+01  0.67355965457E+01  0.24763617349E+02  0.26365533789E+02  0.00000000000E+00 0.  1.
        -13    1    4    4    0    0 -0.22925779968E+02 -0.28067304980E+02  0.24457466306E+02  0.43721077915E+02  0.00000000000E+00 0.  1.
         13    1    4    4    0    0 -0.12998068031E+02  0.67255249831E+02  0.70803696094E+02  0.98515896093E+02  0.00000000000E+00 0. -1.
          2    1    1    2  501    0  0.79737979234E+02  0.37283509712E+02 -0.64875992638E+03  0.65470424430E+03  0.00000000000E+00 0. -1.
<scales pt_clust_5="13000.00000" pt_clust_6="13000.00000" pt_clust_7="13000.00000" pt_clust_8="13000.00000" pt_clust_9="88.02394"></scales>
<clustering>
<clus scale="   81.164">  5  6 -1 -1</clus>
<clus scale="   88.024">  1  9  2 -1</clus>
<clus scale="   91.271">  7  8 -1 -1</clus>
<clus scale="  102.799">  2  5  1 -1</clus>
<clus scale="   88.024">  1  5  2 -1</clus>
</clustering>
</event>
<event>
 9    1  0.4664604E-005  0.9001644E+02  0.7546771E-02  0.1305926E+00
          1   -1    0    0  502    0 -0.00000000000E+00  0.00000000000E+00  0.27246924965E+03  0.27246924965E+03  0.00000000000E+00 0. -1.
         21   -1    0    0  501  502  0.00000000000E+00 -0.00000000000E+00 -0.84911626578E+02  0.84911626578E+02  0.00000000000E+00 0. -1.
         23    2    1    2    0    0 -0.72287740150E+01  0.22447828625E+02  0.18871816625E+03  0.20959432431E+03  0.88085607938E+02 0.  0.
        -24    2    1    2    0    0 -0.16835039448E+02  0.91715556106E+01 -0.38313810563E+02  0.93387858415E+02  0.82980769061E+02 0.  0.
         13    1    4    4    0    0 -0.37911646785E+02 -0.14314764830E+02 -0.45596094059E+02  0.61001715119E+02  0.00000000000E+00 0. -1.
        -14    1    4    4    0    0  0.21076607337E+02  0.23486320440E+02  0.72822834958E+01  0.32386143296E+02  0.00000000000E+00 0.  1.
        -13    1    3    3    0    0 -0.16051109612E+02  0.46281845453E+02  0.17279311375E+03  0.17960263778E+03  0.00000000000E+00 0. -1.
         13    1    3    3    0    0  0.88223355966E+01 -0.23834016828E+02  0.15925052496E+02  0.29991686524E+02  0.00000000000E+00 0.  1.
          2    1    1    2  501    0  0.24063813463E+02 -0.31619384235E+02  0.37153267392E+02  0.54398693511E+02  0.00000000000E+00 0. -1.
<scales pt_clust_5="13000.00000" pt_clust_6="13000.00000" pt_clust_7="13000.00000" pt_clust_8="13000.00000" pt_clust_9="39.73480"></scales>
<clustering>
<clus scale="   39.735">  2  9  1 -1</clus>
<clus scale="   82.981">  5  6 -1 -1</clus>
<clus scale="   85.028">  2  5  1 -1</clus>
<clus scale="   88.086">  7  8 -1 -1</clus>
<clus scale="   39.735">  2  5  1 -1</clus>
</clustering>
</event>
<event>
 9    1  0.4664604E-005  0.1112052E+03  0.7546771E-02  0.1262062E+00
         21   -1    0    0  501  502  0.00000000000E+00  0.00000000000E+00  0.63654302803E+02  0.63654302803E+02  0.00000000000E+00 0. -1.
          3   -1    0    0  502    0 -0.00000000000E+00 -0.00000000000E+00 -0.49146844984E+03  0.49146844984E+03  0.00000000000E+00 0. -1.
        -24    2    1    2    0    0  0.68877023655E+02 -0.14038314143E+02 -0.30667407629E+03  0.32491744361E+03  0.81124826303E+02 0.  0.
         23    2    1    2    0    0 -0.54495717446E+02 -0.26561334769E+02 -0.14454857885E+03  0.18118376570E+03  0.90873415137E+02 0.  0.
         13    1    3    3    0    0  0.48740612895E+02  0.31167387872E+02 -0.16464955401E+03  0.17451799062E+03  0.00000000000E+00 0. -1.
        -14    1    3    3    0    0  0.20136410760E+02 -0.45205702015E+02 -0.14202452227E+03  0.15039945299E+03  0.00000000000E+00 0.  1.
        -11    1    4    4    0    0 -0.13492691637E+02  0.32469915713E+02 -0.31424580880E+02  0.47157739953E+02  0.00000000000E+00 0.  1.
         11    1    4    4    0    0 -0.41003025809E+02 -0.59031250482E+02 -0.11312399797E+03  0.13402602574E+03  0.00000000000E+00 0. -1.
          4    1    1    2  501    0 -0.14381306208E+02  0.40599648912E+02  0.23408508101E+02  0.49021543341E+02  0.00000000000E+00 0. -1.
<scales pt_clust_5="13000.00000" pt_clust_6="13000.00000" pt_clust_7="13000.00000" pt_clust_8="13000.00000" pt_clust_9="43.07149"></scales>
<clustering>
<clus scale="   43.071">  1  9  2 -1</clus>
<clus scale="   81.125">  5  6 -1 -1</clus>
<clus scale="   90.873">  7  8 -1 -1</clus>
<clus scale="  103.392">  2  5  1 -1</clus>
<clus scale="   43.071">  1  5  2 -1</clus>
</clustering>
</event>
<event>
 9    1  0.4664604E-005  0.9100657E+02  0.7546771E-02  0.1303321E+00
         -2   -1    0    0    0  501 -0.00000000000E+00  0.00000000000E+00  0.15408956464E+02  0.15408956464E+02  0.00000000000E+00 0.  1.
         21   -1    0    0  501  502  0.00000000000E+00 -0.00000000000E+00 -0.17783029537E+04  0.17783029537E+04  0.00000000000E+00 0.  1.
         23    2    1    2    0    0  0.96506820462E+01 -0.13986295015E+02 -0.21346250330E+03  0.23267205885E+03  0.91001618351E+02 0.  0.
        -24    2    1    2    0    0  0.35779574682E+02 -0.59388172525E+02 -0.93843702444E+03  0.94398072734E+03  0.75022874943E+02 0.  0.
         11    1    4    4    0    0 -0.19747435773E+02 -0.81897435371E+01 -0.10664435016E+03  0.10876603578E+03  0.00000000000E+00 0. -1.
        -12    1    4    4    0    0  0.55527010455E+02 -0.51198428988E+02 -0.83179267428E+03  0.83521469156E+03  0.00000000000E+00 0.  1.
        -13    1    3    3    0    0  0.14918633306E+00 -0.49476713804E+02 -0.78442537166E+02  0.92742649857E+02  0.00000000000E+00 0.  1.
         13    1    3    3    0    0  0.95014957131E+01  0.35490418789E+02 -0.13501996613E+03  0.13992940899E+03  0.00000000000E+00 0. -1.
         -1    1    1    2    0  502 -0.45430256728E+02  0.73374467540E+02 -0.61099446948E+03  0.61705912395E+03  0.00000000000E+00 0.  1.
<scales pt_clust_5="13000.00000" pt_clust_6="13000.00000" pt_clust_7="13000.00000" pt_clust_8="13000.00000" pt_clust_9="86.30018"></scales>
<clustering>
<clus scale="   75.023">  5  6 -1 -1</clus>
<clus scale="   86.300">  2  9  1 -1</clus>
<clus scale="   86.300">  2  5  1 -1</clus>
<clus scale="   91.002">  7  8 -1 -1</clus>
<clus scale="   86.300">  2  5  1 -1</clus>
</clustering>
</event>
<event>
 9    1  0.4664604E-005  0.9693231E+02  0.7546771E-02  0.1294808E+00
         21   -1    0    0  501  502  0.00000000000E+00  0.00000000000E+00  0.93005464269E+02  0.93005464269E+02  0.00000000000E+00 0. -1.
          1   -1    0    0  502    0 -0.00000000000E+00 -0.00000000000E+00 -0.22005818655E+03  0.22005818655E+03  0.00000000000E+00 0. -1.
         23    2    1    2    0    0  0.31438861232E+02 -0.31219281927E+02 -0.71637865879E+02  0.12434660718E+03  0.91471576625E+02 0.  0.
        -24    2    1    2    0    0  0.43591078146E+02  0.31367516477E+02 -0.63191666351E+02  0.11328500436E+03  0.77176436387E+02 0.  0.
         13    1    4    4    0    0  0.47763494587E+02  0.25775184118E+02 -0.48091774670E+01  0.54487060109E+02  0.00000000000E+00 0. -1.
        -14    1    4    4    0    0 -0.41724164402E+01  0.55923323591E+01 -0.58382488884E+02  0.58797944253E+02  0.00000000000E+00 0.  1.
        -13    1    3    3    0    0  0.90717928281E+01  0.31290445220E+02 -0.37559571204E+02  0.49720325585E+02  0.00000000000E+00 0.  1.
         13    1    3    3    0    0  0.22367068404E+02 -0.62509727148E+02 -0.34078294675E+02  0.74626281597E+02  0.00000000000E+00 0. -1.
          2    1    1    2  501    0 -0.75029939379E+02 -0.14823454988E+00  0.77768099449E+01  0.75432039278E+02  0.00000000000E+00 0. -1.
<scales pt_clust_5="13000.00000" pt_clust_6="13000.00000" pt_clust_7="13000.00000" pt_clust_8="13000.00000" pt_clust_9="75.03009"></scales>
<clustering>
<clus scale="   75.030">  1  9  2 -1</clus>
<clus scale="   77.176">  5  6 -1 -1</clus>
<clus scale="   83.576">  1  5  2 -1</clus>
<clus scale="   91.472">  7  8 -1 -1</clus>
<clus scale="   75.030">  1  5  2 -1</clus>
</clustering>
</event>
<event>
 9    1  0.4664604E-005  0.1059125E+03  0.7546771E-02  0.1272381E+00
          1   -1    0    0  502    0 -0.00000000000E+00  0.00000000000E+00  0.16921677673E+03  0.16921677673E+03  0.00000000000E+00 0. -1.
         21   -1    0    0  501  502  0.00000000000E+00 -0.00000000000E+00 -0.33830590307E+03  0.33830590307E+03  0.00000000000E+00 0. -1.
         23    2    1    2    0    0 -0.41233199248E+02  0.32373816345E+02  0.80539670584E+02  0.13162233528E+03  0.89941980756E+02 0.  0.
        -24    2    1    2    0    0  0.78849167195E+02  0.15572834625E+02  0.52809690306E+01  0.11380717184E+03  0.80401986191E+02 0.  0.
         13    1    4    4    0    0  0.65283877149E+02  0.36139175345E+02  0.28573046077E+02  0.79902713173E+02  0.00000000000E+00 0. -1.
        -14    1    4    4    0    0  0.13565290046E+02 -0.20566340720E+02 -0.23292077047E+02  0.33904458671E+02  0.00000000000E+00 0.  1.
        -11    1    3    3    0    0 -0.46314814321E+02 -0.19998800996E+02  0.30170127291E+02  0.58781380110E+02  0.00000000000E+00 0.  1.
         11    1    3    3    0    0  0.50816150726E+01  0.52372617341E+02  0.50369543292E+02  0.72840955172E+02  0.00000000000E+00 0. -1.
          2    1    1    2  501    0 -0.37615967947E+02 -0.47946650970E+02 -0.25490976595E+03  0.26209317267E+03  0.00000000000E+00 0. -1.
<scales pt_clust_5="13000.00000" pt_clust_6="13000.00000" pt_clust_7="13000.00000" pt_clust_8="13000.00000" pt_clust_9="60.94130"></scales>
<clustering>
<clus scale="   60.941">  2  9  1 -1</clus>
<clus scale="   80.402">  5  6 -1 -1</clus>
<clus scale="   89.942">  7  8 -1 -1</clus>
<clus scale="   97.941">  2  5  1 -1</clus>
<clus scale="   60.941">  2  5  1 -1</clus>
</clustering>
</event>
<event>
 9    1  0.4664604E-005  0.1596920E+03  0.7546771E-02  0.1190801E+00
         21   -1    0    0  501  502  0.00000000000E+00  0.00000000000E+00  0.30174687962E+02  0.30174687962E+02  0.00000000000E+00 0.  1.
          1   -1    0    0  502    0 -0.00000000000E+00 -0.00000000000E+00 -0.13175626547E+04  0.13175626547E+04  0.00000000000E+00 0. -1.
         23    2    1    2    0    0  0.50747119506E+02  0.12648062944E+03 -0.87310154701E+03  0.88840061884E+03  0.91524468881E+02 0.  0.
        -24    2    1    2    0    0 -0.10490526027E+02 -0.12406603938E+03 -0.37411527918E+03  0.40241446020E+03  0.80453231125E+02 0.  0.
         11    1    4    4    0    0  0.27031904968E+02 -0.37374447157E+02 -0.18952827031E+03  0.19506034562E+03  0.00000000000E+00 0. -1.
        -12    1    4    4    0    0 -0.37522430995E+02 -0.86691592223E+02 -0.18458700887E+03  0.20735411458E+03  0.00000000000E+00 0.  1.
        -13    1    3    3    0    0 -0.63237825155E+01  0.10127145499E+03 -0.56648827523E+03  0.57550400850E+03  0.00000000000E+00 0. -1.
         13    1    3    3    0    0  0.57070902021E+02  0.25209174447E+02 -0.30661327178E+03  0.31289661034E+03  0.00000000000E+00 0.  1.
          2    1    1    2  501    0 -0.40256593478E+02 -0.24145900602E+01 -0.40171140574E+02  0.56922263647E+02  0.00000000000E+00 0. -1.
<scales pt_clust_5="13000.00000" pt_clust_6="13000.00000" pt_clust_7="13000.00000" pt_clust_8="13000.00000" pt_clust_9="40.32894"></scales>
<clustering>
<clus scale="   40.329">  1  9  2 -1</clus>
<clus scale="   80.453">  5  6 -1 -1</clus>
<clus scale="   91.524">  7  8 -1 -1</clus>
<clus scale="  153.615">  1  5  2 -1</clus>
<clus scale="   40.329">  1  5  2 -1</clus>
</clustering>
</event>
<event>
 9    1  0.4664604E-005  0.9266218E+02  0.7546771E-02  0.1301853E+00
         21   -1    0    0  501  502  0.00000000000E+00  0.00000000000E+00  0.64337459985E+02  0.64337459985E+02  0.00000000000E+00 0. -1.
          1   -1    0    0  502    0 -0.00000000000E+00 -0.00000000000E+00 -0.25136338088E+03  0.25136338088E+03  0.00000000000E+00 0. -1.
        -24    2    1    2    0    0  0.16757662280E+02  0.14054445193E+02 -0.16944808858E+03  0.18964430894E+03  0.82304085645E+02 0.  0.
         23    2    1    2    0    0  0.86260430977E+01  0.37333949437E+00  0.81555386483E+00  0.91548415133E+02  0.91136706015E+02 0.  0.
         11    1    3    3    0    0  0.51337210335E+01  0.31022276718E+02 -0.16580046445E+03  0.16875583177E+03  0.00000000000E+00 0. -1.
        -12    1    3    3    0    0  0.11623941247E+02 -0.16967831525E+02 -0.36476241357E+01  0.20888477172E+02  0.00000000000E+00 0.  1.
        -13    1    4    4    0    0 -0.39498432605E+02  0.13231835431E+02  0.22319056821E+01  0.41715573232E+02  0.00000000000E+00 0.  1.
         13    1    4    4    0    0  0.48124475703E+02 -0.12858495936E+02 -0.14163518173E+01  0.49832841900E+02  0.00000000000E+00 0. -1.
          2    1    1    2  501    0 -0.25383705378E+02 -0.14427784687E+02 -0.18393386181E+02  0.34508116797E+02  0.00000000000E+00 0. -1.
<scales pt_clust_5="13000.00000" pt_clust_6="13000.00000" pt_clust_7="13000.00000" pt_clust_8="13000.00000" pt_clust_9="29.19749"></scales>
<clustering>
<clus scale="   29.197">  1  9  2 -1</clus>
<clus scale="   82.304">  5  6 -1 -1</clus>
<clus scale="   83.990">  2  5  1 -1</clus>
<clus scale="   91.137">  7  8 -1 -1</clus>
<clus scale="   29.197">  1  5  2 -1</clus>
</clustering>
</event>
<event>
 9    1  0.4664604E-005  0.1497835E+03  0.7546771E-02  0.1220659E+00
         21   -1    0    0  501  502  0.00000000000E+00  0.00000000000E+00  0.20423735081E+03  0.20423735081E+03  0.00000000000E+00 0. -1.
          3   -1    0    0  502    0 -0.00000000000E+00 -0.00000000000E+00 -0.25363157806E+03  0.25363157806E+03  0.00000000000E+00 0. -1.
         23    2    1    2    0    0 -0.23767615276E+02  0.25159876670E+02 -0.34620524493E+02  0.10387478573E+03  0.91615890899E+02 0.  0.
        -24    2    1    2    0    0  0.14330576993E+03  0.12468392156E+02 -0.10957129705E+03  0.19685776633E+03  0.77814565019E+02 0.  0.
         11    1    4    4    0    0  0.13471505684E+03  0.30431655118E+02 -0.75511476618E+02  0.15740462278E+03  0.00000000000E+00 0. -1.
        -12    1    4    4    0    0  0.85907130871E+01 -0.17963262961E+02 -0.34059820437E+02  0.39453143547E+02  0.00000000000E+00 0.  1.
        -11    1    3    3    0    0 -0.31567853554E+02  0.54759098743E+02 -0.36884077946E+02  0.73181442177E+02  0.00000000000E+00 0. -1.
         11    1    3    3    0    0  0.78002382779E+01 -0.29599222073E+02  0.22635534530E+01  0.30693343558E+02  0.00000000000E+00 0.  1.
          4    1    1    2  501    0 -0.11953815465E+03 -0.37628268826E+02  0.94797594300E+02  0.15713637681E+03  0.00000000000E+00 0. -1.
<scales pt_clust_5="13000.00000" pt_clust_6="13000.00000" pt_clust_7="13000.00000" pt_clust_8="13000.00000" pt_clust_9="127.98428"></scales>
<clustering>
<clus scale="   77.815">  5  6 -1 -1</clus>
<clus scale="   91.616">  7  8 -1 -1</clus>
<clus scale="   97.936">  2  7  1 -1</clus>
<clus scale="  127.984">  1  9  2 -1</clus>
<clus scale="  127.984">  1  5  2 -1</clus>
</clustering>
</event>
<event>
 9    1  0.4664604E-005  0.1024988E+03  0.7546771E-02  0.1278571E+00
          1   -1    0    0  502    0 -0.00000000000E+00  0.00000000000E+00  0.13595317485E+03  0.13595317485E+03  0.00000000000E+00 0. -1.
         21   -1    0    0  501  502  0.00000000000E+00 -0.00000000000E+00 -0.13365157219E+03  0.13365157219E+03  0.00000000000E+00 0.  1.
        -24    2    1    2    0    0  0.43247703527E+02  0.35310899309E+02  0.36776814455E+02  0.10690569660E+03  0.83421042994E+02 0.  0.
         23    2    1    2    0    0  0.96098805568E+01 -0.49825350744E+02 -0.25570053822E+02  0.10716621930E+03  0.90861738509E+02 0.  0.
         13    1    3    3    0    0  0.52613585389E+02  0.32352824410E+02  0.57238410888E+02  0.84208849272E+02  0.00000000000E+00 0. -1.
        -14    1    3    3    0    0 -0.93658818617E+01  0.29580748981E+01 -0.20461596433E+02  0.22696847330E+02  0.00000000000E+00 0.  1.
        -13    1    4    4    0    0 -0.83486901702E+01 -0.30320380043E+02 -0.57575974622E+02  0.65605022119E+02  0.00000000000E+00 0.  1.
         13    1    4    4    0    0  0.17958570727E+02 -0.19504970701E+02  0.32005920800E+02  0.41561197178E+02  0.00000000000E+00 0. -1.
          2    1    1    2  501    0 -0.52857584084E+02  0.14514451435E+02 -0.89051579767E+01  0.55532831138E+02  0.00000000000E+00 0. -1.
<scales pt_clust_5="13000.00000" pt_clust_6="13000.00000" pt_clust_7="13000.00000" pt_clust_8="13000.00000" pt_clust_9="54.81417"></scales>
<clustering>
<clus scale="   54.814">  2  9  1 -1</clus>
<clus scale="   83.421">  5  6 -1 -1</clus>
<clus scale="   90.862">  7  8 -1 -1</clus>
<clus scale="   95.965">  1  5  2 -1</clus>
<clus scale="   54.814">  2  5  1 -1</clus>
</clustering>
</event>
<event>
 9    1  0.4664604E-005  0.1410669E+03  0.7546771E-02  0.1234744E+00
         21   -1    0    0  501  502  0.00000000000E+00  0.00000000000E+00  0.33036804841E+03  0.33036804841E+03  0.00000000000E+00 0.  1.
         -2   -1    0    0    0  501 -0.00000000000E+00 -0.00000000000E+00 -0.23993203600E+03  0.23993203600E+03  0.00000000000E+00 0.  1.
        -24    2    1    2    0    0 -0.32940632376E+00  0.27710742954E+02 -0.16849729574E+03  0.18988511553E+03  0.83048327179E+02 0.  0.
         23    2    1    2    0    0 -0.95071468008E+02 -0.58383765141E+02  0.23741855684E+03  0.27792084398E+03  0.91788759269E+02 0.  0.
         13    1    3    3    0    0 -0.40856563732E+02  0.22470529603E+02 -0.86360892458E+02  0.98144726026E+02  0.00000000000E+00 0. -1.
        -14    1    3    3    0    0  0.40527157408E+02  0.52402133519E+01 -0.82136403277E+02  0.91740389506E+02  0.00000000000E+00 0.  1.
        -13    1    4    4    0    0 -0.27154049877E+02  0.24950279474E+02  0.65028234825E+02  0.74756472596E+02  0.00000000000E+00 0. -1.
         13    1    4    4    0    0 -0.67917418131E+02 -0.83334044615E+02  0.17239032201E+03  0.20316437139E+03  0.00000000000E+00 0.  1.
         -1    1    1    2    0  502  0.95400874332E+02  0.30673022187E+02  0.21514751307E+02  0.10249412489E+03  0.00000000000E+00 0.  1.
<scales pt_clust_5="13000.00000" pt_clust_6="13000.00000" pt_clust_7="13000.00000" pt_clust_8="13000.00000" pt_clust_9="107.12009"></scales>
<clustering>
<clus scale="   83.048">  5  6 -1 -1</clus>
<clus scale="   87.550">  2  5  1 -1</clus>
<clus scale="   91.789">  7  8 -1 -1</clus>
<clus scale="  107.120">  1  9  2 -1</clus>
<clus scale="  107.120">  1  5  2 -1</clus>
</clustering>
</event>
<event>
 9    1  0.4664604E-005  0.3435208E+03  0.7546771E-02  0.1101118E+00
          1   -1    0    0  502    0 -0.00000000000E+00  0.00000000000E+00  0.12157754412E+04  0.12157754412E+04  0.00000000000E+00 0. -1.
         21   -1    0    0  501  502  0.00000000000E+00 -0.00000000000E+00 -0.20622816011E+03  0.20622816011E+03  0.00000000000E+00 0. -1.
         23    2    1    2    0    0 -0.92414611237E+02  0.24020150544E+02  0.25018069221E+03  0.28270400759E+03  0.90629736584E+02 0.  0.
        -24    2    1    2    0    0 -0.11611492749E+03 -0.29396803341E+03  0.72691298748E+03  0.79664865729E+03  0.79666245967E+02 0.  0.
         11    1    4    4    0    0 -0.11018425388E+03 -0.21933590739E+03  0.61320429938E+03  0.66050611113E+03  0.00000000000E+00 0. -1.
        -12    1    4    4    0    0 -0.59306736160E+01 -0.74632126026E+02  0.11370868810E+03  0.13614254616E+03  0.00000000000E+00 0.  1.
        -11    1    3    3    0    0 -0.44419314635E+02  0.15321074440E+01  0.24232575295E+02  0.50622530274E+02  0.00000000000E+00 0. -1.
         11    1    3    3    0    0 -0.47995296602E+02  0.22488043100E+02  0.22594811691E+03  0.23208147732E+03  0.00000000000E+00 0.  1.
          2    1    1    2  501    0  0.20852953873E+03  0.26994788287E+03  0.32453601399E+02  0.34265093642E+03  0.00000000000E+00 0. -1.
<scales pt_clust_5="13000.00000" pt_clust_6="13000.00000" pt_clust_7="13000.00000" pt_clust_8="13000.00000" pt_clust_9="334.15541"></scales>
<clustering>
<clus scale="   79.666">  5  6 -1 -1</clus>
<clus scale="   90.630">  7  8 -1 -1</clus>
<clus scale="  131.648">  1  7  2 -1</clus>
<clus scale="  334.155">  2  9  1 -1</clus>
<clus scale="  334.155">  2  5  1 -1</clus>
</clustering>
</event>
<event>
 9    1  0.4664604E-005  0.1248491E+03  0.7546771E-02  0.1245547E+00
         21   -1    0    0  501  502  0.00000000000E+00  0.00000000000E+00  0.65382298010E+03  0.65382298010E+03  0.00000000000E+00 0. -1.
          1   -1    0    0  502    0 -0.00000000000E+00 -0.00000000000E+00 -0.54314274303E+02  0.54314274303E+02  0.00000000000E+00 0. -1.
        -24    2    1    2    0    0 -0.75615102872E+01  0.59959763083E+02  0.80121453622E+02  0.12924684760E+03  0.81442928833E+02 0.  0.
         23    2    1    2    0    0 -0.15207867041E+02  0.65214789571E+02  0.34462104815E+03  0.36271839371E+03  0.91196043276E+02 0.  0.
         13    1    3    3    0    0 -0.38392714968E+02  0.52558443497E+02  0.70857202294E+02  0.96213999306E+02  0.00000000000E+00 0. -1.
        -14    1    3    3    0    0  0.30831204681E+02  0.74013195866E+01  0.92642513279E+01  0.33032848293E+02  0.00000000000E+00 0.  1.
        -13    1    4    4    0    0  0.31762334532E+02  0.37418556088E+02  0.23722855178E+03  0.24225271931E+03  0.00000000000E+00 0. -1.
         13    1    4    4    0    0 -0.46970201573E+02  0.27796233483E+02  0.10739249637E+03  0.12046567440E+03  0.00000000000E+00 0.  1.
          2    1    1    2  501    0  0.22769377328E+02 -0.12517455265E+03  0.17476620403E+03  0.21617201310E+03  0.00000000000E+00 0. -1.
<scales pt_clust_5="13000.00000" pt_clust_6="13000.00000" pt_clust_7="13000.00000" pt_clust_8="13000.00000" pt_clust_9="85.26779"></scales>
<clustering>
<clus scale="   81.443">  5  6 -1 -1</clus>
<clus scale="   91.196">  7  8 -1 -1</clus>
<clus scale="  101.416">  2  5  1 -1</clus>
<clus scale="   85.268">  1  9  2 -1</clus>
<clus scale="   85.268">  1  5  2 -1</clus>
</clustering>
</event>
<event>
 9    1  0.4664604E-005  0.1219666E+03  0.7546771E-02  0.1243895E+00
         21   -1    0    0  501  502  0.00000000000E+00  0.00000000000E+00  0.26967773832E+03  0.26967773832E+03  0.00000000000E+00 0.  1.
          1   -1    0    0  502    0 -0.00000000000E+00 -0.00000000000E+00 -0.19693725813E+03  0.19693725813E+03  0.00000000000E+00 0. -1.
         23    2    1    2    0    0 -0.74943461854E+02  0.21888400393E+02 -0.13319485082E+03  0.18065577852E+03  0.93808408370E+02 0.  0.
        -24    2    1    2    0    0  0.83108119820E+02  0.15004627081E+02  0.53138134566E+02  0.12855928033E+03  0.81066200110E+02 0.  0.
         13    1    4    4    0    0  0.18054310602E+01  0.22785711367E+02 -0.10369856928E+02  0.25099445343E+02  0.00000000000E+00 0. -1.
        -14    1    4    4    0    0  0.81302688760E+02 -0.77810842860E+01  0.63507991494E+02  0.10345983499E+03  0.00000000000E+00 0.  1.
        -13    1    3    3    0    0 -0.13392198322E+01  0.26798077411E+02  0.17243386761E+01  0.26886870523E+02  0.00000000000E+00 0.  1.
         13    1    3    3    0    0 -0.73604242021E+02 -0.49096770176E+01 -0.13491918950E+03  0.15376890800E+03  0.00000000000E+00 0. -1.
          2    1    1    2  501    0 -0.81646579664E+01 -0.36893027474E+02  0.15279719644E+03  0.15739993760E+03  0.00000000000E+00 0. -1.
<scales pt_clust_5="13000.00000" pt_clust_6="13000.00000" pt_clust_7="13000.00000" pt_clust_8="13000.00000" pt_clust_9="37.78567"></scales>
<clustering>
<clus scale="   37.786">  1  9  2 -1</clus>
<clus scale="   81.066">  5  6 -1 -1</clus>
<clus scale="   93.808">  7  8 -1 -1</clus>
<clus scale="  112.461">  1  5  2 -1</clus>
<clus scale="   37.786">  1  5  2 -1</clus>
</clustering>
</event>
<event>
 9    1  0.4664604E-005  0.1009109E+03  0.7546771E-02  0.1282235E+00
         21   -1    0    0  501  502  0.00000000000E+00  0.00000000000E+00  0.99443184720E+02  0.99443184720E+02  0.00000000000E+00 0. -1.
         -4   -1    0    0    0  501 -0.00000000000E+00 -0.00000000000E+00 -0.25504746655E+03  0.25504746655E+03  0.00000000000E+00 0.  1.
         23    2    1    2    0    0 -0.14954115471E+02  0.15863869617E+02 -0.57571452836E+02  0.11053164874E+03  0.91801335840E+02 0.  0.
        -24    2    1    2    0    0 -0.46870674749E+02 -0.86402702367E+02 -0.38953175245E+02  0.13310577931E+03  0.80854879237E+02 0.  0.
         11    1    4    4    0    0  0.14536972201E+02 -0.33763689472E+02  0.10592283581E+02  0.38255806866E+02  0.00000000000E+00 0. -1.
        -12    1    4    4    0    0 -0.61407646950E+02 -0.52639012896E+02 -0.49545458825E+02  0.94849972445E+02  0.00000000000E+00 0.  1.
        -11    1    3    3    0    0  0.14369704720E+02 -0.33760496688E+02 -0.23566892814E+02  0.43608003707E+02  0.00000000000E+00 0.  1.
         11    1    3    3    0    0 -0.29323820191E+02  0.49624366305E+02 -0.34004560021E+02  0.66923645029E+02  0.00000000000E+00 0. -1.
         -3    1    1    2    0  502  0.61824790220E+02  0.70538832751E+02 -0.59079653747E+02  0.11085322322E+03  0.00000000000E+00 0.  1.
<scales pt_clust_5="13000.00000" pt_clust_6="13000.00000" pt_clust_7="13000.00000" pt_clust_8="13000.00000" pt_clust_9="93.79787"></scales>
<clustering>
<clus scale="   80.855">  5  6 -1 -1</clus>
<clus scale="   91.801">  7  8 -1 -1</clus>
<clus scale="   93.798">  1  9  2 -1</clus>
<clus scale="   93.798">  1  5  2 -1</clus>
<clus scale="   93.798">  1  5  2 -1</clus>
</clustering>
</event>
<event>
 9    1  0.4664604E-005  0.8070226E+02  0.7546771E-02  0.1329739E+00
         21   -1    0    0  501  502  0.00000000000E+00  0.00000000000E+00  0.41815535542E+03  0.41815535542E+03  0.00000000000E+00 0.  1.
          1   -1    0    0  502    0 -0.00000000000E+00 -0.00000000000E+00 -0.76029214756E+02  0.76029214756E+02  0.00000000000E+00 0. -1.
         23    2    1    2    0    0 -0.17696949175E+01 -0.31477872018E+01 -0.43838191315E+02  0.88453155667E+02  0.76740688982E+02 0.  0.
        -24    2    1    2    0    0  0.11143555843E+02  0.37478084554E+02  0.27083068158E+03  0.28522333992E+03  0.80463096485E+02 0.  0.
         11    1    4    4    0    0 -0.30952595785E+02  0.24884836430E+00  0.12907751490E+03  0.13273707080E+03  0.00000000000E+00 0. -1.
        -12    1    4    4    0    0  0.42096151629E+02  0.37229236190E+02  0.14175316668E+03  0.15248626913E+03  0.00000000000E+00 0.  1.
        -11    1    3    3    0    0  0.31760677708E+02 -0.10844772707E+02 -0.10868971847E+01  0.33578729711E+02  0.00000000000E+00 0.  1.
         11    1    3    3    0    0 -0.33530372625E+02  0.76969855049E+01 -0.42751294130E+02  0.54874425956E+02  0.00000000000E+00 0. -1.
          2    1    1    2  501    0 -0.93738609257E+01 -0.34330297353E+02  0.11513365040E+03  0.12050807458E+03  0.00000000000E+00 0. -1.
<scales pt_clust_5="13000.00000" pt_clust_6="13000.00000" pt_clust_7="13000.00000" pt_clust_8="13000.00000" pt_clust_9="35.58706"></scales>
<clustering>
<clus scale="   35.587">  1  9  2 -1</clus>
<clus scale="   76.741">  7  8 -1 -1</clus>
<clus scale="   76.991">  2  7  1 -1</clus>
<clus scale="   80.463">  5  6 -1 -1</clus>
<clus scale="   35.587">  1  5  2 -1</clus>
</clustering>
</event>
<event>
 9    1  0.4664604E-005  0.1027959E+03  0.7546771E-02  0.1281960E+00
         21   -1    0    0  501  502  0.00000000000E+00  0.00000000000E+00  0.45358054941E+03  0.45358054941E+03  0.00000000000E+00 0. -1.
          1   -1    0    0  502    0 -0.00000000000E+00 -0.00000000000E+00 -0.14481601569E+03  0.14481601569E+03  0.00000000000E+00 0. -1.
        -24    2    1    2    0    0  0.49397039805E+02 -0.18122477122E+02 -0.90440137152E+02  0.12882372061E+03  0.75150787518E+02 0.  0.
         23    2    1    2    0    0 -0.10463913149E+02  0.46823111726E+02  0.45177359851E+02  0.11225666556E+03  0.90877213042E+02 0.  0.
         13    1    3    3    0    0  0.56988674293E+02  0.13217341048E+02 -0.67073113586E+02  0.89001177903E+02  0.00000000000E+00 0. -1.
        -14    1    3    3    0    0 -0.75916344878E+01 -0.31339818170E+02 -0.23367023566E+02  0.39822542705E+02  0.00000000000E+00 0.  1.
        -13    1    4    4    0    0  0.40265628240E+02  0.25282310741E+02  0.23471807630E+02  0.53023030914E+02  0.00000000000E+00 0. -1.
         13    1    4    4    0    0 -0.50729541388E+02  0.21540800985E+02  0.21705552221E+02  0.59233634649E+02  0.00000000000E+00 0.  1.
          2    1    1    2  501    0 -0.38933126657E+02 -0.28700634604E+02  0.35402731102E+03  0.35731617893E+03  0.00000000000E+00 0. -1.
<scales pt_clust_5="13000.00000" pt_clust_6="13000.00000" pt_clust_7="13000.00000" pt_clust_8="13000.00000" pt_clust_9="48.36853"></scales>
<clustering>
<clus scale="   48.369">  1  9  2 -1</clus>
<clus scale="   75.151">  5  6 -1 -1</clus>
<clus scale="   89.196">  2  5  1 -1</clus>
<clus scale="   90.877">  7  8 -1 -1</clus>
<clus scale="   48.369">  1  5  2 -1</clus>
</clustering>
</event>
<event>
 9    1  0.4664604E-005  0.9316955E+02  0.7546771E-02  0.1297811E+00
         21   -1    0    0  501  502  0.00000000000E+00  0.00000000000E+00  0.16456895708E+03  0.16456895708E+03  0.00000000000E+00 0. -1.
          1   -1    0    0  502    0 -0.00000000000E+00 -0.00000000000E+00 -0.18913475547E+03  0.18913475547E+03  0.00000000000E+00 0. -1.
        -24    2    1    2    0    0  0.17561893178E+02 -0.33342294798E+02 -0.96897827536E+02  0.13491789845E+03  0.85985589642E+02 0.  0.
         23    2    1    2    0    0  0.16910675452E+02  0.53177364731E+01 -0.38234461385E+02  0.99627588684E+02  0.90274764603E+02 0.  0.
         13    1    3    3    0    0  0.43309153217E+02 -0.25815969644E+02 -0.21358415059E+02  0.54756998958E+02  0.00000000000E+00 0. -1.
        -14    1    3    3    0    0 -0.25747260038E+02 -0.75263251534E+01 -0.75539412476E+02  0.80160899490E+02  0.00000000000E+00 0.  1.
        -11    1    4    4    0    0  0.21937865916E+02  0.29770840097E+02  0.15715608957E+02  0.40181503778E+02  0.00000000000E+00 0.  1.
         11    1    4    4    0    0 -0.50271904643E+01 -0.24453103624E+02 -0.53950070341E+02  0.59446084906E+02  0.00000000000E+00 0. -1.
          2    1    1    2  501    0 -0.34472568630E+02  0.28024558325E+02  0.11056649053E+03  0.11915822542E+03  0.00000000000E+00 0. -1.
<scales pt_clust_5="13000.00000" pt_clust_6="13000.00000" pt_clust_7="13000.00000" pt_clust_8="13000.00000" pt_clust_9="44.42672"></scales>
<clustering>
<clus scale="   44.427">  1  9  2 -1</clus>
<clus scale="   85.986">  5  6 -1 -1</clus>
<clus scale="   89.020">  2  5  1 -1</clus>
<clus scale="   90.275">  7  8 -1 -1</clus>
<clus scale="   44.427">  1  5  2 -1</clus>
</clustering>
</event>
<event>
 9    1  0.4664604E-005  0.1111830E+03  0.7546771E-02  0.1262268E+00
         21   -1    0    0  501  502  0.00000000000E+00  0.00000000000E+00  0.24123741402E+03  0.24123741402E+03  0.00000000000E+00 0. -1.
          1   -1    0    0  502    0 -0.00000000000E+00 -0.00000000000E+00 -0.63973684550E+02  0.63973684550E+02  0.00000000000E+00 0. -1.
         23    2    1    2    0    0 -0.70408753702E+02  0.95549533005E+01  0.49911571947E+02  0.12727631298E+03  0.93055924584E+02 0.  0.
        -24    2    1    2    0    0  0.48950017115E+02 -0.43043499379E+01  0.79017042370E+02  0.12479036379E+03  0.83152331940E+02 0.  0.
         11    1    4    4    0    0 -0.12696280615E+02  0.25036931146E+02  0.19095949810E+02  0.33951417670E+02  0.00000000000E+00 0. -1.
        -12    1    4    4    0    0  0.61646297730E+02 -0.29341281084E+02  0.59921092560E+02  0.90838946125E+02  0.00000000000E+00 0.  1.
        -11    1    3    3    0    0 -0.41395339829E+02 -0.50266480966E+01  0.75288298153E+02  0.86064912650E+02  0.00000000000E+00 0. -1.
         11    1    3    3    0    0 -0.29013413872E+02  0.14581601397E+02 -0.25376726207E+02  0.41211400326E+02  0.00000000000E+00 0.  1.
          2    1    1    2  501    0  0.21458736587E+02 -0.52506033626E+01  0.48335115154E+02  0.53144421801E+02  0.00000000000E+00 0. -1.
<scales pt_clust_5="13000.00000" pt_clust_6="13000.00000" pt_clust_7="13000.00000" pt_clust_8="13000.00000" pt_clust_9="22.09177"></scales>
<clustering>
<clus scale="   22.092">  1  9  2 -1</clus>
<clus scale="   83.152">  5  6 -1 -1</clus>
<clus scale="   93.056">  7  8 -1 -1</clus>
<clus scale="  103.037">  1  5  2 -1</clus>
<clus scale="   22.092">  1  5  2 -1</clus>
</clustering>
</event>
<event>
 9    1  0.4664604E-005  0.9381582E+02  0.7546771E-02  0.1300308E+00
         -2   -1    0    0    0  501 -0.00000000000E+00  0.00000000000E+00  0.18921099312E+03  0.18921099312E+03  0.00000000000E+00 0.  1.
         21   -1    0    0  501  502  0.00000000000E+00 -0.00000000000E+00 -0.10680212276E+03  0.10680212276E+03  0.00000000000E+00 0.  1.
        -24    2    1    2    0    0 -0.79933152642E+01 -0.35502509030E+02  0.26752454788E+02  0.92858081270E+02  0.81133274207E+02 0.  0.
         23    2    1    2    0    0 -0.16425262541E+02 -0.14610602043E+02 -0.31554217306E+02  0.99650033132E+02  0.91930416794E+02 0.  0.
         13    1    3    3    0    0  0.73390505476E+01  0.25001812386E+02  0.36890883332E+01  0.26316566232E+02  0.00000000000E+00 0. -1.
        -14    1    3    3    0    0 -0.15332365812E+02 -0.60504321415E+02  0.23063366455E+02  0.66541515038E+02  0.00000000000E+00 0.  1.
        -11    1    4    4    0    0  0.31013223819E+02 -0.20422077005E+02  0.75558448403E+01  0.37894222147E+02  0.00000000000E+00 0. -1.
         11    1    4    4    0    0 -0.47438486360E+02  0.58114749617E+01 -0.39110062146E+02  0.61755810985E+02  0.00000000000E+00 0.  1.
         -1    1    1    2    0  502  0.24418577805E+02  0.50113111073E+02  0.87210632880E+02  0.10350500148E+03  0.00000000000E+00 0.  1.
<scales pt_clust_5="13000.00000" pt_clust_6="13000.00000" pt_clust_7="13000.00000" pt_clust_8="13000.00000" pt_clust_9="55.74580"></scales>
<clustering>
<clus scale="   55.746">  2  9  1 -1</clus>
<clus scale="   81.133">  5  6 -1 -1</clus>
<clus scale="   83.264">  1  5  2 -1</clus>
<clus scale="   91.930">  7  8 -1 -1</clus>
<clus scale="   55.746">  2  5  1 -1</clus>
</clustering>
</event>
<event>
 9    1  0.4664604E-005  0.1416139E+03  0.7546771E-02  0.1231411E+00
          1   -1    0    0  502    0 -0.00000000000E+00  0.00000000000E+00  0.12317736819E+03  0.12317736819E+03  0.00000000000E+00 0. -1.
         21   -1    0    0  501  502  0.00000000000E+00 -0.00000000000E+00 -0.32989343484E+03  0.32989343484E+03  0.00000000000E+00 0. -1.
        -24    2    1    2    0    0 -0.45886454432E+02  0.21769715036E+01 -0.46770478031E+02  0.10380588154E+03  0.80485262766E+02 0.  0.
         23    2    1    2    0    0 -0.71859500080E+02 -0.54538255755E+01  0.36312571500E+02  0.12037168657E+03  0.89315217708E+02 0.  0.
         11    1    3    3    0    0 -0.62117044395E+02 -0.19275145193E+02 -0.26994190047E+02  0.70418355014E+02  0.00000000000E+00 0. -1.
        -12    1    3    3    0    0  0.16230589963E+02  0.21452116697E+02 -0.19776287984E+02  0.33387526529E+02  0.00000000000E+00 0.  1.
        -13    1    4    4    0    0  0.14778932301E+02 -0.22045903374E+02  0.90597081867E+01  0.28044910554E+02  0.00000000000E+00 0.  1.
         13    1    4    4    0    0 -0.86638432382E+02  0.16592077799E+02  0.27252863313E+02  0.92326776019E+02  0.00000000000E+00 0. -1.
          2    1    1    2  501    0  0.11774595451E+03  0.32768540720E+01 -0.19625816011E+03  0.22889323491E+03  0.00000000000E+00 0. -1.
<scales pt_clust_5="13000.00000" pt_clust_6="13000.00000" pt_clust_7="13000.00000" pt_clust_8="13000.00000" pt_clust_9="109.89670"></scales>
<clustering>
<clus scale="   80.485">  5  6 -1 -1</clus>
<clus scale="   89.315">  7  8 -1 -1</clus>
<clus scale="   92.672">  1  5  2 -1</clus>
<clus scale="  109.897">  2  9  1 -1</clus>
<clus scale="  109.897">  2  5  1 -1</clus>
</clustering>
</event>
<event>
 9    1  0.4664604E-005  0.9903133E+02  0.7546771E-02  0.1283549E+00
         21   -1    0    0  501  502  0.00000000000E+00  0.00000000000E+00  0.40360825326E+02  0.40360825326E+02  0.00000000000E+00 0. -1.
         -2   -1    0    0    0  501 -0.00000000000E+00 -0.00000000000E+00 -0.69408349356E+03  0.69408349356E+03  0.00000000000E+00 0.  1.
         23    2    1    2    0    0  0.34946534661E+02  0.62553809391E+00 -0.26511646140E+03  0.28357266318E+03  0.94366655195E+02 0.  0.
        -24    2    1    2    0    0  0.18270150496E+02  0.80235082660E+02 -0.12376158505E+03  0.16889093074E+03  0.80223124240E+02 0.  0.
         13    1    4    4    0    0  0.69491078109E+01  0.95385719226E+02 -0.10810811800E+03  0.14434019090E+03  0.00000000000E+00 0. -1.
        -14    1    4    4    0    0  0.11321042685E+02 -0.15150636567E+02 -0.15653467050E+02  0.24550739837E+02  0.00000000000E+00 0.  1.
        -13    1    3    3    0    0 -0.19784805642E+02 -0.28100005124E+02 -0.57873357748E+02  0.67308055679E+02  0.00000000000E+00 0.  1.
         13    1    3    3    0    0  0.54731340302E+02  0.28725543218E+02 -0.20724310365E+03  0.21626460750E+03  0.00000000000E+00 0. -1.
         -1    1    1    2    0  502 -0.53216685157E+02 -0.80860620754E+02 -0.26484462178E+03  0.28198072497E+03  0.00000000000E+00 0.  1.
<scales pt_clust_5="13000.00000" pt_clust_6="13000.00000" pt_clust_7="13000.00000" pt_clust_8="13000.00000" pt_clust_9="96.80116"></scales>
<clustering>
<clus scale="   80.223">  5  6 -1 -1</clus>
<clus scale="   94.367">  7  8 -1 -1</clus>
<clus scale="   96.801">  1  9  2 -1</clus>
<clus scale="   96.801">  1  5  2 -1</clus>
<clus scale="   96.801">  1  5  2 -1</clus>
</clustering>
</event>
<event>
 9    1  0.4664604E-005  0.9617086E+02  0.7546771E-02  0.1293524E+00
         21   -1    0    0  501  502  0.00000000000E+00  0.00000000000E+00  0.22214836208E+03  0.22214836208E+03  0.00000000000E+00 0. -1.
          1   -1    0    0  502    0 -0.00000000000E+00 -0.00000000000E+00 -0.54208821111E+02  0.54208821111E+02  0.00000000000E+00 0. -1.
         23    2    1    2    0    0 -0.15987234124E+02  0.17615445135E+02  0.64652825754E+02  0.11376107784E+03  0.90530102122E+02 0.  0.
        -24    2    1    2    0    0  0.43039334560E+02 -0.15802752110E+02  0.97158837939E+02  0.13479947114E+03  0.81418341521E+02 0.  0.
         13    1    4    4    0    0  0.51601590211E+02 -0.88864334069E+01  0.18742618242E+02  0.55614553397E+02  0.00000000000E+00 0. -1.
        -14    1    4    4    0    0 -0.85622556502E+01 -0.69163187031E+01  0.78416219697E+02  0.79184917742E+02  0.00000000000E+00 0.  1.
        -13    1    3    3    0    0 -0.23730510120E+02  0.49224225249E+02  0.19328195281E+02  0.57963269359E+02  0.00000000000E+00 0.  1.
         13    1    3    3    0    0  0.77432759964E+01 -0.31608780114E+02  0.45324630472E+02  0.55797808477E+02  0.00000000000E+00 0. -1.
          2    1    1    2  501    0 -0.27052100436E+02 -0.18126930253E+01  0.61278772804E+01  0.27796634220E+02  0.00000000000E+00 0. -1.
<scales pt_clust_5="13000.00000" pt_clust_6="13000.00000" pt_clust_7="13000.00000" pt_clust_8="13000.00000" pt_clust_9="27.11278"></scales>
<clustering>
<clus scale="   27.113">  1  9  2 -1</clus>
<clus scale="   81.418">  5  6 -1 -1</clus>
<clus scale="   87.647">  1  5  2 -1</clus>
<clus scale="   90.530">  7  8 -1 -1</clus>
<clus scale="   27.113">  1  5  2 -1</clus>
</clustering>
</event>
<event>
 9    1  0.4664604E-005  0.8928820E+02  0.7546771E-02  0.1306581E+00
         21   -1    0    0  501  502  0.00000000000E+00  0.00000000000E+00  0.35927422588E+02  0.35927422588E+02  0.00000000000E+00 0. -1.
          1   -1    0    0  502    0 -0.00000000000E+00 -0.00000000000E+00 -0.55172413005E+03  0.55172413005E+03  0.00000000000E+00 0. -1.
         23    2    1    2    0    0 -0.27030545031E+02 -0.18054179180E+02 -0.37468878980E+03  0.38587769414E+03  0.86332507699E+02 0.  0.
        -24    2    1    2    0    0  0.76640406202E+01 -0.59106080558E+01 -0.14821058597E+03  0.17015392147E+03  0.83019915631E+02 0.  0.
         13    1    4    4    0    0 -0.35467693726E+02 -0.43904581072E+01 -0.95868692676E+02  0.10231343830E+03  0.00000000000E+00 0. -1.
        -14    1    4    4    0    0  0.43131734346E+02 -0.15201499486E+01 -0.52341893299E+02  0.67840483176E+02  0.00000000000E+00 0.  1.
        -13    1    3    3    0    0  0.26315670002E+02 -0.24697511196E+02 -0.10947381421E+03  0.11526923937E+03  0.00000000000E+00 0.  1.
         13    1    3    3    0    0 -0.53346215034E+02  0.66433320158E+01 -0.26521497559E+03  0.27060845477E+03  0.00000000000E+00 0. -1.
          2    1    1    2  501    0  0.19366504411E+02  0.23964787236E+02  0.71026683089E+01  0.31619937025E+02  0.00000000000E+00 0. -1.
<scales pt_clust_5="13000.00000" pt_clust_6="13000.00000" pt_clust_7="13000.00000" pt_clust_8="13000.00000" pt_clust_9="30.81189"></scales>
<clustering>
<clus scale="   30.812">  1  9  2 -1</clus>
<clus scale="   83.020">  5  6 -1 -1</clus>
<clus scale="   86.089">  1  5  2 -1</clus>
<clus scale="   86.333">  7  8 -1 -1</clus>
<clus scale="   30.812">  1  5  2 -1</clus>
</clustering>
</event>
<event>
 9    1  0.4664604E-005  0.1100745E+03  0.7546771E-02  0.1264916E+00
         21   -1    0    0  501  502  0.00000000000E+00  0.00000000000E+00  0.41492996266E+03  0.41492996266E+03  0.00000000000E+00 0.  1.
          1   -1    0    0  502    0 -0.00000000000E+00 -0.00000000000E+00 -0.59425033258E+02  0.59425033258E+02  0.00000000000E+00 0. -1.
        -24    2    1    2    0    0  0.79057066422E+02 -0.87273494444E+01  0.38158367245E+02  0.11783506335E+03  0.78120770498E+02 0.  0.
         23    2    1    2    0    0 -0.15326243707E+02  0.26927876759E+02  0.20822818155E+03  0.22884966217E+03  0.89739556443E+02 0.  0.
         13    1    3    3    0    0  0.87183575697E+02 -0.84000850175E+01  0.95656292924E+01  0.88108107251E+02  0.00000000000E+00 0. -1.
        -14    1    3    3    0    0 -0.81265092746E+01 -0.32726442688E+00  0.28592737953E+02  0.29726956094E+02  0.00000000000E+00 0.  1.
        -13    1    4    4    0    0  0.19728981326E+02  0.32576320869E+02  0.34042328530E+02  0.51081596659E+02  0.00000000000E+00 0.  1.
         13    1    4    4    0    0 -0.35055225032E+02 -0.56484441101E+01  0.17418585302E+03  0.17776806551E+03  0.00000000000E+00 0. -1.
          2    1    1    2  501    0 -0.63730822715E+02 -0.18200527315E+02  0.10911838060E+03  0.12767027040E+03  0.00000000000E+00 0. -1.
<scales pt_clust_5="13000.00000" pt_clust_6="13000.00000" pt_clust_7="13000.00000" pt_clust_8="13000.00000" pt_clust_9="66.27878"></scales>
<clustering>
<clus scale="   66.279">  1  9  2 -1</clus>
<clus scale="   78.121">  5  6 -1 -1</clus>
<clus scale="   89.740">  7  8 -1 -1</clus>
<clus scale="  100.827">  2  5  1 -1</clus>
<clus scale="   66.279">  1  5  2 -1</clus>
</clustering>
</event>
<event>
 9    1  0.4664604E-005  0.2625257E+03  0.7546771E-02  0.1105635E+00
         21   -1    0    0  501  502  0.00000000000E+00  0.00000000000E+00  0.76038125697E+03  0.76038125697E+03  0.00000000000E+00 0. -1.
          1   -1    0    0  502    0 -0.00000000000E+00 -0.00000000000E+00 -0.81986104577E+02  0.81986104577E+02  0.00000000000E+00 0. -1.
        -24    2    1    2    0    0 -0.52547259338E+02  0.69238143897E+02  0.11216299618E+03  0.16432719304E+03  0.82871910961E+02 0.  0.
         23    2    1    2    0    0 -0.54850021267E+01  0.10794800438E+03  0.91273020208E+02  0.16779625097E+03  0.90232814006E+02 0.  0.
         13    1    3    3    0    0 -0.71422033496E+02  0.64904423284E+02  0.10738858332E+03  0.14438143530E+03  0.00000000000E+00 0. -1.
        -14    1    3    3    0    0  0.18874774157E+02  0.43337206129E+01  0.47744128581E+01  0.19945757744E+02  0.00000000000E+00 0.  1.
        -11    1    4    4    0    0  0.12120259916E+02  0.11825017172E+03  0.86030456266E+02  0.14673528280E+03  0.00000000000E+00 0. -1.
         11    1    4    4    0    0 -0.17605262043E+02 -0.10302167343E+02  0.52425639423E+01  0.21060968170E+02  0.00000000000E+00 0.  1.
          2    1    1    2  501    0  0.58032261465E+02 -0.17718614828E+03  0.47495913601E+03  0.51024391754E+03  0.00000000000E+00 0. -1.
<scales pt_clust_5="13000.00000" pt_clust_6="13000.00000" pt_clust_7="13000.00000" pt_clust_8="13000.00000" pt_clust_9="186.44751"></scales>
<clustering>
<clus scale="   82.872">  5  6 -1 -1</clus>
<clus scale="   90.233">  7  8 -1 -1</clus>
<clus scale="  106.172">  5  7 -1 -1</clus>
<clus scale="  186.448">  1  9  2 -1</clus>
<clus scale="  186.448">  1  5  2 -1</clus>
</clustering>
</event>
<event>
 9    1  0.4664604E-005  0.1289270E+03  0.7546771E-02  0.1232479E+00
         21   -1    0    0  501  502  0.00000000000E+00  0.00000000000E+00  0.24175262138E+03  0.24175262138E+03  0.00000000000E+00 0.  1.
          1   -1    0    0  502    0 -0.00000000000E+00 -0.00000000000E+00 -0.13043265745E+03  0.13043265745E+03  0.00000000000E+00 0. -1.
        -24    2    1    2    0    0 -0.28272118220E+02  0.74189506471E+02 -0.35403722580E+02  0.11925127736E+03  0.81633620774E+02 0.  0.
         23    2    1    2    0    0  0.61815390514E+02 -0.94543968606E+02  0.61969382478E+02  0.15953835224E+03  0.94088134032E+02 0.  0.
         13    1    3    3    0    0  0.16465113470E+02  0.24038864972E+02 -0.42654503236E+02  0.51656302975E+02  0.00000000000E+00 0. -1.
        -14    1    3    3    0    0 -0.44737231690E+02  0.50150641499E+02  0.72507806567E+01  0.67594974386E+02  0.00000000000E+00 0.  1.
        -11    1    4    4    0    0 -0.24354275522E+02 -0.10597047923E+02  0.84687825684E+01  0.27877382213E+02  0.00000000000E+00 0. -1.
         11    1    4    4    0    0  0.86169666036E+02 -0.83946920683E+02  0.53500599909E+02  0.13166097002E+03  0.00000000000E+00 0.  1.
          2    1    1    2  501    0 -0.33543272294E+02  0.20354462135E+02  0.84754304030E+02  0.93395649238E+02  0.00000000000E+00 0. -1.
<scales pt_clust_5="13000.00000" pt_clust_6="13000.00000" pt_clust_7="13000.00000" pt_clust_8="13000.00000" pt_clust_9="39.23589"></scales>
<clustering>
<clus scale="   39.236">  1  9  2 -1</clus>
<clus scale="   81.634">  5  6 -1 -1</clus>
<clus scale="   94.088">  7  8 -1 -1</clus>
<clus scale="  120.140">  2  5  1 -1</clus>
<clus scale="   39.236">  1  5  2 -1</clus>
</clustering>
</event>
<event>
 9    1  0.4664604E-005  0.1069545E+03  0.7546771E-02  0.1270603E+00
         21   -1    0    0  501  502  0.00000000000E+00  0.00000000000E+00  0.74287007360E+03  0.74287007360E+03  0.00000000000E+00 0. -1.
         -2   -1    0    0    0  501 -0.00000000000E+00 -0.00000000000E+00 -0.23486908158E+02  0.23486908158E+02  0.00000000000E+00 0.  1.
        -24    2    1    2    0    0 -0.39780755532E+02 -0.53166337201E+02  0.22938634956E+03  0.25193473076E+03  0.80273552771E+02 0.  0.
         23    2    1    2    0    0  0.55250000407E+02  0.51544961553E+01  0.33412893653E+03  0.35059542099E+03  0.90531053334E+02 0.  0.
         11    1    3    3    0    0 -0.32533599512E+02  0.10165464820E+02  0.42521308352E+02  0.54496178180E+02  0.00000000000E+00 0. -1.
        -12    1    3    3    0    0 -0.72471560202E+01 -0.63331802022E+02  0.18686504121E+03  0.19743855258E+03  0.00000000000E+00 0.  1.
        -13    1    4    4    0    0  0.65182717135E+02  0.30498549187E+02  0.28958041967E+03  0.29838861837E+03  0.00000000000E+00 0. -1.
         13    1    4    4    0    0 -0.99327167288E+01 -0.25344053031E+02  0.44548516862E+02  0.52206802624E+02  0.00000000000E+00 0.  1.
         -1    1    1    2    0  502 -0.15469244874E+02  0.48011841046E+02  0.15586787935E+03  0.16382683001E+03  0.00000000000E+00 0.  1.
<scales pt_clust_5="13000.00000" pt_clust_6="13000.00000" pt_clust_7="13000.00000" pt_clust_8="13000.00000" pt_clust_9="50.44239"></scales>
<clustering>
<clus scale="   50.442">  1  9  2 -1</clus>
<clus scale="   80.274">  5  6 -1 -1</clus>
<clus scale="   90.531">  7  8 -1 -1</clus>
<clus scale="   98.424">  2  5  1 -1</clus>
<clus scale="   50.442">  1  5  2 -1</clus>
</clustering>
</event>
<event>
 9    1  0.4664604E-005  0.1413685E+03  0.7546771E-02  0.1236633E+00
         21   -1    0    0  501  502  0.00000000000E+00  0.00000000000E+00  0.61804181407E+02  0.61804181407E+02  0.00000000000E+00 0.  1.
         -4   -1    0    0    0  501 -0.00000000000E+00 -0.00000000000E+00 -0.62762307288E+03  0.62762307288E+03  0.00000000000E+00 0.  1.
        -24    2    1    2    0    0  0.25117961618E+01  0.23177511342E+02 -0.30487967790E+02  0.89074423925E+02  0.80381780683E+02 0.  0.
         23    2    1    2    0    0  0.10652184739E+03 -0.21887354264E+02 -0.18258720742E+03  0.23113997942E+03  0.90893572529E+02 0.  0.
         13    1    3    3    0    0 -0.21022945555E+02 -0.23211386059E+02 -0.74903863318E+01  0.32199977795E+02  0.00000000000E+00 0. -1.
        -14    1    3    3    0    0  0.23534741717E+02  0.46388897400E+02 -0.22997581458E+02  0.56874446130E+02  0.00000000000E+00 0.  1.
        -11    1    4    4    0    0  0.75070499025E+02  0.60828997458E+01 -0.17195835036E+03  0.18772920857E+03  0.00000000000E+00 0. -1.
         11    1    4    4    0    0  0.31451348368E+02 -0.27970254009E+02 -0.10628857057E+02  0.43410770851E+02  0.00000000000E+00 0.  1.
         -3    1    1    2    0  502 -0.10903364355E+03 -0.12901570780E+01 -0.35274371626E+03  0.36921285093E+03  0.00000000000E+00 0.  1.
<scales pt_clust_5="13000.00000" pt_clust_6="13000.00000" pt_clust_7="13000.00000" pt_clust_8="13000.00000" pt_clust_9="108.27481"></scales>
<clustering>
<clus scale="   80.382">  5  6 -1 -1</clus>
<clus scale="   83.694">  2  5  1 -1</clus>
<clus scale="   90.894">  7  8 -1 -1</clus>
<clus scale="  108.275">  1  9  2 -1</clus>
<clus scale="  108.275">  1  5  2 -1</clus>
</clustering>
</event>
<event>
 9    1  0.4664604E-005  0.1081233E+03  0.7546771E-02  0.1267391E+00
          1   -1    0    0  502    0 -0.00000000000E+00  0.00000000000E+00  0.41283479649E+03  0.41283479649E+03  0.00000000000E+00 0. -1.
         21   -1    0    0  501  502  0.00000000000E+00 -0.00000000000E+00 -0.91937994042E+02  0.91937994042E+02  0.00000000000E+00 0.  1.
         23    2    1    2    0    0 -0.13988836928E+02 -0.45721800720E+02  0.26323952903E+03  0.28242370431E+03  0.90454013122E+02 0.  0.
        -24    2    1    2    0    0  0.49844493310E+02  0.10305281827E+03  0.63217760356E+02  0.15450077981E+03  0.82277875949E+02 0.  0.
         13    1    4    4    0    0  0.59209297858E+02  0.74781316286E+02  0.76129977394E+02  0.12203999212E+03  0.00000000000E+00 0. -1.
        -14    1    4    4    0    0 -0.93648045480E+01  0.28271501987E+02 -0.12912217038E+02  0.32460787693E+02  0.00000000000E+00 0.  1.
        -13    1    3    3    0    0  0.35775463689E+02 -0.16160589673E+01  0.90796190043E+02  0.97603501859E+02  0.00000000000E+00 0.  1.
         13    1    3    3    0    0 -0.49764300617E+02 -0.44105741752E+02  0.17244333899E+03  0.18482020245E+03  0.00000000000E+00 0. -1.
          2    1    1    2  501    0 -0.35855656382E+02 -0.57331017553E+02 -0.55604869394E+01  0.67848306414E+02  0.00000000000E+00 0. -1.
<scales pt_clust_5="13000.00000" pt_clust_6="13000.00000" pt_clust_7="13000.00000" pt_clust_8="13000.00000" pt_clust_9="67.62007"></scales>
<clustering>
<clus scale="   67.620">  2  9  1 -1</clus>
<clus scale="   82.278">  5  6 -1 -1</clus>
<clus scale="   90.454">  7  8 -1 -1</clus>
<clus scale="  101.382">  2  5  1 -1</clus>
<clus scale="   67.620">  2  5  1 -1</clus>
</clustering>
</event>
<event>
 9    1  0.4664604E-005  0.1089115E+03  0.7546771E-02  0.1267632E+00
          1   -1    0    0  502    0 -0.00000000000E+00  0.00000000000E+00  0.20678497874E+03  0.20678497874E+03  0.00000000000E+00 0. -1.
         21   -1    0    0  501  502  0.00000000000E+00 -0.00000000000E+00 -0.22498698620E+03  0.22498698620E+03  0.00000000000E+00 0. -1.
        -24    2    1    2    0    0  0.49434844719E+02  0.32696748649E+02  0.86127514595E+02  0.13200827139E+03  0.80593757198E+02 0.  0.
         23    2    1    2    0    0 -0.17124262737E+02 -0.41364796937E+02 -0.18537929046E+03  0.21208146202E+03  0.92783502854E+02 0.  0.
         13    1    3    3    0    0  0.45349669385E+02  0.57994896257E+02  0.70844352749E+02  0.10217104689E+03  0.00000000000E+00 0. -1.
        -14    1    3    3    0    0  0.40851753332E+01 -0.25298147608E+02  0.15283161846E+02  0.29837224501E+02  0.00000000000E+00 0.  1.
        -11    1    4    4    0    0 -0.52845804865E+02 -0.31998175702E+02 -0.84648741403E+02  0.10479490332E+03  0.00000000000E+00 0.  1.
         11    1    4    4    0    0  0.35721542128E+02 -0.93666212350E+01 -0.10073054906E+03  0.10728655871E+03  0.00000000000E+00 0. -1.
          2    1    1    2  501    0 -0.32310581981E+02  0.86680482881E+01  0.81049768404E+02  0.87682231538E+02  0.00000000000E+00 0. -1.
<scales pt_clust_5="13000.00000" pt_clust_6="13000.00000" pt_clust_7="13000.00000" pt_clust_8="13000.00000" pt_clust_9="33.45310"></scales>
<clustering>
<clus scale="   33.453">  2  9  1 -1</clus>
<clus scale="   80.594">  5  6 -1 -1</clus>
<clus scale="   92.784">  7  8 -1 -1</clus>
<clus scale="   98.733">  1  5  2 -1</clus>
<clus scale="   33.453">  2  5  1 -1</clus>
</clustering>
</event>
<event>
 9    1  0.4664604E-005  0.9585605E+02  0.7546771E-02  0.1294858E+00
          1   -1    0    0  502    0 -0.00000000000E+00  0.00000000000E+00  0.45588146036E+03  0.45588146036E+03  0.00000000000E+00 0. -1.
         21   -1    0    0  501  502  0.00000000000E+00 -0.00000000000E+00 -0.52582820481E+02  0.52582820481E+02  0.00000000000E+00 0.  1.
        -24    2    1    2    0    0  0.10289642304E+02  0.32430403051E+02  0.36473132762E+03  0.37505620137E+03  0.80502205295E+02 0.  0.
         23    2    1    2    0    0 -0.17469793693E+02 -0.34626515031E+01  0.11426120660E+02  0.93067907371E+02  0.90630543980E+02 0.  0.
         13    1    3    3    0    0 -0.26562386426E+02  0.41569246517E+02  0.19727201758E+03  0.20334653070E+03  0.00000000000E+00 0. -1.
        -14    1    3    3    0    0  0.36852028730E+02 -0.91388434669E+01  0.16745931004E+03  0.17170967066E+03  0.00000000000E+00 0.  1.
        -11    1    4    4    0    0  0.58521708275E+00 -0.38285786849E+02 -0.19637345608E+02  0.43032189070E+02  0.00000000000E+00 0.  1.
         11    1    4    4    0    0 -0.18055010776E+02  0.34823135345E+02  0.31063466267E+02  0.50035718301E+02  0.00000000000E+00 0. -1.
          2    1    1    2  501    0  0.71801513893E+01 -0.28967751547E+02  0.27141191603E+02  0.40340172103E+02  0.00000000000E+00 0. -1.
<scales pt_clust_5="13000.00000" pt_clust_6="13000.00000" pt_clust_7="13000.00000" pt_clust_8="13000.00000" pt_clust_9="29.84435"></scales>
<clustering>
<clus scale="   29.844">  2  9  1 -1</clus>
<clus scale="   80.502">  5  6 -1 -1</clus>
<clus scale="   86.343">  1  5  2 -1</clus>
<clus scale="   90.631">  7  8 -1 -1</clus>
<clus scale="   29.844">  2  5  1 -1</clus>
</clustering>
</event>
<event>
 9    1  0.4664604E-005  0.1412693E+03  0.7546771E-02  0.1213794E+00
         21   -1    0    0  501  502  0.00000000000E+00  0.00000000000E+00  0.13933445037E+03  0.13933445037E+03  0.00000000000E+00 0. -1.
         -2   -1    0    0    0  501 -0.00000000000E+00 -0.00000000000E+00 -0.46196183976E+03  0.46196183976E+03  0.00000000000E+00 0.  1.
         23    2    1    2    0    0  0.17753594748E+01 -0.11077580825E+03 -0.38700584518E+03  0.41260419975E+03  0.90522206392E+02 0.  0.
        -24    2    1    2    0    0  0.41779007891E+02  0.92192230452E+02  0.38825642983E+02  0.13488429798E+03  0.80258647096E+02 0.  0.
         13    1    4    4    0    0  0.31493787838E+02  0.10511446379E+03  0.42989705615E+02  0.11785170325E+03  0.00000000000E+00 0. -1.
        -14    1    4    4    0    0  0.10285220053E+02 -0.12922233334E+02 -0.41640626324E+01  0.17032594737E+02  0.00000000000E+00 0.  1.
        -11    1    3    3    0    0 -0.22897663900E+02 -0.11249523920E+03 -0.34772016732E+03  0.36618137120E+03  0.00000000000E+00 0.  1.
         11    1    3    3    0    0  0.24673023375E+02  0.17194309447E+01 -0.39285677861E+02  0.46422828546E+02  0.00000000000E+00 0. -1.
         -1    1    1    2    0  502 -0.43554367365E+02  0.18583577799E+02  0.25552812809E+02  0.53807792399E+02  0.00000000000E+00 0.  1.
<scales pt_clust_5="13000.00000" pt_clust_6="13000.00000" pt_clust_7="13000.00000" pt_clust_8="13000.00000" pt_clust_9="47.35327"></scales>
<clustering>
<clus scale="   47.353">  1  9  2 -1</clus>
<clus scale="   80.259">  5  6 -1 -1</clus>
<clus scale="   90.522">  7  8 -1 -1</clus>
<clus scale="  134.923">  1  5  2 -1</clus>
<clus scale="   47.353">  1  5  2 -1</clus>
</clustering>
</event>
<event>
 9    1  0.4664604E-005  0.1004225E+03  0.7546771E-02  0.1287642E+00
         -4   -1    0    0    0  501 -0.00000000000E+00  0.00000000000E+00  0.16527066706E+03  0.16527066706E+03  0.00000000000E+00 0.  1.
         21   -1    0    0  501  502  0.00000000000E+00 -0.00000000000E+00 -0.14399271681E+03  0.14399271681E+03  0.00000000000E+00 0.  1.
         23    2    1    2    0    0  0.21151576069E+02 -0.25010034248E+02  0.11034513972E+03  0.14813096395E+03  0.93240772403E+02 0.  0.
        -24    2    1    2    0    0 -0.55620701761E+02  0.27607006056E+02 -0.60042323575E+02  0.11599587454E+03  0.77421915774E+02 0.  0.
         11    1    4    4    0    0  0.59787358973E+01  0.23790701317E+02  0.63593804697E+01  0.25341358923E+02  0.00000000000E+00 0. -1.
        -12    1    4    4    0    0 -0.61599437658E+02  0.38163047389E+01 -0.66401704044E+02  0.90654515616E+02  0.00000000000E+00 0.  1.
        -13    1    3    3    0    0 -0.20467199847E+02 -0.33182051103E+01  0.97207685214E+02  0.99394420464E+02  0.00000000000E+00 0.  1.
         13    1    3    3    0    0  0.41618775916E+02 -0.21691829138E+02  0.13137454501E+02  0.48736543485E+02  0.00000000000E+00 0. -1.
         -3    1    1    2    0  502  0.34469125692E+02 -0.25969718083E+01 -0.29024865897E+02  0.45136545381E+02  0.00000000000E+00 0.  1.
<scales pt_clust_5="13000.00000" pt_clust_6="13000.00000" pt_clust_7="13000.00000" pt_clust_8="13000.00000" pt_clust_9="34.56682"></scales>
<clustering>
<clus scale="   34.567">  2  9  1 -1</clus>
<clus scale="   77.422">  5  6 -1 -1</clus>
<clus scale="   85.936">  2  5  1 -1</clus>
<clus scale="   93.241">  7  8 -1 -1</clus>
<clus scale="   34.567">  2  5  1 -1</clus>
</clustering>
</event>
<event>
 9    1  0.4664604E-005  0.1125256E+03  0.7546771E-02  0.1260090E+00
         21   -1    0    0  501  502  0.00000000000E+00  0.00000000000E+00  0.41101371675E+03  0.41101371675E+03  0.00000000000E+00 0. -1.
          1   -1    0    0  502    0 -0.00000000000E+00 -0.00000000000E+00 -0.14183561325E+03  0.14183561325E+03  0.00000000000E+00 0. -1.
         23    2    1    2    0    0 -0.52948935232E+02  0.51243775746E+02 -0.91462169293E+02  0.14835455228E+03  0.90632391985E+02 0.  0.
        -24    2    1    2    0    0 -0.57607556800E+01 -0.54065622329E+02  0.10615433945E+03  0.14330924807E+03  0.79451362315E+02 0.  0.
         13    1    4    4    0    0 -0.75076372919E+01 -0.74827350510E+02  0.87119266565E+02  0.11508806892E+03  0.00000000000E+00 0. -1.
        -14    1    4    4    0    0  0.17468816118E+01  0.20761728181E+02  0.19035072885E+02  0.28221179142E+02  0.00000000000E+00 0.  1.
        -13    1    3    3    0    0 -0.69430126251E+02  0.14128745173E+02 -0.78452719353E+02  0.10571183967E+03  0.00000000000E+00 0. -1.
         13    1    3    3    0    0  0.16481191019E+02  0.37115030573E+02 -0.13009449940E+02  0.42642712619E+02  0.00000000000E+00 0.  1.
          2    1    1    2  501    0  0.58709690912E+02  0.28218465827E+01  0.25448593334E+03  0.26118552964E+03  0.00000000000E+00 0. -1.
<scales pt_clust_5="13000.00000" pt_clust_6="13000.00000" pt_clust_7="13000.00000" pt_clust_8="13000.00000" pt_clust_9="58.77747"></scales>
<clustering>
<clus scale="   58.777">  1  9  2 -1</clus>
<clus scale="   79.451">  5  6 -1 -1</clus>
<clus scale="   90.632">  7  8 -1 -1</clus>
<clus scale="  103.732">  1  5  2 -1</clus>
<clus scale="   58.777">  1  5  2 -1</clus>
</clustering>
</event>
<event>
 9    1  0.4664604E-005  0.8999137E+02  0.7546771E-02  0.1306731E+00
         -4   -1    0    0    0  501 -0.00000000000E+00  0.00000000000E+00  0.88715691735E+03  0.88715691735E+03  0.00000000000E+00 0.  1.
         21   -1    0    0  501  502  0.00000000000E+00 -0.00000000000E+00 -0.24975342539E+02  0.24975342539E+02  0.00000000000E+00 0.  1.
         23    2    1    2    0    0  0.31784335052E+02  0.19939764081E+02  0.40149240251E+03  0.41284683106E+03  0.88535408184E+02 0.  0.
        -24    2    1    2    0    0  0.43860154380E+02 -0.10359943035E+02  0.36535279239E+03  0.37720804727E+03  0.82293416841E+02 0.  0.
         13    1    4    4    0    0 -0.12447079102E+02 -0.17192881826E+02  0.28082696119E+02  0.35201744062E+02  0.00000000000E+00 0. -1.
        -14    1    4    4    0    0  0.56307233482E+02  0.68329387915E+01  0.33727009627E+03  0.34200630320E+03  0.00000000000E+00 0.  1.
        -13    1    3    3    0    0  0.56451929249E+02 -0.47288165775E+01  0.30558791002E+03  0.31079438987E+03  0.00000000000E+00 0.  1.
         13    1    3    3    0    0 -0.24667594196E+02  0.24668580659E+02  0.95904492486E+02  0.10205244120E+03  0.00000000000E+00 0. -1.
         -3    1    1    2    0  502 -0.75644489433E+02 -0.95798210466E+01  0.95336379918E+02  0.12207738156E+03  0.00000000000E+00 0.  1.
<scales pt_clust_5="13000.00000" pt_clust_6="13000.00000" pt_clust_7="13000.00000" pt_clust_8="13000.00000" pt_clust_9="76.24868"></scales>
<clustering>
<clus scale="   76.249">  2  9  1 -1</clus>
<clus scale="   82.293">  5  6 -1 -1</clus>
<clus scale="   83.858">  2  5  1 -1</clus>
<clus scale="   88.535">  7  8 -1 -1</clus>
<clus scale="   76.249">  2  5  1 -1</clus>
</clustering>
</event>
<event>
 9    1  0.4664604E-005  0.9731288E+02  0.7546771E-02  0.1293278E+00
         21   -1    0    0  501  502  0.00000000000E+00  0.00000000000E+00  0.93301656546E+02  0.93301656546E+02  0.00000000000E+00 0.  1.
         -4   -1    0    0    0  501 -0.00000000000E+00 -0.00000000000E+00 -0.12522813503E+03  0.12522813503E+03  0.00000000000E+00 0.  1.
         23    2    1    2    0    0 -0.36413734306E+02  0.11689725400E+02 -0.34955099243E+02  0.10513399507E+03  0.91480534712E+02 0.  0.
        -24    2    1    2    0    0  0.18293188699E+02 -0.25697858598E+02 -0.13116389984E+02  0.85373602783E+02  0.78240601204E+02 0.  0.
         13    1    4    4    0    0 -0.90150550514E+01  0.20403274361E+02  0.12944314561E+02  0.25789922483E+02  0.00000000000E+00 0. -1.
        -14    1    4    4    0    0  0.27308243750E+02 -0.46101132959E+02 -0.26060704545E+02  0.59583680301E+02  0.00000000000E+00 0.  1.
        -13    1    3    3    0    0  0.27406127864E+02 -0.13355489529E+02 -0.13033605277E+02  0.33156293694E+02  0.00000000000E+00 0.  1.
         13    1    3    3    0    0 -0.63819862170E+02  0.25045214929E+02 -0.21921493966E+02  0.71977701380E+02  0.00000000000E+00 0. -1.
         -3    1    1    2    0  502  0.18120545607E+02  0.14008133198E+02  0.16145010744E+02  0.28022193717E+02  0.00000000000E+00 0.  1.
<scales pt_clust_5="13000.00000" pt_clust_6="13000.00000" pt_clust_7="13000.00000" pt_clust_8="13000.00000" pt_clust_9="22.90375"></scales>
<clustering>
<clus scale="   22.904">  1  9  2 -1</clus>
<clus scale="   78.241">  5  6 -1 -1</clus>
<clus scale="   84.986">  1  5  2 -1</clus>
<clus scale="   91.481">  7  8 -1 -1</clus>
<clus scale="   22.904">  1  5  2 -1</clus>
</clustering>
</event>
<event>
 9    1  0.4664604E-005  0.1330727E+03  0.7546771E-02  0.1225673E+00
          1   -1    0    0  502    0 -0.00000000000E+00  0.00000000000E+00  0.52096586110E+03  0.52096586110E+03  0.00000000000E+00 0. -1.
         21   -1    0    0  501  502  0.00000000000E+00 -0.00000000000E+00 -0.63106143966E+02  0.63106143966E+02  0.00000000000E+00 0. -1.
        -24    2    1    2    0    0  0.82506535990E+02 -0.55875735090E+02  0.26257573638E+03  0.29218592215E+03  0.80605021640E+02 0.  0.
         23    2    1    2    0    0 -0.10538291967E+03 -0.92350702365E+01  0.91257514120E+02  0.16704918268E+03  0.91578650737E+02 0.  0.
         11    1    3    3    0    0  0.28248745740E+02  0.17604575848E+02  0.43062349227E+02  0.54426819194E+02  0.00000000000E+00 0. -1.
        -12    1    3    3    0    0  0.54257790251E+02 -0.73480310938E+02  0.21951338716E+03  0.23775910296E+03  0.00000000000E+00 0.  1.
        -13    1    4    4    0    0 -0.56428861576E+02  0.13978132114E+02  0.96457068327E+02  0.11262135955E+03  0.00000000000E+00 0.  1.
         13    1    4    4    0    0 -0.48954058091E+02 -0.23213202350E+02 -0.51995542073E+01  0.54427823132E+02  0.00000000000E+00 0. -1.
          2    1    1    2  501    0  0.22876383677E+02  0.65110805326E+02  0.10402646663E+03  0.12483690023E+03  0.00000000000E+00 0. -1.
<scales pt_clust_5="13000.00000" pt_clust_6="13000.00000" pt_clust_7="13000.00000" pt_clust_8="13000.00000" pt_clust_9="69.01268"></scales>
<clustering>
<clus scale="   69.013">  2  9  1 -1</clus>
<clus scale="   80.605">  5  6 -1 -1</clus>
<clus scale="   91.579">  7  8 -1 -1</clus>
<clus scale="  125.773">  1  5  2 -1</clus>
<clus scale="   69.013">  2  5  1 -1</clus>
</clustering>
</event>
<event>
 9    1  0.4664604E-005  0.8257402E+02  0.7546771E-02  0.1322482E+00
         21   -1    0    0  501  502  0.00000000000E+00  0.00000000000E+00  0.13379642683E+03  0.13379642683E+03  0.00000000000E+00 0. -1.
          1   -1    0    0  502    0 -0.00000000000E+00 -0.00000000000E+00 -0.31252598199E+03  0.31252598199E+03  0.00000000000E+00 0. -1.
         23    2    1    2    0    0 -0.19144309662E+02 -0.24894704518E+01 -0.23591590181E+03  0.25009063613E+03  0.80723673708E+02 0.  0.
        -24    2    1    2    0    0 -0.21284805241E+02  0.64261441750E+02  0.31338911774E+01  0.10473336991E+03  0.79854127433E+02 0.  0.
         13    1    4    4    0    0  0.38522890328E+01  0.63398693408E+02 -0.23849276687E+02  0.67845578007E+02  0.00000000000E+00 0. -1.
        -14    1    4    4    0    0 -0.25137094273E+02  0.86274834232E+00  0.26983167864E+02  0.36887791899E+02  0.00000000000E+00 0.  1.
        -11    1    3    3    0    0 -0.50797214913E+01 -0.32922268937E+02 -0.19185344374E+03  0.19472396677E+03  0.00000000000E+00 0. -1.
         11    1    3    3    0    0 -0.14064588171E+02  0.30432798486E+02 -0.44062458077E+02  0.55366669359E+02  0.00000000000E+00 0.  1.
          2    1    1    2  501    0  0.40429114903E+02 -0.61771971298E+02  0.54052455474E+02  0.91498402788E+02  0.00000000000E+00 0. -1.
<scales pt_clust_5="13000.00000" pt_clust_6="13000.00000" pt_clust_7="13000.00000" pt_clust_8="13000.00000" pt_clust_9="73.82608"></scales>
<clustering>
<clus scale="   73.826">  1  9  2 -1</clus>
<clus scale="   79.854">  5  6 -1 -1</clus>
<clus scale="   80.724">  7  8 -1 -1</clus>
<clus scale="   81.724">  1  5  2 -1</clus>
<clus scale="   73.826">  1  5  2 -1</clus>
</clustering>
</event>
<event>
 9    1  0.4664604E-005  0.1428358E+03  0.7546771E-02  0.1214752E+00
         -2   -1    0    0    0  501 -0.00000000000E+00  0.00000000000E+00  0.23492935696E+03  0.23492935696E+03  0.00000000000E+00 0.  1.
         21   -1    0    0  501  502  0.00000000000E+00 -0.00000000000E+00 -0.68160728751E+03  0.68160728751E+03  0.00000000000E+00 0.  1.
         23    2    1    2    0    0  0.25027436007E+02 -0.73763225807E+02  0.10740521572E+03  0.16773647807E+03  0.10262679805E+03 0.  0.
        -24    2    1    2    0    0 -0.64904535806E+02  0.14686239385E+03  0.87348677979E+01  0.17985571531E+03  0.80564377480E+02 0.  0.
         13    1    4    4    0    0  0.15718968039E+02  0.23414874922E+02  0.15645306437E+02  0.32250859482E+02  0.00000000000E+00 0. -1.
        -14    1    4    4    0    0 -0.80623503845E+02  0.12344751893E+03 -0.69104386387E+01  0.14760485583E+03  0.00000000000E+00 0.  1.
        -11    1    3    3    0    0  0.47173418090E+02 -0.60844844645E+02  0.11725445744E+03  0.14027128816E+03  0.00000000000E+00 0. -1.
         11    1    3    3    0    0 -0.22145982083E+02 -0.12918381163E+02 -0.98492417211E+01  0.27465189910E+02  0.00000000000E+00 0.  1.
         -1    1    1    2    0  502  0.39877099799E+02 -0.73099168043E+02 -0.56281801407E+03  0.56894445108E+03  0.00000000000E+00 0.  1.
<scales pt_clust_5="13000.00000" pt_clust_6="13000.00000" pt_clust_7="13000.00000" pt_clust_8="13000.00000" pt_clust_9="83.26867"></scales>
<clustering>
<clus scale="   80.564">  5  6 -1 -1</clus>
<clus scale="   83.269">  2  9  1 -1</clus>
<clus scale="  102.627">  7  8 -1 -1</clus>
<clus scale="  127.908">  2  5  1 -1</clus>
<clus scale="   83.269">  2  5  1 -1</clus>
</clustering>
</event>
<event>
 9    1  0.4664604E-005  0.9897035E+02  0.7546771E-02  0.1286575E+00
          1   -1    0    0  502    0 -0.00000000000E+00  0.00000000000E+00  0.63053244649E+03  0.63053244649E+03  0.00000000000E+00 0. -1.
         21   -1    0    0  501  502  0.00000000000E+00 -0.00000000000E+00 -0.24440013891E+02  0.24440013891E+02  0.00000000000E+00 0. -1.
        -24    2    1    2    0    0  0.70886742091E+01 -0.28790313566E+02  0.25971712426E+03  0.27404662169E+03  0.82276574827E+02 0.  0.
         23    2    1    2    0    0 -0.46008294553E+02  0.36740925138E+02  0.30520765100E+03  0.32371810248E+03  0.90415932764E+02 0.  0.
         11    1    3    3    0    0 -0.28614115737E+02 -0.37780119557E+02  0.18169135624E+03  0.18777074848E+03  0.00000000000E+00 0. -1.
        -12    1    3    3    0    0  0.35702789946E+02  0.89898059909E+01  0.78025768021E+02  0.86275873203E+02  0.00000000000E+00 0.  1.
        -11    1    4    4    0    0 -0.17928903123E+02  0.60816534554E+02  0.24487278115E+03  0.25294816740E+03  0.00000000000E+00 0.  1.
         11    1    4    4    0    0 -0.28079391430E+02 -0.24075609416E+02  0.60334869854E+02  0.70769935086E+02  0.00000000000E+00 0. -1.
          2    1    1    2  501    0  0.38919620344E+02 -0.79506115717E+01  0.41167657339E+02  0.57207736215E+02  0.00000000000E+00 0. -1.
<scales pt_clust_5="13000.00000" pt_clust_6="13000.00000" pt_clust_7="13000.00000" pt_clust_8="13000.00000" pt_clust_9="39.72341"></scales>
<clustering>
<clus scale="   39.723">  2  9  1 -1</clus>
<clus scale="   82.277">  5  6 -1 -1</clus>
<clus scale="   90.416">  7  8 -1 -1</clus>
<clus scale="   91.594">  1  5  2 -1</clus>
<clus scale="   39.723">  2  5  1 -1</clus>
</clustering>
</event>
<event>
 9    1  0.4664604E-005  0.9694513E+02  0.7546771E-02  0.1295429E+00
          1   -1    0    0  502    0 -0.00000000000E+00  0.00000000000E+00  0.38775924552E+03  0.38775924552E+03  0.00000000000E+00 0. -1.
         21   -1    0    0  501  502  0.00000000000E+00 -0.00000000000E+00 -0.50167363036E+02  0.50167363036E+02  0.00000000000E+00 0.  1.
        -24    2    1    2    0    0  0.12334129055E+01  0.23665106846E+02  0.27116329790E+03  0.28380476621E+03  0.80337118469E+02 0.  0.
         23    2    1    2    0    0 -0.14131583340E+02 -0.10074452499E+01  0.79725431239E+02  0.12485516231E+03  0.95036574939E+02 0.  0.
         11    1    3    3    0    0 -0.23894561434E+02  0.44864708867E+02  0.16951642205E+03  0.17697347121E+03  0.00000000000E+00 0. -1.
        -12    1    3    3    0    0  0.25127974339E+02 -0.21199602021E+02  0.10164687585E+03  0.10683129500E+03  0.00000000000E+00 0.  1.
        -11    1    4    4    0    0  0.27156427183E+02 -0.67368539189E+01  0.78298030704E+02  0.83147088645E+02  0.00000000000E+00 0. -1.
         11    1    4    4    0    0 -0.41288010523E+02  0.57294086690E+01  0.14274005347E+01  0.41708073666E+02  0.00000000000E+00 0.  1.
          2    1    1    2  501    0  0.12898170434E+02 -0.22657661597E+02 -0.13296846653E+02  0.29266680039E+02  0.00000000000E+00 0. -1.
<scales pt_clust_5="13000.00000" pt_clust_6="13000.00000" pt_clust_7="13000.00000" pt_clust_8="13000.00000" pt_clust_9="26.07168"></scales>
<clustering>
<clus scale="   26.072">  2  9  1 -1</clus>
<clus scale="   80.337">  5  6 -1 -1</clus>
<clus scale="   82.586">  1  5  2 -1</clus>
<clus scale="   95.037">  7  8 -1 -1</clus>
<clus scale="   26.072">  2  5  1 -1</clus>
</clustering>
</event>
<event>
 9    1  0.4664604E-005  0.9392776E+02  0.7546771E-02  0.1296636E+00
         21   -1    0    0  501  502  0.00000000000E+00  0.00000000000E+00  0.10802530824E+03  0.10802530824E+03  0.00000000000E+00 0. -1.
         -4   -1    0    0    0  501 -0.00000000000E+00 -0.00000000000E+00 -0.36380966466E+03  0.36380966466E+03  0.00000000000E+00 0.  1.
         23    2    1    2    0    0  0.53317956055E+01  0.37935335789E+02 -0.24319498617E+03  0.26064712161E+03  0.85589736292E+02 0.  0.
        -24    2    1    2    0    0  0.76256787910E+02 -0.43606934444E+02  0.24701926707E+02  0.12130178552E+03  0.79920432645E+02 0.  0.
         11    1    4    4    0    0  0.83583166238E+02 -0.37270900541E+02 -0.33977408615E+01  0.91579530183E+02  0.00000000000E+00 0. -1.
        -12    1    4    4    0    0 -0.73263783289E+01 -0.63360339027E+01  0.28099667569E+02  0.29722255340E+02  0.00000000000E+00 0.  1.
        -13    1    3    3    0    0  0.27468500521E+02 -0.18180596117E+02 -0.99224582711E+02  0.10454936829E+03  0.00000000000E+00 0. -1.
         13    1    3    3    0    0 -0.22136704916E+02  0.56115931906E+02 -0.14397040346E+03  0.15609775332E+03  0.00000000000E+00 0.  1.
         -3    1    1    2    0  502 -0.81588583515E+02  0.56715986547E+01 -0.37291296953E+02  0.89886065771E+02  0.00000000000E+00 0.  1.
<scales pt_clust_5="13000.00000" pt_clust_6="13000.00000" pt_clust_7="13000.00000" pt_clust_8="13000.00000" pt_clust_9="81.78548"></scales>
<clustering>
<clus scale="   79.920">  5  6 -1 -1</clus>
<clus scale="   81.785">  1  9  2 -1</clus>
<clus scale="   85.590">  7  8 -1 -1</clus>
<clus scale="   88.792">  1  5  2 -1</clus>
<clus scale="   81.785">  1  5  2 -1</clus>
</clustering>
</event>
<event>
 9    1  0.4664604E-005  0.1934505E+03  0.7546771E-02  0.1187269E+00
          3   -1    0    0  502    0 -0.00000000000E+00  0.00000000000E+00  0.19088772239E+03  0.19088772239E+03  0.00000000000E+00 0. -1.
         21   -1    0    0  501  502  0.00000000000E+00 -0.00000000000E+00 -0.37832327177E+03  0.37832327177E+03  0.00000000000E+00 0. -1.
         23    2    1    2    0    0  0.27877723317E+02  0.22041598879E+01  0.21906398019E+02  0.95970990638E+02  0.89154444599E+02 0.  0.
        -24    2    1    2    0    0 -0.29744173316E+02  0.17418727114E+03  0.69260736538E+01  0.19415349811E+03  0.80135441953E+02 0.  0.
         13    1    4    4    0    0  0.15984921144E+02  0.11913662252E+03  0.18621163622E+02  0.12163798857E+03  0.00000000000E+00 0. -1.
        -14    1    4    4    0    0 -0.45729094460E+02  0.55050648624E+02 -0.11695089968E+02  0.72515509537E+02  0.00000000000E+00 0.  1.
        -13    1    3    3    0    0 -0.20390548169E+02 -0.13720124654E+02 -0.18726676429E+02  0.30898295830E+02  0.00000000000E+00 0.  1.
         13    1    3    3    0    0  0.48268271486E+02  0.15924284542E+02  0.40633074448E+02  0.65072694807E+02  0.00000000000E+00 0. -1.
          4    1    1    2  501    0  0.18664499989E+01 -0.17639143103E+03 -0.21626802105E+03  0.27908650541E+03  0.00000000000E+00 0. -1.
<scales pt_clust_5="13000.00000" pt_clust_6="13000.00000" pt_clust_7="13000.00000" pt_clust_8="13000.00000" pt_clust_9="176.07216"></scales>
<clustering>
<clus scale="   80.135">  5  6 -1 -1</clus>
<clus scale="   89.154">  7  8 -1 -1</clus>
<clus scale="   93.437">  1  7  2 -1</clus>
<clus scale="  176.072">  2  9  1 -1</clus>
<clus scale="  176.072">  2  5  1 -1</clus>
</clustering>
</event>
<event>
 9    1  0.4664604E-005  0.1135117E+03  0.7546771E-02  0.1257891E+00
         21   -1    0    0  501  502  0.00000000000E+00  0.00000000000E+00  0.43830741674E+03  0.43830741674E+03  0.00000000000E+00 0. -1.
          1   -1    0    0  502    0 -0.00000000000E+00 -0.00000000000E+00 -0.22727420208E+03  0.22727420208E+03  0.00000000000E+00 0. -1.
         23    2    1    2    0    0  0.91661523329E+01 -0.99266814290E+02 -0.12991978442E+03  0.18720787711E+03  0.90717804761E+02 0.  0.
        -24    2    1    2    0    0 -0.78508411168E+01  0.35213466306E+02 -0.36541815134E+02  0.95480941852E+02  0.80496472520E+02 0.  0.
         11    1    4    4    0    0  0.22655560504E+02 -0.12946404830E+02 -0.27234308930E+02  0.37717256033E+02  0.00000000000E+00 0. -1.
        -12    1    4    4    0    0 -0.30506401620E+02  0.48159871136E+02 -0.93075062044E+01  0.57763685819E+02  0.00000000000E+00 0.  1.
        -13    1    3    3    0    0 -0.26935448434E+02 -0.82276966041E+02 -0.11643007523E+03  0.14508955835E+03  0.00000000000E+00 0. -1.
         13    1    3    3    0    0  0.36101600767E+02 -0.16989848249E+02 -0.13489709191E+02  0.42118318764E+02  0.00000000000E+00 0.  1.
          2    1    1    2  501    0 -0.13153112162E+01  0.64053347984E+02  0.37749481421E+03  0.38289279986E+03  0.00000000000E+00 0. -1.
<scales pt_clust_5="13000.00000" pt_clust_6="13000.00000" pt_clust_7="13000.00000" pt_clust_8="13000.00000" pt_clust_9="64.06685"></scales>
<clustering>
<clus scale="   64.067">  1  9  2 -1</clus>
<clus scale="   80.496">  5  6 -1 -1</clus>
<clus scale="   90.718">  7  8 -1 -1</clus>
<clus scale="  105.522">  1  5  2 -1</clus>
<clus scale="   64.067">  1  5  2 -1</clus>
</clustering>
</event>
<event>
 9    1  0.4664604E-005  0.9280059E+02  0.7546771E-02  0.1300624E+00
          1   -1    0    0  502    0 -0.00000000000E+00  0.00000000000E+00  0.49497988744E+03  0.49497988744E+03  0.00000000000E+00 0. -1.
         21   -1    0    0  501  502  0.00000000000E+00 -0.00000000000E+00 -0.57692810132E+02  0.57692810132E+02  0.00000000000E+00 0. -1.
        -24    2    1    2    0    0 -0.27497991684E+01 -0.27219411925E+02  0.37296246322E+03  0.38225917759E+03  0.79199887008E+02 0.  0.
         23    2    1    2    0    0  0.83108213489E+01  0.59121863368E+02  0.81895621419E+02  0.13357018036E+03  0.87003653915E+02 0.  0.
         11    1    3    3    0    0  0.15351971398E+02  0.19466192511E+02  0.54364364287E+02  0.59750311974E+02  0.00000000000E+00 0. -1.
        -12    1    3    3    0    0 -0.18101770566E+02 -0.46685604436E+02  0.31859809893E+03  0.32250886561E+03  0.00000000000E+00 0.  1.
        -13    1    4    4    0    0  0.12156386154E+02  0.19264797519E+02  0.89895438541E+02  0.92736724216E+02  0.00000000000E+00 0. -1.
         13    1    4    4    0    0 -0.38455648054E+01  0.39857065849E+02 -0.79998171227E+01  0.40833456145E+02  0.00000000000E+00 0.  1.
          2    1    1    2  501    0 -0.55610221806E+01 -0.31902451443E+02 -0.17571007329E+02  0.36843339619E+02  0.00000000000E+00 0. -1.
<scales pt_clust_5="13000.00000" pt_clust_6="13000.00000" pt_clust_7="13000.00000" pt_clust_8="13000.00000" pt_clust_9="32.38350"></scales>
<clustering>
<clus scale="   32.384">  2  9  1 -1</clus>
<clus scale="   79.200">  5  6 -1 -1</clus>
<clus scale="   85.527">  1  5  2 -1</clus>
<clus scale="   87.004">  7  8 -1 -1</clus>
<clus scale="   32.384">  2  5  1 -1</clus>
</clustering>
</event>
<event>
 9    1  0.4664604E-005  0.9970401E+02  0.7546771E-02  0.1283003E+00
          1   -1    0    0  502    0 -0.00000000000E+00  0.00000000000E+00  0.21507906919E+03  0.21507906919E+03  0.00000000000E+00 0. -1.
         21   -1    0    0  501  502  0.00000000000E+00 -0.00000000000E+00 -0.64446305063E+02  0.64446305063E+02  0.00000000000E+00 0. -1.
         23    2    1    2    0    0  0.37021080801E+02  0.18549392761E+02  0.10452694347E+03  0.14352932181E+03  0.89219638614E+02 0.  0.
        -24    2    1    2    0    0 -0.52903324778E+02  0.85897551632E+00  0.47808413639E+02  0.11085983841E+03  0.84880856185E+02 0.  0.
         11    1    4    4    0    0 -0.20349744181E+00  0.34449470989E+02  0.43132637310E+01  0.34719039541E+02  0.00000000000E+00 0. -1.
        -12    1    4    4    0    0 -0.52699827336E+02 -0.33590495472E+02  0.43495149908E+02  0.76140798872E+02  0.00000000000E+00 0.  1.
        -11    1    3    3    0    0 -0.12471491434E+02  0.41676271036E+02  0.41503998633E+02  0.60125132587E+02  0.00000000000E+00 0.  1.
         11    1    3    3    0    0  0.49492572235E+02 -0.23126878275E+02  0.63022944834E+02  0.83404189228E+02  0.00000000000E+00 0. -1.
          2    1    1    2  501    0  0.15882243977E+02 -0.19408368277E+02 -0.17025929753E+01  0.25136214030E+02  0.00000000000E+00 0. -1.
<scales pt_clust_5="13000.00000" pt_clust_6="13000.00000" pt_clust_7="13000.00000" pt_clust_8="13000.00000" pt_clust_9="25.07849"></scales>
<clustering>
<clus scale="   25.078">  2  9  1 -1</clus>
<clus scale="   84.881">  5  6 -1 -1</clus>
<clus scale="   89.220">  7  8 -1 -1</clus>
<clus scale="   95.841">  2  5  1 -1</clus>
<clus scale="   25.078">  2  5  1 -1</clus>
</clustering>
</event>
<event>
 9    1  0.4664604E-005  0.1006755E+03  0.7546771E-02  0.1285144E+00
         21   -1    0    0  501  502  0.00000000000E+00  0.00000000000E+00  0.55328739332E+02  0.55328739332E+02  0.00000000000E+00 0.  1.
          1   -1    0    0  502    0 -0.00000000000E+00 -0.00000000000E+00 -0.32343902617E+03  0.32343902617E+03  0.00000000000E+00 0. -1.
         23    2    1    2    0    0  0.44145319633E+01  0.39727246596E+02 -0.81053485989E+02  0.12968303642E+03  0.93006882156E+02 0.  0.
        -24    2    1    2    0    0  0.40281053939E+02 -0.29146940813E+02 -0.55669698565E+02  0.10990064625E+03  0.80665539370E+02 0.  0.
         11    1    4    4    0    0  0.13509075855E+02 -0.32249427852E+02 -0.70821524222E+02  0.78982333597E+02  0.00000000000E+00 0. -1.
        -12    1    4    4    0    0  0.26771978083E+02  0.31024870388E+01  0.15151825657E+02  0.30918312649E+02  0.00000000000E+00 0.  1.
        -11    1    3    3    0    0 -0.59924568606E+01 -0.28171456755E+02 -0.41194780650E+02  0.50264803468E+02  0.00000000000E+00 0. -1.
         11    1    3    3    0    0  0.10406988824E+02  0.67898703351E+02 -0.39858705339E+02  0.79418232948E+02  0.00000000000E+00 0.  1.
          2    1    1    2  501    0 -0.44695585902E+02 -0.10580305783E+02 -0.13138710228E+03  0.13918408284E+03  0.00000000000E+00 0. -1.
<scales pt_clust_5="13000.00000" pt_clust_6="13000.00000" pt_clust_7="13000.00000" pt_clust_8="13000.00000" pt_clust_9="45.93082"></scales>
<clustering>
<clus scale="   45.931">  1  9  2 -1</clus>
<clus scale="   80.666">  5  6 -1 -1</clus>
<clus scale="   89.399">  1  5  2 -1</clus>
<clus scale="   93.007">  7  8 -1 -1</clus>
<clus scale="   45.931">  1  5  2 -1</clus>
</clustering>
</event>
<event>
 9    1  0.4664604E-005  0.5239248E+03  0.7546771E-02  0.1007798E+00
          1   -1    0    0  502    0 -0.00000000000E+00  0.00000000000E+00  0.11842147205E+04  0.11842147205E+04  0.00000000000E+00 0. -1.
         21   -1    0    0  501  502  0.00000000000E+00 -0.00000000000E+00 -0.33144138972E+03  0.33144138972E+03  0.00000000000E+00 0.  1.
         23    2    1    2    0    0  0.20639920051E+03  0.48504670092E+03  0.74437718966E+03  0.91655506500E+03  0.90026966198E+02 0.  0.
        -24    2    1    2    0    0 -0.16592371667E+03 -0.46488093467E+03  0.16480721059E+03  0.52680214016E+03  0.81939703649E+02 0.  0.
         11    1    4    4    0    0 -0.11150842253E+03 -0.29607851182E+03  0.14602631121E+03  0.34845415340E+03  0.00000000000E+00 0. -1.
        -12    1    4    4    0    0 -0.54415294139E+02 -0.16880242285E+03  0.18780899374E+02  0.17834798675E+03  0.00000000000E+00 0.  1.
        -13    1    3    3    0    0  0.54306735115E+02  0.57424533419E+02  0.84943330136E+02  0.11602658252E+03  0.00000000000E+00 0.  1.
         13    1    3    3    0    0  0.15209246540E+03  0.42762216750E+03  0.65943385953E+03  0.80052848248E+03  0.00000000000E+00 0. -1.
          2    1    1    2  501    0 -0.40475483841E+02 -0.20165766251E+02 -0.56411069451E+02  0.72298905090E+02  0.00000000000E+00 0. -1.
<scales pt_clust_5="13000.00000" pt_clust_6="13000.00000" pt_clust_7="13000.00000" pt_clust_8="13000.00000" pt_clust_9="45.22082"></scales>
<clustering>
<clus scale="   45.221">  2  9  1 -1</clus>
<clus scale="   81.940">  5  6 -1 -1</clus>
<clus scale="   90.027">  7  8 -1 -1</clus>
<clus scale="  522.596">  2  5  1 -1</clus>
<clus scale="   45.221">  2  5  1 -1</clus>
</clustering>
</event>
<event>
 9    1  0.4664604E-005  0.1025295E+03  0.7546771E-02  0.1280139E+00
         21   -1    0    0  501  502  0.00000000000E+00  0.00000000000E+00  0.99871355116E+02  0.99871355116E+02  0.00000000000E+00 0. -1.
          1   -1    0    0  502    0 -0.00000000000E+00 -0.00000000000E+00 -0.16473838394E+03  0.16473838394E+03  0.00000000000E+00 0. -1.
         23    2    1    2    0    0 -0.54164264695E+02  0.29327231133E+02 -0.82897240426E+02  0.13726856309E+03  0.90425946982E+02 0.  0.
        -24    2    1    2    0    0  0.15722481006E+02 -0.26208960076E+02  0.10557134699E+01  0.85202975541E+02  0.79525634312E+02 0.  0.
         11    1    4    4    0    0 -0.27778474200E+02 -0.20145502174E+02  0.17230791162E+02  0.38397721948E+02  0.00000000000E+00 0. -1.
        -12    1    4    4    0    0  0.43500955206E+02 -0.60634579023E+01 -0.16175077692E+02  0.46805253593E+02  0.00000000000E+00 0.  1.
        -13    1    3    3    0    0  0.12668406595E+02  0.38265901067E+02 -0.42920828312E+02  0.58880941001E+02  0.00000000000E+00 0.  1.
         13    1    3    3    0    0 -0.66832671290E+02 -0.89386699340E+01 -0.39976412114E+02  0.78387622093E+02  0.00000000000E+00 0. -1.
          2    1    1    2  501    0  0.38441783689E+02 -0.31182710566E+01  0.16974498135E+02  0.42138200419E+02  0.00000000000E+00 0. -1.
<scales pt_clust_5="13000.00000" pt_clust_6="13000.00000" pt_clust_7="13000.00000" pt_clust_8="13000.00000" pt_clust_9="38.56805"></scales>
<clustering>
<clus scale="   38.568">  1  9  2 -1</clus>
<clus scale="   79.526">  5  6 -1 -1</clus>
<clus scale="   90.426">  7  8 -1 -1</clus>
<clus scale="   93.058">  1  5  2 -1</clus>
<clus scale="   38.568">  1  5  2 -1</clus>
</clustering>
</event>
<event>
 9    1  0.4664604E-005  0.1016765E+03  0.7546771E-02  0.1279896E+00
         21   -1    0    0  501  502  0.00000000000E+00  0.00000000000E+00  0.51753915291E+02  0.51753915291E+02  0.00000000000E+00 0. -1.
          1   -1    0    0  502    0 -0.00000000000E+00 -0.00000000000E+00 -0.31114854653E+03  0.31114854653E+03  0.00000000000E+00 0. -1.
        -24    2    1    2    0    0  0.32519253008E+02 -0.13264950484E+02 -0.11496578146E+03  0.14506845951E+03  0.81205087971E+02 0.  0.
         23    2    1    2    0    0 -0.71635003904E+02  0.15838982386E+02 -0.13584329133E+03  0.17770446926E+03  0.87994496693E+02 0.  0.
         13    1    3    3    0    0 -0.70147902879E-01  0.28875908002E+02 -0.16874932927E+02  0.33445273881E+02  0.00000000000E+00 0. -1.
        -14    1    3    3    0    0  0.32589400911E+02 -0.42140858486E+02 -0.98090848530E+02  0.11162318563E+03  0.00000000000E+00 0.  1.
        -13    1    4    4    0    0 -0.29030270059E+02  0.45428692319E+02 -0.10314993166E+03  0.11638913638E+03  0.00000000000E+00 0.  1.
         13    1    4    4    0    0 -0.42604733845E+02 -0.29589709933E+02 -0.32693359671E+02  0.61315332883E+02  0.00000000000E+00 0. -1.
          2    1    1    2  501    0  0.39115750896E+02 -0.25740319016E+01 -0.85855584515E+01  0.40129533044E+02  0.00000000000E+00 0. -1.
<scales pt_clust_5="13000.00000" pt_clust_6="13000.00000" pt_clust_7="13000.00000" pt_clust_8="13000.00000" pt_clust_9="39.20035"></scales>
<clustering>
<clus scale="   39.200">  1  9  2 -1</clus>
<clus scale="   81.205">  5  6 -1 -1</clus>
<clus scale="   87.994">  7  8 -1 -1</clus>
<clus scale="   95.861">  2  5  1 -1</clus>
<clus scale="   39.200">  1  5  2 -1</clus>
</clustering>
</event>
<event>
 9    1  0.4664604E-005  0.1820734E+03  0.7546771E-02  0.1167593E+00
          1   -1    0    0  502    0 -0.00000000000E+00  0.00000000000E+00  0.62917442805E+03  0.62917442805E+03  0.00000000000E+00 0. -1.
         21   -1    0    0  501  502  0.00000000000E+00 -0.00000000000E+00 -0.21108837898E+03  0.21108837898E+03  0.00000000000E+00 0.  1.
        -24    2    1    2    0    0 -0.16643113721E+02  0.13681324458E+03  0.20357027477E+03  0.25872849584E+03  0.80651848497E+02 0.  0.
         23    2    1    2    0    0  0.22724643918E+01 -0.26207380905E+03 -0.54711980648E+02  0.28424605274E+03  0.95470268603E+02 0.  0.
         13    1    3    3    0    0 -0.40356493950E+01  0.14306178009E+03  0.16933562986E+03  0.22171494070E+03  0.00000000000E+00 0. -1.
        -14    1    3    3    0    0 -0.12607464326E+02 -0.62485355083E+01  0.34234644907E+02  0.37013555147E+02  0.00000000000E+00 0.  1.
        -13    1    4    4    0    0  0.41169349005E+02 -0.10563246473E+03 -0.47383181161E+02  0.12287513483E+03  0.00000000000E+00 0.  1.
         13    1    4    4    0    0 -0.38896884613E+02 -0.15644134432E+03 -0.73287994874E+01  0.16137091791E+03  0.00000000000E+00 0. -1.
          2    1    1    2  501    0  0.14370649329E+02  0.12526056448E+03  0.26922775494E+03  0.29728825844E+03  0.00000000000E+00 0. -1.
<scales pt_clust_5="13000.00000" pt_clust_6="13000.00000" pt_clust_7="13000.00000" pt_clust_8="13000.00000" pt_clust_9="126.08228"></scales>
<clustering>
<clus scale="   80.652">  5  6 -1 -1</clus>
<clus scale="   95.470">  7  8 -1 -1</clus>
<clus scale="  126.082">  2  9  1 -1</clus>
<clus scale="  174.759">  1  5  2 -1</clus>
<clus scale="  126.082">  2  5  1 -1</clus>
</clustering>
</event>
<event>
 9    1  0.4664604E-005  0.1590663E+03  0.7546771E-02  0.1190752E+00
          1   -1    0    0  502    0 -0.00000000000E+00  0.00000000000E+00  0.90105073780E+03  0.90105073780E+03  0.00000000000E+00 0. -1.
         21   -1    0    0  501  502  0.00000000000E+00 -0.00000000000E+00 -0.41005530137E+02  0.41005530137E+02  0.00000000000E+00 0. -1.
        -24    2    1    2    0    0 -0.46936801455E+02  0.12415831601E+03  0.40047628886E+03  0.42963396843E+03  0.81152560782E+02 0.  0.
         23    2    1    2    0    0  0.10161750294E+03 -0.97070527735E+02  0.33944339368E+03  0.37768600457E+03  0.87613333897E+02 0.  0.
         11    1    3    3    0    0 -0.55580612381E+02  0.86118395866E+02  0.19306004340E+03  0.21858125019E+03  0.00000000000E+00 0. -1.
        -12    1    3    3    0    0  0.86438109256E+01  0.38039920140E+02  0.20741624547E+03  0.21105271824E+03  0.00000000000E+00 0.  1.
        -13    1    4    4    0    0  0.33578921899E+02 -0.89610446491E+02  0.22210676419E+03  0.24184497269E+03  0.00000000000E+00 0. -1.
         13    1    4    4    0    0  0.68038581041E+02 -0.74600812439E+01  0.11733662949E+03  0.13584103188E+03  0.00000000000E+00 0.  1.
          2    1    1    2  501    0 -0.54680701485E+02 -0.27087788271E+02  0.12012552512E+03  0.13473629494E+03  0.00000000000E+00 0. -1.
<scales pt_clust_5="13000.00000" pt_clust_6="13000.00000" pt_clust_7="13000.00000" pt_clust_8="13000.00000" pt_clust_9="61.02235"></scales>
<clustering>
<clus scale="   61.022">  2  9  1 -1</clus>
<clus scale="   81.153">  5  6 -1 -1</clus>
<clus scale="   87.613">  7  8 -1 -1</clus>
<clus scale="  155.601">  1  5  2 -1</clus>
<clus scale="   61.022">  2  5  1 -1</clus>
</clustering>
</event>
<event>
 9    1  0.4664604E-005  0.9330749E+02  0.7546771E-02  0.1298947E+00
          1   -1    0    0  502    0 -0.00000000000E+00  0.00000000000E+00  0.28434998170E+03  0.28434998170E+03  0.00000000000E+00 0. -1.
         21   -1    0    0  501  502  0.00000000000E+00 -0.00000000000E+00 -0.70901093175E+02  0.70901093175E+02  0.00000000000E+00 0.  1.
        -24    2    1    2    0    0  0.35731660227E+02  0.13756430284E+02  0.17628528950E+03  0.19767844503E+03  0.80834852764E+02 0.  0.
         23    2    1    2    0    0 -0.11776703293E+02  0.33260079015E+02  0.29250879187E+01  0.94670580980E+02  0.87801134203E+02 0.  0.
         13    1    3    3    0    0 -0.22023057654E+02  0.94891106801E+01  0.94305250446E+02  0.97306415778E+02  0.00000000000E+00 0. -1.
        -14    1    3    3    0    0  0.57754717881E+02  0.42673196035E+01  0.81980039049E+02  0.10037202925E+03  0.00000000000E+00 0.  1.
        -13    1    4    4    0    0 -0.48357633350E+02  0.61326344515E+01 -0.24864061725E+01  0.48808320235E+02  0.00000000000E+00 0. -1.
         13    1    4    4    0    0  0.36580930057E+02  0.27127444563E+02  0.54114940911E+01  0.45862260745E+02  0.00000000000E+00 0.  1.
          2    1    1    2  501    0 -0.23954956934E+02 -0.47016509298E+02  0.34238511115E+02  0.62902048867E+02  0.00000000000E+00 0. -1.
<scales pt_clust_5="13000.00000" pt_clust_6="13000.00000" pt_clust_7="13000.00000" pt_clust_8="13000.00000" pt_clust_9="52.76734"></scales>
<clustering>
<clus scale="   52.767">  2  9  1 -1</clus>
<clus scale="   80.835">  5  6 -1 -1</clus>
<clus scale="   86.784">  1  5  2 -1</clus>
<clus scale="   87.801">  7  8 -1 -1</clus>
<clus scale="   52.767">  2  5  1 -1</clus>
</clustering>
</event>
<event>
 9    1  0.4664604E-005  0.9844369E+02  0.7546771E-02  0.1290206E+00
         21   -1    0    0  501  502  0.00000000000E+00  0.00000000000E+00  0.86325163892E+02  0.86325163892E+02  0.00000000000E+00 0. -1.
          1   -1    0    0  502    0 -0.00000000000E+00 -0.00000000000E+00 -0.49714531365E+03  0.49714531365E+03  0.00000000000E+00 0. -1.
         23    2    1    2    0    0  0.43967517289E+02 -0.13458264030E+01 -0.32931267231E+03  0.34509146675E+03  0.93307719142E+02 0.  0.
        -24    2    1    2    0    0  0.29410973075E+01  0.41219489791E+02 -0.13091697027E+03  0.15943836767E+03  0.81078009280E+02 0.  0.
         13    1    4    4    0    0  0.24342826822E+02 -0.14779809699E+02 -0.61125535999E+02  0.67434020669E+02  0.00000000000E+00 0. -1.
        -14    1    4    4    0    0 -0.21401729514E+02  0.55999299491E+02 -0.69791434271E+02  0.92004347002E+02  0.00000000000E+00 0.  1.
        -13    1    3    3    0    0 -0.99081641447E+01 -0.24395611009E+02 -0.29230782990E+02  0.39341533110E+02  0.00000000000E+00 0.  1.
         13    1    3    3    0    0  0.53875681433E+02  0.23049784606E+02 -0.30008188932E+03  0.30574993364E+03  0.00000000000E+00 0. -1.
          2    1    1    2  501    0 -0.46908614596E+02 -0.39873663388E+02  0.49409492826E+02  0.78940643123E+02  0.00000000000E+00 0. -1.
<scales pt_clust_5="13000.00000" pt_clust_6="13000.00000" pt_clust_7="13000.00000" pt_clust_8="13000.00000" pt_clust_9="61.56563"></scales>
<clustering>
<clus scale="   61.566">  1  9  2 -1</clus>
<clus scale="   81.078">  5  6 -1 -1</clus>
<clus scale="   86.939">  1  5  2 -1</clus>
<clus scale="   93.308">  7  8 -1 -1</clus>
<clus scale="   61.566">  1  5  2 -1</clus>
</clustering>
</event>
<event>
 9    1  0.4664604E-005  0.9921172E+02  0.7546771E-02  0.1287342E+00
         21   -1    0    0  501  502  0.00000000000E+00  0.00000000000E+00  0.27503563700E+03  0.27503563700E+03  0.00000000000E+00 0. -1.
         -4   -1    0    0    0  501 -0.00000000000E+00 -0.00000000000E+00 -0.80641166186E+02  0.80641166186E+02  0.00000000000E+00 0.  1.
        -24    2    1    2    0    0 -0.46779113603E+02 -0.45828487079E+02  0.77803036379E+02  0.12930012223E+03  0.79854075917E+02 0.  0.
         23    2    1    2    0    0 -0.25649333238E+01  0.94229334983E+01  0.13458832694E+03  0.16246981561E+03  0.90482333509E+02 0.  0.
         11    1    3    3    0    0 -0.69308044098E+02 -0.35973467621E+02  0.53011652720E+02  0.94381834447E+02  0.00000000000E+00 0. -1.
        -12    1    3    3    0    0  0.22528930495E+02 -0.98550194582E+01  0.24791383659E+02  0.34918287780E+02  0.00000000000E+00 0.  1.
        -11    1    4    4    0    0 -0.24601387577E+02 -0.34130529646E+02  0.58090100597E+02  0.71725735354E+02  0.00000000000E+00 0. -1.
         11    1    4    4    0    0  0.22036454253E+02  0.43553463145E+02  0.76498226347E+02  0.90744080260E+02  0.00000000000E+00 0.  1.
         -3    1    1    2    0  502  0.49344046927E+02  0.36405553581E+02 -0.17996892507E+02  0.63906865348E+02  0.00000000000E+00 0.  1.
<scales pt_clust_5="13000.00000" pt_clust_6="13000.00000" pt_clust_7="13000.00000" pt_clust_8="13000.00000" pt_clust_9="61.32049"></scales>
<clustering>
<clus scale="   61.320">  1  9  2 -1</clus>
<clus scale="   79.854">  5  6 -1 -1</clus>
<clus scale="   89.625">  2  5  1 -1</clus>
<clus scale="   90.482">  7  8 -1 -1</clus>
<clus scale="   61.320">  1  5  2 -1</clus>
</clustering>
</event>
<event>
 9    1  0.4664604E-005  0.2207154E+03  0.7546771E-02  0.1142956E+00
         21   -1    0    0  501  502  0.00000000000E+00  0.00000000000E+00  0.14417451914E+03  0.14417451914E+03  0.00000000000E+00 0. -1.
          1   -1    0    0  502    0 -0.00000000000E+00 -0.00000000000E+00 -0.11640798402E+04  0.11640798402E+04  0.00000000000E+00 0. -1.
         23    2    1    2    0    0 -0.33830583653E+02  0.14305395379E+03 -0.66496105068E+03  0.68758699366E+03  0.94835293226E+02 0.  0.
        -24    2    1    2    0    0 -0.88490570730E+02 -0.27888264647E+03 -0.30678455264E+03  0.43164023275E+03  0.81181384475E+02 0.  0.
         13    1    4    4    0    0 -0.82290141496E+02 -0.18174720613E+03 -0.24661478831E+03  0.31721060533E+03  0.00000000000E+00 0. -1.
        -14    1    4    4    0    0 -0.62004292341E+01 -0.97135440335E+02 -0.60169764330E+02  0.11442962742E+03  0.00000000000E+00 0.  1.
        -11    1    3    3    0    0 -0.63955442558E+02  0.86901636182E+02 -0.47929731977E+03  0.49129228952E+03  0.00000000000E+00 0. -1.
         11    1    3    3    0    0  0.30124858905E+02  0.56152317612E+02 -0.18566373091E+03  0.19629470414E+03  0.00000000000E+00 0.  1.
          2    1    1    2  501    0  0.12232115438E+03  0.13582869267E+03 -0.48159717721E+02  0.18902713290E+03  0.00000000000E+00 0. -1.
<scales pt_clust_5="13000.00000" pt_clust_6="13000.00000" pt_clust_7="13000.00000" pt_clust_8="13000.00000" pt_clust_9="205.24345"></scales>
<clustering>
<clus scale="   81.181">  5  6 -1 -1</clus>
<clus scale="   94.835">  7  8 -1 -1</clus>
<clus scale="  174.936">  2  7  1 -1</clus>
<clus scale="  205.243">  1  9  2 -1</clus>
<clus scale="  205.243">  1  5  2 -1</clus>
</clustering>
</event>
<event>
 9    1  0.4664604E-005  0.1500030E+03  0.7546771E-02  0.1216346E+00
         21   -1    0    0  501  502  0.00000000000E+00  0.00000000000E+00  0.36015841265E+03  0.36015841265E+03  0.00000000000E+00 0. -1.
          1   -1    0    0  502    0 -0.00000000000E+00 -0.00000000000E+00 -0.46762060671E+03  0.46762060671E+03  0.00000000000E+00 0. -1.
         23    2    1    2    0    0  0.10103889779E+02 -0.54736654635E+02 -0.21451159663E+03  0.23961592666E+03  0.91117381844E+02 0.  0.
        -24    2    1    2    0    0  0.10887686003E+03  0.70427584656E+01 -0.20787948860E+03  0.24814642686E+03  0.80367880920E+02 0.  0.
         13    1    4    4    0    0  0.72732999410E+02 -0.40906510795E+00 -0.55853473018E+02  0.91705326920E+02  0.00000000000E+00 0. -1.
        -14    1    4    4    0    0  0.36143860623E+02  0.74518235735E+01 -0.15202601558E+03  0.15644109994E+03  0.00000000000E+00 0.  1.
        -13    1    3    3    0    0  0.46608392444E+02 -0.51545737052E+02 -0.15248610254E+03  0.16757480933E+03  0.00000000000E+00 0. -1.
         13    1    3    3    0    0 -0.36504502665E+02 -0.31909175832E+01 -0.62025494090E+02  0.72041117335E+02  0.00000000000E+00 0.  1.
          2    1    1    2  501    0 -0.11898074981E+03  0.47693896169E+02  0.31492889117E+03  0.34001666584E+03  0.00000000000E+00 0. -1.
<scales pt_clust_5="13000.00000" pt_clust_6="13000.00000" pt_clust_7="13000.00000" pt_clust_8="13000.00000" pt_clust_9="126.65668"></scales>
<clustering>
<clus scale="   80.368">  5  6 -1 -1</clus>
<clus scale="   91.117">  7  8 -1 -1</clus>
<clus scale="  106.773">  2  7  1 -1</clus>
<clus scale="  126.657">  1  9  2 -1</clus>
<clus scale="  126.657">  1  5  2 -1</clus>
</clustering>
</event>
<event>
 9    1  0.4664604E-005  0.1562550E+03  0.7546771E-02  0.1217453E+00
         -4   -1    0    0    0  501 -0.00000000000E+00  0.00000000000E+00  0.14611341883E+03  0.14611341883E+03  0.00000000000E+00 0.  1.
         21   -1    0    0  501  502  0.00000000000E+00 -0.00000000000E+00 -0.32176697714E+03  0.32176697714E+03  0.00000000000E+00 0.  1.
        -24    2    1    2    0    0  0.77466547837E+01 -0.41625587716E+02 -0.34045426078E+01  0.92343765257E+02  0.81994389189E+02 0.  0.
         23    2    1    2    0    0  0.64576599094E+01 -0.11965418866E+03 -0.15438716264E+03  0.21265024510E+03  0.83820668787E+02 0.  0.
         11    1    3    3    0    0  0.26313367237E+02 -0.14159061015E+02 -0.35361710240E+02  0.46296034984E+02  0.00000000000E+00 0. -1.
        -12    1    3    3    0    0 -0.18566712453E+02 -0.27466526700E+02  0.31957167632E+02  0.46047730273E+02  0.00000000000E+00 0.  1.
        -11    1    4    4    0    0  0.25420260382E+02 -0.23614796831E+01 -0.41708171418E+02  0.48901306601E+02  0.00000000000E+00 0. -1.
         11    1    4    4    0    0 -0.18962600473E+02 -0.11729270897E+03 -0.11267899122E+03  0.16374893850E+03  0.00000000000E+00 0.  1.
         -3    1    1    2    0  502 -0.14204314693E+02  0.16127977637E+03 -0.17861853064E+02  0.16288638561E+03  0.00000000000E+00 0.  1.
<scales pt_clust_5="13000.00000" pt_clust_6="13000.00000" pt_clust_7="13000.00000" pt_clust_8="13000.00000" pt_clust_9="131.87016"></scales>
<clustering>
<clus scale="   81.994">  5  6 -1 -1</clus>
<clus scale="   83.821">  7  8 -1 -1</clus>
<clus scale="   92.281">  1  5  2 -1</clus>
<clus scale="  131.870">  2  9  1 -1</clus>
<clus scale="  131.870">  2  5  1 -1</clus>
</clustering>
</event>
<event>
 9    1  0.4664604E-005  0.1209206E+03  0.7546771E-02  0.1243983E+00
         21   -1    0    0  501  502  0.00000000000E+00  0.00000000000E+00  0.66185704410E+02  0.66185704410E+02  0.00000000000E+00 0.  1.
          1   -1    0    0  502    0 -0.00000000000E+00 -0.00000000000E+00 -0.60162597108E+03  0.60162597108E+03  0.00000000000E+00 0. -1.
        -24    2    1    2    0    0  0.49515361438E+02 -0.65411906050E+02 -0.50109590051E+03  0.51404578633E+03  0.80096694507E+02 0.  0.
         23    2    1    2    0    0 -0.35685608318E+02  0.83890632140E+02 -0.28567920643E+02  0.12997318624E+03  0.88123789351E+02 0.  0.
         13    1    3    3    0    0  0.60638562378E+02 -0.75511397712E+02 -0.38554610022E+03  0.39752333495E+03  0.00000000000E+00 0. -1.
        -14    1    3    3    0    0 -0.11123200941E+02  0.10099491662E+02 -0.11554980028E+03  0.11652245138E+03  0.00000000000E+00 0.  1.
        -13    1    4    4    0    0  0.50019431357E+01  0.80479964336E+02 -0.87949584881E+00  0.80640049650E+02  0.00000000000E+00 0.  1.
         13    1    4    4    0    0 -0.40687551454E+02  0.34106678042E+01 -0.27688424795E+02  0.49333136590E+02  0.00000000000E+00 0. -1.
          2    1    1    2  501    0 -0.13829753120E+02 -0.18478726090E+02 -0.57764455192E+01  0.23792702917E+02  0.00000000000E+00 0. -1.
<scales pt_clust_5="13000.00000" pt_clust_6="13000.00000" pt_clust_7="13000.00000" pt_clust_8="13000.00000" pt_clust_9="23.08084"></scales>
<clustering>
<clus scale="   23.081">  1  9  2 -1</clus>
<clus scale="   80.097">  5  6 -1 -1</clus>
<clus scale="   88.124">  7  8 -1 -1</clus>
<clus scale="  115.202">  2  5  1 -1</clus>
<clus scale="   23.081">  1  5  2 -1</clus>
</clustering>
</event>
<event>
 9    1  0.4664604E-005  0.2001364E+03  0.7546771E-02  0.1166813E+00
         21   -1    0    0  501  502  0.00000000000E+00  0.00000000000E+00  0.21587515532E+03  0.21587515532E+03  0.00000000000E+00 0. -1.
          1   -1    0    0  502    0 -0.00000000000E+00 -0.00000000000E+00 -0.93493801220E+03  0.93493801220E+03  0.00000000000E+00 0. -1.
         23    2    1    2    0    0  0.86005793355E+02  0.47247055720E+02 -0.50192635792E+02  0.14305920243E+03  0.91199528224E+02 0.  0.
        -24    2    1    2    0    0 -0.19062589551E+03 -0.19076342053E+03 -0.75837598654E+03  0.80887310931E+03  0.80079056829E+02 0.  0.
         11    1    4    4    0    0 -0.11943981822E+03 -0.16854086143E+03 -0.54439055973E+03  0.58226538080E+03  0.00000000000E+00 0. -1.
        -12    1    4    4    0    0 -0.71186077291E+02 -0.22222559096E+02 -0.21398542681E+03  0.22660772851E+03  0.00000000000E+00 0.  1.
        -13    1    3    3    0    0 -0.10091483342E+02  0.23034141582E+02 -0.34547679661E+02  0.42731158239E+02  0.00000000000E+00 0. -1.
         13    1    3    3    0    0  0.96097276697E+02  0.24212914138E+02 -0.15644956130E+02  0.10032804419E+03  0.00000000000E+00 0.  1.
          2    1    1    2  501    0  0.10462010216E+03  0.14351636481E+03  0.89505765455E+02  0.19888085577E+03  0.00000000000E+00 0. -1.
<scales pt_clust_5="13000.00000" pt_clust_6="13000.00000" pt_clust_7="13000.00000" pt_clust_8="13000.00000" pt_clust_9="183.41740"></scales>
<clustering>
<clus scale="   80.079">  5  6 -1 -1</clus>
<clus scale="   91.200">  7  8 -1 -1</clus>
<clus scale="  133.965">  2  7  1 -1</clus>
<clus scale="  183.417">  1  9  2 -1</clus>
<clus scale="  183.417">  1  5  2 -1</clus>
</clustering>
</event>
<event>
 9    1  0.4664604E-005  0.1294875E+03  0.7546771E-02  0.1231530E+00
         21   -1    0    0  501  502  0.00000000000E+00  0.00000000000E+00  0.47667618529E+02  0.47667618529E+02  0.00000000000E+00 0. -1.
          1   -1    0    0  502    0 -0.00000000000E+00 -0.00000000000E+00 -0.52846647538E+03  0.52846647538E+03  0.00000000000E+00 0. -1.
        -24    2    1    2    0    0  0.47440298825E+02 -0.52511513255E+02 -0.13200457189E+03  0.16985005134E+03  0.80098638951E+02 0.  0.
         23    2    1    2    0    0 -0.97493393517E+02  0.65502456306E+02 -0.20697128975E+03  0.25532762880E+03  0.92517834416E+02 0.  0.
         13    1    3    3    0    0  0.38532050533E+02 -0.44363987660E+02 -0.27900943040E+02  0.65048788935E+02  0.00000000000E+00 0. -1.
        -14    1    3    3    0    0  0.89082482927E+01 -0.81475255950E+01 -0.10410362885E+03  0.10480126240E+03  0.00000000000E+00 0.  1.
        -13    1    4    4    0    0  0.74576327491E+01  0.32461583796E+02 -0.83755337096E+02  0.90135049791E+02  0.00000000000E+00 0.  1.
         13    1    4    4    0    0 -0.10495102627E+03  0.33040872510E+02 -0.12321595266E+03  0.16519257901E+03  0.00000000000E+00 0. -1.
          2    1    1    2  501    0  0.50053094691E+02 -0.12990943050E+02 -0.14182299521E+03  0.15095641378E+03  0.00000000000E+00 0. -1.
<scales pt_clust_5="13000.00000" pt_clust_6="13000.00000" pt_clust_7="13000.00000" pt_clust_8="13000.00000" pt_clust_9="51.71150"></scales>
<clustering>
<clus scale="   51.712">  1  9  2 -1</clus>
<clus scale="   80.099">  5  6 -1 -1</clus>
<clus scale="   92.518">  7  8 -1 -1</clus>
<clus scale="  120.927">  2  5  1 -1</clus>
<clus scale="   51.712">  1  5  2 -1</clus>
</clustering>
</event>
<event>
 9    1  0.4664604E-005  0.1136833E+03  0.7546771E-02  0.1262014E+00
          1   -1    0    0  502    0 -0.00000000000E+00  0.00000000000E+00  0.43868165728E+03  0.43868165728E+03  0.00000000000E+00 0. -1.
         21   -1    0    0  501  502  0.00000000000E+00 -0.00000000000E+00 -0.12684544237E+03  0.12684544237E+03  0.00000000000E+00 0. -1.
         23    2    1    2    0    0 -0.13188476841E+02 -0.52254204582E+02  0.38705648889E+03  0.40361970506E+03  0.10095396428E+03 0.  0.
        -24    2    1    2    0    0 -0.98463521882E+01  0.45047548722E+02 -0.12269767763E+02  0.94488513933E+02  0.81555501145E+02 0.  0.
         11    1    4    4    0    0  0.29778570426E+02  0.37452959491E+02  0.92916389694E+01  0.48742404393E+02  0.00000000000E+00 0. -1.
        -12    1    4    4    0    0 -0.39624922614E+02  0.75945892311E+01 -0.21561406732E+02  0.45746109540E+02  0.00000000000E+00 0.  1.
        -13    1    3    3    0    0 -0.56391266212E+02 -0.35616124097E+02  0.19612996275E+03  0.20716043418E+03  0.00000000000E+00 0.  1.
         13    1    3    3    0    0  0.43202789371E+02 -0.16638080485E+02  0.19092652613E+03  0.19645927088E+03  0.00000000000E+00 0. -1.
          2    1    1    2  501    0  0.23034829030E+02  0.72066558593E+01 -0.62950506215E+02  0.67418880663E+02  0.00000000000E+00 0. -1.
<scales pt_clust_5="13000.00000" pt_clust_6="13000.00000" pt_clust_7="13000.00000" pt_clust_8="13000.00000" pt_clust_9="24.13585"></scales>
<clustering>
<clus scale="   24.136">  2  9  1 -1</clus>
<clus scale="   81.556">  5  6 -1 -1</clus>
<clus scale="   96.868">  2  5  1 -1</clus>
<clus scale="  100.954">  7  8 -1 -1</clus>
<clus scale="   24.136">  2  5  1 -1</clus>
</clustering>
</event>
<event>
 9    1  0.4664604E-005  0.1244972E+03  0.7546771E-02  0.1247527E+00
          1   -1    0    0  502    0 -0.00000000000E+00  0.00000000000E+00  0.28786989662E+03  0.28786989662E+03  0.00000000000E+00 0. -1.
         21   -1    0    0  501  502  0.00000000000E+00 -0.00000000000E+00 -0.99829019671E+02  0.99829019671E+02  0.00000000000E+00 0.  1.
        -24    2    1    2    0    0  0.49778550296E+02  0.11420185159E+02  0.17550186459E+03  0.19986339937E+03  0.80846454681E+02 0.  0.
         23    2    1    2    0    0 -0.67156276388E+02 -0.51195176619E+02  0.26674500073E+02  0.14218634033E+03  0.11124079673E+03 0.  0.
         11    1    3    3    0    0  0.61889446813E+02  0.10586520710E+02  0.17683462208E+03  0.18765090358E+03  0.00000000000E+00 0. -1.
        -12    1    3    3    0    0 -0.12110896518E+02  0.83366444899E+00 -0.13327574921E+01  0.12212495789E+02  0.00000000000E+00 0.  1.
        -11    1    4    4    0    0 -0.95183719797E+02 -0.31564582064E+02  0.25400515742E+01  0.10031308597E+03  0.00000000000E+00 0.  1.
         11    1    4    4    0    0  0.28027443409E+02 -0.19630594555E+02  0.24134448499E+02  0.41873254363E+02  0.00000000000E+00 0. -1.
          2    1    1    2  501    0  0.17377726092E+02  0.39774991460E+02 -0.14135487717E+02  0.45649176584E+02  0.00000000000E+00 0. -1.
<scales pt_clust_5="13000.00000" pt_clust_6="13000.00000" pt_clust_7="13000.00000" pt_clust_8="13000.00000" pt_clust_9="43.40548"></scales>
<clustering>
<clus scale="   43.405">  2  9  1 -1</clus>
<clus scale="   80.846">  5  6 -1 -1</clus>
<clus scale="   98.291">  1  5  2 -1</clus>
<clus scale="  111.241">  7  8 -1 -1</clus>
<clus scale="   43.405">  2  5  1 -1</clus>
</clustering>
</event>
<event>
 9    1  0.4664604E-005  0.1197126E+03  0.7546771E-02  0.1245742E+00
         21   -1    0    0  501  502  0.00000000000E+00  0.00000000000E+00  0.63550325357E+02  0.63550325357E+02  0.00000000000E+00 0.  1.
          1   -1    0    0  502    0 -0.00000000000E+00 -0.00000000000E+00 -0.44914145525E+03  0.44914145525E+03  0.00000000000E+00 0. -1.
         23    2    1    2    0    0  0.50411881446E+01  0.79795960463E+02 -0.36433096237E+03  0.38419004458E+03  0.92044181410E+02 0.  0.
        -24    2    1    2    0    0 -0.13783714256E+02 -0.60646886841E+02 -0.19908786665E+02  0.10740801625E+03  0.85276529639E+02 0.  0.
         13    1    4    4    0    0  0.46245955195E+01 -0.41932729335E+02 -0.51344701995E+02  0.66453134585E+02  0.00000000000E+00 0. -1.
        -14    1    4    4    0    0 -0.18408309775E+02 -0.18714157505E+02  0.31435915330E+02  0.40954881670E+02  0.00000000000E+00 0.  1.
        -11    1    3    3    0    0  0.19401659435E+02  0.23063113705E+02 -0.23088908684E+02  0.37966160022E+02  0.00000000000E+00 0.  1.
         11    1    3    3    0    0 -0.14360471290E+02  0.56732846758E+02 -0.34124205368E+03  0.34622388456E+03  0.00000000000E+00 0. -1.
          2    1    1    2  501    0  0.87425261112E+01 -0.19149073623E+02 -0.13513808577E+01  0.21093719768E+02  0.00000000000E+00 0. -1.
<scales pt_clust_5="13000.00000" pt_clust_6="13000.00000" pt_clust_7="13000.00000" pt_clust_8="13000.00000" pt_clust_9="21.05039"></scales>
<clustering>
<clus scale="   21.050">  1  9  2 -1</clus>
<clus scale="   85.277">  5  6 -1 -1</clus>
<clus scale="   92.044">  7  8 -1 -1</clus>
<clus scale="  114.591">  1  5  2 -1</clus>
<clus scale="   21.050">  1  5  2 -1</clus>
</clustering>
</event>
<event>
 9    1  0.4664604E-005  0.1432478E+03  0.7546771E-02  0.1211070E+00
          1   -1    0    0  502    0 -0.00000000000E+00  0.00000000000E+00  0.32436755972E+03  0.32436755972E+03  0.00000000000E+00 0. -1.
         21   -1    0    0  501  502  0.00000000000E+00 -0.00000000000E+00 -0.97599996469E+02  0.97599996469E+02  0.00000000000E+00 0. -1.
        -24    2    1    2    0    0 -0.83277017348E+02 -0.94544276469E+02  0.17321699655E+03  0.22881639931E+03  0.80493073425E+02 0.  0.
         23    2    1    2    0    0  0.53001372900E+02  0.57499024287E+02 -0.22500021302E+01  0.11964830769E+03  0.90528292269E+02 0.  0.
         13    1    3    3    0    0 -0.55559067047E+02 -0.12160232807E+02  0.10055106330E+03  0.11552141587E+03  0.00000000000E+00 0. -1.
        -14    1    3    3    0    0 -0.27717950301E+02 -0.82384043662E+02  0.72665933249E+02  0.11329498345E+03  0.00000000000E+00 0.  1.
        -13    1    4    4    0    0  0.19666113172E+02  0.18140156914E+02  0.43258183942E+02  0.50863462113E+02  0.00000000000E+00 0.  1.
         13    1    4    4    0    0  0.33335259727E+02  0.39358867373E+02 -0.45508186072E+02  0.68784845581E+02  0.00000000000E+00 0. -1.
          2    1    1    2  501    0  0.30275644448E+02  0.37045252183E+02  0.55800568834E+02  0.73502849184E+02  0.00000000000E+00 0. -1.
<scales pt_clust_5="13000.00000" pt_clust_6="13000.00000" pt_clust_7="13000.00000" pt_clust_8="13000.00000" pt_clust_9="47.84316"></scales>
<clustering>
<clus scale="   47.843">  2  9  1 -1</clus>
<clus scale="   80.493">  5  6 -1 -1</clus>
<clus scale="   90.528">  7  8 -1 -1</clus>
<clus scale="  137.127">  1  5  2 -1</clus>
<clus scale="   47.843">  2  5  1 -1</clus>
</clustering>
</event>
<event>
 9    1  0.4664604E-005  0.9619403E+02  0.7546771E-02  0.1298094E+00
          1   -1    0    0  502    0 -0.00000000000E+00  0.00000000000E+00  0.18909522349E+03  0.18909522349E+03  0.00000000000E+00 0. -1.
         21   -1    0    0  501  502  0.00000000000E+00 -0.00000000000E+00 -0.86998595286E+02  0.86998595286E+02  0.00000000000E+00 0. -1.
         23    2    1    2    0    0  0.19451949554E+02  0.14866375632E+02  0.12304362833E+03  0.15707767896E+03  0.94521295431E+02 0.  0.
        -24    2    1    2    0    0 -0.66111118908E+01  0.11371848226E+01  0.12550397459E+02  0.79734124786E+02  0.78453923989E+02 0.  0.
         11    1    4    4    0    0  0.23364587660E+02  0.81207502736E+01 -0.22253843187E+02  0.33272873007E+02  0.00000000000E+00 0. -1.
        -12    1    4    4    0    0 -0.29975699551E+02 -0.69835654510E+01  0.34804240646E+02  0.46461251779E+02  0.00000000000E+00 0.  1.
        -13    1    3    3    0    0  0.10954057548E+02 -0.33197364991E+02  0.93979042701E+02  0.10027021934E+03  0.00000000000E+00 0. -1.
         13    1    3    3    0    0  0.84978920059E+01  0.48063740624E+02  0.29064585631E+02  0.56807459626E+02  0.00000000000E+00 0.  1.
          2    1    1    2  501    0 -0.12840837663E+02 -0.16003560455E+02 -0.33497397589E+02  0.39282015024E+02  0.00000000000E+00 0. -1.
<scales pt_clust_5="13000.00000" pt_clust_6="13000.00000" pt_clust_7="13000.00000" pt_clust_8="13000.00000" pt_clust_9="20.51831"></scales>
<clustering>
<clus scale="   20.518">  2  9  1 -1</clus>
<clus scale="   78.454">  5  6 -1 -1</clus>
<clus scale="   80.461">  2  5  1 -1</clus>
<clus scale="   94.521">  7  8 -1 -1</clus>
<clus scale="   20.518">  2  5  1 -1</clus>
</clustering>
</event>
<event>
 9    1  0.4664604E-005  0.1235091E+03  0.7546771E-02  0.1252175E+00
         21   -1    0    0  501  502  0.00000000000E+00  0.00000000000E+00  0.53620223277E+02  0.53620223277E+02  0.00000000000E+00 0. -1.
          1   -1    0    0  502    0 -0.00000000000E+00 -0.00000000000E+00 -0.54909663449E+03  0.54909663449E+03  0.00000000000E+00 0. -1.
         23    2    1    2    0    0  0.63087012870E+01 -0.28028916166E+02 -0.11946617805E+03  0.15062635342E+03  0.87124685315E+02 0.  0.
        -24    2    1    2    0    0  0.60683084753E+02 -0.43536126552E+02 -0.32156752030E+03  0.33995904704E+03  0.81170514726E+02 0.  0.
         11    1    4    4    0    0  0.43443688193E+02 -0.54779866036E+02 -0.30670199781E+03  0.31457002913E+03  0.00000000000E+00 0. -1.
        -12    1    4    4    0    0  0.17239396560E+02  0.11243739485E+02 -0.14865522487E+02  0.25389017904E+02  0.00000000000E+00 0.  1.
        -11    1    3    3    0    0 -0.54217930562E+01 -0.52001327420E+02 -0.11088372890E+03  0.12259174209E+03  0.00000000000E+00 0.  1.
         11    1    3    3    0    0  0.11730494343E+02  0.23972411254E+02 -0.85824491548E+01  0.28034611329E+02  0.00000000000E+00 0. -1.
          2    1    1    2  501    0 -0.66991786040E+02  0.71565042718E+02 -0.54442712861E+02  0.11213145732E+03  0.00000000000E+00 0. -1.
<scales pt_clust_5="13000.00000" pt_clust_6="13000.00000" pt_clust_7="13000.00000" pt_clust_8="13000.00000" pt_clust_9="93.09054"></scales>
<clustering>
<clus scale="   81.171">  5  6 -1 -1</clus>
<clus scale="   87.125">  7  8 -1 -1</clus>
<clus scale="   91.740">  2  7  1 -1</clus>
<clus scale="   93.091">  1  9  2 -1</clus>
<clus scale="   93.091">  1  5  2 -1</clus>
</clustering>
</event>
<event>
 9    1  0.4664604E-005  0.2148430E+03  0.7546771E-02  0.1137787E+00
         21   -1    0    0  501  502  0.00000000000E+00  0.00000000000E+00  0.90539332753E+03  0.90539332753E+03  0.00000000000E+00 0. -1.
          3   -1    0    0  502    0 -0.00000000000E+00 -0.00000000000E+00 -0.40340799798E+02  0.40340799798E+02  0.00000000000E+00 0. -1.
        -24    2    1    2    0    0 -0.55759910295E+02 -0.49078591632E+02  0.17750291055E+03  0.20871707253E+03  0.80855781221E+02 0.  0.
         23    2    1    2    0    0 -0.18210248803E+02 -0.44146545360E+02  0.12684126764E+03  0.16381869136E+03  0.92018073414E+02 0.  0.
         11    1    3    3    0    0 -0.26472262984E+01 -0.56010753323E+02  0.85125068739E+02  0.10193375115E+03  0.00000000000E+00 0. -1.
        -12    1    3    3    0    0 -0.53112683997E+02  0.69321616905E+01  0.92377841814E+02  0.10678332138E+03  0.00000000000E+00 0.  1.
        -11    1    4    4    0    0  0.32755578091E+02 -0.16435293643E+02  0.84172470990E+02  0.91804420622E+02  0.00000000000E+00 0.  1.
         11    1    4    4    0    0 -0.50965826894E+02 -0.27711251717E+02  0.42668796646E+02  0.72014270738E+02  0.00000000000E+00 0. -1.
          4    1    1    2  501    0  0.73970159098E+02  0.93225136992E+02  0.56070834955E+03  0.57319836344E+03  0.00000000000E+00 0. -1.
<scales pt_clust_5="13000.00000" pt_clust_6="13000.00000" pt_clust_7="13000.00000" pt_clust_8="13000.00000" pt_clust_9="119.00635"></scales>
<clustering>
<clus scale="   80.856">  5  6 -1 -1</clus>
<clus scale="   92.018">  7  8 -1 -1</clus>
<clus scale="   98.588">  5  7 -1 -1</clus>
<clus scale="  119.006">  1  9  2 -1</clus>
<clus scale="  119.006">  1  5  2 -1</clus>
</clustering>
</event>
<event>
 9    1  0.4664604E-005  0.1038064E+03  0.7546771E-02  0.1279413E+00
         21   -1    0    0  501  502  0.00000000000E+00  0.00000000000E+00  0.35099626449E+03  0.35099626449E+03  0.00000000000E+00 0.  1.
          1   -1    0    0  502    0 -0.00000000000E+00 -0.00000000000E+00 -0.13380074045E+03  0.13380074045E+03  0.00000000000E+00 0. -1.
         23    2    1    2    0    0  0.16746164030E+02 -0.33178335064E+02 -0.10160023497E+03  0.14570653054E+03  0.97604043820E+02 0.  0.
        -24    2    1    2    0    0 -0.20381721496E+02  0.95709009781E+01  0.20129563432E+03  0.21918714866E+03  0.83761906747E+02 0.  0.
         13    1    4    4    0    0 -0.34384431396E+01  0.41412945747E+02  0.57547761719E+02  0.70983095491E+02  0.00000000000E+00 0. -1.
        -14    1    4    4    0    0 -0.16943278356E+02 -0.31842044768E+02  0.14374787260E+03  0.14820405316E+03  0.00000000000E+00 0.  1.
        -11    1    3    3    0    0 -0.91067342126E+01 -0.35606078236E+02 -0.11189308430E+03  0.11777430844E+03  0.00000000000E+00 0. -1.
         11    1    3    3    0    0  0.25852898242E+02  0.24277431712E+01  0.10292849326E+02  0.27932222104E+02  0.00000000000E+00 0.  1.
          2    1    1    2  501    0  0.36355574663E+01  0.23607434086E+02  0.11750012469E+03  0.11990332574E+03  0.00000000000E+00 0. -1.
<scales pt_clust_5="13000.00000" pt_clust_6="13000.00000" pt_clust_7="13000.00000" pt_clust_8="13000.00000" pt_clust_9="23.88573"></scales>
<clustering>
<clus scale="   23.886">  1  9  2 -1</clus>
<clus scale="   83.762">  5  6 -1 -1</clus>
<clus scale="   90.914">  1  5  2 -1</clus>
<clus scale="   97.604">  7  8 -1 -1</clus>
<clus scale="   23.886">  1  5  2 -1</clus>
</clustering>
</event>
<event>
 9    1  0.4664604E-005  0.9912915E+02  0.7546771E-02  0.1282543E+00
         21   -1    0    0  501  502  0.00000000000E+00  0.00000000000E+00  0.22917657927E+03  0.22917657927E+03  0.00000000000E+00 0. -1.
          1   -1    0    0  502    0 -0.00000000000E+00 -0.00000000000E+00 -0.12056187524E+03  0.12056187524E+03  0.00000000000E+00 0. -1.
        -24    2    1    2    0    0 -0.40193111997E+02  0.58988985512E+00 -0.97630864881E+00  0.10284099912E+03  0.94654549283E+02 0.  0.
         23    2    1    2    0    0 -0.34343807622E+02 -0.66518566056E+02  0.42350459206E+02  0.12679901758E+03  0.93167659154E+02 0.  0.
         13    1    3    3    0    0 -0.24221818468E+02  0.47302421549E+02  0.35797640520E+01  0.53263780235E+02  0.00000000000E+00 0. -1.
        -14    1    3    3    0    0 -0.15971293530E+02 -0.46712531694E+02 -0.45560727008E+01  0.49577218888E+02  0.00000000000E+00 0.  1.
        -13    1    4    4    0    0  0.11119898604E+02  0.18936344645E+02  0.24296511301E+01  0.22093901831E+02  0.00000000000E+00 0.  1.
         13    1    4    4    0    0 -0.45463706226E+02 -0.85454910701E+02  0.39920808076E+02  0.10470511575E+03  0.00000000000E+00 0. -1.
          2    1    1    2  501    0  0.74536919620E+02  0.65928676200E+02  0.67240553472E+02  0.12009843780E+03  0.00000000000E+00 0. -1.
<scales pt_clust_5="13000.00000" pt_clust_6="13000.00000" pt_clust_7="13000.00000" pt_clust_8="13000.00000" pt_clust_9="99.51052"></scales>
<clustering>
<clus scale="   93.168">  7  8 -1 -1</clus>
<clus scale="   94.655">  5  6 -1 -1</clus>
<clus scale="   99.511">  1  9  2 -1</clus>
<clus scale="   99.511">  1  7  2 -1</clus>
<clus scale="   99.129">  1  5  2 -1</clus>
</clustering>
</event>
<event>
 9    1  0.4664604E-005  0.1007349E+03  0.7546771E-02  0.1284618E+00
         21   -1    0    0  501  502  0.00000000000E+00  0.00000000000E+00  0.32094001642E+03  0.32094001642E+03  0.00000000000E+00 0.  1.
          3   -1    0    0  502    0 -0.00000000000E+00 -0.00000000000E+00 -0.47231415579E+02  0.47231415579E+02  0.00000000000E+00 0. -1.
        -24    2    1    2    0    0 -0.15494430710E+02 -0.25149475172E+02  0.13239165751E+03  0.15754444604E+03  0.80125701330E+02 0.  0.
         23    2    1    2    0    0  0.35785032088E+02  0.41732712839E+02  0.14884628525E+03  0.18336156344E+03  0.91891558220E+02 0.  0.
         13    1    3    3    0    0  0.81241402318E+01 -0.21238301526E+02 -0.26924408259E+00  0.22740703564E+02  0.00000000000E+00 0. -1.
        -14    1    3    3    0    0 -0.23618570942E+02 -0.39111736460E+01  0.13266090159E+03  0.13480374247E+03  0.00000000000E+00 0.  1.
        -13    1    4    4    0    0  0.60312736797E+02  0.47924339966E+02  0.85148706596E+02  0.11482452184E+03  0.00000000000E+00 0.  1.
         13    1    4    4    0    0 -0.24527704710E+02 -0.61916271266E+01  0.63697578650E+02  0.68537041596E+02  0.00000000000E+00 0. -1.
          4    1    1    2  501    0 -0.20290601378E+02 -0.16583237667E+02 -0.75293419176E+01  0.27265422526E+02  0.00000000000E+00 0. -1.
<scales pt_clust_5="13000.00000" pt_clust_6="13000.00000" pt_clust_7="13000.00000" pt_clust_8="13000.00000" pt_clust_9="26.20521"></scales>
<clustering>
<clus scale="   26.205">  1  9  2 -1</clus>
<clus scale="   80.126">  5  6 -1 -1</clus>
<clus scale="   90.131">  2  5  1 -1</clus>
<clus scale="   91.892">  7  8 -1 -1</clus>
<clus scale="   26.205">  1  5  2 -1</clus>
</clustering>
</event>
<event>
 9    1  0.4664604E-005  0.9298318E+02  0.7546771E-02  0.1301824E+00
          1   -1    0    0  502    0 -0.00000000000E+00  0.00000000000E+00  0.27463829604E+03  0.27463829604E+03  0.00000000000E+00 0. -1.
         21   -1    0    0  501  502  0.00000000000E+00 -0.00000000000E+00 -0.41381705172E+02  0.41381705172E+02  0.00000000000E+00 0. -1.
         23    2    1    2    0    0 -0.11594138877E+01  0.18367725844E+02  0.13221864569E+03  0.16119052883E+03  0.90343227321E+02 0.  0.
        -24    2    1    2    0    0 -0.26091318985E+02 -0.22145659986E+02  0.61683259832E+02  0.10681211628E+03  0.80204840615E+02 0.  0.
         11    1    4    4    0    0 -0.50084032499E+02 -0.28756857828E+02  0.26068150778E+02  0.63363362194E+02  0.00000000000E+00 0. -1.
        -12    1    4    4    0    0  0.23992713514E+02  0.66111978418E+01  0.35615109054E+02  0.43448754086E+02  0.00000000000E+00 0.  1.
        -11    1    3    3    0    0 -0.30616904912E+02  0.42319203503E+02  0.92610461957E+02  0.10632500889E+03  0.00000000000E+00 0. -1.
         11    1    3    3    0    0  0.29457491025E+02 -0.23951477659E+02  0.39608183729E+02  0.54865519936E+02  0.00000000000E+00 0.  1.
          2    1    1    2  501    0  0.27250732873E+02  0.37779341420E+01  0.39354685353E+02  0.48017356109E+02  0.00000000000E+00 0. -1.
<scales pt_clust_5="13000.00000" pt_clust_6="13000.00000" pt_clust_7="13000.00000" pt_clust_8="13000.00000" pt_clust_9="27.51138"></scales>
<clustering>
<clus scale="   27.511">  2  9  1 -1</clus>
<clus scale="   80.205">  5  6 -1 -1</clus>
<clus scale="   83.167">  2  5  1 -1</clus>
<clus scale="   90.343">  7  8 -1 -1</clus>
<clus scale="   27.511">  2  5  1 -1</clus>
</clustering>
</event>
<event>
 9    1  0.4664604E-005  0.9231797E+02  0.7546771E-02  0.1304270E+00
          1   -1    0    0  502    0 -0.00000000000E+00  0.00000000000E+00  0.17620378189E+03  0.17620378189E+03  0.00000000000E+00 0. -1.
         21   -1    0    0  501  502  0.00000000000E+00 -0.00000000000E+00 -0.66588408875E+02  0.66588408875E+02  0.00000000000E+00 0.  1.
         23    2    1    2    0    0  0.14227292511E+02 -0.29012934387E+01  0.97443346865E+02  0.13351231268E+03  0.90108259521E+02 0.  0.
        -24    2    1    2    0    0 -0.32905251926E+02 -0.95901833625E+01  0.65407884082E+01  0.86114947708E+02  0.78729124754E+02 0.  0.
         11    1    4    4    0    0 -0.38703573660E+02 -0.38550686317E+02  0.12369470318E+02  0.56010051111E+02  0.00000000000E+00 0. -1.
        -12    1    4    4    0    0  0.57983217343E+01  0.28960502954E+02 -0.58286819096E+01  0.30104896597E+02  0.00000000000E+00 0.  1.
        -13    1    3    3    0    0  0.48609522255E+02 -0.15610058705E+02  0.37875966922E+02  0.63570027976E+02  0.00000000000E+00 0.  1.
         13    1    3    3    0    0 -0.34382229744E+02  0.12708765266E+02  0.59567379942E+02  0.69942284707E+02  0.00000000000E+00 0. -1.
          2    1    1    2  501    0  0.18677959415E+02  0.12491476801E+02  0.56312377392E+01  0.23164930370E+02  0.00000000000E+00 0. -1.
<scales pt_clust_5="13000.00000" pt_clust_6="13000.00000" pt_clust_7="13000.00000" pt_clust_8="13000.00000" pt_clust_9="22.47005"></scales>
<clustering>
<clus scale="   22.470">  2  9  1 -1</clus>
<clus scale="   78.729">  5  6 -1 -1</clus>
<clus scale="   81.249">  2  5  1 -1</clus>
<clus scale="   90.108">  7  8 -1 -1</clus>
<clus scale="   22.470">  2  5  1 -1</clus>
</clustering>
</event>
<event>
 9    1  0.4664604E-005  0.1673945E+03  0.7546771E-02  0.1182223E+00
         21   -1    0    0  501  502  0.00000000000E+00  0.00000000000E+00  0.21399539115E+03  0.21399539115E+03  0.00000000000E+00 0.  1.
          1   -1    0    0  502    0 -0.00000000000E+00 -0.00000000000E+00 -0.26206522755E+03  0.26206522755E+03  0.00000000000E+00 0. -1.
         23    2    1    2    0    0  0.15956141623E+03 -0.26399821817E+00 -0.15174875080E+03  0.23849386066E+03  0.91606347801E+02 0.  0.
        -24    2    1    2    0    0 -0.86449346120E+02 -0.43153624942E+02  0.81649257796E+02  0.14972729898E+03  0.80099550387E+02 0.  0.
         13    1    4    4    0    0 -0.99892728610E+01  0.22569077829E+02  0.16074348069E+02  0.29453921847E+02  0.00000000000E+00 0. -1.
        -14    1    4    4    0    0 -0.76460073259E+02 -0.65722702771E+02  0.65574909727E+02  0.12027337714E+03  0.00000000000E+00 0.  1.
        -13    1    3    3    0    0  0.12924901734E+03 -0.34464918079E+02 -0.88227727593E+02  0.16024128987E+03  0.00000000000E+00 0.  1.
         13    1    3    3    0    0  0.30312398885E+02  0.34200919861E+02 -0.63521023211E+02  0.78252570790E+02  0.00000000000E+00 0. -1.
          2    1    1    2  501    0 -0.73112070110E+02  0.43417623160E+02  0.22029656610E+02  0.87839459055E+02  0.00000000000E+00 0. -1.
<scales pt_clust_5="13000.00000" pt_clust_6="13000.00000" pt_clust_7="13000.00000" pt_clust_8="13000.00000" pt_clust_9="85.03214"></scales>
<clustering>
<clus scale="   80.100">  5  6 -1 -1</clus>
<clus scale="   85.032">  1  9  2 -1</clus>
<clus scale="   91.606">  7  8 -1 -1</clus>
<clus scale="  161.385">  1  5  2 -1</clus>
<clus scale="   85.032">  1  5  2 -1</clus>
</clustering>
</event>
<event>
 9    1  0.4664604E-005  0.3966270E+03  0.7546771E-02  0.1077739E+00
          1   -1    0    0  502    0 -0.00000000000E+00  0.00000000000E+00  0.41636148058E+03  0.41636148058E+03  0.00000000000E+00 0. -1.
         21   -1    0    0  501  502  0.00000000000E+00 -0.00000000000E+00 -0.58766314694E+03  0.58766314694E+03  0.00000000000E+00 0.  1.
         23    2    1    2    0    0  0.11626275993E+03  0.58566440459E+02 -0.51846004143E+02  0.16705074658E+03  0.90944414304E+02 0.  0.
        -24    2    1    2    0    0 -0.44653701625E+03  0.75666804336E+02  0.31844129875E+01  0.45995897879E+03  0.80195695157E+02 0.  0.
         11    1    4    4    0    0 -0.63951425292E+02  0.14203653153E+02  0.28930083005E+02  0.71613394435E+02  0.00000000000E+00 0. -1.
        -12    1    4    4    0    0 -0.38258559096E+03  0.61463151183E+02 -0.25745670018E+02  0.38834558436E+03  0.00000000000E+00 0.  1.
        -13    1    3    3    0    0  0.21260328961E+02 -0.23767321654E+02 -0.24613249200E+01  0.31983515856E+02  0.00000000000E+00 0.  1.
         13    1    3    3    0    0  0.95002430972E+02  0.82333762114E+02 -0.49384679223E+02  0.13506723073E+03  0.00000000000E+00 0. -1.
          2    1    1    2  501    0  0.33027425632E+03 -0.13423324479E+03 -0.12264007521E+03  0.37701490215E+03  0.00000000000E+00 0. -1.
<scales pt_clust_5="13000.00000" pt_clust_6="13000.00000" pt_clust_7="13000.00000" pt_clust_8="13000.00000" pt_clust_9="388.43485"></scales>
<clustering>
<clus scale="   80.196">  5  6 -1 -1</clus>
<clus scale="   90.944">  7  8 -1 -1</clus>
<clus scale="  158.802">  1  7  2 -1</clus>
<clus scale="  388.435">  2  9  1 -1</clus>
<clus scale="  388.435">  2  5  1 -1</clus>
</clustering>
</event>
<event>
 9    1  0.4664604E-005  0.9091461E+02  0.7546771E-02  0.1306816E+00
          1   -1    0    0  502    0 -0.00000000000E+00  0.00000000000E+00  0.51050920694E+03  0.51050920694E+03  0.00000000000E+00 0. -1.
         21   -1    0    0  501  502  0.00000000000E+00 -0.00000000000E+00 -0.27198495496E+02  0.27198495496E+02  0.00000000000E+00 0.  1.
         23    2    1    2    0    0 -0.52106776557E-01 -0.90941238704E+00  0.15421578519E+03  0.17807703557E+03  0.89039836302E+02 0.  0.
        -24    2    1    2    0    0  0.25661079492E+02  0.28505017444E+02  0.12950775272E+03  0.15652385571E+03  0.79097612924E+02 0.  0.
         13    1    4    4    0    0  0.20995203529E+02 -0.14220921990E+02  0.10289073902E+03  0.10596951151E+03  0.00000000000E+00 0. -1.
        -14    1    4    4    0    0  0.46658759629E+01  0.42725939434E+02  0.26617013707E+02  0.50554344203E+02  0.00000000000E+00 0.  1.
        -11    1    3    3    0    0  0.91855382774E-03  0.24888230387E+02  0.14986192680E+03  0.15191451911E+03  0.00000000000E+00 0. -1.
         11    1    3    3    0    0 -0.53025330385E-01 -0.25797642774E+02  0.43538583887E+01  0.26162516455E+02  0.00000000000E+00 0.  1.
          2    1    1    2  501    0 -0.25608972715E+02 -0.27595605057E+02  0.19958717353E+03  0.20310681116E+03  0.00000000000E+00 0. -1.
<scales pt_clust_5="13000.00000" pt_clust_6="13000.00000" pt_clust_7="13000.00000" pt_clust_8="13000.00000" pt_clust_9="37.64755"></scales>
<clustering>
<clus scale="   37.648">  2  9  1 -1</clus>
<clus scale="   79.098">  5  6 -1 -1</clus>
<clus scale="   81.202">  2  5  1 -1</clus>
<clus scale="   89.040">  7  8 -1 -1</clus>
<clus scale="   37.648">  2  5  1 -1</clus>
</clustering>
</event>
<event>
 9    1  0.4664604E-005  0.1272566E+03  0.7546771E-02  0.1244938E+00
         21   -1    0    0  501  502  0.00000000000E+00  0.00000000000E+00  0.11692664274E+03  0.11692664274E+03  0.00000000000E+00 0.  1.
         -2   -1    0    0    0  501 -0.00000000000E+00 -0.00000000000E+00 -0.35845705567E+03  0.35845705567E+03  0.00000000000E+00 0.  1.
         23    2    1    2    0    0  0.22475819561E+02 -0.32314205538E+02 -0.22394204289E+03  0.24402791074E+03  0.88601423800E+02 0.  0.
        -24    2    1    2    0    0 -0.22313688993E+02 -0.81869207168E+02 -0.12169690635E+02  0.11704375807E+03  0.79691104485E+02 0.  0.
         13    1    4    4    0    0 -0.49785006456E+02 -0.32806806379E+02 -0.54510351540E+00  0.59624915518E+02  0.00000000000E+00 0. -1.
        -14    1    4    4    0    0  0.27471317463E+02 -0.49062400788E+02 -0.11624587119E+02  0.57418842551E+02  0.00000000000E+00 0.  1.
        -13    1    3    3    0    0 -0.26876719727E+02 -0.18588628458E+02 -0.33428956127E+02  0.46748158027E+02  0.00000000000E+00 0.  1.
         13    1    3    3    0    0  0.49352539288E+02 -0.13725577080E+02 -0.19051308677E+03  0.19727975271E+03  0.00000000000E+00 0. -1.
         -1    1    1    2    0  502 -0.16213056797E+00  0.11418341271E+03 -0.54186794018E+01  0.11431202959E+03  0.00000000000E+00 0.  1.
<scales pt_clust_5="13000.00000" pt_clust_6="13000.00000" pt_clust_7="13000.00000" pt_clust_8="13000.00000" pt_clust_9="99.21482"></scales>
<clustering>
<clus scale="   79.691">  5  6 -1 -1</clus>
<clus scale="   88.601">  7  8 -1 -1</clus>
<clus scale="   96.951">  2  7  1 -1</clus>
<clus scale="   99.215">  1  9  2 -1</clus>
<clus scale="   99.215">  1  5  2 -1</clus>
</clustering>
</event>
<event>
 9    1  0.4664604E-005  0.1582385E+03  0.7546771E-02  0.1191157E+00
         21   -1    0    0  501  502  0.00000000000E+00  0.00000000000E+00  0.44197598569E+02  0.44197598569E+02  0.00000000000E+00 0. -1.
          1   -1    0    0  502    0 -0.00000000000E+00 -0.00000000000E+00 -0.10351981613E+04  0.10351981613E+04  0.00000000000E+00 0. -1.
        -24    2    1    2    0    0 -0.64116482177E+02 -0.98830870942E+02 -0.45622103228E+03  0.47902554332E+03  0.86309770700E+02 0.  0.
         23    2    1    2    0    0  0.71666961090E+02  0.14981651182E+03 -0.26197630516E+03  0.32274070617E+03  0.89156258486E+02 0.  0.
         11    1    3    3    0    0 -0.82579889715E+02 -0.59382127739E+02 -0.29592402167E+03  0.31291644553E+03  0.00000000000E+00 0. -1.
        -12    1    3    3    0    0  0.18463407538E+02 -0.39448743202E+02 -0.16029701061E+03  0.16610909779E+03  0.00000000000E+00 0.  1.
        -13    1    4    4    0    0 -0.19840349296E+02  0.36729999842E+02 -0.43744706762E+02  0.60467608835E+02  0.00000000000E+00 0.  1.
         13    1    4    4    0    0  0.91507310386E+02  0.11308651197E+03 -0.21823159840E+03  0.26227309733E+03  0.00000000000E+00 0. -1.
          2    1    1    2  501    0 -0.75504789136E+01 -0.50985640874E+02 -0.27280322525E+03  0.27762951035E+03  0.00000000000E+00 0. -1.
<scales pt_clust_5="13000.00000" pt_clust_6="13000.00000" pt_clust_7="13000.00000" pt_clust_8="13000.00000" pt_clust_9="51.54171"></scales>
<clustering>
<clus scale="   51.542">  1  9  2 -1</clus>
<clus scale="   86.310">  5  6 -1 -1</clus>
<clus scale="   89.156">  7  8 -1 -1</clus>
<clus scale="  156.652">  2  5  1 -1</clus>
<clus scale="   51.542">  1  5  2 -1</clus>
</clustering>
</event>
<event>
 9    1  0.4664604E-005  0.1063949E+03  0.7546771E-02  0.1280131E+00
          1   -1    0    0  502    0 -0.00000000000E+00  0.00000000000E+00  0.94805691536E+02  0.94805691536E+02  0.00000000000E+00 0. -1.
         21   -1    0    0  501  502  0.00000000000E+00 -0.00000000000E+00 -0.25415622576E+03  0.25415622576E+03  0.00000000000E+00 0. -1.
        -24    2    1    2    0    0 -0.41410515744E+01  0.36485660338E+02  0.10426005123E+02  0.80707165239E+02  0.71109726617E+02 0.  0.
         23    2    1    2    0    0  0.14695613290E+02 -0.54012382254E+02 -0.16162964868E+02  0.11328470651E+03  0.97153923276E+02 0.  0.
         11    1    3    3    0    0  0.28281952131E+01  0.21061991207E+02  0.40762075217E+02  0.45969043255E+02  0.00000000000E+00 0. -1.
        -12    1    3    3    0    0 -0.69692467874E+01  0.15423669131E+02 -0.30336070094E+02  0.34738121984E+02  0.00000000000E+00 0.  1.
        -11    1    4    4    0    0  0.42820417687E+02  0.14108008989E+01  0.12802437834E+02  0.44715555957E+02  0.00000000000E+00 0.  1.
         11    1    4    4    0    0 -0.28124804397E+02 -0.55423183153E+02 -0.28965402702E+02  0.68569150548E+02  0.00000000000E+00 0. -1.
          2    1    1    2  501    0 -0.10554561716E+02  0.17526721916E+02 -0.15361357448E+03  0.15497004555E+03  0.00000000000E+00 0. -1.
<scales pt_clust_5="13000.00000" pt_clust_6="13000.00000" pt_clust_7="13000.00000" pt_clust_8="13000.00000" pt_clust_9="20.45934"></scales>
<clustering>
<clus scale="   20.459">  2  9  1 -1</clus>
<clus scale="   71.110">  5  6 -1 -1</clus>
<clus scale="   83.292">  1  5  2 -1</clus>
<clus scale="   97.154">  7  8 -1 -1</clus>
<clus scale="   20.459">  2  5  1 -1</clus>
</clustering>
</event>
<event>
 9    1  0.4664604E-005  0.1148921E+03  0.7546771E-02  0.1256324E+00
          1   -1    0    0  502    0 -0.00000000000E+00  0.00000000000E+00  0.53997106341E+03  0.53997106341E+03  0.00000000000E+00 0. -1.
         21   -1    0    0  501  502  0.00000000000E+00 -0.00000000000E+00 -0.35121148050E+02  0.35121148050E+02  0.00000000000E+00 0. -1.
        -24    2    1    2    0    0  0.38360909323E+02  0.59504941337E+02  0.26743898748E+03  0.28784679233E+03  0.79496958575E+02 0.  0.
         23    2    1    2    0    0 -0.54581827280E+02 -0.38509564244E+02  0.11440737742E+03  0.16141300095E+03  0.92211422616E+02 0.  0.
         11    1    3    3    0    0  0.25787657447E+02  0.38214098496E+02  0.25684001587E+03  0.26094465764E+03  0.00000000000E+00 0. -1.
        -12    1    3    3    0    0  0.12573251876E+02  0.21290842841E+02  0.10598971613E+02  0.26902134690E+02  0.00000000000E+00 0.  1.
        -11    1    4    4    0    0  0.21405214170E+01 -0.53712635127E+02  0.67274075122E+02  0.86112892111E+02  0.00000000000E+00 0.  1.
         11    1    4    4    0    0 -0.56722348697E+02  0.15203070883E+02  0.47133302300E+02  0.75300108843E+02  0.00000000000E+00 0. -1.
          2    1    1    2  501    0  0.16220917958E+02 -0.20995377093E+02  0.12300355046E+03  0.12583241818E+03  0.00000000000E+00 0. -1.
<scales pt_clust_5="13000.00000" pt_clust_6="13000.00000" pt_clust_7="13000.00000" pt_clust_8="13000.00000" pt_clust_9="26.53158"></scales>
<clustering>
<clus scale="   26.532">  2  9  1 -1</clus>
<clus scale="   79.497">  5  6 -1 -1</clus>
<clus scale="   92.211">  7  8 -1 -1</clus>
<clus scale="  104.962">  1  5  2 -1</clus>
<clus scale="   26.532">  2  5  1 -1</clus>
</clustering>
</event>
<event>
 9    1  0.4664604E-005  0.1082296E+03  0.7546771E-02  0.1268644E+00
         -2   -1    0    0    0  501 -0.00000000000E+00  0.00000000000E+00  0.64670882225E+03  0.64670882225E+03  0.00000000000E+00 0.  1.
         21   -1    0    0  501  502  0.00000000000E+00 -0.00000000000E+00 -0.41220951357E+02  0.41220951357E+02  0.00000000000E+00 0.  1.
        -24    2    1    2    0    0  0.44871197149E+02  0.82894058453E+02  0.36184345279E+03  0.38219968415E+03  0.79126891622E+02 0.  0.
         23    2    1    2    0    0  0.92291246237E+01 -0.24693099841E+02  0.18226910258E+03  0.20532528004E+03  0.90782811943E+02 0.  0.
         13    1    3    3    0    0  0.14960208330E+02  0.47006509552E+02  0.64463577867E+02  0.81172486995E+02  0.00000000000E+00 0. -1.
        -14    1    3    3    0    0  0.29910988820E+02  0.35887548900E+02  0.29737987492E+03  0.30102719715E+03  0.00000000000E+00 0.  1.
        -11    1    4    4    0    0  0.43482568034E+02  0.63551824497E+01  0.11983248483E+03  0.12763599213E+03  0.00000000000E+00 0. -1.
         11    1    4    4    0    0 -0.34253443410E+02 -0.31048282291E+02  0.62436617751E+02  0.77689287903E+02  0.00000000000E+00 0.  1.
         -1    1    1    2    0  502 -0.54100321773E+02 -0.58200958612E+02  0.61375315519E+02  0.10040480942E+03  0.00000000000E+00 0.  1.
<scales pt_clust_5="13000.00000" pt_clust_6="13000.00000" pt_clust_7="13000.00000" pt_clust_8="13000.00000" pt_clust_9="79.46192"></scales>
<clustering>
<clus scale="   79.127">  5  6 -1 -1</clus>
<clus scale="   79.462">  2  9  1 -1</clus>
<clus scale="   90.783">  7  8 -1 -1</clus>
<clus scale="   98.657">  1  5  2 -1</clus>
<clus scale="   79.462">  2  5  1 -1</clus>
</clustering>
</event>
<event>
 9    1  0.4664604E-005  0.1026378E+03  0.7546771E-02  0.1280141E+00
          1   -1    0    0  502    0 -0.00000000000E+00  0.00000000000E+00  0.10564479206E+03  0.10564479206E+03  0.00000000000E+00 0. -1.
         21   -1    0    0  501  502  0.00000000000E+00 -0.00000000000E+00 -0.19198988995E+03  0.19198988995E+03  0.00000000000E+00 0. -1.
        -24    2    1    2    0    0 -0.35507217225E+02 -0.48608427126E+02  0.28025430952E+02  0.10448148897E+03  0.80668550839E+02 0.  0.
         23    2    1    2    0    0 -0.11215946576E+02  0.12937427280E+02 -0.89293790211E+02  0.12924453099E+03  0.91856373418E+02 0.  0.
         13    1    3    3    0    0 -0.52642994198E+02 -0.19517937436E+02  0.39694374588E+02  0.68759567289E+02  0.00000000000E+00 0. -1.
        -14    1    3    3    0    0  0.17135776973E+02 -0.29090489690E+02 -0.11668943636E+02  0.35721921680E+02  0.00000000000E+00 0.  1.
        -13    1    4    4    0    0  0.17812379762E+02  0.43813316702E+02 -0.28769937366E+02  0.55358801371E+02  0.00000000000E+00 0.  1.
         13    1    4    4    0    0 -0.29028326337E+02 -0.30875889422E+02 -0.60523852845E+02  0.73885729615E+02  0.00000000000E+00 0. -1.
          2    1    1    2  501    0  0.46723163800E+02  0.35670999846E+02 -0.25076738625E+02  0.63908662054E+02  0.00000000000E+00 0. -1.
<scales pt_clust_5="13000.00000" pt_clust_6="13000.00000" pt_clust_7="13000.00000" pt_clust_8="13000.00000" pt_clust_9="58.78328"></scales>
<clustering>
<clus scale="   58.783">  2  9  1 -1</clus>
<clus scale="   80.669">  5  6 -1 -1</clus>
<clus scale="   91.856">  7  8 -1 -1</clus>
<clus scale="   92.760">  1  5  2 -1</clus>
<clus scale="   58.783">  2  5  1 -1</clus>
</clustering>
</event>
<event>
 9    1  0.4664604E-005  0.9192553E+02  0.7546771E-02  0.1303013E+00
         -2   -1    0    0    0  501 -0.00000000000E+00  0.00000000000E+00  0.17318649626E+03  0.17318649626E+03  0.00000000000E+00 0.  1.
         21   -1    0    0  501  502  0.00000000000E+00 -0.00000000000E+00 -0.10816291933E+03  0.10816291933E+03  0.00000000000E+00 0. -1.
        -24    2    1    2    0    0  0.13123108728E+02 -0.13815843848E+02  0.11898624922E+03  0.14615676067E+03  0.82710202894E+02 0.  0.
         23    2    1    2    0    0  0.14200836845E+00 -0.61836544757E+01 -0.61962449234E+02  0.10989562553E+03  0.90550790420E+02 0.  0.
         13    1    3    3    0    0  0.43258097020E+02  0.11958566515E+02  0.69685057897E+02  0.82887137512E+02  0.00000000000E+00 0. -1.
        -14    1    3    3    0    0 -0.30134988292E+02 -0.25774410363E+02  0.49301191319E+02  0.63269623157E+02  0.00000000000E+00 0.  1.
        -13    1    4    4    0    0  0.21479013998E+01 -0.48393091585E+02 -0.35148643463E+02  0.59849243361E+02  0.00000000000E+00 0. -1.
         13    1    4    4    0    0 -0.20058930313E+01  0.42209437109E+02 -0.26813805771E+02  0.50046382165E+02  0.00000000000E+00 0.  1.
         -1    1    1    2    0  502 -0.13265117097E+02  0.19999498323E+02  0.79997769482E+01  0.25297029391E+02  0.00000000000E+00 0.  1.
<scales pt_clust_5="13000.00000" pt_clust_6="13000.00000" pt_clust_7="13000.00000" pt_clust_8="13000.00000" pt_clust_9="23.99883"></scales>
<clustering>
<clus scale="   23.999">  2  9  1 -1</clus>
<clus scale="   82.710">  5  6 -1 -1</clus>
<clus scale="   84.213">  1  5  2 -1</clus>
<clus scale="   90.551">  7  8 -1 -1</clus>
<clus scale="   23.999">  2  5  1 -1</clus>
</clustering>
</event>
<event>
 9    1  0.4664604E-005  0.2149891E+03  0.7546771E-02  0.1147432E+00
         -2   -1    0    0    0  501 -0.00000000000E+00  0.00000000000E+00  0.89863010309E+03  0.89863010309E+03  0.00000000000E+00 0.  1.
         21   -1    0    0  501  502  0.00000000000E+00 -0.00000000000E+00 -0.11624582727E+03  0.11624582727E+03  0.00000000000E+00 0.  1.
        -24    2    1    2    0    0  0.13646429009E+03  0.58908618040E+02  0.11127060664E+03  0.20325147797E+03  0.82687892977E+02 0.  0.
         23    2    1    2    0    0  0.12860098384E+03 -0.10006953954E+03  0.23953276953E+03  0.30347497257E+03  0.90382440270E+02 0.  0.
         13    1    3    3    0    0  0.88994501371E+02 -0.61846033936E+01  0.64636239061E+02  0.11016403221E+03  0.00000000000E+00 0. -1.
        -14    1    3    3    0    0  0.47469788715E+02  0.65093221434E+02  0.46634367583E+02  0.93087445755E+02  0.00000000000E+00 0.  1.
        -11    1    4    4    0    0  0.20039652622E+02 -0.90613179311E+01 -0.34011556532E+01  0.22254505603E+02  0.00000000000E+00 0. -1.
         11    1    4    4    0    0  0.10856133122E+03 -0.91008221612E+02  0.24293392518E+03  0.28122046697E+03  0.00000000000E+00 0.  1.
         -1    1    1    2    0  502 -0.26506527393E+03  0.41160921503E+02  0.43158089965E+03  0.50814947982E+03  0.00000000000E+00 0.  1.
<scales pt_clust_5="13000.00000" pt_clust_6="13000.00000" pt_clust_7="13000.00000" pt_clust_8="13000.00000" pt_clust_9="195.06760"></scales>
<clustering>
<clus scale="   82.688">  5  6 -1 -1</clus>
<clus scale="   90.382">  7  8 -1 -1</clus>
<clus scale="  170.088">  1  5  2 -1</clus>
<clus scale="  195.068">  2  9  1 -1</clus>
<clus scale="  195.068">  2  5  1 -1</clus>
</clustering>
</event>
<event>
 9    1  0.4664604E-005  0.1562308E+03  0.7546771E-02  0.1210950E+00
         21   -1    0    0  501  502  0.00000000000E+00  0.00000000000E+00  0.48309445692E+03  0.48309445692E+03  0.00000000000E+00 0. -1.
          1   -1    0    0  502    0 -0.00000000000E+00 -0.00000000000E+00 -0.21052086128E+03  0.21052086128E+03  0.00000000000E+00 0. -1.
         23    2    1    2    0    0  0.36320203392E+02 -0.37589721943E+02  0.11394493343E+03  0.15560701276E+03  0.92184327289E+02 0.  0.
        -24    2    1    2    0    0  0.27918768300E+02 -0.84798962692E+02 -0.15467676797E+03  0.19556717444E+03  0.79695015344E+02 0.  0.
         11    1    4    4    0    0  0.34616488600E+02 -0.90674822825E+02 -0.97047456667E+02  0.13725317345E+03  0.00000000000E+00 0. -1.
        -12    1    4    4    0    0 -0.66977203001E+01  0.58758601326E+01 -0.57629311305E+02  0.58314000986E+02  0.00000000000E+00 0.  1.
        -11    1    3    3    0    0  0.59978567802E+02 -0.50633610219E+02  0.90876510253E+02  0.12008218517E+03  0.00000000000E+00 0. -1.
         11    1    3    3    0    0 -0.23658364410E+02  0.13043888276E+02  0.23068423174E+02  0.35524827595E+02  0.00000000000E+00 0.  1.
          2    1    1    2  501    0 -0.64238971692E+02  0.12238868464E+03  0.31330543018E+03  0.34244113099E+03  0.00000000000E+00 0. -1.
<scales pt_clust_5="13000.00000" pt_clust_6="13000.00000" pt_clust_7="13000.00000" pt_clust_8="13000.00000" pt_clust_9="134.37542"></scales>
<clustering>
<clus scale="   79.695">  5  6 -1 -1</clus>
<clus scale="   92.184">  7  8 -1 -1</clus>
<clus scale="  105.972">  2  7  1 -1</clus>
<clus scale="  134.375">  1  9  2 -1</clus>
<clus scale="  134.375">  1  5  2 -1</clus>
</clustering>
</event>
<event>
 9    1  0.4664604E-005  0.1606170E+03  0.7546771E-02  0.1189469E+00
         21   -1    0    0  501  502  0.00000000000E+00  0.00000000000E+00  0.10811967554E+04  0.10811967554E+04  0.00000000000E+00 0.  1.
          1   -1    0    0  502    0 -0.00000000000E+00 -0.00000000000E+00 -0.38974126702E+02  0.38974126702E+02  0.00000000000E+00 0. -1.
         23    2    1    2    0    0 -0.13768707450E+03 -0.16531007292E+02  0.26369266467E+03  0.31133624781E+03  0.90362786096E+02 0.  0.
        -24    2    1    2    0    0  0.11986655081E+03 -0.22747487023E+02  0.72721008113E+03  0.74179657375E+03  0.80883969759E+02 0.  0.
         11    1    4    4    0    0  0.15429398899E+02 -0.18546594633E+02  0.40220486071E+02  0.46901279542E+02  0.00000000000E+00 0. -1.
        -12    1    4    4    0    0  0.10443715191E+03 -0.42008923906E+01  0.68698959506E+03  0.69489529421E+03  0.00000000000E+00 0.  1.
        -11    1    3    3    0    0 -0.84197014147E+02  0.28796314784E+01  0.70233753507E+02  0.10968231216E+03  0.00000000000E+00 0. -1.
         11    1    3    3    0    0 -0.53490060353E+02 -0.19410638771E+02  0.19345891116E+03  0.20165393565E+03  0.00000000000E+00 0.  1.
          2    1    1    2  501    0  0.17820523688E+02  0.39278494316E+02  0.51319882886E+02  0.67038060530E+02  0.00000000000E+00 0. -1.
<scales pt_clust_5="13000.00000" pt_clust_6="13000.00000" pt_clust_7="13000.00000" pt_clust_8="13000.00000" pt_clust_9="43.13204"></scales>
<clustering>
<clus scale="   43.132">  1  9  2 -1</clus>
<clus scale="   80.884">  5  6 -1 -1</clus>
<clus scale="   90.363">  7  8 -1 -1</clus>
<clus scale="  155.482">  1  5  2 -1</clus>
<clus scale="   43.132">  1  5  2 -1</clus>
</clustering>
</event>
<event>
 9    1  0.4664604E-005  0.9166043E+02  0.7546771E-02  0.1308871E+00
         -2   -1    0    0    0  501 -0.00000000000E+00  0.00000000000E+00  0.17624923738E+03  0.17624923738E+03  0.00000000000E+00 0.  1.
         21   -1    0    0  501  502  0.00000000000E+00 -0.00000000000E+00 -0.12393695953E+03  0.12393695953E+03  0.00000000000E+00 0. -1.
         23    2    1    2    0    0 -0.25016528195E+02  0.20877229995E+01  0.12254165774E+03  0.15322301250E+03  0.88490951001E+02 0.  0.
        -24    2    1    2    0    0  0.19297429493E+02  0.22117599711E+02 -0.64106278214E+01  0.78469105447E+02  0.72489484469E+02 0.  0.
         13    1    4    4    0    0  0.33906522067E+02  0.16084321687E+02 -0.31379056253E+02  0.48918327998E+02  0.00000000000E+00 0. -1.
        -14    1    4    4    0    0 -0.14609092574E+02  0.60332780238E+01  0.24968428432E+02  0.29550777450E+02  0.00000000000E+00 0.  1.
        -11    1    3    3    0    0  0.13657626950E+02 -0.19193512522E+02  0.62951418253E+00  0.23565185867E+02  0.00000000000E+00 0. -1.
         11    1    3    3    0    0 -0.38674155146E+02  0.21281235522E+02  0.12191214355E+03  0.12965782663E+03  0.00000000000E+00 0.  1.
         -1    1    1    2    0  502  0.57190987022E+01 -0.24205322710E+02 -0.63818752064E+02  0.68494078959E+02  0.00000000000E+00 0.  1.
<scales pt_clust_5="13000.00000" pt_clust_6="13000.00000" pt_clust_7="13000.00000" pt_clust_8="13000.00000" pt_clust_9="24.87179"></scales>
<clustering>
<clus scale="   24.872">  2  9  1 -1</clus>
<clus scale="   72.489">  5  6 -1 -1</clus>
<clus scale="   76.326">  2  5  1 -1</clus>
<clus scale="   88.491">  7  8 -1 -1</clus>
<clus scale="   24.872">  2  5  1 -1</clus>
</clustering>
</event>
<event>
 9    1  0.4664604E-005  0.9044174E+02  0.7546771E-02  0.1307296E+00
          1   -1    0    0  502    0 -0.00000000000E+00  0.00000000000E+00  0.56656621580E+03  0.56656621580E+03  0.00000000000E+00 0. -1.
         21   -1    0    0  501  502  0.00000000000E+00 -0.00000000000E+00 -0.88312585073E+02  0.88312585073E+02  0.00000000000E+00 0. -1.
        -24    2    1    2    0    0 -0.20100187477E+02 -0.70087234480E+01  0.37199627028E+03  0.38133427559E+03  0.81126228193E+02 0.  0.
         23    2    1    2    0    0 -0.20692072193E+02 -0.33399400035E+02  0.16465171462E+03  0.19164992538E+03  0.89865594058E+02 0.  0.
         13    1    3    3    0    0  0.22511069551E+02 -0.18702091711E+02  0.66447895009E+02  0.72607432387E+02  0.00000000000E+00 0. -1.
        -14    1    3    3    0    0 -0.42611257028E+02  0.11693368263E+02  0.30554837527E+03  0.30872684321E+03  0.00000000000E+00 0.  1.
        -11    1    4    4    0    0 -0.33665494569E+02  0.22622819035E+02  0.66523505937E+02  0.77913633645E+02  0.00000000000E+00 0.  1.
         11    1    4    4    0    0  0.12973422376E+02 -0.56022219070E+02  0.98128208684E+02  0.11373629173E+03  0.00000000000E+00 0. -1.
          2    1    1    2  501    0  0.40792259669E+02  0.40408123483E+02 -0.58394354178E+02  0.81894599896E+02  0.00000000000E+00 0. -1.
<scales pt_clust_5="13000.00000" pt_clust_6="13000.00000" pt_clust_7="13000.00000" pt_clust_8="13000.00000" pt_clust_9="57.41798"></scales>
<clustering>
<clus scale="   57.418">  2  9  1 -1</clus>
<clus scale="   81.126">  5  6 -1 -1</clus>
<clus scale="   81.764">  1  5  2 -1</clus>
<clus scale="   89.866">  7  8 -1 -1</clus>
<clus scale="   57.418">  2  5  1 -1</clus>
</clustering>
</event>
<event>
 9    1  0.4664604E-005  0.5446565E+03  0.7546771E-02  0.1002738E+00
          1   -1    0    0  502    0 -0.00000000000E+00  0.00000000000E+00  0.52794725555E+03  0.52794725555E+03  0.00000000000E+00 0. -1.
         21   -1    0    0  501  502  0.00000000000E+00 -0.00000000000E+00 -0.53861732907E+03  0.53861732907E+03  0.00000000000E+00 0. -1.
        -24    2    1    2    0    0 -0.15306835148E+03  0.27781428564E+03  0.44033216950E+02  0.33096307950E+03  0.83587907410E+02 0.  0.
         23    2    1    2    0    0  0.16981905077E+02  0.19215122693E+03  0.80996409567E+02  0.22785992469E+03  0.90273184298E+02 0.  0.
         11    1    3    3    0    0 -0.16365773908E+03  0.25745134962E+03  0.41333359866E+02  0.30785304875E+03  0.00000000000E+00 0. -1.
        -12    1    3    3    0    0  0.10589387603E+02  0.20362936021E+02  0.26998570840E+01  0.23110030755E+02  0.00000000000E+00 0.  1.
        -13    1    4    4    0    0 -0.24754789803E+02  0.14775228865E+03  0.42276321910E+02  0.15566253825E+03  0.00000000000E+00 0.  1.
         13    1    4    4    0    0  0.41736694880E+02  0.44398938279E+02  0.38720087657E+02  0.72197386435E+02  0.00000000000E+00 0. -1.
          2    1    1    2  501    0  0.13608644640E+03 -0.46996551258E+03 -0.13569970004E+03  0.50774158043E+03  0.00000000000E+00 0. -1.
<scales pt_clust_5="13000.00000" pt_clust_6="13000.00000" pt_clust_7="13000.00000" pt_clust_8="13000.00000" pt_clust_9="489.27201"></scales>
<clustering>
<clus scale="   83.588">  5  6 -1 -1</clus>
<clus scale="   90.273">  7  8 -1 -1</clus>
<clus scale="  153.442">  5  7 -1 -1</clus>
<clus scale="  489.272">  2  9  1 -1</clus>
<clus scale="  489.272">  2  5  1 -1</clus>
</clustering>
</event>
<event>
 9    1  0.4664604E-005  0.9705498E+02  0.7546771E-02  0.1295054E+00
         21   -1    0    0  501  502  0.00000000000E+00  0.00000000000E+00  0.24246859760E+03  0.24246859760E+03  0.00000000000E+00 0.  1.
         -4   -1    0    0    0  501 -0.00000000000E+00 -0.00000000000E+00 -0.66128916076E+02  0.66128916076E+02  0.00000000000E+00 0.  1.
         23    2    1    2    0    0 -0.30689084356E+01 -0.31182109260E+02  0.65937661383E+02  0.12003531072E+03  0.95283568862E+02 0.  0.
        -24    2    1    2    0    0  0.27473297450E+02 -0.12250619712E+02  0.10866344929E+03  0.13871244089E+03  0.80799358220E+02 0.  0.
         13    1    4    4    0    0 -0.23793882501E+02 -0.13478289919E+01  0.68950368252E+02  0.72952853059E+02  0.00000000000E+00 0. -1.
        -14    1    4    4    0    0  0.51267179951E+02 -0.10902790720E+02  0.39713081043E+02  0.65759587830E+02  0.00000000000E+00 0.  1.
        -13    1    3    3    0    0  0.36797643682E+02  0.14225342824E+02  0.31510861593E+02  0.50491200791E+02  0.00000000000E+00 0. -1.
         13    1    3    3    0    0 -0.39866552118E+02 -0.45407452085E+02  0.34426799790E+02  0.69544109933E+02  0.00000000000E+00 0.  1.
         -3    1    1    2    0  502 -0.24404389014E+02  0.43432728972E+02  0.17385708479E+01  0.49849762063E+02  0.00000000000E+00 0.  1.
<scales pt_clust_5="13000.00000" pt_clust_6="13000.00000" pt_clust_7="13000.00000" pt_clust_8="13000.00000" pt_clust_9="49.81946"></scales>
<clustering>
<clus scale="   49.819">  1  9  2 -1</clus>
<clus scale="   80.799">  5  6 -1 -1</clus>
<clus scale="   82.881">  1  5  2 -1</clus>
<clus scale="   95.284">  7  8 -1 -1</clus>
<clus scale="   49.819">  1  5  2 -1</clus>
</clustering>
</event>
<event>
 9    1  0.4664604E-005  0.1649909E+03  0.7546771E-02  0.1184483E+00
          1   -1    0    0  502    0 -0.00000000000E+00  0.00000000000E+00  0.75686269132E+03  0.75686269132E+03  0.00000000000E+00 0. -1.
         21   -1    0    0  501  502  0.00000000000E+00 -0.00000000000E+00 -0.85171202176E+02  0.85171202176E+02  0.00000000000E+00 0. -1.
        -24    2    1    2    0    0 -0.14503348845E+03  0.23043983760E+02  0.40888485371E+03  0.44189880504E+03  0.80758852996E+02 0.  0.
         23    2    1    2    0    0  0.10944200202E+03  0.27606968244E+02  0.15357318715E+02  0.14505973256E+03  0.89815267469E+02 0.  0.
         13    1    3    3    0    0 -0.12797503967E+03  0.48045188993E+02  0.34858168350E+03  0.37442641604E+03  0.00000000000E+00 0. -1.
        -14    1    3    3    0    0 -0.17058448783E+02 -0.25001205234E+02  0.60303170218E+02  0.67472388993E+02  0.00000000000E+00 0.  1.
        -11    1    4    4    0    0  0.56512835473E+02 -0.19342550795E+02 -0.23679267883E+02  0.64253735860E+02  0.00000000000E+00 0. -1.
         11    1    4    4    0    0  0.52929166542E+02  0.46949519039E+02  0.39036586598E+02  0.80805996697E+02  0.00000000000E+00 0.  1.
          2    1    1    2  501    0  0.35591486435E+02 -0.50650952004E+02  0.24744931672E+03  0.25507535591E+03  0.00000000000E+00 0. -1.
<scales pt_clust_5="13000.00000" pt_clust_6="13000.00000" pt_clust_7="13000.00000" pt_clust_8="13000.00000" pt_clust_9="61.90538"></scales>
<clustering>
<clus scale="   61.905">  2  9  1 -1</clus>
<clus scale="   80.759">  5  6 -1 -1</clus>
<clus scale="   89.815">  7  8 -1 -1</clus>
<clus scale="  160.241">  1  5  2 -1</clus>
<clus scale="   61.905">  2  5  1 -1</clus>
</clustering>
</event>
<event>
 9    1  0.4664604E-005  0.9669150E+02  0.7546771E-02  0.1297058E+00
          1   -1    0    0  502    0 -0.00000000000E+00  0.00000000000E+00  0.20910892116E+03  0.20910892116E+03  0.00000000000E+00 0. -1.
         21   -1    0    0  501  502  0.00000000000E+00 -0.00000000000E+00 -0.89939669162E+02  0.89939669162E+02  0.00000000000E+00 0. -1.
        -24    2    1    2    0    0  0.16673145728E+02  0.59978569631E+00  0.90805030726E+02  0.12209520177E+03  0.79895751813E+02 0.  0.
         23    2    1    2    0    0  0.18772580382E+02 -0.30160805463E+02  0.62172263919E+02  0.11974117712E+03  0.95971220354E+02 0.  0.
         13    1    3    3    0    0  0.34460351641E+02 -0.19764587526E+02  0.85864220634E+02  0.94608768835E+02  0.00000000000E+00 0. -1.
        -14    1    3    3    0    0 -0.17787205913E+02  0.20364373223E+02  0.49408100921E+01  0.27486432931E+02  0.00000000000E+00 0.  1.
        -13    1    4    4    0    0 -0.33861924252E+02 -0.32824432084E+02  0.16378686421E+02  0.49923287398E+02  0.00000000000E+00 0.  1.
         13    1    4    4    0    0  0.52634504634E+02  0.26636266217E+01  0.45793577498E+02  0.69817889720E+02  0.00000000000E+00 0. -1.
          2    1    1    2  501    0 -0.35445726110E+02  0.29561019766E+02 -0.33808042653E+02  0.57212211434E+02  0.00000000000E+00 0. -1.
<scales pt_clust_5="13000.00000" pt_clust_6="13000.00000" pt_clust_7="13000.00000" pt_clust_8="13000.00000" pt_clust_9="46.15467"></scales>
<clustering>
<clus scale="   46.155">  2  9  1 -1</clus>
<clus scale="   79.896">  5  6 -1 -1</clus>
<clus scale="   80.760">  1  5  2 -1</clus>
<clus scale="   95.971">  7  8 -1 -1</clus>
<clus scale="   46.155">  2  5  1 -1</clus>
</clustering>
</event>
<event>
 9    1  0.4664604E-005  0.9272504E+02  0.7546771E-02  0.1303707E+00
         21   -1    0    0  501  502  0.00000000000E+00  0.00000000000E+00  0.40705708956E+02  0.40705708956E+02  0.00000000000E+00 0. -1.
          1   -1    0    0  502    0 -0.00000000000E+00 -0.00000000000E+00 -0.35499907909E+03  0.35499907909E+03  0.00000000000E+00 0. -1.
         23    2    1    2    0    0  0.13435384118E+01 -0.67305042255E+01 -0.19876788917E+03  0.21877534909E+03  0.91142058474E+02 0.  0.
        -24    2    1    2    0    0 -0.30793734892E+02  0.31838663972E+02 -0.58340723565E+02  0.10787996222E+03  0.79199063063E+02 0.  0.
         13    1    4    4    0    0 -0.56228835116E+02  0.29453376551E+02 -0.31632671301E+02  0.70921147638E+02  0.00000000000E+00 0. -1.
        -14    1    4    4    0    0  0.25435100223E+02  0.23852874212E+01 -0.26708052264E+02  0.36958814580E+02  0.00000000000E+00 0.  1.
        -13    1    3    3    0    0 -0.20143172264E+02  0.37166429956E+02 -0.84122027215E+02  0.94146727863E+02  0.00000000000E+00 0. -1.
         13    1    3    3    0    0  0.21486710676E+02 -0.43896934181E+02 -0.11464586195E+03  0.12462862123E+03  0.00000000000E+00 0.  1.
          2    1    1    2  501    0  0.29450196480E+02 -0.25108159747E+02 -0.57184757397E+02  0.69049476733E+02  0.00000000000E+00 0. -1.
<scales pt_clust_5="13000.00000" pt_clust_6="13000.00000" pt_clust_7="13000.00000" pt_clust_8="13000.00000" pt_clust_9="38.70058"></scales>
<clustering>
<clus scale="   38.701">  1  9  2 -1</clus>
<clus scale="   79.199">  5  6 -1 -1</clus>
<clus scale="   81.016">  1  5  2 -1</clus>
<clus scale="   91.142">  7  8 -1 -1</clus>
<clus scale="   38.701">  1  5  2 -1</clus>
</clustering>
</event>
<event>
 9    1  0.4664604E-005  0.9825692E+02  0.7546771E-02  0.1286556E+00
          1   -1    0    0  502    0 -0.00000000000E+00  0.00000000000E+00  0.37711152795E+02  0.37711152795E+02  0.00000000000E+00 0. -1.
         21   -1    0    0  501  502  0.00000000000E+00 -0.00000000000E+00 -0.37371649772E+03  0.37371649772E+03  0.00000000000E+00 0. -1.
         23    2    1    2    0    0  0.42075351491E+02  0.21875967954E+02 -0.69252020524E+02  0.12087102224E+03  0.86977402200E+02 0.  0.
        -24    2    1    2    0    0 -0.26482628201E+02 -0.36648622668E+02 -0.20825969837E+03  0.22824395995E+03  0.81723632758E+02 0.  0.
         11    1    4    4    0    0 -0.36276706630E+02 -0.35780265900E+02 -0.21176239598E+03  0.21780619648E+03  0.00000000000E+00 0. -1.
        -12    1    4    4    0    0  0.97940784286E+01 -0.86835676821E+00  0.35026976170E+01  0.10437763474E+02  0.00000000000E+00 0.  1.
        -11    1    3    3    0    0 -0.27252485246E+02  0.49657059967E+01 -0.19844958912E+02  0.34076070524E+02  0.00000000000E+00 0.  1.
         11    1    3    3    0    0  0.69327836737E+02  0.16910261957E+02 -0.49407061612E+02  0.86794951716E+02  0.00000000000E+00 0. -1.
          2    1    1    2  501    0 -0.15592723290E+02  0.14772654714E+02 -0.58493626035E+02  0.62312668323E+02  0.00000000000E+00 0. -1.
<scales pt_clust_5="13000.00000" pt_clust_6="13000.00000" pt_clust_7="13000.00000" pt_clust_8="13000.00000" pt_clust_9="21.47939"></scales>
<clustering>
<clus scale="   21.479">  2  9  1 -1</clus>
<clus scale="   81.724">  5  6 -1 -1</clus>
<clus scale="   86.977">  7  8 -1 -1</clus>
<clus scale="   93.638">  2  5  1 -1</clus>
<clus scale="   21.479">  2  5  1 -1</clus>
</clustering>
</event>
<event>
 9    1  0.4664604E-005  0.9419661E+02  0.7546771E-02  0.1294361E+00
         21   -1    0    0  501  502  0.00000000000E+00  0.00000000000E+00  0.53545533383E+02  0.53545533383E+02  0.00000000000E+00 0. -1.
          3   -1    0    0  502    0 -0.00000000000E+00 -0.00000000000E+00 -0.33861309250E+03  0.33861309250E+03  0.00000000000E+00 0. -1.
         23    2    1    2    0    0 -0.41688506204E+02 -0.18955109586E+01 -0.22545588349E+03  0.24356802620E+03  0.82179702340E+02 0.  0.
        -24    2    1    2    0    0  0.64985378531E+02  0.88314968661E+01 -0.24525349644E+02  0.10590685065E+03  0.79458627466E+02 0.  0.
         11    1    4    4    0    0  0.19585656104E+02 -0.31166695253E+02 -0.26519499265E+02  0.45367881362E+02  0.00000000000E+00 0. -1.
        -12    1    4    4    0    0  0.45399722427E+02  0.39998192119E+02  0.19941496207E+01  0.60538969283E+02  0.00000000000E+00 0.  1.
        -11    1    3    3    0    0 -0.40993891388E+02  0.29814006646E+02 -0.18685355865E+03  0.19360688651E+03  0.00000000000E+00 0. -1.
         11    1    3    3    0    0 -0.69461481612E+00 -0.31709517605E+02 -0.38602324839E+02  0.49961139694E+02  0.00000000000E+00 0.  1.
          4    1    1    2  501    0 -0.23296872327E+02 -0.69359859075E+01 -0.35086325984E+02  0.42683749036E+02  0.00000000000E+00 0. -1.
<scales pt_clust_5="13000.00000" pt_clust_6="13000.00000" pt_clust_7="13000.00000" pt_clust_8="13000.00000" pt_clust_9="24.30746"></scales>
<clustering>
<clus scale="   24.307">  1  9  2 -1</clus>
<clus scale="   79.459">  5  6 -1 -1</clus>
<clus scale="   82.180">  7  8 -1 -1</clus>
<clus scale="   91.832">  1  5  2 -1</clus>
<clus scale="   24.307">  1  5  2 -1</clus>
</clustering>
</event>
<event>
 9    1  0.4664604E-005  0.1847243E+03  0.7546771E-02  0.1164245E+00
         21   -1    0    0  501  502  0.00000000000E+00  0.00000000000E+00  0.49930345996E+03  0.49930345996E+03  0.00000000000E+00 0. -1.
          3   -1    0    0  502    0 -0.00000000000E+00 -0.00000000000E+00 -0.83367001254E+02  0.83367001254E+02  0.00000000000E+00 0. -1.
        -24    2    1    2    0    0  0.86848576914E+02 -0.13065484267E+03  0.13224552233E+03  0.22074532446E+03  0.81401823515E+02 0.  0.
         23    2    1    2    0    0 -0.11813755849E+03  0.12232478148E+03  0.24089585834E+03  0.30826128494E+03  0.89857500152E+02 0.  0.
         11    1    3    3    0    0  0.96986967457E+02 -0.13236576369E+03  0.11401862853E+03  0.19981845487E+03  0.00000000000E+00 0. -1.
        -12    1    3    3    0    0 -0.10138390543E+02  0.17109210218E+01  0.18226893799E+02  0.20926869596E+02  0.00000000000E+00 0.  1.
        -11    1    4    4    0    0 -0.10200348796E+03  0.99720493358E+02  0.24149926506E+03  0.28048312494E+03  0.00000000000E+00 0. -1.
         11    1    4    4    0    0 -0.16134070530E+02  0.22604288120E+02 -0.60340671232E+00  0.27778160000E+02  0.00000000000E+00 0.  1.
          4    1    1    2  501    0  0.31288981581E+02  0.83300611868E+01  0.42795078038E+02  0.53663851818E+02  0.00000000000E+00 0. -1.
<scales pt_clust_5="13000.00000" pt_clust_6="13000.00000" pt_clust_7="13000.00000" pt_clust_8="13000.00000" pt_clust_9="32.37886"></scales>
<clustering>
<clus scale="   32.379">  1  9  2 -1</clus>
<clus scale="   81.402">  5  6 -1 -1</clus>
<clus scale="   89.858">  7  8 -1 -1</clus>
<clus scale="  180.762">  2  5  1 -1</clus>
<clus scale="   32.379">  1  5  2 -1</clus>
</clustering>
</event>
<event>
 9    1  0.4664604E-005  0.1621191E+03  0.7546771E-02  0.1187803E+00
          1   -1    0    0  502    0 -0.00000000000E+00  0.00000000000E+00  0.43748412104E+03  0.43748412104E+03  0.00000000000E+00 0. -1.
         21   -1    0    0  501  502  0.00000000000E+00 -0.00000000000E+00 -0.13653255835E+03  0.13653255835E+03  0.00000000000E+00 0.  1.
        -24    2    1    2    0    0 -0.27005453580E+02  0.12984191148E+03  0.33082967627E+03  0.36567103946E+03  0.81724034996E+02 0.  0.
         23    2    1    2    0    0  0.54949693124E+02 -0.13141178975E+03 -0.25749908653E+01  0.16924569681E+03  0.91372578231E+02 0.  0.
         11    1    3    3    0    0 -0.19908349416E+02  0.61185699612E+02  0.25560427316E+03  0.26357840707E+03  0.00000000000E+00 0. -1.
        -12    1    3    3    0    0 -0.70971041646E+01  0.68656211864E+02  0.75225403110E+02  0.10209263239E+03  0.00000000000E+00 0.  1.
        -13    1    4    4    0    0  0.31385152559E+02 -0.65636306352E+02 -0.46846081799E+02  0.86531542761E+02  0.00000000000E+00 0.  1.
         13    1    4    4    0    0  0.23564540565E+02 -0.65775483397E+02  0.44271090934E+02  0.82714154053E+02  0.00000000000E+00 0. -1.
          2    1    1    2  501    0 -0.27944239543E+02  0.15698782726E+01 -0.27303122724E+02  0.39099943119E+02  0.00000000000E+00 0. -1.
<scales pt_clust_5="13000.00000" pt_clust_6="13000.00000" pt_clust_7="13000.00000" pt_clust_8="13000.00000" pt_clust_9="27.98830"></scales>
<clustering>
<clus scale="   27.988">  2  9  1 -1</clus>
<clus scale="   81.724">  5  6 -1 -1</clus>
<clus scale="   91.373">  7  8 -1 -1</clus>
<clus scale="  156.884">  1  5  2 -1</clus>
<clus scale="   27.988">  2  5  1 -1</clus>
</clustering>
</event>
<event>
 9    1  0.4664604E-005  0.9768636E+02  0.7546771E-02  0.1285467E+00
         21   -1    0    0  501  502  0.00000000000E+00  0.00000000000E+00  0.60254463890E+02  0.60254463890E+02  0.00000000000E+00 0.  1.
          1   -1    0    0  502    0 -0.00000000000E+00 -0.00000000000E+00 -0.68351323161E+03  0.68351323161E+03  0.00000000000E+00 0. -1.
        -24    2    1    2    0    0 -0.25259792630E+02 -0.85011876644E+00 -0.33910507001E+03  0.35212147247E+03  0.91424849183E+02 0.  0.
         23    2    1    2    0    0  0.99847273081E+02  0.21473756390E+02 -0.50977965070E+02  0.14596441873E+03  0.90973943834E+02 0.  0.
         11    1    3    3    0    0  0.30836141221E+02  0.17102683951E+02 -0.14819566124E+03  0.15233293608E+03  0.00000000000E+00 0. -1.
        -12    1    3    3    0    0 -0.56095933851E+02 -0.17952802717E+02 -0.19090940877E+03  0.19978853640E+03  0.00000000000E+00 0.  1.
        -11    1    4    4    0    0  0.83914789437E+02  0.41656536728E+01 -0.74795743976E+02  0.11248754542E+03  0.00000000000E+00 0.  1.
         11    1    4    4    0    0  0.15932483644E+02  0.17308102717E+02  0.23817778906E+02  0.33476873312E+02  0.00000000000E+00 0. -1.
          2    1    1    2  501    0 -0.74587480451E+02 -0.20623637624E+02 -0.23317573265E+03  0.24568180430E+03  0.00000000000E+00 0. -1.
<scales pt_clust_5="13000.00000" pt_clust_6="13000.00000" pt_clust_7="13000.00000" pt_clust_8="13000.00000" pt_clust_9="77.38626"></scales>
<clustering>
<clus scale="   77.386">  1  9  2 -1</clus>
<clus scale="   90.974">  7  8 -1 -1</clus>
<clus scale="   91.425">  5  6 -1 -1</clus>
<clus scale="   97.264">  1  7  2 -1</clus>
<clus scale="   77.386">  1  5  2 -1</clus>
</clustering>
</event>
<event>
 9    1  0.4664604E-005  0.1368532E+03  0.7546771E-02  0.1220179E+00
          3   -1    0    0  502    0 -0.00000000000E+00  0.00000000000E+00  0.70998233470E+03  0.70998233470E+03  0.00000000000E+00 0. -1.
         21   -1    0    0  501  502  0.00000000000E+00 -0.00000000000E+00 -0.36955820470E+02  0.36955820470E+02  0.00000000000E+00 0. -1.
        -24    2    1    2    0    0  0.82473334453E+02 -0.58185698783E+02  0.37210712152E+03  0.39395530894E+03  0.80929902475E+02 0.  0.
         23    2    1    2    0    0 -0.71458667691E+02  0.75165654044E+02  0.16467983611E+03  0.21524810643E+03  0.91956958228E+02 0.  0.
         13    1    3    3    0    0  0.95955124348E+02 -0.35839875934E+02  0.27697430707E+03  0.29530771980E+03  0.00000000000E+00 0. -1.
        -14    1    3    3    0    0 -0.13481789895E+02 -0.22345822849E+02  0.95132814449E+02  0.98647589137E+02  0.00000000000E+00 0.  1.
        -11    1    4    4    0    0  0.20502775236E+02  0.20364460984E+02  0.54129974799E+02  0.61360648915E+02  0.00000000000E+00 0.  1.
         11    1    4    4    0    0 -0.91961442927E+02  0.54801193060E+02  0.11054986131E+03  0.15388745752E+03  0.00000000000E+00 0. -1.
          4    1    1    2  501    0 -0.11014666761E+02 -0.16979955261E+02  0.13623955660E+03  0.13773473980E+03  0.00000000000E+00 0. -1.
<scales pt_clust_5="13000.00000" pt_clust_6="13000.00000" pt_clust_7="13000.00000" pt_clust_8="13000.00000" pt_clust_9="20.23962"></scales>
<clustering>
<clus scale="   20.240">  2  9  1 -1</clus>
<clus scale="   80.930">  5  6 -1 -1</clus>
<clus scale="   91.957">  7  8 -1 -1</clus>
<clus scale="  129.701">  1  5  2 -1</clus>
<clus scale="   20.240">  2  5  1 -1</clus>
</clustering>
</event>
<event>
 9    1  0.4664604E-005  0.9440771E+02  0.7546771E-02  0.1301428E+00
         21   -1    0    0  501  502  0.00000000000E+00  0.00000000000E+00  0.11136579938E+03  0.11136579938E+03  0.00000000000E+00 0.  1.
          1   -1    0    0  502    0 -0.00000000000E+00 -0.00000000000E+00 -0.19714497864E+03  0.19714497864E+03  0.00000000000E+00 0. -1.
         23    2    1    2    0    0 -0.11225980536E+02 -0.17371661166E+02 -0.15456315763E+03  0.18103681350E+03  0.91960648620E+02 0.  0.
        -24    2    1    2    0    0 -0.62452577683E+01  0.31500991730E+02  0.45604479071E+02  0.95191285913E+02  0.77138166156E+02 0.  0.
         11    1    4    4    0    0 -0.36418134387E+02  0.13115632912E+01  0.59374343944E+01  0.36922267505E+02  0.00000000000E+00 0. -1.
        -12    1    4    4    0    0  0.30172876619E+02  0.30189428438E+02  0.39667044676E+02  0.58269018408E+02  0.00000000000E+00 0.  1.
        -13    1    3    3    0    0  0.31360846987E+02  0.19503337451E+02 -0.48710161494E+02  0.61127430245E+02  0.00000000000E+00 0.  1.
         13    1    3    3    0    0 -0.42586827523E+02 -0.36874998617E+02 -0.10585299613E+03  0.11990938325E+03  0.00000000000E+00 0. -1.
          2    1    1    2  501    0  0.17471238304E+02 -0.14129330564E+02  0.23179499304E+02  0.32282678607E+02  0.00000000000E+00 0. -1.
<scales pt_clust_5="13000.00000" pt_clust_6="13000.00000" pt_clust_7="13000.00000" pt_clust_8="13000.00000" pt_clust_9="22.46958"></scales>
<clustering>
<clus scale="   22.470">  1  9  2 -1</clus>
<clus scale="   77.138">  5  6 -1 -1</clus>
<clus scale="   80.040">  1  5  2 -1</clus>
<clus scale="   91.961">  7  8 -1 -1</clus>
<clus scale="   22.470">  1  5  2 -1</clus>
</clustering>
</event>
<event>
 9    1  0.4664604E-005  0.1353040E+03  0.7546771E-02  0.1234433E+00
         21   -1    0    0  501  502  0.00000000000E+00  0.00000000000E+00  0.85968507929E+02  0.85968507929E+02  0.00000000000E+00 0. -1.
          1   -1    0    0  502    0 -0.00000000000E+00 -0.00000000000E+00 -0.44420845541E+03  0.44420845541E+03  0.00000000000E+00 0. -1.
        -24    2    1    2    0    0  0.89522946279E+01  0.58559225257E+02 -0.12704186259E+03  0.16158827534E+03  0.80385380737E+02 0.  0.
         23    2    1    2    0    0  0.15872632478E+02  0.43920749106E+02 -0.24031769987E+03  0.26275112600E+03  0.95417947381E+02 0.  0.
         13    1    3    3    0    0  0.34815626052E+02  0.18829039080E+02 -0.19633049907E+02  0.44182770157E+02  0.00000000000E+00 0. -1.
        -14    1    3    3    0    0 -0.25863331424E+02  0.39730186177E+02 -0.10740881269E+03  0.11740550519E+03  0.00000000000E+00 0.  1.
        -11    1    4    4    0    0  0.59989503826E+01  0.68298038302E+02 -0.21709882279E+03  0.22766753897E+03  0.00000000000E+00 0. -1.
         11    1    4    4    0    0  0.98736820955E+01 -0.24377289196E+02 -0.23218877077E+02  0.35083587038E+02  0.00000000000E+00 0.  1.
          2    1    1    2  501    0 -0.24824927106E+02 -0.10247997436E+03  0.91196149770E+01  0.10583756199E+03  0.00000000000E+00 0. -1.
<scales pt_clust_5="13000.00000" pt_clust_6="13000.00000" pt_clust_7="13000.00000" pt_clust_8="13000.00000" pt_clust_9="95.93010"></scales>
<clustering>
<clus scale="   80.385">  5  6 -1 -1</clus>
<clus scale="   95.418">  7  8 -1 -1</clus>
<clus scale="   99.856">  2  5  1 -1</clus>
<clus scale="   95.930">  1  9  2 -1</clus>
<clus scale="   95.930">  1  5  2 -1</clus>
</clustering>
</event>
<event>
 9    1  0.4664604E-005  0.1118825E+03  0.7546771E-02  0.1263264E+00
         21   -1    0    0  501  502  0.00000000000E+00  0.00000000000E+00  0.72345859395E+02  0.72345859395E+02  0.00000000000E+00 0. -1.
         -4   -1    0    0    0  501 -0.00000000000E+00 -0.00000000000E+00 -0.22751899782E+03  0.22751899782E+03  0.00000000000E+00 0.  1.
         23    2    1    2    0    0  0.48079915284E+02 -0.43527249840E+02 -0.11530325918E+03  0.16071121792E+03  0.91252146571E+02 0.  0.
        -24    2    1    2    0    0 -0.65266377545E+02  0.20783419803E+02 -0.18040955273E+02  0.10324878988E+03  0.75121141956E+02 0.  0.
         11    1    4    4    0    0 -0.29399653256E+02  0.14201565783E+02  0.29040972438E+02  0.43696706540E+02  0.00000000000E+00 0. -1.
        -12    1    4    4    0    0 -0.35866724289E+02  0.65818540197E+01 -0.47081927712E+02  0.59552083344E+02  0.00000000000E+00 0.  1.
        -13    1    3    3    0    0  0.20858202888E+02 -0.53854590118E+02 -0.11809752480E+03  0.13146256832E+03  0.00000000000E+00 0.  1.
         13    1    3    3    0    0  0.27221712395E+02  0.10327340277E+02  0.27942656204E+01  0.29248649598E+02  0.00000000000E+00 0. -1.
         -3    1    1    2    0  502  0.17186462261E+02  0.22743830038E+02 -0.21828923970E+02  0.35904849416E+02  0.00000000000E+00 0.  1.
<scales pt_clust_5="13000.00000" pt_clust_6="13000.00000" pt_clust_7="13000.00000" pt_clust_8="13000.00000" pt_clust_9="28.50714"></scales>
<clustering>
<clus scale="   28.507">  1  9  2 -1</clus>
<clus scale="   75.121">  5  6 -1 -1</clus>
<clus scale="   91.252">  7  8 -1 -1</clus>
<clus scale="   99.166">  1  5  2 -1</clus>
<clus scale="   28.507">  1  5  2 -1</clus>
</clustering>
</event>
<event>
 9    1  0.4664604E-005  0.1477632E+03  0.7546771E-02  0.1205753E+00
         21   -1    0    0  501  502  0.00000000000E+00  0.00000000000E+00  0.26561775869E+03  0.26561775869E+03  0.00000000000E+00 0. -1.
          1   -1    0    0  502    0 -0.00000000000E+00 -0.00000000000E+00 -0.15237036430E+03  0.15237036430E+03  0.00000000000E+00 0. -1.
        -24    2    1    2    0    0 -0.57906537167E+02 -0.13909012067E+03 -0.19715124182E+02  0.17107297149E+03  0.78600551768E+02 0.  0.
         23    2    1    2    0    0  0.10943923822E+01  0.77245637617E+02  0.53536346900E+02  0.13132589323E+03  0.91718392745E+02 0.  0.
         11    1    3    3    0    0 -0.58402693416E+02 -0.97199162478E+02  0.17864298910E+02  0.11479409811E+03  0.00000000000E+00 0. -1.
        -12    1    3    3    0    0  0.49615624974E+00 -0.41890958197E+02 -0.37579423093E+02  0.56278873387E+02  0.00000000000E+00 0.  1.
        -13    1    4    4    0    0  0.59068248743E+01 -0.19714999851E+02  0.24839648232E+00  0.20582358952E+02  0.00000000000E+00 0.  1.
         13    1    4    4    0    0 -0.48124324921E+01  0.96960637468E+02  0.53287950418E+02  0.11074353428E+03  0.00000000000E+00 0. -1.
          2    1    1    2  501    0  0.56812144784E+02  0.61844483058E+02  0.79426171668E+02  0.11558925826E+03  0.00000000000E+00 0. -1.
<scales pt_clust_5="13000.00000" pt_clust_6="13000.00000" pt_clust_7="13000.00000" pt_clust_8="13000.00000" pt_clust_9="83.97833"></scales>
<clustering>
<clus scale="   78.601">  5  6 -1 -1</clus>
<clus scale="   83.978">  1  9  2 -1</clus>
<clus scale="   91.718">  7  8 -1 -1</clus>
<clus scale="  139.999">  2  5  1 -1</clus>
<clus scale="   83.978">  1  5  2 -1</clus>
</clustering>
</event>
<event>
 9    1  0.4664604E-005  0.1175383E+03  0.7546771E-02  0.1251510E+00
         21   -1    0    0  501  502  0.00000000000E+00  0.00000000000E+00  0.81231148070E+02  0.81231148070E+02  0.00000000000E+00 0.  1.
          1   -1    0    0  502    0 -0.00000000000E+00 -0.00000000000E+00 -0.40922789448E+03  0.40922789448E+03  0.00000000000E+00 0. -1.
         23    2    1    2    0    0 -0.75377970040E+01 -0.77312690727E+02 -0.32409795624E+03  0.34521290902E+03  0.89991092778E+02 0.  0.
        -24    2    1    2    0    0 -0.75616522793E+01  0.63176379771E+02  0.31126768743E+02  0.10456913225E+03  0.76924600370E+02 0.  0.
         13    1    4    4    0    0  0.25113547497E+02  0.29373985281E+02 -0.12311863516E+02  0.40559872564E+02  0.00000000000E+00 0. -1.
        -14    1    4    4    0    0 -0.32675199776E+02  0.33802394490E+02  0.43438632259E+02  0.64009259691E+02  0.00000000000E+00 0.  1.
        -11    1    3    3    0    0 -0.24693245387E+02  0.42210209560E+01 -0.27795202335E+02  0.37418533623E+02  0.00000000000E+00 0.  1.
         11    1    3    3    0    0  0.17155448383E+02 -0.81533711683E+02 -0.29630275391E+03  0.30779437539E+03  0.00000000000E+00 0. -1.
          2    1    1    2  501    0  0.15099449283E+02  0.14136310956E+02 -0.35025558914E+02  0.40677001283E+02  0.00000000000E+00 0. -1.
<scales pt_clust_5="13000.00000" pt_clust_6="13000.00000" pt_clust_7="13000.00000" pt_clust_8="13000.00000" pt_clust_9="20.68403"></scales>
<clustering>
<clus scale="   20.684">  1  9  2 -1</clus>
<clus scale="   76.925">  5  6 -1 -1</clus>
<clus scale="   89.991">  7  8 -1 -1</clus>
<clus scale="  107.862">  1  5  2 -1</clus>
<clus scale="   20.684">  1  5  2 -1</clus>
</clustering>
</event>
<event>
 9    1  0.4664604E-005  0.9780928E+02  0.7546771E-02  0.1301227E+00
          1   -1    0    0  502    0 -0.00000000000E+00  0.00000000000E+00  0.17657076606E+03  0.17657076606E+03  0.00000000000E+00 0. -1.
         21   -1    0    0  501  502  0.00000000000E+00 -0.00000000000E+00 -0.14844366932E+03  0.14844366932E+03  0.00000000000E+00 0. -1.
         23    2    1    2    0    0 -0.21937412624E+02  0.32513107199E+02  0.13683169392E+03  0.16862709721E+03  0.90409254176E+02 0.  0.
        -24    2    1    2    0    0 -0.12593063219E+02 -0.36237568402E+02 -0.93454605150E+02  0.11845598398E+03  0.61857176723E+02 0.  0.
         13    1    4    4    0    0 -0.31025335485E+02 -0.62224592229E+01 -0.67987873949E+02  0.74990942418E+02  0.00000000000E+00 0. -1.
        -14    1    4    4    0    0  0.18432272266E+02 -0.30015109179E+02 -0.25466731202E+02  0.43465041562E+02  0.00000000000E+00 0.  1.
        -13    1    3    3    0    0 -0.43802769387E+02  0.49836509910E+02  0.71254443299E+02  0.97363011538E+02  0.00000000000E+00 0. -1.
         13    1    3    3    0    0  0.21865356763E+02 -0.17323402711E+02  0.65577250622E+02  0.71264085674E+02  0.00000000000E+00 0.  1.
          2    1    1    2  501    0  0.34530475843E+02  0.37244612033E+01 -0.15249992038E+02  0.37931354186E+02  0.00000000000E+00 0. -1.
<scales pt_clust_5="13000.00000" pt_clust_6="13000.00000" pt_clust_7="13000.00000" pt_clust_8="13000.00000" pt_clust_9="34.73076"></scales>
<clustering>
<clus scale="   34.731">  2  9  1 -1</clus>
<clus scale="   61.857">  5  6 -1 -1</clus>
<clus scale="   72.244">  2  5  1 -1</clus>
<clus scale="   90.409">  7  8 -1 -1</clus>
<clus scale="   34.731">  2  5  1 -1</clus>
</clustering>
</event>
<event>
 9    1  0.4664604E-005  0.9280423E+02  0.7546771E-02  0.1302376E+00
          1   -1    0    0  502    0 -0.00000000000E+00  0.00000000000E+00  0.58412540935E+02  0.58412540935E+02  0.00000000000E+00 0. -1.
         21   -1    0    0  501  502  0.00000000000E+00 -0.00000000000E+00 -0.24024735756E+03  0.24024735756E+03  0.00000000000E+00 0.  1.
         23    2    1    2    0    0  0.35711562166E+02  0.93508294859E+00 -0.67188962796E+02  0.11844771411E+03  0.90770668195E+02 0.  0.
        -24    2    1    2    0    0  0.48962839155E+01  0.16747695764E+02 -0.10735456674E+03  0.13532520750E+03  0.80519872553E+02 0.  0.
         13    1    4    4    0    0 -0.32286315252E+02  0.13876161855E+02 -0.20216428584E+02  0.40542052305E+02  0.00000000000E+00 0. -1.
        -14    1    4    4    0    0  0.37182599168E+02  0.28715339088E+01 -0.87138138153E+02  0.94783155195E+02  0.00000000000E+00 0.  1.
        -11    1    3    3    0    0  0.17089279876E+02 -0.39924879133E+02 -0.80096622868E+01  0.44161002598E+02  0.00000000000E+00 0.  1.
         11    1    3    3    0    0  0.18622282290E+02  0.40859962082E+02 -0.59179300509E+02  0.74286711515E+02  0.00000000000E+00 0. -1.
          2    1    1    2  501    0 -0.40607846082E+02 -0.17682778712E+02 -0.72912870940E+01  0.44886976885E+02  0.00000000000E+00 0. -1.
<scales pt_clust_5="13000.00000" pt_clust_6="13000.00000" pt_clust_7="13000.00000" pt_clust_8="13000.00000" pt_clust_9="44.29085"></scales>
<clustering>
<clus scale="   44.291">  2  9  1 -1</clus>
<clus scale="   80.520">  5  6 -1 -1</clus>
<clus scale="   82.806">  2  5  1 -1</clus>
<clus scale="   90.771">  7  8 -1 -1</clus>
<clus scale="   44.291">  2  5  1 -1</clus>
</clustering>
</event>
<event>
 9    1  0.4664604E-005  0.3094107E+03  0.7546771E-02  0.1080629E+00
          1   -1    0    0  502    0 -0.00000000000E+00  0.00000000000E+00  0.80420859599E+03  0.80420859599E+03  0.00000000000E+00 0. -1.
         21   -1    0    0  501  502  0.00000000000E+00 -0.00000000000E+00 -0.93417618756E+02  0.93417618756E+02  0.00000000000E+00 0. -1.
        -24    2    1    2    0    0 -0.13373373348E+03  0.10679160929E+03  0.14785808063E+03  0.23959829009E+03  0.79095950091E+02 0.  0.
         23    2    1    2    0    0 -0.23593176586E+02  0.59589932897E+02  0.17521637686E+03  0.20774060094E+03  0.91366188910E+02 0.  0.
         11    1    3    3    0    0 -0.11460640970E+03  0.70663716138E+02  0.70209595008E+02  0.15184655792E+03  0.00000000000E+00 0. -1.
        -12    1    3    3    0    0 -0.19127323781E+02  0.36127893156E+02  0.77648485618E+02  0.87751732164E+02  0.00000000000E+00 0.  1.
        -13    1    4    4    0    0 -0.25004823994E+02  0.83734254523E+02  0.13522053194E+03  0.16100080392E+03  0.00000000000E+00 0. -1.
         13    1    4    4    0    0  0.14116474084E+01 -0.24144321626E+02  0.39995844915E+02  0.46739797022E+02  0.00000000000E+00 0.  1.
          2    1    1    2  501    0  0.15732691007E+03 -0.16638154219E+03  0.38771651975E+03  0.45028732371E+03  0.00000000000E+00 0. -1.
<scales pt_clust_5="13000.00000" pt_clust_6="13000.00000" pt_clust_7="13000.00000" pt_clust_8="13000.00000" pt_clust_9="228.98608"></scales>
<clustering>
<clus scale="   79.096">  5  6 -1 -1</clus>
<clus scale="   91.366">  7  8 -1 -1</clus>
<clus scale="  106.277">  5  7 -1 -1</clus>
<clus scale="  228.986">  2  9  1 -1</clus>
<clus scale="  228.986">  2  5  1 -1</clus>
</clustering>
</event>
<event>
 9    1  0.4664604E-005  0.1852992E+03  0.7546771E-02  0.1166210E+00
          3   -1    0    0  502    0 -0.00000000000E+00  0.00000000000E+00  0.33674770021E+03  0.33674770021E+03  0.00000000000E+00 0. -1.
         21   -1    0    0  501  502  0.00000000000E+00 -0.00000000000E+00 -0.30734919851E+03  0.30734919851E+03  0.00000000000E+00 0. -1.
         23    2    1    2    0    0  0.10337132115E+03 -0.10039930497E+03  0.71962279616E+02  0.18566401485E+03  0.92341248877E+02 0.  0.
        -24    2    1    2    0    0  0.42065149635E+02  0.19088630387E+03  0.10154211073E+03  0.23458880611E+03  0.80709664122E+02 0.  0.
         13    1    4    4    0    0  0.54124723718E+02  0.90895451970E+02  0.77229438364E+02  0.13098036134E+03  0.00000000000E+00 0. -1.
        -14    1    4    4    0    0 -0.12059574083E+02  0.99990851902E+02  0.24312672367E+02  0.10360844478E+03  0.00000000000E+00 0.  1.
        -13    1    3    3    0    0  0.53832201475E+02 -0.16301308140E+02  0.67631129220E+02  0.87963675471E+02  0.00000000000E+00 0.  1.
         13    1    3    3    0    0  0.49539119680E+02 -0.84097996834E+02  0.43311503960E+01  0.97700339375E+02  0.00000000000E+00 0. -1.
          4    1    1    2  501    0 -0.14543647079E+03 -0.90486998898E+02 -0.14410588865E+03  0.22384407776E+03  0.00000000000E+00 0. -1.
<scales pt_clust_5="13000.00000" pt_clust_6="13000.00000" pt_clust_7="13000.00000" pt_clust_8="13000.00000" pt_clust_9="166.79847"></scales>
<clustering>
<clus scale="   80.710">  5  6 -1 -1</clus>
<clus scale="   92.341">  7  8 -1 -1</clus>
<clus scale="  171.151">  1  7  2 -1</clus>
<clus scale="  166.798">  2  9  1 -1</clus>
<clus scale="  166.798">  2  5  1 -1</clus>
</clustering>
</event>
<event>
 9    1  0.4664604E-005  0.9463491E+02  0.7546771E-02  0.1300770E+00
         21   -1    0    0  501  502  0.00000000000E+00  0.00000000000E+00  0.24306303801E+02  0.24306303801E+02  0.00000000000E+00 0. -1.
          1   -1    0    0  502    0 -0.00000000000E+00 -0.00000000000E+00 -0.55997688799E+03  0.55997688799E+03  0.00000000000E+00 0. -1.
        -24    2    1    2    0    0 -0.24361208425E+01  0.23655076539E+02 -0.18892215042E+03  0.20549617632E+03  0.77276142705E+02 0.  0.
         23    2    1    2    0    0 -0.37359281454E+02 -0.97259722151E+01 -0.17018153470E+03  0.19725585055E+03  0.91966327411E+02 0.  0.
         13    1    3    3    0    0 -0.19002756946E+02  0.47256122696E+02 -0.10380693198E+03  0.11562925681E+03  0.00000000000E+00 0. -1.
        -14    1    3    3    0    0  0.16566636103E+02 -0.23601046157E+02 -0.85115218438E+02  0.89866919504E+02  0.00000000000E+00 0.  1.
        -11    1    4    4    0    0  0.75536471637E+01  0.35251147359E+02 -0.66433291536E+02  0.75584940298E+02  0.00000000000E+00 0.  1.
         11    1    4    4    0    0 -0.44912928618E+02 -0.44977119574E+02 -0.10374824317E+03  0.12167091026E+03  0.00000000000E+00 0. -1.
          2    1    1    2  501    0  0.39795402296E+02 -0.13929104324E+02 -0.17656689907E+03  0.18153116493E+03  0.00000000000E+00 0. -1.
<scales pt_clust_5="13000.00000" pt_clust_6="13000.00000" pt_clust_7="13000.00000" pt_clust_8="13000.00000" pt_clust_9="42.16273"></scales>
<clustering>
<clus scale="   42.163">  1  9  2 -1</clus>
<clus scale="   77.276">  5  6 -1 -1</clus>
<clus scale="   80.434">  2  5  1 -1</clus>
<clus scale="   91.966">  7  8 -1 -1</clus>
<clus scale="   42.163">  1  5  2 -1</clus>
</clustering>
</event>
<event>
 9    1  0.4664604E-005  0.2213528E+03  0.7546771E-02  0.1132879E+00
         21   -1    0    0  501  502  0.00000000000E+00  0.00000000000E+00  0.16906607009E+03  0.16906607009E+03  0.00000000000E+00 0.  1.
          1   -1    0    0  502    0 -0.00000000000E+00 -0.00000000000E+00 -0.40128401957E+03  0.40128401957E+03  0.00000000000E+00 0. -1.
        -24    2    1    2    0    0 -0.66667840451E+02 -0.10646934007E+02  0.34394454916E+02  0.11078685011E+03  0.80825673364E+02 0.  0.
         23    2    1    2    0    0 -0.47098673834E+02 -0.52839359846E+02  0.42960555110E+02  0.12369310611E+03  0.91891741622E+02 0.  0.
         13    1    3    3    0    0 -0.14090733791E+02  0.30950062590E+02 -0.27936152137E+01  0.34121246153E+02  0.00000000000E+00 0. -1.
        -14    1    3    3    0    0 -0.52577106660E+02 -0.41596996596E+02  0.37188070130E+02  0.76665603960E+02  0.00000000000E+00 0.  1.
        -11    1    4    4    0    0 -0.21681339247E+02  0.11649708235E+02 -0.18706899909E+02  0.30915114066E+02  0.00000000000E+00 0.  1.
         11    1    4    4    0    0 -0.25417334588E+02 -0.64489068081E+02  0.61667455019E+02  0.92777992046E+02  0.00000000000E+00 0. -1.
          2    1    1    2  501    0  0.11376651429E+03  0.63486293853E+02 -0.30957295950E+03  0.33587013344E+03  0.00000000000E+00 0. -1.
<scales pt_clust_5="13000.00000" pt_clust_6="13000.00000" pt_clust_7="13000.00000" pt_clust_8="13000.00000" pt_clust_9="130.28180"></scales>
<clustering>
<clus scale="   80.826">  5  6 -1 -1</clus>
<clus scale="   91.892">  7  8 -1 -1</clus>
<clus scale="  102.640">  5  7 -1 -1</clus>
<clus scale="  130.282">  1  9  2 -1</clus>
<clus scale="  130.282">  1  5  2 -1</clus>
</clustering>
</event>
<event>
 9    1  0.4664604E-005  0.1222511E+03  0.7546771E-02  0.1244199E+00
          1   -1    0    0  502    0 -0.00000000000E+00  0.00000000000E+00  0.13177639347E+03  0.13177639347E+03  0.00000000000E+00 0. -1.
         21   -1    0    0  501  502  0.00000000000E+00 -0.00000000000E+00 -0.26793256718E+03  0.26793256718E+03  0.00000000000E+00 0. -1.
        -24    2    1    2    0    0  0.69834429273E+02 -0.66585690879E+02  0.10480345077E+02  0.12505362614E+03  0.78854740103E+02 0.  0.
         23    2    1    2    0    0 -0.12214394994E+02  0.15804111994E+02 -0.16920041109E+03  0.19460556036E+03  0.94040329699E+02 0.  0.
         11    1    3    3    0    0  0.32612309216E+02 -0.66418713351E+02  0.33568796015E+02  0.81251906202E+02  0.00000000000E+00 0. -1.
        -12    1    3    3    0    0  0.37222120057E+02 -0.16697752834E+00 -0.23088450938E+02  0.43801719941E+02  0.00000000000E+00 0.  1.
        -13    1    4    4    0    0  0.20390270260E+02  0.44945150987E+02 -0.11368364351E+03  0.12393466230E+03  0.00000000000E+00 0. -1.
         13    1    4    4    0    0 -0.32604665255E+02 -0.29141038993E+02 -0.55516767586E+02  0.70670898064E+02  0.00000000000E+00 0.  1.
          2    1    1    2  501    0 -0.57620034278E+02  0.50781578885E+02  0.22563892304E+02  0.80049774142E+02  0.00000000000E+00 0. -1.
<scales pt_clust_5="13000.00000" pt_clust_6="13000.00000" pt_clust_7="13000.00000" pt_clust_8="13000.00000" pt_clust_9="76.80393"></scales>
<clustering>
<clus scale="   76.804">  2  9  1 -1</clus>
<clus scale="   78.855">  5  6 -1 -1</clus>
<clus scale="   94.040">  7  8 -1 -1</clus>
<clus scale="  110.995">  1  5  2 -1</clus>
<clus scale="   76.804">  2  5  1 -1</clus>
</clustering>
</event>
<event>
 9    1  0.4664604E-005  0.9533046E+02  0.7546771E-02  0.1297632E+00
         21   -1    0    0  501  502  0.00000000000E+00  0.00000000000E+00  0.19467993094E+03  0.19467993094E+03  0.00000000000E+00 0.  1.
         -2   -1    0    0    0  501 -0.00000000000E+00 -0.00000000000E+00 -0.29129769069E+03  0.29129769069E+03  0.00000000000E+00 0.  1.
         23    2    1    2    0    0 -0.15638971435E+02  0.16872938632E+02 -0.26014735369E+03  0.27695748187E+03  0.92192882841E+02 0.  0.
        -24    2    1    2    0    0  0.37119972968E+02 -0.17040047124E+02  0.71874113975E+02  0.11488094303E+03  0.79771468663E+02 0.  0.
         11    1    4    4    0    0  0.60732332642E+02 -0.48672762125E+01  0.60879547090E+02  0.86130284220E+02  0.00000000000E+00 0. -1.
        -12    1    4    4    0    0 -0.23612359674E+02 -0.12172770911E+02  0.10994566885E+02  0.28750658810E+02  0.00000000000E+00 0.  1.
        -13    1    3    3    0    0 -0.10064664789E+02 -0.25788185726E+02 -0.23150366276E+02  0.36086943055E+02  0.00000000000E+00 0. -1.
         13    1    3    3    0    0 -0.55743066457E+01  0.42661124358E+02 -0.23699698741E+03  0.24087053882E+03  0.00000000000E+00 0.  1.
         -1    1    1    2    0  502 -0.21481001533E+02  0.16710849123E+00  0.91655479967E+02  0.94139196726E+02  0.00000000000E+00 0.  1.
<scales pt_clust_5="13000.00000" pt_clust_6="13000.00000" pt_clust_7="13000.00000" pt_clust_8="13000.00000" pt_clust_9="21.48165"></scales>
<clustering>
<clus scale="   21.482">  1  9  2 -1</clus>
<clus scale="   79.771">  5  6 -1 -1</clus>
<clus scale="   83.378">  1  5  2 -1</clus>
<clus scale="   92.193">  7  8 -1 -1</clus>
<clus scale="   21.482">  1  5  2 -1</clus>
</clustering>
</event>
<event>
 9    1  0.4664604E-005  0.1434496E+03  0.7546771E-02  0.1211209E+00
         21   -1    0    0  501  502  0.00000000000E+00  0.00000000000E+00  0.96196363903E+03  0.96196363903E+03  0.00000000000E+00 0. -1.
         -2   -1    0    0    0  501 -0.00000000000E+00 -0.00000000000E+00 -0.75887868698E+02  0.75887868698E+02  0.00000000000E+00 0.  1.
        -24    2    1    2    0    0 -0.10563196174E+03 -0.84084214196E+02  0.41901714862E+02  0.16163346976E+03  0.78366819639E+02 0.  0.
         23    2    1    2    0    0  0.63646413946E+02  0.79182637521E+01  0.22370108515E+03  0.24967933595E+03  0.90465631004E+02 0.  0.
         13    1    3    3    0    0  0.85232843171E+01 -0.27160860255E+02  0.96625819480E+01  0.30062005842E+02  0.00000000000E+00 0. -1.
        -14    1    3    3    0    0 -0.11415524606E+03 -0.56923353941E+02  0.32239132914E+02  0.13157146392E+03  0.00000000000E+00 0.  1.
        -11    1    4    4    0    0 -0.22072853895E+02 -0.69191365868E+00  0.26596271419E+02  0.34569513693E+02  0.00000000000E+00 0.  1.
         11    1    4    4    0    0  0.85719267842E+02  0.86101774107E+01  0.19710481373E+03  0.21510982226E+03  0.00000000000E+00 0. -1.
         -1    1    1    2    0  502  0.41985547797E+02  0.76165950444E+02  0.62047297031E+03  0.62653870201E+03  0.00000000000E+00 0.  1.
<scales pt_clust_5="13000.00000" pt_clust_6="13000.00000" pt_clust_7="13000.00000" pt_clust_8="13000.00000" pt_clust_9="86.97148"></scales>
<clustering>
<clus scale="   78.367">  5  6 -1 -1</clus>
<clus scale="   86.971">  1  9  2 -1</clus>
<clus scale="   90.466">  7  8 -1 -1</clus>
<clus scale="  136.144">  2  5  1 -1</clus>
<clus scale="   86.971">  1  5  2 -1</clus>
</clustering>
</event>
<event>
 9    1  0.4664604E-005  0.1623321E+03  0.7546771E-02  0.1211456E+00
          3   -1    0    0  502    0 -0.00000000000E+00  0.00000000000E+00  0.71950434047E+03  0.71950434047E+03  0.00000000000E+00 0. -1.
         21   -1    0    0  501  502  0.00000000000E+00 -0.00000000000E+00 -0.71127386903E+02  0.71127386903E+02  0.00000000000E+00 0. -1.
         23    2    1    2    0    0 -0.56564294451E+02  0.47706551841E+01  0.70967589679E+02  0.11734591224E+03  0.74238708071E+02 0.  0.
        -24    2    1    2    0    0  0.18428225387E+03 -0.11012087085E+02  0.45005639405E+03  0.49281528691E+03  0.78961598470E+02 0.  0.
         11    1    4    4    0    0  0.14858514732E+03  0.21818056123E+02  0.36852037838E+03  0.39794577879E+03  0.00000000000E+00 0. -1.
        -12    1    4    4    0    0  0.35697106551E+02 -0.32830143208E+02  0.81536015669E+02  0.94869508117E+02  0.00000000000E+00 0.  1.
        -11    1    3    3    0    0 -0.26697975529E+02 -0.31346984421E+02  0.13807799904E+02  0.43428915112E+02  0.00000000000E+00 0. -1.
         11    1    3    3    0    0 -0.29866318922E+02  0.36117639605E+02  0.57159789776E+02  0.73916997124E+02  0.00000000000E+00 0.  1.
          4    1    1    2  501    0 -0.12771795942E+03  0.62414319005E+01  0.12735296984E+03  0.18047052822E+03  0.00000000000E+00 0. -1.
<scales pt_clust_5="13000.00000" pt_clust_6="13000.00000" pt_clust_7="13000.00000" pt_clust_8="13000.00000" pt_clust_9="141.83366"></scales>
<clustering>
<clus scale="   74.239">  7  8 -1 -1</clus>
<clus scale="   78.962">  5  6 -1 -1</clus>
<clus scale="   93.454">  1  7  2 -1</clus>
<clus scale="  141.834">  2  9  1 -1</clus>
<clus scale="  141.834">  2  5  1 -1</clus>
</clustering>
</event>
<event>
 9    1  0.4664604E-005  0.1427737E+03  0.7546771E-02  0.1211595E+00
         21   -1    0    0  501  502  0.00000000000E+00  0.00000000000E+00  0.58886976095E+02  0.58886976095E+02  0.00000000000E+00 0. -1.
          1   -1    0    0  502    0 -0.00000000000E+00 -0.00000000000E+00 -0.66718948455E+03  0.66718948455E+03  0.00000000000E+00 0. -1.
        -24    2    1    2    0    0 -0.26659576136E+02 -0.13547683958E+03 -0.41297370177E+03  0.44297067509E+03  0.81308262641E+02 0.  0.
         23    2    1    2    0    0  0.50870537374E+02  0.49762266965E+02 -0.10012941539E+03  0.15273676045E+03  0.90766311922E+02 0.  0.
         11    1    3    3    0    0 -0.78101457503E+00 -0.50402111658E+02 -0.26950661902E+03  0.27418023368E+03  0.00000000000E+00 0. -1.
        -12    1    3    3    0    0 -0.25878561561E+02 -0.85074727927E+02 -0.14346708275E+03  0.16879044142E+03  0.00000000000E+00 0.  1.
        -11    1    4    4    0    0  0.67620135265E+02  0.62591289949E+02 -0.68923052309E+02  0.11506754282E+03  0.00000000000E+00 0. -1.
         11    1    4    4    0    0 -0.16749597891E+02 -0.12829022983E+02 -0.31206363076E+02  0.37669217627E+02  0.00000000000E+00 0.  1.
          2    1    1    2  501    0 -0.24210961238E+02  0.85714572619E+02 -0.95199391293E+02  0.13036902510E+03  0.00000000000E+00 0. -1.
<scales pt_clust_5="13000.00000" pt_clust_6="13000.00000" pt_clust_7="13000.00000" pt_clust_8="13000.00000" pt_clust_9="89.06828"></scales>
<clustering>
<clus scale="   81.308">  5  6 -1 -1</clus>
<clus scale="   89.068">  1  9  2 -1</clus>
<clus scale="   90.766">  7  8 -1 -1</clus>
<clus scale="  136.956">  2  5  1 -1</clus>
<clus scale="   89.068">  1  5  2 -1</clus>
</clustering>
</event>
<event>
 9    1  0.4664604E-005  0.9890702E+02  0.7546771E-02  0.1287493E+00
          1   -1    0    0  502    0 -0.00000000000E+00  0.00000000000E+00  0.19593667516E+03  0.19593667516E+03  0.00000000000E+00 0. -1.
         21   -1    0    0  501  502  0.00000000000E+00 -0.00000000000E+00 -0.30517623456E+03  0.30517623456E+03  0.00000000000E+00 0. -1.
         23    2    1    2    0    0  0.82718964880E+01 -0.21828633390E+01  0.13157568048E+03  0.15892308115E+03  0.88719765919E+02 0.  0.
        -24    2    1    2    0    0 -0.35094923046E+02  0.73837572002E+02 -0.50260052492E+02  0.13684828025E+03  0.97558896410E+02 0.  0.
         11    1    4    4    0    0  0.21085719422E+01  0.74609842604E+02 -0.40947866281E+00  0.74640755367E+02  0.00000000000E+00 0. -1.
        -12    1    4    4    0    0 -0.37203494988E+02 -0.77227060234E+00 -0.49850573829E+02  0.62207524885E+02  0.00000000000E+00 0.  1.
        -11    1    3    3    0    0  0.34699087034E+01  0.43260816998E+02  0.61872151522E+02  0.75575800940E+02  0.00000000000E+00 0. -1.
         11    1    3    3    0    0  0.48019877846E+01 -0.45443680337E+02  0.69703528954E+02  0.83347280207E+02  0.00000000000E+00 0.  1.
          2    1    1    2  501    0  0.26823026558E+02 -0.71654708663E+02 -0.19055518739E+03  0.20534154832E+03  0.00000000000E+00 0. -1.
<scales pt_clust_5="13000.00000" pt_clust_6="13000.00000" pt_clust_7="13000.00000" pt_clust_8="13000.00000" pt_clust_9="76.51060"></scales>
<clustering>
<clus scale="   76.511">  2  9  1 -1</clus>
<clus scale="   88.720">  7  8 -1 -1</clus>
<clus scale="   90.200">  1  7  2 -1</clus>
<clus scale="   97.559">  5  6 -1 -1</clus>
<clus scale="   76.511">  2  5  1 -1</clus>
</clustering>
</event>
<event>
 9    1  0.4664604E-005  0.1008428E+03  0.7546771E-02  0.1280823E+00
         -2   -1    0    0    0  501 -0.00000000000E+00  0.00000000000E+00  0.36482447643E+03  0.36482447643E+03  0.00000000000E+00 0.  1.
         21   -1    0    0  501  502  0.00000000000E+00 -0.00000000000E+00 -0.21667985294E+03  0.21667985294E+03  0.00000000000E+00 0.  1.
         23    2    1    2    0    0 -0.46476052534E+02 -0.18224509721E+02  0.31911482040E+03  0.33473499827E+03  0.87869757346E+02 0.  0.
        -24    2    1    2    0    0  0.33006479942E+02  0.39498561471E+02 -0.27883413244E+02  0.10148394875E+03  0.82897183567E+02 0.  0.
         13    1    4    4    0    0  0.23572782940E+02  0.14062734483E+02 -0.56029618403E+02  0.62391944472E+02  0.00000000000E+00 0. -1.
        -14    1    4    4    0    0  0.94336970019E+01  0.25435826988E+02  0.28146205158E+02  0.39092004278E+02  0.00000000000E+00 0.  1.
        -11    1    3    3    0    0 -0.64717724435E+02 -0.99352526888E+00  0.28574108173E+03  0.29298009615E+03  0.00000000000E+00 0.  1.
         11    1    3    3    0    0  0.18241671900E+02 -0.17230984452E+02  0.33373738667E+02  0.41754902126E+02  0.00000000000E+00 0. -1.
         -1    1    1    2    0  502  0.13469572592E+02 -0.21274051750E+02 -0.14308678367E+03  0.14528538235E+03  0.00000000000E+00 0.  1.
<scales pt_clust_5="13000.00000" pt_clust_6="13000.00000" pt_clust_7="13000.00000" pt_clust_8="13000.00000" pt_clust_9="25.17965"></scales>
<clustering>
<clus scale="   25.180">  2  9  1 -1</clus>
<clus scale="   82.897">  5  6 -1 -1</clus>
<clus scale="   87.870">  7  8 -1 -1</clus>
<clus scale="   96.541">  2  5  1 -1</clus>
<clus scale="   25.180">  2  5  1 -1</clus>
</clustering>
</event>
<event>
 9    1  0.4664604E-005  0.1039566E+03  0.7546771E-02  0.1277348E+00
         21   -1    0    0  501  502  0.00000000000E+00  0.00000000000E+00  0.35196826235E+03  0.35196826235E+03  0.00000000000E+00 0.  1.
         -2   -1    0    0    0  501 -0.00000000000E+00 -0.00000000000E+00 -0.10014529097E+03  0.10014529097E+03  0.00000000000E+00 0.  1.
        -24    2    1    2    0    0 -0.50810762526E+01  0.55194729538E+02 -0.52858986084E+02  0.11057774527E+03  0.79756440704E+02 0.  0.
         23    2    1    2    0    0  0.21396038512E+02 -0.21490116575E+02  0.12307123626E+03  0.15610486947E+03  0.91118524478E+02 0.  0.
         13    1    3    3    0    0  0.36137205667E+02  0.23123002300E+02 -0.12839875826E+02  0.44782064267E+02  0.00000000000E+00 0. -1.
        -14    1    3    3    0    0 -0.41218281919E+02  0.32071727237E+02 -0.40019110258E+02  0.65795680999E+02  0.00000000000E+00 0.  1.
        -11    1    4    4    0    0 -0.34066312596E+02 -0.43164833570E+01  0.67517620308E+02  0.75748100534E+02  0.00000000000E+00 0.  1.
         11    1    4    4    0    0  0.55462351108E+02 -0.17173633218E+02  0.55553615954E+02  0.80356768936E+02  0.00000000000E+00 0. -1.
         -1    1    1    2    0  502 -0.16314962259E+02 -0.33704612963E+02  0.18161072120E+03  0.18543093858E+03  0.00000000000E+00 0.  1.
<scales pt_clust_5="13000.00000" pt_clust_6="13000.00000" pt_clust_7="13000.00000" pt_clust_8="13000.00000" pt_clust_9="37.44568"></scales>
<clustering>
<clus scale="   37.446">  1  9  2 -1</clus>
<clus scale="   79.756">  5  6 -1 -1</clus>
<clus scale="   91.119">  7  8 -1 -1</clus>
<clus scale="   94.157">  2  5  1 -1</clus>
<clus scale="   37.446">  1  5  2 -1</clus>
</clustering>
</event>
<event>
 9    1  0.4664604E-005  0.1320382E+03  0.7546771E-02  0.1244582E+00
         21   -1    0    0  501  502  0.00000000000E+00  0.00000000000E+00  0.12430654222E+03  0.12430654222E+03  0.00000000000E+00 0.  1.
          3   -1    0    0  502    0 -0.00000000000E+00 -0.00000000000E+00 -0.26503863167E+03  0.26503863167E+03  0.00000000000E+00 0. -1.
        -24    2    1    2    0    0  0.30858259005E+02 -0.16283621025E+02  0.22694997905E+00  0.87419540511E+02  0.80154451494E+02 0.  0.
         23    2    1    2    0    0  0.66976864150E+02 -0.14888673772E+02 -0.16128014835E+03  0.19725294948E+03  0.90497883338E+02 0.  0.
         13    1    3    3    0    0  0.41497030269E+02  0.28414115776E+01 -0.29146439480E+02  0.50789684732E+02  0.00000000000E+00 0. -1.
        -14    1    3    3    0    0 -0.10638771264E+02 -0.19125032603E+02  0.29373389459E+02  0.36629855778E+02  0.00000000000E+00 0.  1.
        -11    1    4    4    0    0  0.33415105418E+02 -0.52845081142E+02 -0.97018768487E+02  0.11542015989E+03  0.00000000000E+00 0.  1.
         11    1    4    4    0    0  0.33561758732E+02  0.37956407371E+02 -0.64261379868E+02  0.81832789590E+02  0.00000000000E+00 0. -1.
          4    1    1    2  501    0 -0.97835123155E+02  0.31172294797E+02  0.20321108924E+02  0.10467268389E+03  0.00000000000E+00 0. -1.
<scales pt_clust_5="13000.00000" pt_clust_6="13000.00000" pt_clust_7="13000.00000" pt_clust_8="13000.00000" pt_clust_9="96.14691"></scales>
<clustering>
<clus scale="   80.154">  5  6 -1 -1</clus>
<clus scale="   87.419">  2  5  1 -1</clus>
<clus scale="   90.498">  7  8 -1 -1</clus>
<clus scale="   96.147">  1  9  2 -1</clus>
<clus scale="   96.147">  1  5  2 -1</clus>
</clustering>
</event>
<event>
 9    1  0.4664604E-005  0.1026498E+03  0.7546771E-02  0.1283165E+00
          1   -1    0    0  502    0 -0.00000000000E+00  0.00000000000E+00  0.31372006582E+03  0.31372006582E+03  0.00000000000E+00 0. -1.
         21   -1    0    0  501  502  0.00000000000E+00 -0.00000000000E+00 -0.47360112833E+02  0.47360112833E+02  0.00000000000E+00 0.  1.
        -24    2    1    2    0    0 -0.37745664196E+02  0.21869831559E+02  0.16097651095E+03  0.18143235834E+03  0.71422957643E+02 0.  0.
         23    2    1    2    0    0  0.68650095277E+02 -0.20185924504E+02  0.85861200174E+02  0.14305496130E+03  0.89287564237E+02 0.  0.
         11    1    3    3    0    0 -0.17336349619E+02  0.45277696255E+02  0.68815733539E+02  0.84179712394E+02  0.00000000000E+00 0. -1.
        -12    1    3    3    0    0 -0.20409314577E+02 -0.23407864696E+02  0.92160777407E+02  0.97252645945E+02  0.00000000000E+00 0.  1.
        -11    1    4    4    0    0 -0.20972072453E+02 -0.12629857826E+02  0.18642243219E+02  0.30771323727E+02  0.00000000000E+00 0. -1.
         11    1    4    4    0    0  0.89622167731E+02 -0.75560666780E+01  0.67218956955E+02  0.11228363757E+03  0.00000000000E+00 0.  1.
          2    1    1    2  501    0 -0.30904431081E+02 -0.16839070552E+01  0.19522241871E+02  0.36592859018E+02  0.00000000000E+00 0. -1.
<scales pt_clust_5="13000.00000" pt_clust_6="13000.00000" pt_clust_7="13000.00000" pt_clust_8="13000.00000" pt_clust_9="30.95027"></scales>
<clustering>
<clus scale="   30.950">  2  9  1 -1</clus>
<clus scale="   71.423">  5  6 -1 -1</clus>
<clus scale="   87.555">  1  5  2 -1</clus>
<clus scale="   89.288">  7  8 -1 -1</clus>
<clus scale="   30.950">  2  5  1 -1</clus>
</clustering>
</event>
<event>
 9    1  0.4664604E-005  0.1261054E+03  0.7546771E-02  0.1250974E+00
         21   -1    0    0  501  502  0.00000000000E+00  0.00000000000E+00  0.21704136916E+03  0.21704136916E+03  0.00000000000E+00 0. -1.
          1   -1    0    0  502    0 -0.00000000000E+00 -0.00000000000E+00 -0.44342862554E+03  0.44342862554E+03  0.00000000000E+00 0. -1.
         23    2    1    2    0    0 -0.21990590002E+02 -0.41423935449E+02 -0.37444578125E+03  0.39496724685E+03  0.11657596024E+03 0.  0.
        -24    2    1    2    0    0  0.77111198143E+02  0.13711420639E+02  0.29357924837E+01  0.10781041330E+03  0.74029226683E+02 0.  0.
         13    1    4    4    0    0  0.68698414878E+02 -0.15330383024E+02 -0.15934557146E+02  0.72169266047E+02  0.00000000000E+00 0. -1.
        -14    1    4    4    0    0  0.84127832651E+01  0.29041803663E+02  0.18870349630E+02  0.35641147252E+02  0.00000000000E+00 0.  1.
        -11    1    3    3    0    0  0.22833988180E+00 -0.80464042778E+02 -0.22761628822E+03  0.24142015032E+03  0.00000000000E+00 0. -1.
         11    1    3    3    0    0 -0.22218929884E+02  0.39040107329E+02 -0.14682949304E+03  0.15354709653E+03  0.00000000000E+00 0.  1.
          2    1    1    2  501    0 -0.55120608141E+02  0.27712514810E+02  0.14512273240E+03  0.15769233455E+03  0.00000000000E+00 0. -1.
<scales pt_clust_5="13000.00000" pt_clust_6="13000.00000" pt_clust_7="13000.00000" pt_clust_8="13000.00000" pt_clust_9="61.69493"></scales>
<clustering>
<clus scale="   61.695">  1  9  2 -1</clus>
<clus scale="   74.029">  5  6 -1 -1</clus>
<clus scale="   88.278">  1  5  2 -1</clus>
<clus scale="  116.576">  7  8 -1 -1</clus>
<clus scale="   61.695">  1  5  2 -1</clus>
</clustering>
</event>
<event>
 9    1  0.4664604E-005  0.1058655E+03  0.7546771E-02  0.1273003E+00
         21   -1    0    0  501  502  0.00000000000E+00  0.00000000000E+00  0.46684187664E+02  0.46684187664E+02  0.00000000000E+00 0.  1.
          1   -1    0    0  502    0 -0.00000000000E+00 -0.00000000000E+00 -0.35470084113E+03  0.35470084113E+03  0.00000000000E+00 0. -1.
        -24    2    1    2    0    0 -0.49525797209E+02 -0.16007703002E+02 -0.18571467612E+03  0.20871885481E+03  0.79778244423E+02 0.  0.
         23    2    1    2    0    0  0.66510069891E+02 -0.15224718676E+02 -0.91829467595E+02  0.14584199718E+03  0.90453610029E+02 0.  0.
         11    1    3    3    0    0 -0.58770832171E+01  0.29717760724E+02 -0.80029220276E+02  0.85570798218E+02  0.00000000000E+00 0. -1.
        -12    1    3    3    0    0 -0.43648713992E+02 -0.45725463726E+02 -0.10568545584E+03  0.12314805659E+03  0.00000000000E+00 0.  1.
        -13    1    4    4    0    0 -0.83835313632E+01 -0.34048985155E+02 -0.19954711786E+02  0.40346096597E+02  0.00000000000E+00 0.  1.
         13    1    4    4    0    0  0.74893601254E+02  0.18824266479E+02 -0.71874755809E+02  0.10549590058E+03  0.00000000000E+00 0. -1.
          2    1    1    2  501    0 -0.16984272682E+02  0.31232421678E+02 -0.30472509747E+02  0.46824176797E+02  0.00000000000E+00 0. -1.
<scales pt_clust_5="13000.00000" pt_clust_6="13000.00000" pt_clust_7="13000.00000" pt_clust_8="13000.00000" pt_clust_9="35.55179"></scales>
<clustering>
<clus scale="   35.552">  1  9  2 -1</clus>
<clus scale="   79.778">  5  6 -1 -1</clus>
<clus scale="   90.454">  7  8 -1 -1</clus>
<clus scale="   96.903">  2  5  1 -1</clus>
<clus scale="   35.552">  1  5  2 -1</clus>
</clustering>
</event>
<event>
 9    1  0.4664604E-005  0.1048001E+03  0.7546771E-02  0.1275530E+00
          1   -1    0    0  502    0 -0.00000000000E+00  0.00000000000E+00  0.25061461887E+03  0.25061461887E+03  0.00000000000E+00 0. -1.
         21   -1    0    0  501  502  0.00000000000E+00 -0.00000000000E+00 -0.87465511829E+02  0.87465511829E+02  0.00000000000E+00 0. -1.
         23    2    1    2    0    0  0.44745347006E+02  0.64361361484E+02  0.10862621798E+03  0.16199312601E+03  0.91091090173E+02 0.  0.
        -24    2    1    2    0    0  0.25613845016E+02 -0.34150102662E+02  0.35232606946E+02  0.97123398863E+02  0.79808016177E+02 0.  0.
         11    1    4    4    0    0  0.11235866736E+02  0.21117326939E+02 -0.82962684424E+01  0.25318259585E+02  0.00000000000E+00 0. -1.
        -12    1    4    4    0    0  0.14377978281E+02 -0.55267429601E+02  0.43528875388E+02  0.71805139278E+02  0.00000000000E+00 0.  1.
        -13    1    3    3    0    0  0.42212585627E+02  0.12559630928E+02  0.27867124080E+01  0.44129496716E+02  0.00000000000E+00 0.  1.
         13    1    3    3    0    0  0.25327613795E+01  0.51801730557E+02  0.10583950558E+03  0.11786362929E+03  0.00000000000E+00 0. -1.
          2    1    1    2  501    0 -0.70359192023E+02 -0.30211258822E+02  0.19290282109E+02  0.78963605829E+02  0.00000000000E+00 0. -1.
<scales pt_clust_5="13000.00000" pt_clust_6="13000.00000" pt_clust_7="13000.00000" pt_clust_8="13000.00000" pt_clust_9="76.57112"></scales>
<clustering>
<clus scale="   76.571">  2  9  1 -1</clus>
<clus scale="   79.808">  5  6 -1 -1</clus>
<clus scale="   91.091">  7  8 -1 -1</clus>
<clus scale="   95.157">  2  5  1 -1</clus>
<clus scale="   76.571">  2  5  1 -1</clus>
</clustering>
</event>
<event>
 9    1  0.4664604E-005  0.1806551E+03  0.7546771E-02  0.1167519E+00
          1   -1    0    0  502    0 -0.00000000000E+00  0.00000000000E+00  0.71156053437E+03  0.71156053437E+03  0.00000000000E+00 0. -1.
         21   -1    0    0  501  502  0.00000000000E+00 -0.00000000000E+00 -0.74768623385E+02  0.74768623385E+02  0.00000000000E+00 0. -1.
        -24    2    1    2    0    0 -0.48336182093E+02  0.14947587545E+03  0.44035193992E+03  0.47549495625E+03  0.86638320530E+02 0.  0.
         23    2    1    2    0    0  0.76296424144E+02 -0.14603565361E+03  0.99425489703E+02  0.20981232341E+03  0.83595613446E+02 0.  0.
         11    1    3    3    0    0 -0.41571966602E+02  0.14746716139E+03  0.44237342657E+03  0.46815493230E+03  0.00000000000E+00 0. -1.
        -12    1    3    3    0    0 -0.67642154915E+01  0.20087140555E+01 -0.20214866482E+01  0.73400239537E+01  0.00000000000E+00 0.  1.
        -11    1    4    4    0    0  0.76419722040E+02 -0.12528244900E+03  0.11282539836E+03  0.18510871525E+03  0.00000000000E+00 0. -1.
         11    1    4    4    0    0 -0.12329789588E+00 -0.20753204608E+02 -0.13399908661E+02  0.24703608157E+02  0.00000000000E+00 0.  1.
          2    1    1    2  501    0 -0.27960242050E+02 -0.34402218356E+01  0.97014481361E+02  0.10102187810E+03  0.00000000000E+00 0. -1.
<scales pt_clust_5="13000.00000" pt_clust_6="13000.00000" pt_clust_7="13000.00000" pt_clust_8="13000.00000" pt_clust_9="28.17110"></scales>
<clustering>
<clus scale="   28.171">  2  9  1 -1</clus>
<clus scale="   83.596">  7  8 -1 -1</clus>
<clus scale="   86.638">  5  6 -1 -1</clus>
<clus scale="  179.216">  2  7  1 -1</clus>
<clus scale="   28.171">  2  5  1 -1</clus>
</clustering>
</event>
<event>
 9    1  0.4664604E-005  0.9485539E+02  0.7546771E-02  0.1298083E+00
          1   -1    0    0  502    0 -0.00000000000E+00  0.00000000000E+00  0.96912893530E+02  0.96912893530E+02  0.00000000000E+00 0. -1.
         21   -1    0    0  501  502  0.00000000000E+00 -0.00000000000E+00 -0.13497618195E+03  0.13497618195E+03  0.00000000000E+00 0.  1.
        -24    2    1    2    0    0  0.22194586981E+02  0.20643907343E+02  0.34574460352E+02  0.92374987785E+02  0.80118502594E+02 0.  0.
         23    2    1    2    0    0 -0.16811526964E+02  0.39185250966E+01 -0.50033665496E+02  0.10570232934E+03  0.91496625439E+02 0.  0.
         13    1    3    3    0    0  0.43144920166E+02 -0.13130444853E+02  0.24710684893E+02  0.51424805940E+02  0.00000000000E+00 0. -1.
        -14    1    3    3    0    0 -0.20950333184E+02  0.33774352196E+02  0.98637754589E+01  0.40950181844E+02  0.00000000000E+00 0.  1.
        -13    1    4    4    0    0 -0.18133108212E+02 -0.28274983649E+02 -0.62660518230E+02  0.71095884962E+02  0.00000000000E+00 0.  1.
         13    1    4    4    0    0  0.13215812472E+01  0.32193508746E+02  0.12626852733E+02  0.34606444376E+02  0.00000000000E+00 0. -1.
          2    1    1    2  501    0 -0.53830600170E+01 -0.24562432439E+02 -0.22604083275E+02  0.33811758357E+02  0.00000000000E+00 0. -1.
<scales pt_clust_5="13000.00000" pt_clust_6="13000.00000" pt_clust_7="13000.00000" pt_clust_8="13000.00000" pt_clust_9="25.14539"></scales>
<clustering>
<clus scale="   25.145">  2  9  1 -1</clus>
<clus scale="   80.119">  5  6 -1 -1</clus>
<clus scale="   83.934">  1  5  2 -1</clus>
<clus scale="   91.497">  7  8 -1 -1</clus>
<clus scale="   25.145">  2  5  1 -1</clus>
</clustering>
</event>
<event>
 9    1  0.4664604E-005  0.9115100E+02  0.7546771E-02  0.1305735E+00
         21   -1    0    0  501  502  0.00000000000E+00  0.00000000000E+00  0.32019726193E+03  0.32019726193E+03  0.00000000000E+00 0. -1.
          3   -1    0    0  502    0 -0.00000000000E+00 -0.00000000000E+00 -0.34639436900E+02  0.34639436900E+02  0.00000000000E+00 0. -1.
         23    2    1    2    0    0  0.14546120911E+01 -0.14347085611E+02  0.11666501025E+03  0.14758590933E+03  0.89235201878E+02 0.  0.
        -24    2    1    2    0    0  0.18133690496E+02  0.21108479166E+02  0.16592781856E+03  0.18631734154E+03  0.80048186495E+02 0.  0.
         13    1    4    4    0    0 -0.14677581892E+02  0.27567014713E+02  0.14149765598E+03  0.14490327242E+03  0.00000000000E+00 0. -1.
        -14    1    4    4    0    0  0.32811272388E+02 -0.64585355469E+01  0.24430162586E+02  0.41414069121E+02  0.00000000000E+00 0.  1.
        -13    1    3    3    0    0 -0.25079745942E+02  0.19831978270E+01 -0.16743717240E+01  0.25213691733E+02  0.00000000000E+00 0.  1.
         13    1    3    3    0    0  0.26534358033E+02 -0.16330283437E+02  0.11833938198E+03  0.12237221760E+03  0.00000000000E+00 0. -1.
          4    1    1    2  501    0 -0.19588302587E+02 -0.67613935554E+01  0.29649962179E+01  0.20933447963E+02  0.00000000000E+00 0. -1.
<scales pt_clust_5="13000.00000" pt_clust_6="13000.00000" pt_clust_7="13000.00000" pt_clust_8="13000.00000" pt_clust_9="20.72241"></scales>
<clustering>
<clus scale="   20.722">  1  9  2 -1</clus>
<clus scale="   80.048">  5  6 -1 -1</clus>
<clus scale="   82.178">  1  5  2 -1</clus>
<clus scale="   89.235">  7  8 -1 -1</clus>
<clus scale="   20.722">  1  5  2 -1</clus>
</clustering>
</event>
<event>
 9    1  0.4664604E-005  0.1163558E+03  0.7546771E-02  0.1252410E+00
         21   -1    0    0  501  502  0.00000000000E+00  0.00000000000E+00  0.78091941317E+02  0.78091941317E+02  0.00000000000E+00 0. -1.
          1   -1    0    0  502    0 -0.00000000000E+00 -0.00000000000E+00 -0.42210595514E+03  0.42210595514E+03  0.00000000000E+00 0. -1.
         23    2    1    2    0    0 -0.43913807700E+02 -0.72031868459E+02 -0.15372665866E+03  0.19683774301E+03  0.89421467852E+02 0.  0.
        -24    2    1    2    0    0  0.98284802582E+02 -0.20971953701E+02 -0.10862635293E+03  0.16817718371E+03  0.79900909305E+02 0.  0.
         13    1    4    4    0    0  0.10380872586E+03 -0.16712814656E+02 -0.11698337146E+03  0.15729170015E+03  0.00000000000E+00 0. -1.
        -14    1    4    4    0    0 -0.55239232781E+01 -0.42591390454E+01  0.83570185209E+01  0.10885483561E+02  0.00000000000E+00 0.  1.
        -11    1    3    3    0    0 -0.33401588277E+02  0.13925980068E+02 -0.40963198269E+02  0.54658783674E+02  0.00000000000E+00 0.  1.
         11    1    3    3    0    0 -0.10512219423E+02 -0.85957848527E+02 -0.11276346039E+03  0.14217895934E+03  0.00000000000E+00 0. -1.
          2    1    1    2  501    0 -0.54370994882E+02  0.93003822160E+02 -0.81661002236E+02  0.13518296974E+03  0.00000000000E+00 0. -1.
<scales pt_clust_5="13000.00000" pt_clust_6="13000.00000" pt_clust_7="13000.00000" pt_clust_8="13000.00000" pt_clust_9="107.73076"></scales>
<clustering>
<clus scale="   79.901">  5  6 -1 -1</clus>
<clus scale="   89.421">  7  8 -1 -1</clus>
<clus scale="  107.731">  1  9  2 -1</clus>
<clus scale="  109.209">  1  5  2 -1</clus>
<clus scale="  107.731">  1  5  2 -1</clus>
</clustering>
</event>
<event>
 9    1  0.4664604E-005  0.1010151E+03  0.7546771E-02  0.1280511E+00
         21   -1    0    0  501  502  0.00000000000E+00  0.00000000000E+00  0.14367115406E+03  0.14367115406E+03  0.00000000000E+00 0.  1.
          1   -1    0    0  502    0 -0.00000000000E+00 -0.00000000000E+00 -0.22166335981E+03  0.22166335981E+03  0.00000000000E+00 0. -1.
         23    2    1    2    0    0  0.53901804590E+02 -0.12743091757E+02 -0.16474768440E+03  0.19443131202E+03  0.87143242152E+02 0.  0.
        -24    2    1    2    0    0 -0.22373534029E+02  0.39976940439E+02  0.26417351324E+02  0.97579235990E+02  0.82006707370E+02 0.  0.
         11    1    4    4    0    0  0.24349445712E+02 -0.77330633692E+01 -0.56995465553E+00  0.25554268213E+02  0.00000000000E+00 0. -1.
        -12    1    4    4    0    0 -0.46722979741E+02  0.47710003809E+02  0.26987305979E+02  0.72024967777E+02  0.00000000000E+00 0.  1.
        -11    1    3    3    0    0  0.55497910327E+02 -0.43466368919E+02 -0.95890970566E+02  0.11901437524E+03  0.00000000000E+00 0. -1.
         11    1    3    3    0    0 -0.15961057369E+01  0.30723277162E+02 -0.68856713837E+02  0.75416936781E+02  0.00000000000E+00 0.  1.
          2    1    1    2  501    0 -0.31528270561E+02 -0.27233848682E+02  0.60338127331E+02  0.73323965853E+02  0.00000000000E+00 0. -1.
<scales pt_clust_5="13000.00000" pt_clust_6="13000.00000" pt_clust_7="13000.00000" pt_clust_8="13000.00000" pt_clust_9="41.66191"></scales>
<clustering>
<clus scale="   41.662">  1  9  2 -1</clus>
<clus scale="   82.007">  5  6 -1 -1</clus>
<clus scale="   87.143">  7  8 -1 -1</clus>
<clus scale="   96.619">  1  5  2 -1</clus>
<clus scale="   41.662">  1  5  2 -1</clus>
</clustering>
</event>
<event>
 9    1  0.4664604E-005  0.9932134E+02  0.7546771E-02  0.1286686E+00
         21   -1    0    0  501  502  0.00000000000E+00  0.00000000000E+00  0.11150721106E+03  0.11150721106E+03  0.00000000000E+00 0. -1.
          1   -1    0    0  502    0 -0.00000000000E+00 -0.00000000000E+00 -0.56983828614E+03  0.56983828614E+03  0.00000000000E+00 0. -1.
        -24    2    1    2    0    0 -0.40979274427E+02 -0.15999037457E+02 -0.99216534726E+01  0.94594617529E+02  0.83153065642E+02 0.  0.
         23    2    1    2    0    0  0.25750367617E+02 -0.40208259656E+02  0.27034992966E+02  0.10775341497E+03  0.92736842815E+02 0.  0.
         11    1    3    3    0    0 -0.48505798077E+02 -0.19230870775E+02 -0.38513165596E+02  0.64852931793E+02  0.00000000000E+00 0. -1.
        -12    1    3    3    0    0  0.75265236508E+01  0.32318333183E+01  0.28591512124E+02  0.29741685736E+02  0.00000000000E+00 0.  1.
        -13    1    4    4    0    0  0.53057599975E+02 -0.15527458954E+00  0.26423801415E+02  0.59273521125E+02  0.00000000000E+00 0. -1.
         13    1    4    4    0    0 -0.27307232358E+02 -0.40052985066E+02  0.61119155168E+00  0.48479893842E+02  0.00000000000E+00 0.  1.
          2    1    1    2  501    0  0.15228906810E+02  0.56207297113E+02 -0.47544441457E+03  0.47899746471E+03  0.00000000000E+00 0. -1.
<scales pt_clust_5="13000.00000" pt_clust_6="13000.00000" pt_clust_7="13000.00000" pt_clust_8="13000.00000" pt_clust_9="58.23387"></scales>
<clustering>
<clus scale="   58.234">  1  9  2 -1</clus>
<clus scale="   83.153">  5  6 -1 -1</clus>
<clus scale="   90.438">  2  5  1 -1</clus>
<clus scale="   92.737">  7  8 -1 -1</clus>
<clus scale="   58.234">  1  5  2 -1</clus>
</clustering>
</event>
<event>
 9    1  0.4664604E-005  0.1070309E+03  0.7546771E-02  0.1272062E+00
         21   -1    0    0  501  502  0.00000000000E+00  0.00000000000E+00  0.14608204933E+03  0.14608204933E+03  0.00000000000E+00 0. -1.
         -2   -1    0    0    0  501 -0.00000000000E+00 -0.00000000000E+00 -0.13124402969E+03  0.13124402969E+03  0.00000000000E+00 0.  1.
         23    2    1    2    0    0 -0.54572045469E+02  0.20896757572E+02 -0.72135025018E+02  0.13203144792E+03  0.93883218852E+02 0.  0.
        -24    2    1    2    0    0  0.28768239961E+02 -0.69991373751E+01  0.73915763316E+02  0.11320923221E+03  0.80474782612E+02 0.  0.
         13    1    4    4    0    0  0.23681262515E+02  0.32568789008E+02  0.57205899629E+02  0.69957438233E+02  0.00000000000E+00 0. -1.
        -14    1    4    4    0    0  0.50869774462E+01 -0.39567926383E+02  0.16709863686E+02  0.43251793977E+02  0.00000000000E+00 0.  1.
        -13    1    3    3    0    0 -0.45086822082E+02  0.41856650555E+02 -0.85569833338E+02  0.10538973906E+03  0.00000000000E+00 0. -1.
         13    1    3    3    0    0 -0.94852233867E+01 -0.20959892983E+02  0.13434808320E+02  0.26641708863E+02  0.00000000000E+00 0.  1.
         -1    1    1    2    0  502  0.25803805508E+02 -0.13897620197E+02  0.13057281350E+02  0.32085398892E+02  0.00000000000E+00 0.  1.
<scales pt_clust_5="13000.00000" pt_clust_6="13000.00000" pt_clust_7="13000.00000" pt_clust_8="13000.00000" pt_clust_9="29.30836"></scales>
<clustering>
<clus scale="   29.308">  1  9  2 -1</clus>
<clus scale="   80.475">  5  6 -1 -1</clus>
<clus scale="   93.883">  7  8 -1 -1</clus>
<clus scale="   95.487">  1  5  2 -1</clus>
<clus scale="   29.308">  1  5  2 -1</clus>
</clustering>
</event>
<event>
 9    1  0.4664604E-005  0.1168318E+03  0.7546771E-02  0.1250686E+00
         -4   -1    0    0    0  501 -0.00000000000E+00  0.00000000000E+00  0.29846554840E+03  0.29846554840E+03  0.00000000000E+00 0.  1.
         21   -1    0    0  501  502  0.00000000000E+00 -0.00000000000E+00 -0.77135860050E+02  0.77135860050E+02  0.00000000000E+00 0. -1.
        -24    2    1    2    0    0 -0.58870797355E+02 -0.38326946720E+02  0.17847619651E+03  0.20842019315E+03  0.81550589010E+02 0.  0.
         23    2    1    2    0    0  0.71293499306E+02  0.62348954441E+02  0.50430859772E+02  0.13909568729E+03  0.88510922730E+02 0.  0.
         11    1    3    3    0    0 -0.56343892321E+02  0.13515088216E+01  0.55192329181E+02  0.78883800482E+02  0.00000000000E+00 0. -1.
        -12    1    3    3    0    0 -0.25269050340E+01 -0.39678455541E+02  0.12328386733E+03  0.12953639267E+03  0.00000000000E+00 0.  1.
        -13    1    4    4    0    0  0.79114970517E+02  0.34161526754E+02  0.66368855665E+01  0.86430531180E+02  0.00000000000E+00 0. -1.
         13    1    4    4    0    0 -0.78214712103E+01  0.28187427687E+02  0.43793974206E+02  0.52665156111E+02  0.00000000000E+00 0.  1.
         -3    1    1    2    0  502 -0.12422701951E+02 -0.24022007721E+02 -0.75773679286E+01  0.28085528007E+02  0.00000000000E+00 0.  1.
<scales pt_clust_5="13000.00000" pt_clust_6="13000.00000" pt_clust_7="13000.00000" pt_clust_8="13000.00000" pt_clust_9="27.04405"></scales>
<clustering>
<clus scale="   27.044">  2  9  1 -1</clus>
<clus scale="   81.551">  5  6 -1 -1</clus>
<clus scale="   88.511">  7  8 -1 -1</clus>
<clus scale="  111.651">  1  5  2 -1</clus>
<clus scale="   27.044">  2  5  1 -1</clus>
</clustering>
</event>
<event>
 9    1  0.4664604E-005  0.1319009E+03  0.7546771E-02  0.1243375E+00
         21   -1    0    0  501  502  0.00000000000E+00  0.00000000000E+00  0.28442850747E+03  0.28442850747E+03  0.00000000000E+00 0. -1.
          1   -1    0    0  502    0 -0.00000000000E+00 -0.00000000000E+00 -0.10617665123E+03  0.10617665123E+03  0.00000000000E+00 0. -1.
        -24    2    1    2    0    0 -0.39586557861E+02  0.71680809273E+01  0.10208333434E+03  0.13599650866E+03  0.80346538632E+02 0.  0.
         23    2    1    2    0    0 -0.50233073234E+02  0.53524842232E+02 -0.10999071774E+02  0.11550657803E+03  0.88501523181E+02 0.  0.
         13    1    3    3    0    0 -0.59923403832E+02  0.19387993909E+02  0.88607975511E+02  0.10871100201E+03  0.00000000000E+00 0. -1.
        -14    1    3    3    0    0  0.20336845971E+02 -0.12219912982E+02  0.13475358827E+02  0.27285506644E+02  0.00000000000E+00 0.  1.
        -13    1    4    4    0    0  0.25096038481E+02  0.79567514975E+01 -0.75976283896E+01  0.27401551032E+02  0.00000000000E+00 0.  1.
         13    1    4    4    0    0 -0.75329111714E+02  0.45568090735E+02 -0.34014433839E+01  0.88105026996E+02  0.00000000000E+00 0. -1.
          2    1    1    2  501    0  0.89819631095E+02 -0.60692923160E+02  0.87167593671E+02  0.13910207201E+03  0.00000000000E+00 0. -1.
<scales pt_clust_5="13000.00000" pt_clust_6="13000.00000" pt_clust_7="13000.00000" pt_clust_8="13000.00000" pt_clust_9="97.80251"></scales>
<clustering>
<clus scale="   80.347">  5  6 -1 -1</clus>
<clus scale="   88.502">  7  8 -1 -1</clus>
<clus scale="   89.856">  2  5  1 -1</clus>
<clus scale="   97.803">  1  9  2 -1</clus>
<clus scale="   97.803">  1  5  2 -1</clus>
</clustering>
</event>
<event>
 9    1  0.4664604E-005  0.9764187E+02  0.7546771E-02  0.1290871E+00
         21   -1    0    0  501  502  0.00000000000E+00  0.00000000000E+00  0.22686843949E+02  0.22686843949E+02  0.00000000000E+00 0. -1.
          1   -1    0    0  502    0 -0.00000000000E+00 -0.00000000000E+00 -0.94038453252E+03  0.94038453252E+03  0.00000000000E+00 0. -1.
        -24    2    1    2    0    0  0.88756529022E+01  0.54198853155E+01 -0.18185921995E+03  0.19903690301E+03  0.80216958983E+02 0.  0.
         23    2    1    2    0    0 -0.46096247557E+02 -0.56324793480E+02 -0.27041799860E+03  0.29436129319E+03  0.90693608184E+02 0.  0.
         11    1    3    3    0    0  0.33440037664E+02  0.30576558040E+02 -0.92283744160E+02  0.10280783753E+03  0.00000000000E+00 0. -1.
        -12    1    3    3    0    0 -0.24564384762E+02 -0.25156672724E+02 -0.89575475789E+02  0.96229065485E+02  0.00000000000E+00 0.  1.
        -11    1    4    4    0    0 -0.45134791573E+02 -0.77359970892E+02 -0.24765246314E+03  0.26335044524E+03  0.00000000000E+00 0. -1.
         11    1    4    4    0    0 -0.96145598408E+00  0.21035177412E+02 -0.22765535458E+02  0.31010847957E+02  0.00000000000E+00 0.  1.
          2    1    1    2  501    0  0.37220594655E+02  0.50904908165E+02 -0.46542047003E+03  0.46967318027E+03  0.00000000000E+00 0. -1.
<scales pt_clust_5="13000.00000" pt_clust_6="13000.00000" pt_clust_7="13000.00000" pt_clust_8="13000.00000" pt_clust_9="63.06097"></scales>
<clustering>
<clus scale="   63.061">  1  9  2 -1</clus>
<clus scale="   80.217">  5  6 -1 -1</clus>
<clus scale="   87.996">  2  5  1 -1</clus>
<clus scale="   90.694">  7  8 -1 -1</clus>
<clus scale="   63.061">  1  5  2 -1</clus>
</clustering>
</event>
<event>
 9    1  0.4664604E-005  0.1795383E+03  0.7546771E-02  0.1169974E+00
         21   -1    0    0  501  502  0.00000000000E+00  0.00000000000E+00  0.28148694618E+03  0.28148694618E+03  0.00000000000E+00 0.  1.
          3   -1    0    0  502    0 -0.00000000000E+00 -0.00000000000E+00 -0.16390783486E+03  0.16390783486E+03  0.00000000000E+00 0. -1.
         23    2    1    2    0    0  0.16752477336E+03  0.37899077751E+02 -0.84243306105E+01  0.19526650066E+03  0.92504849318E+02 0.  0.
        -24    2    1    2    0    0 -0.13204522046E+03 -0.22742807831E+02  0.46798646964E+02  0.16202657360E+03  0.78162149671E+02 0.  0.
         13    1    4    4    0    0 -0.14140513463E+03 -0.16032821775E+02  0.48576978719E+02  0.15037348947E+03  0.00000000000E+00 0. -1.
        -14    1    4    4    0    0  0.93599141656E+01 -0.67099860560E+01 -0.17783317554E+01  0.11653084136E+02  0.00000000000E+00 0.  1.
        -11    1    3    3    0    0  0.53487104455E+02 -0.11360768114E+02  0.33540596757E+02  0.64147556664E+02  0.00000000000E+00 0.  1.
         11    1    3    3    0    0  0.11403766891E+03  0.49259845865E+02 -0.41964927367E+02  0.13111894399E+03  0.00000000000E+00 0. -1.
          4    1    1    2  501    0 -0.35479552902E+02 -0.15156269920E+02  0.79204794970E+02  0.88101706784E+02  0.00000000000E+00 0. -1.
<scales pt_clust_5="13000.00000" pt_clust_6="13000.00000" pt_clust_7="13000.00000" pt_clust_8="13000.00000" pt_clust_9="38.58123"></scales>
<clustering>
<clus scale="   38.581">  1  9  2 -1</clus>
<clus scale="   78.162">  5  6 -1 -1</clus>
<clus scale="   92.505">  7  8 -1 -1</clus>
<clus scale="  172.587">  1  5  2 -1</clus>
<clus scale="   38.581">  1  5  2 -1</clus>
</clustering>
</event>
<event>
 9    1  0.4664604E-005  0.1357064E+03  0.7546771E-02  0.1244739E+00
         -2   -1    0    0    0  501 -0.00000000000E+00  0.00000000000E+00  0.23756301989E+03  0.23756301989E+03  0.00000000000E+00 0.  1.
         21   -1    0    0  501  502  0.00000000000E+00 -0.00000000000E+00 -0.54597791041E+03  0.54597791041E+03  0.00000000000E+00 0.  1.
        -24    2    1    2    0    0 -0.12932436511E+02  0.11032059312E+02 -0.16696789368E+03  0.18525919930E+03  0.78445772073E+02 0.  0.
         23    2    1    2    0    0  0.29920746034E+02  0.85461495905E+02  0.20231695555E+03  0.24082786850E+03  0.94164714281E+02 0.  0.
         11    1    3    3    0    0 -0.18945023613E+02 -0.31734558836E+02 -0.82059854144E+02  0.89998976696E+02  0.00000000000E+00 0. -1.
        -12    1    3    3    0    0  0.60125871016E+01  0.42766618148E+02 -0.84908039541E+02  0.95260222602E+02  0.00000000000E+00 0.  1.
        -11    1    4    4    0    0 -0.29365433809E+02  0.46510534797E+02  0.57513038067E+02  0.79582084024E+02  0.00000000000E+00 0. -1.
         11    1    4    4    0    0  0.59286179843E+02  0.38950961108E+02  0.14480391748E+03  0.16124578447E+03  0.00000000000E+00 0.  1.
         -1    1    1    2    0  502 -0.16988309523E+02 -0.96493555218E+02 -0.34376395239E+03  0.35745386251E+03  0.00000000000E+00 0.  1.
<scales pt_clust_5="13000.00000" pt_clust_6="13000.00000" pt_clust_7="13000.00000" pt_clust_8="13000.00000" pt_clust_9="97.72019"></scales>
<clustering>
<clus scale="   78.446">  5  6 -1 -1</clus>
<clus scale="   80.266">  1  5  2 -1</clus>
<clus scale="   94.165">  7  8 -1 -1</clus>
<clus scale="   97.720">  2  9  1 -1</clus>
<clus scale="   97.720">  2  5  1 -1</clus>
</clustering>
</event>
<event>
 9    1  0.4664604E-005  0.1526209E+03  0.7546771E-02  0.1198169E+00
          1   -1    0    0  502    0 -0.00000000000E+00  0.00000000000E+00  0.74058769823E+02  0.74058769823E+02  0.00000000000E+00 0. -1.
         21   -1    0    0  501  502  0.00000000000E+00 -0.00000000000E+00 -0.72240409951E+03  0.72240409951E+03  0.00000000000E+00 0.  1.
         23    2    1    2    0    0  0.91350176857E+02  0.27951099611E+02 -0.19918609309E+03  0.23975250459E+03  0.93166759071E+02 0.  0.
        -24    2    1    2    0    0 -0.16997675441E+03 -0.36430983650E+02 -0.43454399572E+03  0.47628864879E+03  0.88335039127E+02 0.  0.
         13    1    4    4    0    0 -0.46864534540E+02  0.19914975831E+02 -0.64013866928E+02  0.81796491484E+02  0.00000000000E+00 0. -1.
        -14    1    4    4    0    0 -0.12311221987E+03 -0.56345959481E+02 -0.37053012879E+03  0.39449215730E+03  0.00000000000E+00 0.  1.
        -13    1    3    3    0    0  0.10506973935E+03  0.11954227932E+02 -0.18847056434E+03  0.21611040538E+03  0.00000000000E+00 0. -1.
         13    1    3    3    0    0 -0.13719562496E+02  0.15996871679E+02 -0.10715528757E+02  0.23642099212E+02  0.00000000000E+00 0.  1.
          2    1    1    2  501    0  0.78626577553E+02  0.84798840396E+01 -0.14615240874E+02  0.80421715953E+02  0.00000000000E+00 0. -1.
<scales pt_clust_5="13000.00000" pt_clust_6="13000.00000" pt_clust_7="13000.00000" pt_clust_8="13000.00000" pt_clust_9="79.08257"></scales>
<clustering>
<clus scale="   79.083">  2  9  1 -1</clus>
<clus scale="   88.335">  5  6 -1 -1</clus>
<clus scale="   93.167">  7  8 -1 -1</clus>
<clus scale="  149.720">  2  5  1 -1</clus>
<clus scale="   79.083">  2  5  1 -1</clus>
</clustering>
</event>
<event>
 9    1  0.4664604E-005  0.2700057E+03  0.7546771E-02  0.1144046E+00
          1   -1    0    0  502    0 -0.00000000000E+00  0.00000000000E+00  0.48280188654E+03  0.48280188654E+03  0.00000000000E+00 0. -1.
         21   -1    0    0  501  502  0.00000000000E+00 -0.00000000000E+00 -0.25527969153E+03  0.25527969153E+03  0.00000000000E+00 0. -1.
        -24    2    1    2    0    0 -0.33251003261E+02  0.35813922065E+02  0.11522142873E+03  0.14812818735E+03  0.79232039072E+02 0.  0.
         23    2    1    2    0    0 -0.21956601325E+03  0.45978204210E+02  0.19564802673E+03  0.31146970792E+03  0.91716951275E+02 0.  0.
         11    1    3    3    0    0 -0.49664805601E+02  0.25361680311E+02  0.11594162481E+03  0.12865561825E+03  0.00000000000E+00 0. -1.
        -12    1    3    3    0    0  0.16413802340E+02  0.10452241754E+02 -0.72019607406E+00  0.19472569099E+02  0.00000000000E+00 0.  1.
        -11    1    4    4    0    0 -0.11474582942E+02 -0.20513691074E+02  0.24522347520E+02  0.33967971724E+02  0.00000000000E+00 0.  1.
         11    1    4    4    0    0 -0.20809143031E+03  0.66491895284E+02  0.17112567922E+03  0.27750173620E+03  0.00000000000E+00 0. -1.
          2    1    1    2  501    0  0.25281701651E+03 -0.81792126275E+02 -0.83347260456E+02  0.27848368280E+03  0.00000000000E+00 0. -1.
<scales pt_clust_5="13000.00000" pt_clust_6="13000.00000" pt_clust_7="13000.00000" pt_clust_8="13000.00000" pt_clust_9="253.95089"></scales>
<clustering>
<clus scale="   79.232">  5  6 -1 -1</clus>
<clus scale="   91.717">  7  8 -1 -1</clus>
<clus scale="   93.091">  1  5  2 -1</clus>
<clus scale="  253.951">  2  9  1 -1</clus>
<clus scale="  253.951">  2  5  1 -1</clus>
</clustering>
</event>
<event>
 9    1  0.4664604E-005  0.2619711E+03  0.7546771E-02  0.1105965E+00
          1   -1    0    0  502    0 -0.00000000000E+00  0.00000000000E+00  0.92002800070E+03  0.92002800070E+03  0.00000000000E+00 0. -1.
         21   -1    0    0  501  502  0.00000000000E+00 -0.00000000000E+00 -0.65771176901E+02  0.65771176901E+02  0.00000000000E+00 0. -1.
        -24    2    1    2    0    0  0.79402994773E+02  0.11159927047E+03  0.52683832082E+03  0.55027235905E+03  0.80509751627E+02 0.  0.
         23    2    1    2    0    0 -0.11003580057E+02  0.44429260889E+02  0.20130882406E+03  0.22356683730E+03  0.85801224345E+02 0.  0.
         13    1    3    3    0    0  0.33180719964E+02  0.85475873685E+02  0.43162362353E+03  0.44125507084E+03  0.00000000000E+00 0. -1.
        -14    1    3    3    0    0  0.46222274808E+02  0.26123396785E+02  0.95214697289E+02  0.10901728821E+03  0.00000000000E+00 0.  1.
        -13    1    4    4    0    0  0.26639051594E+02  0.32272634766E+02  0.41502130768E+02  0.58937160458E+02  0.00000000000E+00 0.  1.
         13    1    4    4    0    0 -0.37642631652E+02  0.12156626123E+02  0.15980669329E+03  0.16462967684E+03  0.00000000000E+00 0. -1.
          2    1    1    2  501    0 -0.68399414716E+02 -0.15602853136E+03  0.12610967892E+03  0.21195998124E+03  0.00000000000E+00 0. -1.
<scales pt_clust_5="13000.00000" pt_clust_6="13000.00000" pt_clust_7="13000.00000" pt_clust_8="13000.00000" pt_clust_9="170.36250"></scales>
<clustering>
<clus scale="   80.510">  5  6 -1 -1</clus>
<clus scale="   85.801">  7  8 -1 -1</clus>
<clus scale="   95.314">  5  7 -1 -1</clus>
<clus scale="  170.363">  2  9  1 -1</clus>
<clus scale="  170.363">  2  5  1 -1</clus>
</clustering>
</event>
<event>
 9    1  0.4664604E-005  0.1054202E+03  0.7546771E-02  0.1270413E+00
          1   -1    0    0  502    0 -0.00000000000E+00  0.00000000000E+00  0.36698814347E+03  0.36698814347E+03  0.00000000000E+00 0. -1.
         21   -1    0    0  501  502  0.00000000000E+00 -0.00000000000E+00 -0.12574096061E+03  0.12574096061E+03  0.00000000000E+00 0.  1.
         23    2    1    2    0    0 -0.33638772369E+02 -0.45119579184E+02  0.23986261351E+03  0.26279285732E+03  0.91425757120E+02 0.  0.
        -24    2    1    2    0    0  0.77902635880E+02 -0.51820573606E+02  0.10218932217E+02  0.12300295540E+03  0.79190327281E+02 0.  0.
         11    1    4    4    0    0  0.56040596830E+02 -0.21307233813E+02  0.42503624372E+02  0.73492209046E+02  0.00000000000E+00 0. -1.
        -12    1    4    4    0    0  0.21862039050E+02 -0.30513339793E+02 -0.32284692154E+02  0.49510746351E+02  0.00000000000E+00 0.  1.
        -11    1    3    3    0    0 -0.59769965022E+02 -0.87799474270E+01  0.11094679959E+03  0.12632786127E+03  0.00000000000E+00 0. -1.
         11    1    3    3    0    0  0.26131192653E+02 -0.36339631757E+02  0.12891581392E+03  0.13646499604E+03  0.00000000000E+00 0.  1.
          2    1    1    2  501    0 -0.44263863511E+02  0.96940152789E+02 -0.88343628680E+01  0.10693329137E+03  0.00000000000E+00 0. -1.
<scales pt_clust_5="13000.00000" pt_clust_6="13000.00000" pt_clust_7="13000.00000" pt_clust_8="13000.00000" pt_clust_9="106.56774"></scales>
<clustering>
<clus scale="   79.190">  5  6 -1 -1</clus>
<clus scale="   91.426">  7  8 -1 -1</clus>
<clus scale="  106.568">  2  9  1 -1</clus>
<clus scale="  106.568">  2  5  1 -1</clus>
<clus scale="  105.420">  2  5  1 -1</clus>
</clustering>
</event>
<event>
 9    1  0.4664604E-005  0.9216233E+02  0.7546771E-02  0.1298499E+00
         21   -1    0    0  501  502  0.00000000000E+00  0.00000000000E+00  0.30440030718E+02  0.30440030718E+02  0.00000000000E+00 0. -1.
          3   -1    0    0  502    0 -0.00000000000E+00 -0.00000000000E+00 -0.71790870620E+03  0.71790870620E+03  0.00000000000E+00 0. -1.
         23    2    1    2    0    0 -0.22040994813E+02 -0.22066916823E+02 -0.26722284093E+03  0.28380226866E+03  0.90348916495E+02 0.  0.
        -24    2    1    2    0    0 -0.12794440666E+02 -0.63997233614E+02 -0.19728756192E+03  0.22302848365E+03  0.80993696096E+02 0.  0.
         11    1    4    4    0    0  0.25149476540E+02 -0.45123426707E+02 -0.59130172696E+02  0.78517495701E+02  0.00000000000E+00 0. -1.
        -12    1    4    4    0    0 -0.37943917206E+02 -0.18873806907E+02 -0.13815738922E+03  0.14451098795E+03  0.00000000000E+00 0.  1.
        -13    1    3    3    0    0 -0.38194217092E+02  0.11460492891E+02 -0.52760274436E+02  0.66134617827E+02  0.00000000000E+00 0.  1.
         13    1    3    3    0    0  0.16153222279E+02 -0.33527409714E+02 -0.21446256650E+03  0.21766765084E+03  0.00000000000E+00 0. -1.
          4    1    1    2  501    0  0.34835435480E+02  0.86064150437E+02 -0.22295827263E+03  0.24151798461E+03  0.00000000000E+00 0. -1.
<scales pt_clust_5="13000.00000" pt_clust_6="13000.00000" pt_clust_7="13000.00000" pt_clust_8="13000.00000" pt_clust_9="92.84694"></scales>
<clustering>
<clus scale="   80.994">  5  6 -1 -1</clus>
<clus scale="   90.349">  7  8 -1 -1</clus>
<clus scale="   92.847">  1  9  2 -1</clus>
<clus scale="   92.847">  1  5  2 -1</clus>
<clus scale="   92.162">  1  5  2 -1</clus>
</clustering>
</event>
<event>
 9    1  0.4664604E-005  0.1105035E+03  0.7546771E-02  0.1266603E+00
         21   -1    0    0  501  502  0.00000000000E+00  0.00000000000E+00  0.30927948696E+02  0.30927948696E+02  0.00000000000E+00 0. -1.
         -2   -1    0    0    0  501 -0.00000000000E+00 -0.00000000000E+00 -0.83928707478E+03  0.83928707478E+03  0.00000000000E+00 0.  1.
        -24    2    1    2    0    0 -0.52576051035E+02  0.25561228882E+02 -0.28409823479E+03  0.30094688981E+03  0.80247155147E+02 0.  0.
         23    2    1    2    0    0  0.52288580003E+02  0.27436796925E+02 -0.13424695180E+03  0.17566967537E+03  0.96699107295E+02 0.  0.
         13    1    3    3    0    0  0.24978096448E+01 -0.22679403521E+02 -0.10522073428E+03  0.10766613822E+03  0.00000000000E+00 0. -1.
        -14    1    3    3    0    0 -0.55073860680E+02  0.48240632403E+02 -0.17887750051E+03  0.19328075159E+03  0.00000000000E+00 0.  1.
        -13    1    4    4    0    0  0.62307372755E+01  0.40699378909E+02 -0.98167545038E+01  0.42327652895E+02  0.00000000000E+00 0. -1.
         13    1    4    4    0    0  0.46057842727E+02 -0.13262581985E+02 -0.12443019730E+03  0.13334202247E+03  0.00000000000E+00 0.  1.
         -1    1    1    2    0  502  0.28747103206E+00 -0.52998025806E+02 -0.39001393950E+03  0.39359845830E+03  0.00000000000E+00 0.  1.
<scales pt_clust_5="13000.00000" pt_clust_6="13000.00000" pt_clust_7="13000.00000" pt_clust_8="13000.00000" pt_clust_9="52.99883"></scales>
<clustering>
<clus scale="   52.999">  1  9  2 -1</clus>
<clus scale="   80.247">  5  6 -1 -1</clus>
<clus scale="   96.436">  2  5  1 -1</clus>
<clus scale="   96.699">  7  8 -1 -1</clus>
<clus scale="   52.999">  1  5  2 -1</clus>
</clustering>
</event>
<event>
 9    1  0.4664604E-005  0.1020865E+03  0.7546771E-02  0.1282037E+00
         21   -1    0    0  501  502  0.00000000000E+00  0.00000000000E+00  0.55801276841E+03  0.55801276841E+03  0.00000000000E+00 0.  1.
         -4   -1    0    0    0  501 -0.00000000000E+00 -0.00000000000E+00 -0.40744396826E+02  0.40744396826E+02  0.00000000000E+00 0.  1.
        -24    2    1    2    0    0 -0.41025287745E+02 -0.37887355007E+02  0.86407265591E+02  0.12952424579E+03  0.78687920270E+02 0.  0.
         23    2    1    2    0    0  0.43701372949E+02 -0.11391749251E+02  0.13424412259E+03  0.16853834618E+03  0.91346087682E+02 0.  0.
         13    1    3    3    0    0  0.17256282724E+02 -0.15957901093E+02  0.54935550834E+02  0.59752394480E+02  0.00000000000E+00 0. -1.
        -14    1    3    3    0    0 -0.58281570469E+02 -0.21929453914E+02  0.31471714758E+02  0.69771851309E+02  0.00000000000E+00 0.  1.
        -13    1    4    4    0    0  0.53742968547E+02  0.25217180173E+02  0.56180434508E+02  0.81734044716E+02  0.00000000000E+00 0. -1.
         13    1    4    4    0    0 -0.10041595598E+02 -0.36608929424E+02  0.78063688083E+02  0.86804301465E+02  0.00000000000E+00 0.  1.
         -3    1    1    2    0  502 -0.26760852033E+01  0.49279104258E+02  0.29661698340E+03  0.30069457327E+03  0.00000000000E+00 0.  1.
<scales pt_clust_5="13000.00000" pt_clust_6="13000.00000" pt_clust_7="13000.00000" pt_clust_8="13000.00000" pt_clust_9="49.35171"></scales>
<clustering>
<clus scale="   49.352">  1  9  2 -1</clus>
<clus scale="   78.688">  5  6 -1 -1</clus>
<clus scale="   90.936">  2  5  1 -1</clus>
<clus scale="   91.346">  7  8 -1 -1</clus>
<clus scale="   49.352">  1  5  2 -1</clus>
</clustering>
</event>
<event>
 9    1  0.4664604E-005  0.9793455E+02  0.7546771E-02  0.1288155E+00
          1   -1    0    0  502    0 -0.00000000000E+00  0.00000000000E+00  0.15972202421E+03  0.15972202421E+03  0.00000000000E+00 0. -1.
         21   -1    0    0  501  502  0.00000000000E+00 -0.00000000000E+00 -0.13049461686E+03  0.13049461686E+03  0.00000000000E+00 0. -1.
         23    2    1    2    0    0 -0.37886587451E+02  0.17257589081E+02  0.11024935792E+03  0.14825929196E+03  0.89959317707E+02 0.  0.
        -24    2    1    2    0    0  0.13392812497E+02 -0.27915234814E+02 -0.70035954917E+02  0.11307443850E+03  0.83199554689E+02 0.  0.
         13    1    4    4    0    0 -0.10685840325E+02 -0.32206377988E+02  0.48664120912E+01  0.34280022363E+02  0.00000000000E+00 0. -1.
        -14    1    4    4    0    0  0.24078652823E+02  0.42911431741E+01 -0.74902367009E+02  0.78794416141E+02  0.00000000000E+00 0.  1.
        -11    1    3    3    0    0 -0.27372483006E+02 -0.86934428796E+01 -0.54393555268E+01  0.29230384253E+02  0.00000000000E+00 0.  1.
         11    1    3    3    0    0 -0.10514104445E+02  0.25951031960E+02  0.11568871344E+03  0.11902890771E+03  0.00000000000E+00 0. -1.
          2    1    1    2  501    0  0.24493774954E+02  0.10657645733E+02 -0.10985995652E+02  0.28882910597E+02  0.00000000000E+00 0. -1.
<scales pt_clust_5="13000.00000" pt_clust_6="13000.00000" pt_clust_7="13000.00000" pt_clust_8="13000.00000" pt_clust_9="26.71199"></scales>
<clustering>
<clus scale="   26.712">  2  9  1 -1</clus>
<clus scale="   83.200">  5  6 -1 -1</clus>
<clus scale="   89.959">  7  8 -1 -1</clus>
<clus scale="   91.764">  2  5  1 -1</clus>
<clus scale="   26.712">  2  5  1 -1</clus>
</clustering>
</event>
<event>
 9    1  0.4664604E-005  0.9087328E+02  0.7546771E-02  0.1305567E+00
         21   -1    0    0  501  502  0.00000000000E+00  0.00000000000E+00  0.99943790753E+02  0.99943790753E+02  0.00000000000E+00 0. -1.
         -4   -1    0    0    0  501 -0.00000000000E+00 -0.00000000000E+00 -0.15865783252E+03  0.15865783252E+03  0.00000000000E+00 0.  1.
         23    2    1    2    0    0  0.20127271755E+02  0.11396818188E+02 -0.86136150734E+02  0.12554548830E+03  0.88358579871E+02 0.  0.
        -24    2    1    2    0    0 -0.18650881297E+01 -0.21640866479E+02  0.53951906324E+02  0.99258531150E+02  0.80434085775E+02 0.  0.
         11    1    4    4    0    0 -0.80913805113E+01  0.19775542507E+02  0.53243388950E+02  0.57370732843E+02  0.00000000000E+00 0. -1.
        -12    1    4    4    0    0  0.62262923816E+01 -0.41416408987E+02  0.70851737420E+00  0.41887798307E+02  0.00000000000E+00 0.  1.
        -11    1    3    3    0    0  0.16219894240E+02 -0.19143259936E+02  0.81327770517E+01  0.26375963162E+02  0.00000000000E+00 0. -1.
         11    1    3    3    0    0  0.39073775144E+01  0.30540078124E+02 -0.94268927786E+02  0.99169525141E+02  0.00000000000E+00 0.  1.
         -3    1    1    2    0  502 -0.18262183625E+02  0.10244048291E+02 -0.26529797361E+02  0.33797603823E+02  0.00000000000E+00 0.  1.
<scales pt_clust_5="13000.00000" pt_clust_6="13000.00000" pt_clust_7="13000.00000" pt_clust_8="13000.00000" pt_clust_9="20.93916"></scales>
<clustering>
<clus scale="   20.939">  1  9  2 -1</clus>
<clus scale="   80.434">  5  6 -1 -1</clus>
<clus scale="   83.189">  1  5  2 -1</clus>
<clus scale="   88.359">  7  8 -1 -1</clus>
<clus scale="   20.939">  1  5  2 -1</clus>
</clustering>
</event>
<event>
 9    1  0.4664604E-005  0.1017796E+03  0.7546771E-02  0.1282049E+00
          1   -1    0    0  502    0 -0.00000000000E+00  0.00000000000E+00  0.48016466238E+03  0.48016466238E+03  0.00000000000E+00 0. -1.
         21   -1    0    0  501  502  0.00000000000E+00 -0.00000000000E+00 -0.85520705725E+02  0.85520705725E+02  0.00000000000E+00 0.  1.
         23    2    1    2    0    0  0.94990166589E+01 -0.40340948141E+02  0.37423321463E+03  0.38758633972E+03  0.91951337118E+02 0.  0.
        -24    2    1    2    0    0 -0.33885695061E+02  0.43917192393E+02  0.71584205268E+02  0.12129917851E+03  0.80698402370E+02 0.  0.
         13    1    4    4    0    0 -0.29708158037E+02  0.72861957405E+01  0.78084487966E+02  0.83862092529E+02  0.00000000000E+00 0. -1.
        -14    1    4    4    0    0 -0.41775370243E+01  0.36630996653E+02 -0.65002826987E+01  0.37437085978E+02  0.00000000000E+00 0.  1.
        -11    1    3    3    0    0 -0.30814079929E+02  0.13258253564E+02  0.13786369526E+03  0.14188617720E+03  0.00000000000E+00 0.  1.
         11    1    3    3    0    0  0.40313096588E+02 -0.53599201706E+02  0.23636951937E+03  0.24570016253E+03  0.00000000000E+00 0. -1.
          2    1    1    2  501    0  0.24386678402E+02 -0.35762442520E+01 -0.51173463236E+02  0.56799849876E+02  0.00000000000E+00 0. -1.
<scales pt_clust_5="13000.00000" pt_clust_6="13000.00000" pt_clust_7="13000.00000" pt_clust_8="13000.00000" pt_clust_9="24.64751"></scales>
<clustering>
<clus scale="   24.648">  2  9  1 -1</clus>
<clus scale="   80.698">  5  6 -1 -1</clus>
<clus scale="   91.740">  2  5  1 -1</clus>
<clus scale="   91.951">  7  8 -1 -1</clus>
<clus scale="   24.648">  2  5  1 -1</clus>
</clustering>
</event>
<event>
 9    1  0.4664604E-005  0.1106714E+03  0.7546771E-02  0.1263493E+00
         21   -1    0    0  501  502  0.00000000000E+00  0.00000000000E+00  0.19466468101E+02  0.19466468101E+02  0.00000000000E+00 0.  1.
          1   -1    0    0  502    0 -0.00000000000E+00 -0.00000000000E+00 -0.92269972927E+03  0.92269972927E+03  0.00000000000E+00 0. -1.
         23    2    1    2    0    0 -0.40107424417E+02  0.16201710203E+02 -0.30028752075E+03  0.31713082204E+03  0.92348590993E+02 0.  0.
        -24    2    1    2    0    0  0.76673838202E+02 -0.27417858961E+02 -0.33370716260E+03  0.35309362350E+03  0.81755856839E+02 0.  0.
         13    1    4    4    0    0  0.76565143037E+02 -0.30400164843E+02 -0.33798391135E+03  0.34787859302E+03  0.00000000000E+00 0. -1.
        -14    1    4    4    0    0  0.10869516500E+00  0.29823058815E+01  0.42767487480E+01  0.52150304758E+01  0.00000000000E+00 0.  1.
        -11    1    3    3    0    0 -0.68830702049E+02  0.14017075426E+01 -0.22223863644E+03  0.23265777841E+03  0.00000000000E+00 0. -1.
         11    1    3    3    0    0  0.28723277633E+02  0.14800002661E+02 -0.78048884314E+02  0.84473043626E+02  0.00000000000E+00 0.  1.
          2    1    1    2  501    0 -0.36566413785E+02  0.11216148758E+02 -0.26923857781E+03  0.27194175184E+03  0.00000000000E+00 0. -1.
<scales pt_clust_5="13000.00000" pt_clust_6="13000.00000" pt_clust_7="13000.00000" pt_clust_8="13000.00000" pt_clust_9="38.24796"></scales>
<clustering>
<clus scale="   38.248">  1  9  2 -1</clus>
<clus scale="   81.756">  5  6 -1 -1</clus>
<clus scale="   92.349">  7  8 -1 -1</clus>
<clus scale="  102.000">  1  5  2 -1</clus>
<clus scale="   38.248">  1  5  2 -1</clus>
</clustering>
</event>
<event>
 9    1  0.4664604E-005  0.1020040E+03  0.7546771E-02  0.1290051E+00
         -4   -1    0    0    0  501 -0.00000000000E+00  0.00000000000E+00  0.14972430714E+03  0.14972430714E+03  0.00000000000E+00 0.  1.
         21   -1    0    0  501  502  0.00000000000E+00 -0.00000000000E+00 -0.15962544923E+03  0.15962544923E+03  0.00000000000E+00 0. -1.
         23    2    1    2    0    0  0.42273077398E+02 -0.88521792105E+01  0.94531607153E+02  0.13847226077E+03  0.91503923970E+02 0.  0.
        -24    2    1    2    0    0 -0.58534470096E+02 -0.82055581030E+01 -0.11559648632E+03  0.14480014296E+03  0.64116443903E+02 0.  0.
         11    1    4    4    0    0 -0.59560933715E+02 -0.49853308552E+01 -0.12294952482E+03  0.13670751260E+03  0.00000000000E+00 0. -1.
        -12    1    4    4    0    0  0.10264636190E+01 -0.32202272478E+01  0.73530384940E+01  0.80926303624E+01  0.00000000000E+00 0.  1.
        -11    1    3    3    0    0  0.67853630588E+02 -0.91701644806E+00  0.87595210672E+02  0.11080558215E+03  0.00000000000E+00 0.  1.
         11    1    3    3    0    0 -0.25580553190E+02 -0.79351627625E+01  0.69363964812E+01  0.27666678618E+02  0.00000000000E+00 0. -1.
         -3    1    1    2    0  502  0.16261392698E+02  0.17057737314E+02  0.11163737081E+02  0.26077352633E+02  0.00000000000E+00 0.  1.
<scales pt_clust_5="13000.00000" pt_clust_6="13000.00000" pt_clust_7="13000.00000" pt_clust_8="13000.00000" pt_clust_9="23.56692"></scales>
<clustering>
<clus scale="   23.567">  2  9  1 -1</clus>
<clus scale="   64.116">  5  6 -1 -1</clus>
<clus scale="   78.376">  2  5  1 -1</clus>
<clus scale="   91.504">  7  8 -1 -1</clus>
<clus scale="   23.567">  2  5  1 -1</clus>
</clustering>
</event>
<event>
 9    1  0.4664604E-005  0.9240873E+02  0.7546771E-02  0.1302548E+00
         21   -1    0    0  501  502  0.00000000000E+00  0.00000000000E+00  0.87987687848E+02  0.87987687848E+02  0.00000000000E+00 0. -1.
         -2   -1    0    0    0  501 -0.00000000000E+00 -0.00000000000E+00 -0.15262281421E+03  0.15262281421E+03  0.00000000000E+00 0.  1.
        -24    2    1    2    0    0  0.30942921216E+02 -0.44647694907E+01 -0.87135159055E+02  0.12218335463E+03  0.79742320411E+02 0.  0.
         23    2    1    2    0    0 -0.58287904014E+01 -0.43156290303E+01  0.21640826635E+02  0.91808484804E+02  0.88926222528E+02 0.  0.
         13    1    3    3    0    0  0.80805575524E+01 -0.39199877772E+02 -0.61358527287E+02  0.73258410428E+02  0.00000000000E+00 0. -1.
        -14    1    3    3    0    0  0.22862363664E+02  0.34735108281E+02 -0.25776631768E+02  0.48924944200E+02  0.00000000000E+00 0.  1.
        -11    1    4    4    0    0  0.21484585540E+01 -0.45085898988E+02  0.37524615419E+00  0.45138619511E+02  0.00000000000E+00 0.  1.
         11    1    4    4    0    0 -0.79772489553E+01  0.40770269957E+02  0.21265580481E+02  0.46669865293E+02  0.00000000000E+00 0. -1.
         -1    1    1    2    0  502 -0.25114130815E+02  0.87803985210E+01  0.85920606236E+00  0.26618662623E+02  0.00000000000E+00 0.  1.
<scales pt_clust_5="13000.00000" pt_clust_6="13000.00000" pt_clust_7="13000.00000" pt_clust_8="13000.00000" pt_clust_9="26.60479"></scales>
<clustering>
<clus scale="   26.605">  1  9  2 -1</clus>
<clus scale="   79.742">  5  6 -1 -1</clus>
<clus scale="   83.608">  2  5  1 -1</clus>
<clus scale="   88.926">  7  8 -1 -1</clus>
<clus scale="   26.605">  1  5  2 -1</clus>
</clustering>
</event>
<event>
 9    1  0.4664604E-005  0.2278857E+03  0.7546771E-02  0.1128137E+00
          1   -1    0    0  502    0 -0.00000000000E+00  0.00000000000E+00  0.28676440079E+03  0.28676440079E+03  0.00000000000E+00 0. -1.
         21   -1    0    0  501  502  0.00000000000E+00 -0.00000000000E+00 -0.12421714737E+03  0.12421714737E+03  0.00000000000E+00 0.  1.
        -24    2    1    2    0    0  0.81687115312E+02  0.12449294943E+02  0.38781619456E+01  0.11545234886E+03  0.80538406772E+02 0.  0.
         23    2    1    2    0    0  0.62703363096E+02 -0.12038797030E+02  0.61994885139E+02  0.12176303190E+03  0.83103704947E+02 0.  0.
         13    1    3    3    0    0  0.39940589202E+02 -0.10841058736E+02  0.38423686134E+02  0.56472638299E+02  0.00000000000E+00 0. -1.
        -14    1    3    3    0    0  0.41746526110E+02  0.23290353678E+02 -0.34545524189E+02  0.58979710564E+02  0.00000000000E+00 0.  1.
        -11    1    4    4    0    0  0.56802000486E+02 -0.37942101373E+02  0.18454813864E+02  0.70757688420E+02  0.00000000000E+00 0.  1.
         11    1    4    4    0    0  0.59013626094E+01  0.25903304343E+02  0.43540071275E+02  0.51005343477E+02  0.00000000000E+00 0. -1.
          2    1    1    2  501    0 -0.14439047841E+03 -0.41049791272E+00  0.96674206337E+02  0.17376616740E+03  0.00000000000E+00 0. -1.
<scales pt_clust_5="13000.00000" pt_clust_6="13000.00000" pt_clust_7="13000.00000" pt_clust_8="13000.00000" pt_clust_9="144.39113"></scales>
<clustering>
<clus scale="   80.538">  5  6 -1 -1</clus>
<clus scale="   83.104">  7  8 -1 -1</clus>
<clus scale="   99.218">  5  7 -1 -1</clus>
<clus scale="  144.391">  2  9  1 -1</clus>
<clus scale="  144.391">  2  5  1 -1</clus>
</clustering>
</event>
<event>
 9    1  0.4664604E-005  0.8161908E+02  0.7546771E-02  0.1329337E+00
         21   -1    0    0  501  502  0.00000000000E+00  0.00000000000E+00  0.52189887489E+02  0.52189887489E+02  0.00000000000E+00 0.  1.
          1   -1    0    0  502    0 -0.00000000000E+00 -0.00000000000E+00 -0.64191067014E+03  0.64191067014E+03  0.00000000000E+00 0. -1.
         23    2    1    2    0    0  0.24970861013E+02  0.26194161092E+02 -0.35840603146E+03  0.36762284967E+03  0.73362103572E+02 0.  0.
        -24    2    1    2    0    0  0.31818297193E+02  0.26628692264E+01 -0.24635296054E+03  0.26102631814E+03  0.80158983822E+02 0.  0.
         13    1    4    4    0    0  0.36850847299E+02 -0.21766738761E+02 -0.22227553539E+03  0.22635854191E+03  0.00000000000E+00 0. -1.
        -14    1    4    4    0    0 -0.50325501053E+01  0.24429607987E+02 -0.24077425147E+02  0.34667776229E+02  0.00000000000E+00 0.  1.
        -11    1    3    3    0    0  0.47174247938E+02  0.52375743218E+01 -0.26879314391E+03  0.27295163686E+03  0.00000000000E+00 0.  1.
         11    1    3    3    0    0 -0.22203386925E+02  0.20956586771E+02 -0.89612887554E+02  0.94671212815E+02  0.00000000000E+00 0. -1.
          2    1    1    2  501    0 -0.56789158206E+02 -0.28857030319E+02  0.15038209345E+02  0.65451389817E+02  0.00000000000E+00 0. -1.
<scales pt_clust_5="13000.00000" pt_clust_6="13000.00000" pt_clust_7="13000.00000" pt_clust_8="13000.00000" pt_clust_9="63.70037"></scales>
<clustering>
<clus scale="   63.700">  1  9  2 -1</clus>
<clus scale="   73.362">  7  8 -1 -1</clus>
<clus scale="   74.955">  2  7  1 -1</clus>
<clus scale="   80.159">  5  6 -1 -1</clus>
<clus scale="   63.700">  1  5  2 -1</clus>
</clustering>
</event>
<event>
 9    1  0.4664604E-005  0.2049031E+03  0.7546771E-02  0.1146605E+00
         -2   -1    0    0    0  501 -0.00000000000E+00  0.00000000000E+00  0.16510458979E+03  0.16510458979E+03  0.00000000000E+00 0.  1.
         21   -1    0    0  501  502  0.00000000000E+00 -0.00000000000E+00 -0.31054497914E+03  0.31054497914E+03  0.00000000000E+00 0.  1.
        -24    2    1    2    0    0 -0.16854013693E+03 -0.56712156383E+02 -0.18575964744E+02  0.19579568334E+03  0.79804991777E+02 0.  0.
         23    2    1    2    0    0  0.19243908203E+03  0.32734244432E+02 -0.11485681090E+03  0.24393338133E+03  0.90592916211E+02 0.  0.
         13    1    3    3    0    0 -0.27116288458E+02  0.19864532300E+02  0.19265634771E+01  0.33669042013E+02  0.00000000000E+00 0. -1.
        -14    1    3    3    0    0 -0.14142384847E+03 -0.76576688683E+02 -0.20502528222E+02  0.16212664133E+03  0.00000000000E+00 0.  1.
        -11    1    4    4    0    0  0.15067619027E+03  0.62312681616E+02 -0.97039057168E+02  0.18974394119E+03  0.00000000000E+00 0.  1.
         11    1    4    4    0    0  0.41762891760E+02 -0.29578437184E+02 -0.17817753735E+02  0.54189440139E+02  0.00000000000E+00 0. -1.
         -1    1    1    2    0  502 -0.23898945102E+02  0.23977911951E+02 -0.12007613703E+02  0.35920504247E+02  0.00000000000E+00 0.  1.
<scales pt_clust_5="13000.00000" pt_clust_6="13000.00000" pt_clust_7="13000.00000" pt_clust_8="13000.00000" pt_clust_9="33.85410"></scales>
<clustering>
<clus scale="   33.854">  2  9  1 -1</clus>
<clus scale="   79.805">  5  6 -1 -1</clus>
<clus scale="   90.593">  7  8 -1 -1</clus>
<clus scale="  200.367">  1  5  2 -1</clus>
<clus scale="   33.854">  2  5  1 -1</clus>
</clustering>
</event>
<event>
 9    1  0.4664604E-005  0.1364324E+03  0.7546771E-02  0.1221469E+00
         -2   -1    0    0    0  501 -0.00000000000E+00  0.00000000000E+00  0.10924593125E+03  0.10924593125E+03  0.00000000000E+00 0.  1.
         21   -1    0    0  501  502  0.00000000000E+00 -0.00000000000E+00 -0.29836871291E+03  0.29836871291E+03  0.00000000000E+00 0.  1.
         23    2    1    2    0    0  0.43250771286E+02  0.94184659408E+02 -0.69465873615E+02  0.15577233492E+03  0.93263784200E+02 0.  0.
        -24    2    1    2    0    0 -0.21785592811E+02 -0.91583609678E+02 -0.16245530595E+03  0.20389210371E+03  0.79486438531E+02 0.  0.
         11    1    4    4    0    0  0.19966674842E+02  0.25437169288E+01 -0.23496007458E+02  0.30938664589E+02  0.00000000000E+00 0. -1.
        -12    1    4    4    0    0 -0.41752267654E+02 -0.94127326607E+02 -0.13895929849E+03  0.17295343913E+03  0.00000000000E+00 0.  1.
        -13    1    3    3    0    0  0.24605726424E+02  0.15372325122E+02 -0.68925384469E+02  0.74782743843E+02  0.00000000000E+00 0.  1.
         13    1    3    3    0    0  0.18645044863E+02  0.78812334286E+02 -0.54048914619E+00  0.80989591073E+02  0.00000000000E+00 0. -1.
         -1    1    1    2    0  502 -0.21465178475E+02 -0.26010497299E+01  0.42798397903E+02  0.47950205524E+02  0.00000000000E+00 0.  1.
<scales pt_clust_5="13000.00000" pt_clust_6="13000.00000" pt_clust_7="13000.00000" pt_clust_8="13000.00000" pt_clust_9="21.62221"></scales>
<clustering>
<clus scale="   21.622">  2  9  1 -1</clus>
<clus scale="   79.486">  5  6 -1 -1</clus>
<clus scale="   93.264">  7  8 -1 -1</clus>
<clus scale="  127.412">  2  5  1 -1</clus>
<clus scale="   21.622">  2  5  1 -1</clus>
</clustering>
</event>
<event>
 9    1  0.6567866E-005  0.1011770E+03  0.7546771E-02  0.1283151E+00
         21   -1    0    0  501  502  0.00000000000E+00  0.00000000000E+00  0.46314054642E+03  0.46314054642E+03  0.00000000000E+00 0.  1.
         -4   -1    0    0    0  501 -0.00000000000E+00 -0.00000000000E+00 -0.19334190760E+03  0.19334190760E+03  0.00000000000E+00 0.  1.
        -24    2    1    2    0    0  0.43392200698E+02 -0.71854525296E+01 -0.17347970975E+03  0.19618850692E+03  0.80375411319E+02 0.  0.
         23    2    1    2    0    0 -0.30702756754E+02  0.22696860379E+02  0.30702900086E+03  0.32257862291E+03  0.91281727905E+02 0.  0.
         13    1    3    3    0    0  0.43737366842E+01  0.29987705597E+02 -0.10360299417E+03  0.10794430259E+03  0.00000000000E+00 0. -1.
        -14    1    3    3    0    0  0.39018464014E+02 -0.37173158126E+02 -0.69876715574E+02  0.88244204334E+02  0.00000000000E+00 0.  1.
        -11    1    4    4    0    0 -0.50074252119E+02  0.41220931960E+02  0.26427786376E+03  0.27212016689E+03  0.00000000000E+00 0.  1.
         11    1    4    4    0    0  0.19371495366E+02 -0.18524071581E+02  0.42751137097E+02  0.50458456018E+02  0.00000000000E+00 0. -1.
         -3    1    1    2    0  502 -0.12689443944E+02 -0.15511407850E+02  0.13624934772E+03  0.13771532418E+03  0.00000000000E+00 0.  1.
<scales pt_clust_5="13000.00000" pt_clust_6="13000.00000" pt_clust_7="13000.00000" pt_clust_8="13000.00000" pt_clust_9="20.04060"></scales>
<clustering>
<clus scale="   20.041">  1  9  2 -1</clus>
<clus scale="   80.375">  5  6 -1 -1</clus>
<clus scale="   91.282">  7  8 -1 -1</clus>
<clus scale="   91.458">  2  5  1 -1</clus>
<clus scale="   20.041">  1  5  2 -1</clus>
</clustering>
</event>
<event>
 9    1  0.4664604E-005  0.9290570E+02  0.7546771E-02  0.1301543E+00
          3   -1    0    0  502    0 -0.00000000000E+00  0.00000000000E+00  0.15801359822E+03  0.15801359822E+03  0.00000000000E+00 0. -1.
         21   -1    0    0  501  502  0.00000000000E+00 -0.00000000000E+00 -0.88618918126E+02  0.88618918126E+02  0.00000000000E+00 0. -1.
         23    2    1    2    0    0  0.87913147250E+00 -0.11248402076E+02  0.25153282340E+02  0.94073103106E+02  0.89943102537E+02 0.  0.
        -24    2    1    2    0    0 -0.42074199373E+02  0.17688512838E+02  0.10889513191E+01  0.92554061153E+02  0.80510537706E+02 0.  0.
         13    1    4    4    0    0 -0.39434347838E+02 -0.14489796218E+02 -0.26848525309E+02  0.49858452595E+02  0.00000000000E+00 0. -1.
        -14    1    4    4    0    0 -0.26398515346E+01  0.32178309056E+02  0.27937476628E+02  0.42695608558E+02  0.00000000000E+00 0.  1.
        -11    1    3    3    0    0  0.12204625390E+02 -0.38208735505E+02  0.43800184015E+02  0.59391215424E+02  0.00000000000E+00 0.  1.
         11    1    3    3    0    0 -0.11325493917E+02  0.26960333429E+02 -0.18646901676E+02  0.34681887682E+02  0.00000000000E+00 0. -1.
          4    1    1    2  501    0  0.41195067900E+02 -0.64401107620E+01  0.43152446440E+02  0.60005352092E+02  0.00000000000E+00 0. -1.
<scales pt_clust_5="13000.00000" pt_clust_6="13000.00000" pt_clust_7="13000.00000" pt_clust_8="13000.00000" pt_clust_9="41.69545"></scales>
<clustering>
<clus scale="   41.695">  2  9  1 -1</clus>
<clus scale="   80.511">  5  6 -1 -1</clus>
<clus scale="   83.807">  2  5  1 -1</clus>
<clus scale="   89.943">  7  8 -1 -1</clus>
<clus scale="   41.695">  2  5  1 -1</clus>
</clustering>
</event>
<event>
 9    1  0.4664604E-005  0.1106303E+03  0.7546771E-02  0.1265027E+00
         21   -1    0    0  501  502  0.00000000000E+00  0.00000000000E+00  0.42983016801E+03  0.42983016801E+03  0.00000000000E+00 0.  1.
          1   -1    0    0  502    0 -0.00000000000E+00 -0.00000000000E+00 -0.65584432186E+02  0.65584432186E+02  0.00000000000E+00 0. -1.
         23    2    1    2    0    0 -0.61256945227E+02 -0.12657715329E+02  0.76594749632E+01  0.11245915368E+03  0.93143773776E+02 0.  0.
        -24    2    1    2    0    0  0.37683101065E+02  0.45014523951E+02  0.23052987921E+03  0.25069471710E+03  0.79104314031E+02 0.  0.
         13    1    4    4    0    0 -0.36902946547E+01  0.34860800411E+02  0.31410875750E+02  0.47069489006E+02  0.00000000000E+00 0. -1.
        -14    1    4    4    0    0  0.41373395720E+02  0.10153723540E+02  0.19911900346E+03  0.20362522809E+03  0.00000000000E+00 0.  1.
        -11    1    3    3    0    0 -0.20376985748E+01 -0.37571655695E+02 -0.19883595446E+02  0.42557477545E+02  0.00000000000E+00 0. -1.
         11    1    3    3    0    0 -0.59219246652E+02  0.24913940366E+02  0.27543070409E+02  0.69901676133E+02  0.00000000000E+00 0.  1.
          2    1    1    2  501    0  0.23573844162E+02 -0.32356808622E+02  0.12605638164E+03  0.13226072942E+03  0.00000000000E+00 0. -1.
<scales pt_clust_5="13000.00000" pt_clust_6="13000.00000" pt_clust_7="13000.00000" pt_clust_8="13000.00000" pt_clust_9="40.03360"></scales>
<clustering>
<clus scale="   40.034">  1  9  2 -1</clus>
<clus scale="   79.104">  5  6 -1 -1</clus>
<clus scale="   93.144">  7  8 -1 -1</clus>
<clus scale="   99.100">  1  5  2 -1</clus>
<clus scale="   40.034">  1  5  2 -1</clus>
</clustering>
</event>
<event>
 9    1  0.4664604E-005  0.1389014E+03  0.7546771E-02  0.1216993E+00
         -4   -1    0    0    0  501 -0.00000000000E+00  0.00000000000E+00  0.66274676874E+03  0.66274676874E+03  0.00000000000E+00 0.  1.
         21   -1    0    0  501  502  0.00000000000E+00 -0.00000000000E+00 -0.43992003883E+02  0.43992003883E+02  0.00000000000E+00 0. -1.
        -24    2    1    2    0    0 -0.85012414501E+01 -0.86718152764E+02  0.17846295546E+03  0.21515713818E+03  0.82772329380E+02 0.  0.
         23    2    1    2    0    0  0.53070566699E+02  0.11490355155E+03  0.25862414318E+03  0.30241508770E+03  0.92461487267E+02 0.  0.
         11    1    3    3    0    0  0.17945513950E+02  0.89206534277E+01  0.20928164211E+02  0.28975982912E+02  0.00000000000E+00 0. -1.
        -12    1    3    3    0    0 -0.26446755400E+02 -0.95638806192E+02  0.15753479125E+03  0.18618115526E+03  0.00000000000E+00 0.  1.
        -13    1    4    4    0    0  0.46470240800E+02  0.39791389558E+02  0.19296978814E+03  0.20243561223E+03  0.00000000000E+00 0.  1.
         13    1    4    4    0    0  0.66003258999E+01  0.75112161992E+02  0.65654355037E+02  0.99979475475E+02  0.00000000000E+00 0. -1.
         -3    1    1    2    0  502 -0.44569325249E+02 -0.28185398786E+02  0.18166766622E+03  0.18916654675E+03  0.00000000000E+00 0.  1.
<scales pt_clust_5="13000.00000" pt_clust_6="13000.00000" pt_clust_7="13000.00000" pt_clust_8="13000.00000" pt_clust_9="52.73371"></scales>
<clustering>
<clus scale="   52.734">  2  9  1 -1</clus>
<clus scale="   82.772">  5  6 -1 -1</clus>
<clus scale="   92.461">  7  8 -1 -1</clus>
<clus scale="  132.649">  1  5  2 -1</clus>
<clus scale="   52.734">  2  5  1 -1</clus>
</clustering>
</event>
<event>
 9    1  0.4664604E-005  0.1764208E+03  0.7546771E-02  0.1184802E+00
         21   -1    0    0  501  502  0.00000000000E+00  0.00000000000E+00  0.31200263250E+03  0.31200263250E+03  0.00000000000E+00 0. -1.
          1   -1    0    0  502    0 -0.00000000000E+00 -0.00000000000E+00 -0.19112137604E+03  0.19112137604E+03  0.00000000000E+00 0. -1.
         23    2    1    2    0    0 -0.27801856341E+02 -0.80877940519E+02  0.47327400356E+02  0.13847866483E+03  0.98093186875E+02 0.  0.
        -24    2    1    2    0    0  0.21619332766E+02  0.21095733691E+03  0.37243079645E+02  0.22945161068E+03  0.79313309845E+02 0.  0.
         13    1    4    4    0    0 -0.10296812313E+02  0.13770065032E+03  0.53177987199E+02  0.14797091527E+03  0.00000000000E+00 0. -1.
        -14    1    4    4    0    0  0.31916145078E+02  0.73256686582E+02 -0.15934907555E+02  0.81480695410E+02  0.00000000000E+00 0.  1.
        -13    1    3    3    0    0 -0.47006803604E+02 -0.61841617069E+01  0.38064397455E+02  0.60801166064E+02  0.00000000000E+00 0. -1.
         13    1    3    3    0    0  0.19204947263E+02 -0.74693778812E+02  0.92630029010E+01  0.77677498771E+02  0.00000000000E+00 0.  1.
          2    1    1    2  501    0  0.61825235752E+01 -0.13007939639E+03  0.36310776461E+02  0.13519373302E+03  0.00000000000E+00 0. -1.
<scales pt_clust_5="13000.00000" pt_clust_6="13000.00000" pt_clust_7="13000.00000" pt_clust_8="13000.00000" pt_clust_9="157.58716"></scales>
<clustering>
<clus scale="   79.313">  5  6 -1 -1</clus>
<clus scale="   98.093">  7  8 -1 -1</clus>
<clus scale="  130.140">  2  7  1 -1</clus>
<clus scale="  157.587">  1  9  2 -1</clus>
<clus scale="  157.587">  1  5  2 -1</clus>
</clustering>
</event>
<event>
 9    1  0.4664604E-005  0.1410941E+03  0.7546771E-02  0.1232065E+00
         -4   -1    0    0    0  501 -0.00000000000E+00  0.00000000000E+00  0.56256612211E+03  0.56256612211E+03  0.00000000000E+00 0.  1.
         21   -1    0    0  501  502  0.00000000000E+00 -0.00000000000E+00 -0.31304739316E+03  0.31304739316E+03  0.00000000000E+00 0.  1.
        -24    2    1    2    0    0 -0.11692692586E+02  0.40734385221E+02 -0.12982674282E+03  0.15937827755E+03  0.82161079613E+02 0.  0.
         23    2    1    2    0    0 -0.59964257990E+02 -0.11937024698E+03  0.51725479376E+03  0.54205918194E+03  0.91818663476E+02 0.  0.
         13    1    3    3    0    0  0.25358150056E+02  0.85584550809E+01 -0.78350925809E+01  0.27886763946E+02  0.00000000000E+00 0. -1.
        -14    1    3    3    0    0 -0.37050842641E+02  0.32175930140E+02 -0.12199165024E+03  0.13149151360E+03  0.00000000000E+00 0.  1.
        -13    1    4    4    0    0 -0.44152069285E+02 -0.13288269243E+03  0.47032354803E+03  0.49072543749E+03  0.00000000000E+00 0.  1.
         13    1    4    4    0    0 -0.15812188705E+02  0.13512445453E+02  0.46931245728E+02  0.51333744450E+02  0.00000000000E+00 0. -1.
         -3    1    1    2    0  502  0.71656950576E+02  0.78635861757E+02 -0.13790932198E+03  0.17417605578E+03  0.00000000000E+00 0.  1.
<scales pt_clust_5="13000.00000" pt_clust_6="13000.00000" pt_clust_7="13000.00000" pt_clust_8="13000.00000" pt_clust_9="107.13021"></scales>
<clustering>
<clus scale="   82.161">  5  6 -1 -1</clus>
<clus scale="   91.819">  7  8 -1 -1</clus>
<clus scale="   92.447">  1  5  2 -1</clus>
<clus scale="  107.130">  2  9  1 -1</clus>
<clus scale="  107.130">  2  5  1 -1</clus>
</clustering>
</event>
<event>
 9    1  0.4664604E-005  0.8799658E+02  0.7546771E-02  0.1312325E+00
         21   -1    0    0  501  502  0.00000000000E+00  0.00000000000E+00  0.10174316036E+03  0.10174316036E+03  0.00000000000E+00 0.  1.
         -2   -1    0    0    0  501 -0.00000000000E+00 -0.00000000000E+00 -0.20390119098E+03  0.20390119098E+03  0.00000000000E+00 0.  1.
        -24    2    1    2    0    0 -0.82677200193E+00 -0.68490564886E+01 -0.10508232195E+03  0.13271895111E+03  0.80773959109E+02 0.  0.
         23    2    1    2    0    0  0.40818870778E+01 -0.59559354517E+02  0.64845873273E+01  0.10634200490E+03  0.87764421150E+02 0.  0.
         13    1    3    3    0    0  0.33986481069E+02 -0.79965975022E+01 -0.18763232176E+02  0.39636919012E+02  0.00000000000E+00 0. -1.
        -14    1    3    3    0    0 -0.34813253071E+02  0.11475410136E+01 -0.86319089772E+02  0.93082032095E+02  0.00000000000E+00 0.  1.
        -11    1    4    4    0    0  0.21584622551E+02 -0.69397974466E+02 -0.17806635423E+02  0.74826807066E+02  0.00000000000E+00 0. -1.
         11    1    4    4    0    0 -0.17502735473E+02  0.98386199488E+01  0.24291222750E+02  0.31515197829E+02  0.00000000000E+00 0.  1.
         -1    1    1    2    0  502 -0.32551150759E+01  0.66408411006E+02 -0.35602960002E+01  0.66583395333E+02  0.00000000000E+00 0.  1.
<scales pt_clust_5="13000.00000" pt_clust_6="13000.00000" pt_clust_7="13000.00000" pt_clust_8="13000.00000" pt_clust_9="66.48814"></scales>
<clustering>
<clus scale="   66.488">  1  9  2 -1</clus>
<clus scale="   80.774">  5  6 -1 -1</clus>
<clus scale="   81.026">  2  5  1 -1</clus>
<clus scale="   87.764">  7  8 -1 -1</clus>
<clus scale="   66.488">  1  5  2 -1</clus>
</clustering>
</event>
<event>
 9    1  0.4664604E-005  0.9137574E+02  0.7546771E-02  0.1305249E+00
         21   -1    0    0  501  502  0.00000000000E+00  0.00000000000E+00  0.34305481366E+02  0.34305481366E+02  0.00000000000E+00 0. -1.
          1   -1    0    0  502    0 -0.00000000000E+00 -0.00000000000E+00 -0.34793703114E+03  0.34793703114E+03  0.00000000000E+00 0. -1.
        -24    2    1    2    0    0  0.63257227768E+00 -0.20256538122E+02 -0.15628869415E+03  0.17694962901E+03  0.80462959212E+02 0.  0.
         23    2    1    2    0    0 -0.31000245669E+02 -0.41312464558E+00 -0.10825161498E+03  0.14397909667E+03  0.89723922282E+02 0.  0.
         13    1    3    3    0    0  0.15357323461E+02 -0.46679875161E+02 -0.70115653667E+02  0.85621627046E+02  0.00000000000E+00 0. -1.
        -14    1    3    3    0    0 -0.14724751183E+02  0.26423337039E+02 -0.86173040479E+02  0.91328001966E+02  0.00000000000E+00 0.  1.
        -11    1    4    4    0    0 -0.67459862882E+00  0.38885701057E+02 -0.74226449698E+02  0.83798082704E+02  0.00000000000E+00 0.  1.
         11    1    4    4    0    0 -0.30325647040E+02 -0.39298825702E+02 -0.34025165282E+02  0.60181013970E+02  0.00000000000E+00 0. -1.
          2    1    1    2  501    0  0.30367673391E+02  0.20669662767E+02 -0.49091240653E+02  0.61313786826E+02  0.00000000000E+00 0. -1.
<scales pt_clust_5="13000.00000" pt_clust_6="13000.00000" pt_clust_7="13000.00000" pt_clust_8="13000.00000" pt_clust_9="36.73460"></scales>
<clustering>
<clus scale="   36.735">  1  9  2 -1</clus>
<clus scale="   80.463">  5  6 -1 -1</clus>
<clus scale="   82.301">  2  5  1 -1</clus>
<clus scale="   89.724">  7  8 -1 -1</clus>
<clus scale="   36.735">  1  5  2 -1</clus>
</clustering>
</event>
<event>
 9    1  0.4664604E-005  0.1114110E+03  0.7546771E-02  0.1262796E+00
          1   -1    0    0  502    0 -0.00000000000E+00  0.00000000000E+00  0.28067817004E+03  0.28067817004E+03  0.00000000000E+00 0. -1.
         21   -1    0    0  501  502  0.00000000000E+00 -0.00000000000E+00 -0.87163078192E+02  0.87163078192E+02  0.00000000000E+00 0. -1.
        -24    2    1    2    0    0 -0.16012189857E+02  0.72410189973E+02  0.18815970982E+03  0.21711502595E+03  0.78963486850E+02 0.  0.
         23    2    1    2    0    0  0.27822120721E+02 -0.21264809140E+02  0.25766452433E+00  0.97988084553E+02  0.91516860819E+02 0.  0.
         11    1    3    3    0    0 -0.31969623438E+02  0.27173463852E+01  0.90954946395E+02  0.96448136674E+02  0.00000000000E+00 0. -1.
        -12    1    3    3    0    0  0.15957433581E+02  0.69692843588E+02  0.97204763427E+02  0.12066688927E+03  0.00000000000E+00 0.  1.
        -11    1    4    4    0    0  0.55939815939E+02  0.84327844617E+01 -0.48219713043E+01  0.56776987137E+02  0.00000000000E+00 0. -1.
         11    1    4    4    0    0 -0.28117695218E+02 -0.29697593601E+02  0.50796358287E+01  0.41211097416E+02  0.00000000000E+00 0.  1.
          2    1    1    2  501    0 -0.11809930863E+02 -0.51145380833E+02  0.50977174986E+01  0.52738137730E+02  0.00000000000E+00 0. -1.
<scales pt_clust_5="13000.00000" pt_clust_6="13000.00000" pt_clust_7="13000.00000" pt_clust_8="13000.00000" pt_clust_9="52.49118"></scales>
<clustering>
<clus scale="   52.491">  2  9  1 -1</clus>
<clus scale="   78.963">  5  6 -1 -1</clus>
<clus scale="   91.517">  7  8 -1 -1</clus>
<clus scale="  101.352">  1  5  2 -1</clus>
<clus scale="   52.491">  2  5  1 -1</clus>
</clustering>
</event>
<event>
 9    1  0.4664604E-005  0.1119322E+03  0.7546771E-02  0.1263693E+00
         21   -1    0    0  501  502  0.00000000000E+00  0.00000000000E+00  0.48375255277E+03  0.48375255277E+03  0.00000000000E+00 0. -1.
          1   -1    0    0  502    0 -0.00000000000E+00 -0.00000000000E+00 -0.49446368529E+02  0.49446368529E+02  0.00000000000E+00 0. -1.
         23    2    1    2    0    0 -0.43379698477E+02  0.55168307762E+02  0.37816800243E+02  0.12061629071E+03  0.90514301533E+02 0.  0.
        -24    2    1    2    0    0  0.20794610949E+02 -0.43767882950E+02  0.33116566149E+03  0.34253090266E+03  0.72860692430E+02 0.  0.
         11    1    4    4    0    0  0.36960099654E+02 -0.42854209716E+02  0.31350393645E+03  0.31857063648E+03  0.00000000000E+00 0. -1.
        -12    1    4    4    0    0 -0.16165488705E+02 -0.91367323396E+00  0.17661725037E+02  0.23960266174E+02  0.00000000000E+00 0.  1.
        -11    1    3    3    0    0 -0.42335700066E+02 -0.13885998155E+02  0.74527348086E+01  0.45173838678E+02  0.00000000000E+00 0.  1.
         11    1    3    3    0    0 -0.10439984113E+01  0.69054305917E+02  0.30364065435E+02  0.75442452028E+02  0.00000000000E+00 0. -1.
          2    1    1    2  501    0  0.22585087528E+02 -0.11400424812E+02  0.65323722512E+02  0.70051727940E+02  0.00000000000E+00 0. -1.
<scales pt_clust_5="13000.00000" pt_clust_6="13000.00000" pt_clust_7="13000.00000" pt_clust_8="13000.00000" pt_clust_9="25.29933"></scales>
<clustering>
<clus scale="   25.299">  1  9  2 -1</clus>
<clus scale="   72.861">  5  6 -1 -1</clus>
<clus scale="   90.514">  7  8 -1 -1</clus>
<clus scale="   98.207">  1  5  2 -1</clus>
<clus scale="   25.299">  1  5  2 -1</clus>
</clustering>
</event>
<event>
 9    1  0.4664604E-005  0.2259965E+03  0.7546771E-02  0.1130338E+00
          1   -1    0    0  502    0 -0.00000000000E+00  0.00000000000E+00  0.35695096835E+03  0.35695096835E+03  0.00000000000E+00 0. -1.
         21   -1    0    0  501  502  0.00000000000E+00 -0.00000000000E+00 -0.45637999335E+03  0.45637999335E+03  0.00000000000E+00 0.  1.
         23    2    1    2    0    0  0.20982227516E+03 -0.11977447797E+02  0.28496704277E+03  0.36589026182E+03  0.92198816821E+02 0.  0.
        -24    2    1    2    0    0 -0.17224599780E+03  0.17980222305E+02 -0.32625939565E+03  0.37795773385E+03  0.80092965826E+02 0.  0.
         11    1    4    4    0    0 -0.32532230527E+02  0.31498924891E+02 -0.46201046891E+02  0.64692078542E+02  0.00000000000E+00 0. -1.
        -12    1    4    4    0    0 -0.13971376727E+03 -0.13518702586E+02 -0.28005834876E+03  0.31326565531E+03  0.00000000000E+00 0.  1.
        -11    1    3    3    0    0  0.11502308431E+03 -0.44248878635E+02  0.11470197630E+03  0.16835918910E+03  0.00000000000E+00 0.  1.
         11    1    3    3    0    0  0.94799190843E+02  0.32271430838E+02  0.17026506647E+03  0.19753107273E+03  0.00000000000E+00 0. -1.
          2    1    1    2  501    0 -0.37576277358E+02 -0.60027745080E+01 -0.58136672117E+02  0.69482966018E+02  0.00000000000E+00 0. -1.
<scales pt_clust_5="13000.00000" pt_clust_6="13000.00000" pt_clust_7="13000.00000" pt_clust_8="13000.00000" pt_clust_9="38.05273"></scales>
<clustering>
<clus scale="   38.053">  2  9  1 -1</clus>
<clus scale="   80.093">  5  6 -1 -1</clus>
<clus scale="   92.199">  7  8 -1 -1</clus>
<clus scale="  221.334">  2  5  1 -1</clus>
<clus scale="   38.053">  2  5  1 -1</clus>
</clustering>
</event>
<event>
 9    1  0.4664604E-005  0.1379661E+03  0.7546771E-02  0.1234574E+00
         21   -1    0    0  501  502  0.00000000000E+00  0.00000000000E+00  0.13547137523E+03  0.13547137523E+03  0.00000000000E+00 0. -1.
          1   -1    0    0  502    0 -0.00000000000E+00 -0.00000000000E+00 -0.34097568982E+03  0.34097568982E+03  0.00000000000E+00 0. -1.
         23    2    1    2    0    0 -0.13639616635E+02  0.83085944137E+01 -0.48367441689E+02  0.10563645271E+03  0.92545009817E+02 0.  0.
        -24    2    1    2    0    0 -0.84285690651E+02 -0.64433262148E+02 -0.20794160367E+03  0.24703474715E+03  0.80812949705E+02 0.  0.
         11    1    4    4    0    0 -0.60054230979E+02 -0.78248932397E+02 -0.18938605692E+03  0.21353333378E+03  0.00000000000E+00 0. -1.
        -12    1    4    4    0    0 -0.24231459672E+02  0.13815670249E+02 -0.18555546755E+02  0.33501413368E+02  0.00000000000E+00 0.  1.
        -13    1    3    3    0    0 -0.24558619295E+02  0.46305721095E+02 -0.16790012410E+02  0.55038623752E+02  0.00000000000E+00 0.  1.
         13    1    3    3    0    0  0.10919002660E+02 -0.37997126681E+02 -0.31577429279E+02  0.50597828956E+02  0.00000000000E+00 0. -1.
          2    1    1    2  501    0  0.97925307285E+02  0.56124667734E+02  0.50804730772E+02  0.12377586519E+03  0.00000000000E+00 0. -1.
<scales pt_clust_5="13000.00000" pt_clust_6="13000.00000" pt_clust_7="13000.00000" pt_clust_8="13000.00000" pt_clust_9="111.82084"></scales>
<clustering>
<clus scale="   80.813">  5  6 -1 -1</clus>
<clus scale="   92.545">  7  8 -1 -1</clus>
<clus scale="   93.913">  2  7  1 -1</clus>
<clus scale="  111.821">  1  9  2 -1</clus>
<clus scale="  111.821">  1  5  2 -1</clus>
</clustering>
</event>
<event>
 9    1  0.4664604E-005  0.2512025E+03  0.7546771E-02  0.1113267E+00
          1   -1    0    0  502    0 -0.00000000000E+00  0.00000000000E+00  0.99541816062E+03  0.99541816062E+03  0.00000000000E+00 0. -1.
         21   -1    0    0  501  502  0.00000000000E+00 -0.00000000000E+00 -0.70103717812E+02  0.70103717812E+02  0.00000000000E+00 0.  1.
        -24    2    1    2    0    0 -0.21790790915E+03 -0.47061951290E+02  0.43159643585E+03  0.49219284145E+03  0.79244088792E+02 0.  0.
         23    2    1    2    0    0  0.23704510860E+03  0.65372316931E+02  0.46633939413E+03  0.53523585737E+03  0.92417905003E+02 0.  0.
         11    1    3    3    0    0 -0.21066224483E+02  0.15534834423E+02  0.82641144834E+02  0.86687229244E+02  0.00000000000E+00 0. -1.
        -12    1    3    3    0    0 -0.19684168466E+03 -0.62596785713E+02  0.34895529102E+03  0.40550561221E+03  0.00000000000E+00 0.  1.
        -11    1    4    4    0    0  0.14328812434E+03  0.81833849361E+02  0.32997276396E+03  0.36893128146E+03  0.00000000000E+00 0.  1.
         11    1    4    4    0    0  0.93756984257E+02 -0.16461532430E+02  0.13636663016E+03  0.16630457591E+03  0.00000000000E+00 0. -1.
          2    1    1    2  501    0 -0.19137199450E+02 -0.18310365640E+02  0.27378612825E+02  0.38093179611E+02  0.00000000000E+00 0. -1.
<scales pt_clust_5="13000.00000" pt_clust_6="13000.00000" pt_clust_7="13000.00000" pt_clust_8="13000.00000" pt_clust_9="26.48588"></scales>
<clustering>
<clus scale="   26.486">  2  9  1 -1</clus>
<clus scale="   79.244">  5  6 -1 -1</clus>
<clus scale="   92.418">  7  8 -1 -1</clus>
<clus scale="  246.660">  1  5  2 -1</clus>
<clus scale="   26.486">  2  5  1 -1</clus>
</clustering>
</event>
<event>
 9    1  0.4664604E-005  0.1069663E+03  0.7546771E-02  0.1268623E+00
          3   -1    0    0  502    0 -0.00000000000E+00  0.00000000000E+00  0.43020349350E+02  0.43020349350E+02  0.00000000000E+00 0. -1.
         21   -1    0    0  501  502  0.00000000000E+00 -0.00000000000E+00 -0.54562996995E+03  0.54562996995E+03  0.00000000000E+00 0.  1.
         23    2    1    2    0    0  0.13313184914E+02 -0.52713544327E+02 -0.68342355787E+02  0.12241334416E+03  0.85781061934E+02 0.  0.
        -24    2    1    2    0    0 -0.19201701339E+02  0.85936921742E+02 -0.22684438211E+03  0.25608769557E+03  0.79803974063E+02 0.  0.
         11    1    4    4    0    0 -0.36743956088E+02  0.35781508175E+02 -0.50754354351E+02  0.72155658973E+02  0.00000000000E+00 0. -1.
        -12    1    4    4    0    0  0.17542254749E+02  0.50155413567E+02 -0.17609002776E+03  0.18393203660E+03  0.00000000000E+00 0.  1.
        -11    1    3    3    0    0 -0.31611956519E+02 -0.35667210025E+02 -0.54519076835E+02  0.72414055299E+02  0.00000000000E+00 0.  1.
         11    1    3    3    0    0  0.44925141433E+02 -0.17046334302E+02 -0.13823278953E+02  0.49999288864E+02  0.00000000000E+00 0. -1.
          4    1    1    2  501    0  0.58885164252E+01 -0.33223377415E+02 -0.20742288271E+03  0.21014927957E+03  0.00000000000E+00 0. -1.
<scales pt_clust_5="13000.00000" pt_clust_6="13000.00000" pt_clust_7="13000.00000" pt_clust_8="13000.00000" pt_clust_9="33.74118"></scales>
<clustering>
<clus scale="   33.741">  2  9  1 -1</clus>
<clus scale="   79.804">  5  6 -1 -1</clus>
<clus scale="   85.781">  7  8 -1 -1</clus>
<clus scale="  102.235">  2  5  1 -1</clus>
<clus scale="   33.741">  2  5  1 -1</clus>
</clustering>
</event>
<event>
 9    1  0.4664604E-005  0.1243817E+03  0.7546771E-02  0.1248558E+00
         21   -1    0    0  501  502  0.00000000000E+00  0.00000000000E+00  0.11793022073E+03  0.11793022073E+03  0.00000000000E+00 0. -1.
          1   -1    0    0  502    0 -0.00000000000E+00 -0.00000000000E+00 -0.21600293774E+03  0.21600293774E+03  0.00000000000E+00 0. -1.
         23    2    1    2    0    0 -0.14979015784E+02 -0.25198158007E+02 -0.26824050549E+02  0.10020592506E+03  0.91991193323E+02 0.  0.
        -24    2    1    2    0    0 -0.82737094432E+02  0.38292399288E+02 -0.56232358757E+02  0.13400067302E+03  0.80513151467E+02 0.  0.
         13    1    4    4    0    0 -0.90062232512E+02  0.53383134363E+02 -0.50799682207E+02  0.11636826230E+03  0.00000000000E+00 0. -1.
        -14    1    4    4    0    0  0.73251380807E+01 -0.15090735074E+02 -0.54326765499E+01  0.17632410711E+02  0.00000000000E+00 0.  1.
        -11    1    3    3    0    0 -0.40126765416E+02  0.58425086524E+01 -0.41143995181E+02  0.57767815863E+02  0.00000000000E+00 0.  1.
         11    1    3    3    0    0  0.25147749632E+02 -0.31040666659E+02  0.14319944632E+02  0.42438109200E+02  0.00000000000E+00 0. -1.
          2    1    1    2  501    0  0.97716110216E+02 -0.13094241281E+02 -0.15016307704E+02  0.99726560392E+02  0.00000000000E+00 0. -1.
<scales pt_clust_5="13000.00000" pt_clust_6="13000.00000" pt_clust_7="13000.00000" pt_clust_8="13000.00000" pt_clust_9="94.80733"></scales>
<clustering>
<clus scale="   80.513">  5  6 -1 -1</clus>
<clus scale="   91.991">  7  8 -1 -1</clus>
<clus scale="   96.549">  2  7  1 -1</clus>
<clus scale="   94.807">  1  9  2 -1</clus>
<clus scale="   94.807">  1  5  2 -1</clus>
</clustering>
</event>
<event>
 9    1  0.4664604E-005  0.1180562E+03  0.7546771E-02  0.1246938E+00
         21   -1    0    0  501  502  0.00000000000E+00  0.00000000000E+00  0.38605367455E+03  0.38605367455E+03  0.00000000000E+00 0. -1.
          1   -1    0    0  502    0 -0.00000000000E+00 -0.00000000000E+00 -0.38743592437E+03  0.38743592437E+03  0.00000000000E+00 0. -1.
         23    2    1    2    0    0 -0.68944692044E+02  0.21915171811E+02 -0.33558145791E+03  0.35541514169E+03  0.92040006136E+02 0.  0.
        -24    2    1    2    0    0  0.49944450441E+02  0.54915144581E+01  0.36032217787E+03  0.37571238478E+03  0.93824939919E+02 0.  0.
         13    1    4    4    0    0  0.46730966156E+02 -0.39418238075E+02  0.19410976346E+03  0.20350965815E+03  0.00000000000E+00 0. -1.
        -14    1    4    4    0    0  0.32134842856E+01  0.44909752533E+02  0.16621241441E+03  0.17220272663E+03  0.00000000000E+00 0.  1.
        -13    1    3    3    0    0  0.16169675820E+02 -0.15461116339E+02 -0.43789361278E+02  0.49173292504E+02  0.00000000000E+00 0.  1.
         13    1    3    3    0    0 -0.85114367864E+02  0.37376288151E+02 -0.29179209663E+03  0.30624184918E+03  0.00000000000E+00 0. -1.
          2    1    1    2  501    0  0.19000241603E+02 -0.27406686270E+02 -0.26122969771E+02  0.42362072458E+02  0.00000000000E+00 0. -1.
<scales pt_clust_5="13000.00000" pt_clust_6="13000.00000" pt_clust_7="13000.00000" pt_clust_8="13000.00000" pt_clust_9="33.34871"></scales>
<clustering>
<clus scale="   33.349">  1  9  2 -1</clus>
<clus scale="   92.040">  7  8 -1 -1</clus>
<clus scale="   93.825">  5  6 -1 -1</clus>
<clus scale="  116.643">  2  7  1 -1</clus>
<clus scale="   33.349">  1  5  2 -1</clus>
</clustering>
</event>
<event>
 9    1  0.4664604E-005  0.2110186E+03  0.7546771E-02  0.1141680E+00
          3   -1    0    0  502    0 -0.00000000000E+00  0.00000000000E+00  0.38110831521E+03  0.38110831521E+03  0.00000000000E+00 0. -1.
         21   -1    0    0  501  502  0.00000000000E+00 -0.00000000000E+00 -0.58084918270E+03  0.58084918270E+03  0.00000000000E+00 0. -1.
        -24    2    1    2    0    0  0.17924833216E+03  0.49909823247E+02  0.27811320832E+03  0.34839319042E+03  0.97004656867E+02 0.  0.
         23    2    1    2    0    0 -0.22174160866E+03  0.34583479348E+02 -0.45742652424E+03  0.51680645719E+03  0.86513184315E+02 0.  0.
         11    1    3    3    0    0  0.13042672520E+03  0.58783581221E+02  0.25767917889E+03  0.29472902691E+03  0.00000000000E+00 0. -1.
        -12    1    3    3    0    0  0.48821606967E+02 -0.88737579737E+01  0.20434029422E+02  0.53664163516E+02  0.00000000000E+00 0.  1.
        -11    1    4    4    0    0 -0.17019473882E+02  0.12996556894E+02 -0.87010019620E+01  0.23114506646E+02  0.00000000000E+00 0.  1.
         11    1    4    4    0    0 -0.20472213478E+03  0.21586922454E+02 -0.44872552228E+03  0.49369195055E+03  0.00000000000E+00 0. -1.
          4    1    1    2  501    0  0.42493276503E+02 -0.84493302595E+02 -0.20427551564E+02  0.96757850298E+02  0.00000000000E+00 0. -1.
<scales pt_clust_5="13000.00000" pt_clust_6="13000.00000" pt_clust_7="13000.00000" pt_clust_8="13000.00000" pt_clust_9="94.57694"></scales>
<clustering>
<clus scale="   86.513">  7  8 -1 -1</clus>
<clus scale="   94.577">  2  9  1 -1</clus>
<clus scale="   97.005">  5  6 -1 -1</clus>
<clus scale="  206.406">  2  7  1 -1</clus>
<clus scale="   94.577">  2  5  1 -1</clus>
</clustering>
</event>
<event>
 9    1  0.4664604E-005  0.2293446E+03  0.7546771E-02  0.1127102E+00
         -2   -1    0    0    0  501 -0.00000000000E+00  0.00000000000E+00  0.86450108298E+02  0.86450108298E+02  0.00000000000E+00 0.  1.
         21   -1    0    0  501  502  0.00000000000E+00 -0.00000000000E+00 -0.47357789104E+03  0.47357789104E+03  0.00000000000E+00 0.  1.
        -24    2    1    2    0    0 -0.44490946550E+02  0.67950857202E+01 -0.15073584247E+03  0.17596750920E+03  0.78852093031E+02 0.  0.
         23    2    1    2    0    0 -0.10001510172E+03  0.42180150909E+02 -0.16836957946E+03  0.21700477081E+03  0.83430027941E+02 0.  0.
         11    1    3    3    0    0  0.12354788698E+02 -0.20630385685E+02 -0.66465386485E+02  0.70681689410E+02  0.00000000000E+00 0. -1.
        -12    1    3    3    0    0 -0.56845735248E+02  0.27425471405E+02 -0.84270455984E+02  0.10528581979E+03  0.00000000000E+00 0.  1.
        -11    1    4    4    0    0 -0.52251057936E+02  0.41032166185E+02 -0.34490713677E+02  0.74856002079E+02  0.00000000000E+00 0.  1.
         11    1    4    4    0    0 -0.47764043787E+02  0.11479847235E+01 -0.13387886578E+03  0.14214876873E+03  0.00000000000E+00 0. -1.
         -1    1    1    2    0  502  0.14450604827E+03 -0.48975236629E+02 -0.68022360818E+02  0.16705571933E+03  0.00000000000E+00 0.  1.
<scales pt_clust_5="13000.00000" pt_clust_6="13000.00000" pt_clust_7="13000.00000" pt_clust_8="13000.00000" pt_clust_9="152.57980"></scales>
<clustering>
<clus scale="   78.852">  5  6 -1 -1</clus>
<clus scale="   83.430">  7  8 -1 -1</clus>
<clus scale="   88.132">  5  7 -1 -1</clus>
<clus scale="  152.580">  2  9  1 -1</clus>
<clus scale="  152.580">  2  5  1 -1</clus>
</clustering>
</event>
<event>
 9    1  0.4664604E-005  0.9178325E+02  0.7546771E-02  0.1304551E+00
          1   -1    0    0  502    0 -0.00000000000E+00  0.00000000000E+00  0.16964252703E+03  0.16964252703E+03  0.00000000000E+00 0. -1.
         21   -1    0    0  501  502  0.00000000000E+00 -0.00000000000E+00 -0.85437487983E+02  0.85437487983E+02  0.00000000000E+00 0.  1.
         23    2    1    2    0    0 -0.19096027370E+02  0.10369396159E+02  0.10449669416E+03  0.13975708179E+03  0.90223612115E+02 0.  0.
        -24    2    1    2    0    0 -0.93691483310E+01 -0.18321910430E+02 -0.86087080022E+01  0.83542436620E+02  0.80509350517E+02 0.  0.
         13    1    4    4    0    0  0.10748646097E+02  0.29009850508E+02 -0.86092122444E+01  0.32112666580E+02  0.00000000000E+00 0. -1.
        -14    1    4    4    0    0 -0.20117794428E+02 -0.47331760938E+02  0.50424223948E-03  0.51429770040E+02  0.00000000000E+00 0.  1.
        -11    1    3    3    0    0 -0.48975390805E+01 -0.27993410726E+02  0.96251225406E+00  0.28434896922E+02  0.00000000000E+00 0.  1.
         11    1    3    3    0    0 -0.14198488290E+02  0.38362806885E+02  0.10353418190E+03  0.11132218487E+03  0.00000000000E+00 0. -1.
          2    1    1    2  501    0  0.28465175702E+02  0.79525142706E+01 -0.11682947111E+02  0.31780496600E+02  0.00000000000E+00 0. -1.
<scales pt_clust_5="13000.00000" pt_clust_6="13000.00000" pt_clust_7="13000.00000" pt_clust_8="13000.00000" pt_clust_9="29.55518"></scales>
<clustering>
<clus scale="   29.555">  2  9  1 -1</clus>
<clus scale="   80.509">  5  6 -1 -1</clus>
<clus scale="   82.253">  2  5  1 -1</clus>
<clus scale="   90.224">  7  8 -1 -1</clus>
<clus scale="   29.555">  2  5  1 -1</clus>
</clustering>
</event>
<event>
 9    1  0.4664604E-005  0.9816382E+02  0.7546771E-02  0.1290264E+00
          1   -1    0    0  502    0 -0.00000000000E+00  0.00000000000E+00  0.47284838933E+03  0.47284838933E+03  0.00000000000E+00 0. -1.
         21   -1    0    0  501  502  0.00000000000E+00 -0.00000000000E+00 -0.29252921563E+02  0.29252921563E+02  0.00000000000E+00 0. -1.
         23    2    1    2    0    0  0.43326824014E+02  0.15752355801E+02  0.16656560778E+03  0.19516998110E+03  0.90674524737E+02 0.  0.
        -24    2    1    2    0    0 -0.30347087571E+02  0.59582274615E+00  0.11123956792E+03  0.13983208550E+03  0.79104171410E+02 0.  0.
         13    1    4    4    0    0  0.10265457795E+01 -0.36232581735E+02  0.51031761398E+02  0.62594683854E+02  0.00000000000E+00 0. -1.
        -14    1    4    4    0    0 -0.31373633350E+02  0.36828404481E+02  0.60207806526E+02  0.77237401646E+02  0.00000000000E+00 0.  1.
        -11    1    3    3    0    0 -0.27578540023E+02  0.51075245348E+00  0.31542511229E+02  0.41901870513E+02  0.00000000000E+00 0.  1.
         11    1    3    3    0    0  0.70905364036E+02  0.15241603347E+02  0.13502309655E+03  0.15326811059E+03  0.00000000000E+00 0. -1.
          2    1    1    2  501    0 -0.12979736443E+02 -0.16348178547E+02  0.16579029206E+03  0.16709924429E+03  0.00000000000E+00 0. -1.
<scales pt_clust_5="13000.00000" pt_clust_6="13000.00000" pt_clust_7="13000.00000" pt_clust_8="13000.00000" pt_clust_9="20.87431"></scales>
<clustering>
<clus scale="   20.874">  2  9  1 -1</clus>
<clus scale="   79.104">  5  6 -1 -1</clus>
<clus scale="   87.588">  2  5  1 -1</clus>
<clus scale="   90.675">  7  8 -1 -1</clus>
<clus scale="   20.874">  2  5  1 -1</clus>
</clustering>
</event>
<event>
 9    1  0.4664604E-005  0.2048213E+03  0.7546771E-02  0.1170298E+00
          1   -1    0    0  502    0 -0.00000000000E+00  0.00000000000E+00  0.15108981027E+04  0.15108981027E+04  0.00000000000E+00 0. -1.
         21   -1    0    0  501  502  0.00000000000E+00 -0.00000000000E+00 -0.57225152145E+02  0.57225152145E+02  0.00000000000E+00 0. -1.
        -24    2    1    2    0    0  0.76959522378E+02 -0.28106720665E+02  0.44028867372E+03  0.45515625442E+03  0.81242500598E+02 0.  0.
         23    2    1    2    0    0 -0.15752588352E+03 -0.11300707990E+03  0.23771500676E+03  0.32046030657E+03  0.92743622770E+02 0.  0.
         11    1    3    3    0    0  0.83788753892E+02 -0.45408151047E+02  0.33746656722E+03  0.35066528122E+03  0.00000000000E+00 0. -1.
        -12    1    3    3    0    0 -0.68292315140E+01  0.17301430382E+02  0.10282210650E+03  0.10449097320E+03  0.00000000000E+00 0.  1.
        -13    1    4    4    0    0 -0.60093666820E+02  0.52146785637E+01  0.51396673101E+02  0.79246827509E+02  0.00000000000E+00 0.  1.
         13    1    4    4    0    0 -0.97432216699E+02 -0.11822175846E+03  0.18631833366E+03  0.24121347907E+03  0.00000000000E+00 0. -1.
          2    1    1    2  501    0  0.80566361141E+02  0.14111380056E+03  0.77566927011E+03  0.79250669389E+03  0.00000000000E+00 0. -1.
<scales pt_clust_5="13000.00000" pt_clust_6="13000.00000" pt_clust_7="13000.00000" pt_clust_8="13000.00000" pt_clust_9="182.62101"></scales>
<clustering>
<clus scale="   81.243">  5  6 -1 -1</clus>
<clus scale="   92.744">  7  8 -1 -1</clus>
<clus scale="  115.382">  1  5  2 -1</clus>
<clus scale="  182.621">  2  9  1 -1</clus>
<clus scale="  182.621">  2  5  1 -1</clus>
</clustering>
</event>
<event>
 9    1  0.4664604E-005  0.1043690E+03  0.7546771E-02  0.1273011E+00
          1   -1    0    0  502    0 -0.00000000000E+00  0.00000000000E+00  0.39058967935E+03  0.39058967935E+03  0.00000000000E+00 0. -1.
         21   -1    0    0  501  502  0.00000000000E+00 -0.00000000000E+00 -0.87167085721E+02  0.87167085721E+02  0.00000000000E+00 0. -1.
        -24    2    1    2    0    0 -0.41174913789E+02 -0.34248509589E+02  0.31260850365E+03  0.32826345528E+03  0.84643284357E+02 0.  0.
         23    2    1    2    0    0  0.34221774988E+02  0.66502015347E+02 -0.11350976759E+02  0.11642788545E+03  0.88504010694E+02 0.  0.
         13    1    3    3    0    0 -0.61578661424E+02 -0.41833224560E+02  0.27408762808E+03  0.28401756651E+03  0.00000000000E+00 0. -1.
        -14    1    3    3    0    0  0.20403747635E+02  0.75847149708E+01  0.38520875565E+02  0.44245888770E+02  0.00000000000E+00 0.  1.
        -13    1    4    4    0    0 -0.45883586073E+01 -0.19777262282E+02 -0.78177393700E+01  0.21755693208E+02  0.00000000000E+00 0.  1.
         13    1    4    4    0    0  0.38810133595E+02  0.86279277630E+02 -0.35332373894E+01  0.94672192245E+02  0.00000000000E+00 0. -1.
          2    1    1    2  501    0  0.69531388010E+01 -0.32253505758E+02  0.21650667456E+01  0.33065424342E+02  0.00000000000E+00 0. -1.
<scales pt_clust_5="13000.00000" pt_clust_6="13000.00000" pt_clust_7="13000.00000" pt_clust_8="13000.00000" pt_clust_9="32.99447"></scales>
<clustering>
<clus scale="   32.994">  2  9  1 -1</clus>
<clus scale="   84.643">  5  6 -1 -1</clus>
<clus scale="   88.504">  7  8 -1 -1</clus>
<clus scale="  101.116">  1  5  2 -1</clus>
<clus scale="   32.994">  2  5  1 -1</clus>
</clustering>
</event>
<event>
 9    1  0.4664604E-005  0.1835538E+03  0.7546771E-02  0.1164943E+00
         21   -1    0    0  501  502  0.00000000000E+00  0.00000000000E+00  0.56212690856E+03  0.56212690856E+03  0.00000000000E+00 0.  1.
         -2   -1    0    0    0  501 -0.00000000000E+00 -0.00000000000E+00 -0.99160984115E+02  0.99160984115E+02  0.00000000000E+00 0.  1.
         23    2    1    2    0    0 -0.41513723617E+02 -0.15457638851E+03  0.68284155259E+02  0.19327942465E+03  0.84124675345E+02 0.  0.
        -24    2    1    2    0    0  0.92879824489E+02  0.15099842733E+03  0.34814228236E+03  0.39860240230E+03  0.79079956388E+02 0.  0.
         13    1    4    4    0    0  0.19122273818E+02  0.39535392883E+02  0.29069003815E+02  0.52666076645E+02  0.00000000000E+00 0. -1.
        -14    1    4    4    0    0  0.73757550671E+02  0.11146303445E+03  0.31907327854E+03  0.34593632566E+03  0.00000000000E+00 0.  1.
        -11    1    3    3    0    0 -0.18078699808E+02 -0.85153297862E+02  0.81006061872E+02  0.11891133497E+03  0.00000000000E+00 0. -1.
         11    1    3    3    0    0 -0.23435023809E+02 -0.69423090644E+02 -0.12721906612E+02  0.74368089685E+02  0.00000000000E+00 0.  1.
         -1    1    1    2    0  502 -0.51366100872E+02  0.35779611735E+01  0.46539486833E+02  0.69406065726E+02  0.00000000000E+00 0.  1.
<scales pt_clust_5="13000.00000" pt_clust_6="13000.00000" pt_clust_7="13000.00000" pt_clust_8="13000.00000" pt_clust_9="51.49059"></scales>
<clustering>
<clus scale="   51.491">  1  9  2 -1</clus>
<clus scale="   79.080">  5  6 -1 -1</clus>
<clus scale="   84.125">  7  8 -1 -1</clus>
<clus scale="  181.297">  1  5  2 -1</clus>
<clus scale="   51.491">  1  5  2 -1</clus>
</clustering>
</event>
<event>
 9    1  0.4664604E-005  0.1126699E+03  0.7546771E-02  0.1261563E+00
         21   -1    0    0  501  502  0.00000000000E+00  0.00000000000E+00  0.60631858937E+02  0.60631858937E+02  0.00000000000E+00 0. -1.
          1   -1    0    0  502    0 -0.00000000000E+00 -0.00000000000E+00 -0.72848703341E+03  0.72848703341E+03  0.00000000000E+00 0. -1.
        -24    2    1    2    0    0  0.63488945975E+01  0.57191634608E+02 -0.41564082301E+03  0.42736370920E+03  0.81063275646E+02 0.  0.
         23    2    1    2    0    0  0.13324572053E+02 -0.62992732567E+02 -0.29364100979E+03  0.31552893468E+03  0.95853207642E+02 0.  0.
         13    1    3    3    0    0 -0.28399757164E+01  0.76992086567E+02 -0.34107626749E+03  0.34966965425E+03  0.00000000000E+00 0. -1.
        -14    1    3    3    0    0  0.91888703139E+01 -0.19800451960E+02 -0.74564555520E+02  0.77694054955E+02  0.00000000000E+00 0.  1.
        -11    1    4    4    0    0 -0.25234629680E+02 -0.57065823879E+02 -0.99043237864E+02  0.11705920620E+03  0.00000000000E+00 0.  1.
         11    1    4    4    0    0  0.38559201733E+02 -0.59269086885E+01 -0.19459777193E+03  0.19846972848E+03  0.00000000000E+00 0. -1.
          2    1    1    2  501    0 -0.19673466650E+02  0.58010979597E+01  0.41426658322E+02  0.46226248467E+02  0.00000000000E+00 0. -1.
<scales pt_clust_5="13000.00000" pt_clust_6="13000.00000" pt_clust_7="13000.00000" pt_clust_8="13000.00000" pt_clust_9="20.51092"></scales>
<clustering>
<clus scale="   20.511">  1  9  2 -1</clus>
<clus scale="   81.063">  5  6 -1 -1</clus>
<clus scale="   95.853">  7  8 -1 -1</clus>
<clus scale="  100.389">  2  5  1 -1</clus>
<clus scale="   20.511">  1  5  2 -1</clus>
</clustering>
</event>
<event>
 9    1  0.4664604E-005  0.1708542E+03  0.7546771E-02  0.1178105E+00
          1   -1    0    0  502    0 -0.00000000000E+00  0.00000000000E+00  0.82741624028E+03  0.82741624028E+03  0.00000000000E+00 0. -1.
         21   -1    0    0  501  502  0.00000000000E+00 -0.00000000000E+00 -0.50041760742E+02  0.50041760742E+02  0.00000000000E+00 0.  1.
        -24    2    1    2    0    0 -0.13849958415E+03 -0.88148696081E+00  0.47189081388E+03  0.49860990091E+03  0.82146096893E+02 0.  0.
         23    2    1    2    0    0  0.15636593386E+03 -0.90466106863E+01  0.30901367068E+03  0.35810600498E+03  0.90654926502E+02 0.  0.
         11    1    3    3    0    0 -0.45809980723E+02 -0.39605535755E+02  0.17367416439E+03  0.18392897589E+03  0.00000000000E+00 0. -1.
        -12    1    3    3    0    0 -0.92689603429E+02  0.38724048794E+02  0.29821664949E+03  0.31468092502E+03  0.00000000000E+00 0.  1.
        -11    1    4    4    0    0  0.15335524434E+03  0.16411814603E+02  0.24973168685E+03  0.29351847308E+03  0.00000000000E+00 0. -1.
         11    1    4    4    0    0  0.30106895220E+01 -0.25458425289E+02  0.59281983840E+02  0.64587531905E+02  0.00000000000E+00 0.  1.
          2    1    1    2  501    0 -0.17866349706E+02  0.99280976471E+01 -0.35300050255E+01  0.20742095126E+02  0.00000000000E+00 0. -1.
<scales pt_clust_5="13000.00000" pt_clust_6="13000.00000" pt_clust_7="13000.00000" pt_clust_8="13000.00000" pt_clust_9="20.43951"></scales>
<clustering>
<clus scale="   20.440">  2  9  1 -1</clus>
<clus scale="   82.146">  5  6 -1 -1</clus>
<clus scale="   90.655">  7  8 -1 -1</clus>
<clus scale="  166.496">  1  5  2 -1</clus>
<clus scale="   20.440">  2  5  1 -1</clus>
</clustering>
</event>
<event>
 9    1  0.4664604E-005  0.2043853E+03  0.7546771E-02  0.1167696E+00
          1   -1    0    0  502    0 -0.00000000000E+00  0.00000000000E+00  0.84251809456E+03  0.84251809456E+03  0.00000000000E+00 0. -1.
         21   -1    0    0  501  502  0.00000000000E+00 -0.00000000000E+00 -0.86942911311E+02  0.86942911311E+02  0.00000000000E+00 0. -1.
        -24    2    1    2    0    0  0.65429186576E+02 -0.64530515318E+02  0.91142859801E+02  0.15329435232E+03  0.82139951904E+02 0.  0.
         23    2    1    2    0    0 -0.78323740549E+02  0.21676327545E+03  0.38810980497E+03  0.46042115952E+03  0.90760660532E+02 0.  0.
         13    1    3    3    0    0  0.24421812867E+02 -0.30015375938E+01  0.73174209528E+02  0.77200382847E+02  0.00000000000E+00 0. -1.
        -14    1    3    3    0    0  0.41007373709E+02 -0.61528977724E+02  0.17968650273E+02  0.76093969478E+02  0.00000000000E+00 0.  1.
        -13    1    4    4    0    0 -0.91562815226E+02  0.17308002234E+03  0.34960350235E+03  0.40070319704E+03  0.00000000000E+00 0. -1.
         13    1    4    4    0    0  0.13239074677E+02  0.43683253114E+02  0.38506302623E+02  0.59717962479E+02  0.00000000000E+00 0.  1.
          2    1    1    2  501    0  0.12894553973E+02 -0.15223276014E+03  0.27632251848E+03  0.31574549403E+03  0.00000000000E+00 0. -1.
<scales pt_clust_5="13000.00000" pt_clust_6="13000.00000" pt_clust_7="13000.00000" pt_clust_8="13000.00000" pt_clust_9="183.12795"></scales>
<clustering>
<clus scale="   82.140">  5  6 -1 -1</clus>
<clus scale="   90.761">  7  8 -1 -1</clus>
<clus scale="  123.256">  1  5  2 -1</clus>
<clus scale="  183.128">  2  9  1 -1</clus>
<clus scale="  183.128">  2  5  1 -1</clus>
</clustering>
</event>
<event>
 9    1  0.4664604E-005  0.3099151E+03  0.7546771E-02  0.1080806E+00
          1   -1    0    0  502    0 -0.00000000000E+00  0.00000000000E+00  0.16674345753E+04  0.16674345753E+04  0.00000000000E+00 0. -1.
         21   -1    0    0  501  502  0.00000000000E+00 -0.00000000000E+00 -0.11964470308E+03  0.11964470308E+03  0.00000000000E+00 0. -1.
         23    2    1    2    0    0  0.13404576283E+03  0.26679425646E+03  0.70817254848E+03  0.77408811696E+03  0.92501959900E+02 0.  0.
        -24    2    1    2    0    0 -0.29356604786E+03 -0.15364770110E+03  0.36381514032E+03  0.49856275817E+03  0.80091990853E+02 0.  0.
         11    1    4    4    0    0 -0.23903307228E+03 -0.13232812583E+03  0.24891032391E+03  0.36959963728E+03  0.00000000000E+00 0. -1.
        -12    1    4    4    0    0 -0.54532975582E+02 -0.21319575264E+02  0.11490481641E+03  0.12896312088E+03  0.00000000000E+00 0.  1.
        -13    1    3    3    0    0  0.67075777519E+02  0.21337403997E+03  0.45890870170E+03  0.51051428712E+03  0.00000000000E+00 0. -1.
         13    1    3    3    0    0  0.66969985315E+02  0.53420216494E+02  0.24926384679E+03  0.26357382984E+03  0.00000000000E+00 0.  1.
          2    1    1    2  501    0  0.15952028503E+03 -0.11314655536E+03  0.47580218345E+03  0.51442840328E+03  0.00000000000E+00 0. -1.
<scales pt_clust_5="13000.00000" pt_clust_6="13000.00000" pt_clust_7="13000.00000" pt_clust_8="13000.00000" pt_clust_9="195.57327"></scales>
<clustering>
<clus scale="   80.092">  5  6 -1 -1</clus>
<clus scale="   92.502">  7  8 -1 -1</clus>
<clus scale="  195.573">  2  9  1 -1</clus>
<clus scale="  306.440">  2  5  1 -1</clus>
<clus scale="  195.573">  2  5  1 -1</clus>
</clustering>
</event>
<event>
 9    1  0.4664604E-005  0.1490035E+03  0.7546771E-02  0.1204069E+00
          1   -1    0    0  502    0 -0.00000000000E+00  0.00000000000E+00  0.10236423038E+04  0.10236423038E+04  0.00000000000E+00 0. -1.
         21   -1    0    0  501  502  0.00000000000E+00 -0.00000000000E+00 -0.26414588684E+02  0.26414588684E+02  0.00000000000E+00 0. -1.
        -24    2    1    2    0    0 -0.68410404334E+02 -0.87055247614E+02  0.55438041982E+03  0.57113581066E+03  0.81239551832E+02 0.  0.
         23    2    1    2    0    0  0.63866714137E+02  0.10972631294E+03  0.36280604427E+03  0.39560707226E+03  0.93583700171E+02 0.  0.
         13    1    3    3    0    0 -0.22771167709E+02 -0.49686151001E+02  0.10971370794E+03  0.12257380385E+03  0.00000000000E+00 0. -1.
        -14    1    3    3    0    0 -0.45639236625E+02 -0.37369096613E+02  0.44466671188E+03  0.44856200681E+03  0.00000000000E+00 0.  1.
        -11    1    4    4    0    0  0.33820328256E+02 -0.92207803480E+00  0.15115987487E+03  0.15489987928E+03  0.00000000000E+00 0.  1.
         11    1    4    4    0    0  0.30046385881E+02  0.11064839097E+03  0.21164616940E+03  0.24070719298E+03  0.00000000000E+00 0. -1.
          2    1    1    2  501    0  0.45436901968E+01 -0.22671065322E+02  0.80041250977E+02  0.83314009515E+02  0.00000000000E+00 0. -1.
<scales pt_clust_5="13000.00000" pt_clust_6="13000.00000" pt_clust_7="13000.00000" pt_clust_8="13000.00000" pt_clust_9="23.12191"></scales>
<clustering>
<clus scale="   23.122">  2  9  1 -1</clus>
<clus scale="   81.240">  5  6 -1 -1</clus>
<clus scale="   93.584">  7  8 -1 -1</clus>
<clus scale="  141.577">  1  5  2 -1</clus>
<clus scale="   23.122">  2  5  1 -1</clus>
</clustering>
</event>
<event>
 9    1  0.4664604E-005  0.1046145E+03  0.7546771E-02  0.1278653E+00
         21   -1    0    0  501  502  0.00000000000E+00  0.00000000000E+00  0.40555961606E+03  0.40555961606E+03  0.00000000000E+00 0. -1.
          1   -1    0    0  502    0 -0.00000000000E+00 -0.00000000000E+00 -0.44806151787E+02  0.44806151787E+02  0.00000000000E+00 0. -1.
        -24    2    1    2    0    0 -0.36443627745E+02  0.18259864524E+02  0.12886608540E+03  0.15768992947E+03  0.81228598625E+02 0.  0.
         23    2    1    2    0    0  0.16353064881E+02 -0.39447045305E+02  0.23999098632E+03  0.26237409256E+03  0.97061829847E+02 0.  0.
         11    1    3    3    0    0 -0.36170347439E+02 -0.27002069590E+02  0.56233577829E+02  0.72108398064E+02  0.00000000000E+00 0. -1.
        -12    1    3    3    0    0 -0.27328030591E+00  0.45261934113E+02  0.72632507575E+02  0.85581531410E+02  0.00000000000E+00 0.  1.
        -11    1    4    4    0    0  0.53912730837E+02 -0.19054960099E+02  0.91880078752E+02  0.10822025190E+03  0.00000000000E+00 0. -1.
         11    1    4    4    0    0 -0.37559665956E+02 -0.20392085206E+02  0.14811090757E+03  0.15415384065E+03  0.00000000000E+00 0.  1.
          2    1    1    2  501    0  0.20090562864E+02  0.21187180781E+02 -0.81036074567E+01  0.30301745815E+02  0.00000000000E+00 0. -1.
<scales pt_clust_5="13000.00000" pt_clust_6="13000.00000" pt_clust_7="13000.00000" pt_clust_8="13000.00000" pt_clust_9="29.19809"></scales>
<clustering>
<clus scale="   29.198">  1  9  2 -1</clus>
<clus scale="   81.229">  5  6 -1 -1</clus>
<clus scale="   90.118">  2  5  1 -1</clus>
<clus scale="   97.062">  7  8 -1 -1</clus>
<clus scale="   29.198">  1  5  2 -1</clus>
</clustering>
</event>
<event>
 9    1  0.4664604E-005  0.9595649E+02  0.7546771E-02  0.1295832E+00
          3   -1    0    0  502    0 -0.00000000000E+00  0.00000000000E+00  0.15233356912E+03  0.15233356912E+03  0.00000000000E+00 0. -1.
         21   -1    0    0  501  502  0.00000000000E+00 -0.00000000000E+00 -0.73357182365E+02  0.73357182365E+02  0.00000000000E+00 0.  1.
         23    2    1    2    0    0  0.89709009223E+01  0.18535820941E+02  0.54787274096E+02  0.10813735352E+03  0.90928477952E+02 0.  0.
        -24    2    1    2    0    0 -0.21816972612E+02 -0.39172480601E+02  0.17202571721E+02  0.92261007129E+02  0.78776274552E+02 0.  0.
         13    1    4    4    0    0  0.25806102465E+02  0.17772118995E+01 -0.35582816371E+01  0.26110817199E+02  0.00000000000E+00 0. -1.
        -14    1    4    4    0    0 -0.47623075077E+02 -0.40949692501E+02  0.20760853358E+02  0.66150189930E+02  0.00000000000E+00 0.  1.
        -13    1    3    3    0    0  0.46613752939E+02  0.20818069127E+02  0.47492348699E+02  0.69726301711E+02  0.00000000000E+00 0.  1.
         13    1    3    3    0    0 -0.37642852017E+02 -0.22822481862E+01  0.72949253969E+01  0.38411051812E+02  0.00000000000E+00 0. -1.
          4    1    1    2  501    0  0.12846071689E+02  0.20636659660E+02  0.69865409363E+01  0.25292390833E+02  0.00000000000E+00 0. -1.
<scales pt_clust_5="13000.00000" pt_clust_6="13000.00000" pt_clust_7="13000.00000" pt_clust_8="13000.00000" pt_clust_9="24.30830"></scales>
<clustering>
<clus scale="   24.308">  2  9  1 -1</clus>
<clus scale="   78.776">  5  6 -1 -1</clus>
<clus scale="   84.530">  2  5  1 -1</clus>
<clus scale="   90.928">  7  8 -1 -1</clus>
<clus scale="   24.308">  2  5  1 -1</clus>
</clustering>
</event>
<event>
 9    1  0.4664604E-005  0.1099965E+03  0.7546771E-02  0.1264805E+00
          1   -1    0    0  502    0 -0.00000000000E+00  0.00000000000E+00  0.61354839568E+03  0.61354839568E+03  0.00000000000E+00 0. -1.
         21   -1    0    0  501  502  0.00000000000E+00 -0.00000000000E+00 -0.44359465243E+02  0.44359465243E+02  0.00000000000E+00 0. -1.
        -24    2    1    2    0    0  0.15803571382E+00 -0.62775784188E+02  0.37641319263E+03  0.38963111902E+03  0.78642820845E+02 0.  0.
         23    2    1    2    0    0  0.56687870316E+02  0.60733274897E+02  0.16402995307E+03  0.20454332040E+03  0.89610820180E+02 0.  0.
         11    1    3    3    0    0 -0.19510919230E+02 -0.74464328690E+02  0.26836503554E+03  0.27918704217E+03  0.00000000000E+00 0. -1.
        -12    1    3    3    0    0  0.19668954944E+02  0.11688544502E+02  0.10804815709E+03  0.11044407685E+03  0.00000000000E+00 0.  1.
        -11    1    4    4    0    0 -0.13204979492E+02  0.30553113649E+02  0.13619010702E+02  0.35963060070E+02  0.00000000000E+00 0.  1.
         11    1    4    4    0    0  0.69892849809E+02  0.30180161248E+02  0.15041094237E+03  0.16858026033E+03  0.00000000000E+00 0. -1.
          2    1    1    2  501    0 -0.56845906030E+02  0.20425092912E+01  0.28745784737E+02  0.63733421505E+02  0.00000000000E+00 0. -1.
<scales pt_clust_5="13000.00000" pt_clust_6="13000.00000" pt_clust_7="13000.00000" pt_clust_8="13000.00000" pt_clust_9="56.88259"></scales>
<clustering>
<clus scale="   56.883">  2  9  1 -1</clus>
<clus scale="   78.643">  5  6 -1 -1</clus>
<clus scale="   89.611">  7  8 -1 -1</clus>
<clus scale="  101.261">  1  5  2 -1</clus>
<clus scale="   56.883">  2  5  1 -1</clus>
</clustering>
</event>
<event>
 9    1  0.4664604E-005  0.9006708E+02  0.7546771E-02  0.1307592E+00
          1   -1    0    0  502    0 -0.00000000000E+00  0.00000000000E+00  0.50276337938E+02  0.50276337938E+02  0.00000000000E+00 0. -1.
         21   -1    0    0  501  502  0.00000000000E+00 -0.00000000000E+00 -0.23548281580E+03  0.23548281580E+03  0.00000000000E+00 0.  1.
         23    2    1    2    0    0  0.18954569107E-01 -0.23025987929E+02 -0.24498713397E+02  0.94712974492E+02  0.88544701138E+02 0.  0.
        -24    2    1    2    0    0  0.22107265117E+01  0.29232943798E+01 -0.11006924443E+03  0.13651775110E+03  0.80674809155E+02 0.  0.
         13    1    4    4    0    0 -0.28186570292E+02  0.11501539013E+01 -0.70287258105E+01  0.29072471263E+02  0.00000000000E+00 0. -1.
        -14    1    4    4    0    0  0.30397296804E+02  0.17731404785E+01 -0.10304051862E+03  0.10744527983E+03  0.00000000000E+00 0.  1.
        -13    1    3    3    0    0 -0.75892644712E+00  0.24901308019E+02  0.17933586411E+02  0.30696329292E+02  0.00000000000E+00 0. -1.
         13    1    3    3    0    0  0.77788101623E+00 -0.47927295948E+02 -0.42432299808E+02  0.64016645201E+02  0.00000000000E+00 0.  1.
          2    1    1    2  501    0 -0.22296810808E+01  0.20102693549E+02 -0.50638520031E+02  0.54528428151E+02  0.00000000000E+00 0. -1.
<scales pt_clust_5="13000.00000" pt_clust_6="13000.00000" pt_clust_7="13000.00000" pt_clust_8="13000.00000" pt_clust_9="20.22597"></scales>
<clustering>
<clus scale="   20.226">  2  9  1 -1</clus>
<clus scale="   80.675">  5  6 -1 -1</clus>
<clus scale="   82.343">  2  5  1 -1</clus>
<clus scale="   88.545">  7  8 -1 -1</clus>
<clus scale="   20.226">  2  5  1 -1</clus>
</clustering>
</event>
<event>
 9    1  0.4664604E-005  0.9405654E+02  0.7546771E-02  0.1301484E+00
         21   -1    0    0  501  502  0.00000000000E+00  0.00000000000E+00  0.77136899507E+02  0.77136899507E+02  0.00000000000E+00 0.  1.
          1   -1    0    0  502    0 -0.00000000000E+00 -0.00000000000E+00 -0.22110192263E+03  0.22110192263E+03  0.00000000000E+00 0. -1.
        -24    2    1    2    0    0  0.10078380778E+02  0.32216480386E+02 -0.58706536511E+02  0.10262961099E+03  0.77116173754E+02 0.  0.
         23    2    1    2    0    0  0.73217505563E+01 -0.37223680336E+01  0.12705945194E+02  0.92111825153E+02  0.90860790415E+02 0.  0.
         13    1    3    3    0    0  0.20625871886E+02  0.53927526864E+02 -0.51684991984E+02  0.77491568194E+02  0.00000000000E+00 0. -1.
        -14    1    3    3    0    0 -0.10547491108E+02 -0.21711046478E+02 -0.70215445263E+01  0.25138042792E+02  0.00000000000E+00 0.  1.
        -13    1    4    4    0    0  0.44909877345E+02 -0.20308684245E+02  0.64280386533E+00  0.49292524136E+02  0.00000000000E+00 0.  1.
         13    1    4    4    0    0 -0.37588126788E+02  0.16586316211E+02  0.12063141329E+02  0.42819301017E+02  0.00000000000E+00 0. -1.
          2    1    1    2  501    0 -0.17400131334E+02 -0.28494112352E+02 -0.97964431806E+02  0.10349738600E+03  0.00000000000E+00 0. -1.
<scales pt_clust_5="13000.00000" pt_clust_6="13000.00000" pt_clust_7="13000.00000" pt_clust_8="13000.00000" pt_clust_9="33.38683"></scales>
<clustering>
<clus scale="   33.387">  1  9  2 -1</clus>
<clus scale="   77.116">  5  6 -1 -1</clus>
<clus scale="   80.857">  2  5  1 -1</clus>
<clus scale="   90.861">  7  8 -1 -1</clus>
<clus scale="   33.387">  1  5  2 -1</clus>
</clustering>
</event>
<event>
 9    1  0.4664604E-005  0.1002097E+03  0.7546771E-02  0.1285668E+00
         21   -1    0    0  501  502  0.00000000000E+00  0.00000000000E+00  0.21903894193E+03  0.21903894193E+03  0.00000000000E+00 0.  1.
         -4   -1    0    0    0  501 -0.00000000000E+00 -0.00000000000E+00 -0.20067694952E+03  0.20067694952E+03  0.00000000000E+00 0.  1.
         23    2    1    2    0    0  0.94845238062E+01 -0.46874675923E+02 -0.14942275749E+03  0.18261579808E+03  0.93456823281E+02 0.  0.
        -24    2    1    2    0    0  0.28458955975E+00 -0.31115008363E+01  0.25658433981E+02  0.86123462341E+02  0.82153107687E+02 0.  0.
         13    1    4    4    0    0 -0.33367898939E+02  0.97640450756E+01  0.34545995700E+02  0.49012029898E+02  0.00000000000E+00 0. -1.
        -14    1    4    4    0    0  0.33652488499E+02 -0.12875545912E+02 -0.88875617188E+01  0.37111432443E+02  0.00000000000E+00 0.  1.
        -11    1    3    3    0    0  0.65720000160E+01  0.27987409232E+02 -0.29325751924E+02  0.41066847769E+02  0.00000000000E+00 0. -1.
         11    1    3    3    0    0  0.29125237902E+01 -0.74862085154E+02 -0.12009700557E+03  0.14154895031E+03  0.00000000000E+00 0.  1.
         -3    1    1    2    0  502 -0.97691133660E+01  0.49986176759E+02  0.14212631591E+03  0.15097663103E+03  0.00000000000E+00 0.  1.
<scales pt_clust_5="13000.00000" pt_clust_6="13000.00000" pt_clust_7="13000.00000" pt_clust_8="13000.00000" pt_clust_9="50.93185"></scales>
<clustering>
<clus scale="   50.932">  1  9  2 -1</clus>
<clus scale="   82.153">  5  6 -1 -1</clus>
<clus scale="   89.761">  1  5  2 -1</clus>
<clus scale="   93.457">  7  8 -1 -1</clus>
<clus scale="   50.932">  1  5  2 -1</clus>
</clustering>
</event>
<event>
 9    1  0.4664604E-005  0.9673069E+02  0.7546771E-02  0.1292391E+00
          3   -1    0    0  502    0 -0.00000000000E+00  0.00000000000E+00  0.43702059010E+03  0.43702059010E+03  0.00000000000E+00 0. -1.
         21   -1    0    0  501  502  0.00000000000E+00 -0.00000000000E+00 -0.87545604245E+02  0.87545604245E+02  0.00000000000E+00 0.  1.
         23    2    1    2    0    0  0.13183221580E+02 -0.25108793067E+02  0.34734473477E+03  0.36043841578E+03  0.91995858458E+02 0.  0.
        -24    2    1    2    0    0  0.20285559614E+02  0.47572755011E+02  0.43087169491E+02  0.10666250152E+03  0.82738830710E+02 0.  0.
         11    1    4    4    0    0  0.36744050157E+02 -0.45147631680E+01  0.35895081988E+02  0.51565155088E+02  0.00000000000E+00 0. -1.
        -12    1    4    4    0    0 -0.16458490542E+02  0.52087518179E+02  0.71920875030E+01  0.55097346430E+02  0.00000000000E+00 0.  1.
        -13    1    3    3    0    0  0.28418863200E+02  0.28538633097E+02  0.13366539582E+03  0.13960130159E+03  0.00000000000E+00 0.  1.
         13    1    3    3    0    0 -0.15235641620E+02 -0.53647426163E+02  0.21367933895E+03  0.22083711419E+03  0.00000000000E+00 0. -1.
          4    1    1    2  501    0 -0.33468781194E+02 -0.22463961944E+02 -0.40956918409E+02  0.57465277050E+02  0.00000000000E+00 0. -1.
<scales pt_clust_5="13000.00000" pt_clust_6="13000.00000" pt_clust_7="13000.00000" pt_clust_8="13000.00000" pt_clust_9="40.30867"></scales>
<clustering>
<clus scale="   40.309">  2  9  1 -1</clus>
<clus scale="   82.739">  5  6 -1 -1</clus>
<clus scale="   87.973">  2  5  1 -1</clus>
<clus scale="   91.996">  7  8 -1 -1</clus>
<clus scale="   40.309">  2  5  1 -1</clus>
</clustering>
</event>
<event>
 9    1  0.4664604E-005  0.8848072E+02  0.7546771E-02  0.1311861E+00
          3   -1    0    0  502    0 -0.00000000000E+00  0.00000000000E+00  0.70217321514E+02  0.70217321514E+02  0.00000000000E+00 0. -1.
         21   -1    0    0  501  502  0.00000000000E+00 -0.00000000000E+00 -0.25015745786E+03  0.25015745786E+03  0.00000000000E+00 0.  1.
        -24    2    1    2    0    0 -0.19769079576E+02  0.23116128377E+02  0.78220790970E+01  0.83519128510E+02  0.77389198260E+02 0.  0.
         23    2    1    2    0    0 -0.52586285019E+01 -0.76479223513E+01 -0.58389177812E+02  0.10417922329E+03  0.85778030921E+02 0.  0.
         11    1    3    3    0    0 -0.97747359287E+01  0.44456309819E+02  0.27186308343E+02  0.53018905180E+02  0.00000000000E+00 0. -1.
        -12    1    3    3    0    0 -0.99943436475E+01 -0.21340181442E+02 -0.19364229246E+02  0.30500223330E+02  0.00000000000E+00 0.  1.
        -11    1    4    4    0    0 -0.33428228917E+02 -0.32207932486E-01 -0.66034392480E+02  0.74013434700E+02  0.00000000000E+00 0.  1.
         11    1    4    4    0    0  0.28169600415E+02 -0.76157144188E+01  0.76452146679E+01  0.30165788585E+02  0.00000000000E+00 0. -1.
          4    1    1    2  501    0  0.25027708078E+02 -0.15468206025E+02 -0.12937303763E+03  0.13267642758E+03  0.00000000000E+00 0. -1.
<scales pt_clust_5="13000.00000" pt_clust_6="13000.00000" pt_clust_7="13000.00000" pt_clust_8="13000.00000" pt_clust_9="29.42196"></scales>
<clustering>
<clus scale="   29.422">  2  9  1 -1</clus>
<clus scale="   77.389">  5  6 -1 -1</clus>
<clus scale="   80.374">  1  5  2 -1</clus>
<clus scale="   85.778">  7  8 -1 -1</clus>
<clus scale="   29.422">  2  5  1 -1</clus>
</clustering>
</event>
<event>
 9    1  0.4664604E-005  0.1044200E+03  0.7546771E-02  0.1285253E+00
         21   -1    0    0  501  502  0.00000000000E+00  0.00000000000E+00  0.17698969699E+03  0.17698969699E+03  0.00000000000E+00 0. -1.
         -2   -1    0    0    0  501 -0.00000000000E+00 -0.00000000000E+00 -0.84762982138E+02  0.84762982138E+02  0.00000000000E+00 0.  1.
         23    2    1    2    0    0  0.21206642740E+01 -0.15085363804E+02 -0.16180870468E+02  0.10610200713E+03  0.10374849363E+03 0.  0.
        -24    2    1    2    0    0 -0.21237409514E+02 -0.54865183032E+01  0.68748877097E+02  0.10705576054E+03  0.79078431424E+02 0.  0.
         11    1    4    4    0    0  0.16367515270E+02 -0.23335941527E+02  0.22361717528E+01  0.28591295654E+02  0.00000000000E+00 0. -1.
        -12    1    4    4    0    0 -0.37604924783E+02  0.17849423224E+02  0.66512705345E+02  0.78464464885E+02  0.00000000000E+00 0.  1.
        -11    1    3    3    0    0 -0.50486539720E+02 -0.26512818752E+01 -0.11466507636E+02  0.51840146468E+02  0.00000000000E+00 0. -1.
         11    1    3    3    0    0  0.52607203994E+02 -0.12434081929E+02 -0.47143628323E+01  0.54261860661E+02  0.00000000000E+00 0.  1.
         -1    1    1    2    0  502  0.19116745240E+02  0.20571882107E+02  0.39658708226E+02  0.48594911463E+02  0.00000000000E+00 0.  1.
<scales pt_clust_5="13000.00000" pt_clust_6="13000.00000" pt_clust_7="13000.00000" pt_clust_8="13000.00000" pt_clust_9="28.08295"></scales>
<clustering>
<clus scale="   28.083">  1  9  2 -1</clus>
<clus scale="   79.078">  5  6 -1 -1</clus>
<clus scale="   79.957">  1  5  2 -1</clus>
<clus scale="  103.748">  7  8 -1 -1</clus>
<clus scale="   28.083">  1  5  2 -1</clus>
</clustering>
</event>
<event>
 9    1  0.4664604E-005  0.9594046E+02  0.7546771E-02  0.1292363E+00
         21   -1    0    0  501  502  0.00000000000E+00  0.00000000000E+00  0.11647141684E+03  0.11647141684E+03  0.00000000000E+00 0.  1.
         -2   -1    0    0    0  501 -0.00000000000E+00 -0.00000000000E+00 -0.28973769529E+03  0.28973769529E+03  0.00000000000E+00 0.  1.
         23    2    1    2    0    0 -0.56494024852E+02  0.28009648869E+02 -0.18662387357E+03  0.21552444360E+03  0.87442554443E+02 0.  0.
        -24    2    1    2    0    0  0.34903454641E+01  0.32270136894E+02 -0.38124911518E+02  0.95324870451E+02  0.81115829539E+02 0.  0.
         11    1    4    4    0    0 -0.15048067687E+02  0.26779641527E+02 -0.59218146936E+02  0.66711186978E+02  0.00000000000E+00 0. -1.
        -12    1    4    4    0    0  0.18538413152E+02  0.54904953663E+01  0.21093235418E+02  0.28613683474E+02  0.00000000000E+00 0.  1.
        -11    1    3    3    0    0 -0.79305119583E+02  0.30214592515E+02 -0.14876159621E+03  0.17126656445E+03  0.00000000000E+00 0. -1.
         11    1    3    3    0    0  0.22811094731E+02 -0.22049436452E+01 -0.37862277365E+02  0.44257879147E+02  0.00000000000E+00 0.  1.
         -1    1    1    2    0  502  0.53003679388E+02 -0.60279785763E+02  0.51482506636E+02  0.95359798079E+02  0.00000000000E+00 0.  1.
<scales pt_clust_5="13000.00000" pt_clust_6="13000.00000" pt_clust_7="13000.00000" pt_clust_8="13000.00000" pt_clust_9="80.26857"></scales>
<clustering>
<clus scale="   80.269">  1  9  2 -1</clus>
<clus scale="   81.116">  5  6 -1 -1</clus>
<clus scale="   87.443">  7  8 -1 -1</clus>
<clus scale="   90.212">  1  5  2 -1</clus>
<clus scale="   80.269">  1  5  2 -1</clus>
</clustering>
</event>
<event>
 9    1  0.4664604E-005  0.1007278E+03  0.7546771E-02  0.1290581E+00
         21   -1    0    0  501  502  0.00000000000E+00  0.00000000000E+00  0.55440605224E+02  0.55440605224E+02  0.00000000000E+00 0.  1.
          1   -1    0    0  502    0 -0.00000000000E+00 -0.00000000000E+00 -0.21682619731E+03  0.21682619731E+03  0.00000000000E+00 0. -1.
        -24    2    1    2    0    0 -0.11664915389E+02  0.17492702261E+02 -0.11454837960E+03  0.14082860050E+03  0.79178902271E+02 0.  0.
         23    2    1    2    0    0 -0.59100887726E+01 -0.26649287760E+01 -0.38341641528E+02  0.10692456576E+03  0.99602963276E+02 0.  0.
         11    1    3    3    0    0 -0.28585218756E+02 -0.23190553171E+02 -0.41064286386E+02  0.55147004489E+02  0.00000000000E+00 0. -1.
        -12    1    3    3    0    0  0.16920303367E+02  0.40683255432E+02 -0.73484093215E+02  0.85681596006E+02  0.00000000000E+00 0.  1.
        -11    1    4    4    0    0 -0.66565190015E+01 -0.28110506224E+02  0.25287368704E+02  0.38392197402E+02  0.00000000000E+00 0.  1.
         11    1    4    4    0    0  0.74643022886E+00  0.25445577448E+02 -0.63629010232E+02  0.68532368358E+02  0.00000000000E+00 0. -1.
          2    1    1    2  501    0  0.17575004162E+02 -0.14827773485E+02 -0.84955709601E+01  0.24513636282E+02  0.00000000000E+00 0. -1.
<scales pt_clust_5="13000.00000" pt_clust_6="13000.00000" pt_clust_7="13000.00000" pt_clust_8="13000.00000" pt_clust_9="22.99443"></scales>
<clustering>
<clus scale="   22.994">  1  9  2 -1</clus>
<clus scale="   79.179">  5  6 -1 -1</clus>
<clus scale="   80.589">  2  5  1 -1</clus>
<clus scale="   99.603">  7  8 -1 -1</clus>
<clus scale="   22.994">  1  5  2 -1</clus>
</clustering>
</event>
<event>
 9    1  0.4664604E-005  0.9498640E+02  0.7546771E-02  0.1297475E+00
         21   -1    0    0  501  502  0.00000000000E+00  0.00000000000E+00  0.10109161724E+03  0.10109161724E+03  0.00000000000E+00 0. -1.
          1   -1    0    0  502    0 -0.00000000000E+00 -0.00000000000E+00 -0.40622636911E+03  0.40622636911E+03  0.00000000000E+00 0. -1.
         23    2    1    2    0    0 -0.22908401262E+02  0.78043034462E+01 -0.21887287192E+03  0.23858086830E+03  0.91813913188E+02 0.  0.
        -24    2    1    2    0    0  0.12107142894E+01 -0.35466731598E+02 -0.16238807822E+03  0.18488488128E+03  0.80951692384E+02 0.  0.
         11    1    4    4    0    0 -0.69038907655E+01 -0.45507405008E+02 -0.16535239343E+03  0.17163916112E+03  0.00000000000E+00 0. -1.
        -12    1    4    4    0    0  0.81146050549E+01  0.10040673410E+02  0.29643152154E+01  0.13245720155E+02  0.00000000000E+00 0.  1.
        -11    1    3    3    0    0 -0.40007814308E+02  0.41081624971E+02 -0.13978505411E+03  0.15108999460E+03  0.00000000000E+00 0. -1.
         11    1    3    3    0    0  0.17099413047E+02 -0.33277321525E+02 -0.79087817809E+02  0.87490873697E+02  0.00000000000E+00 0.  1.
          2    1    1    2  501    0  0.21697686972E+02  0.27662428152E+02  0.76126198255E+02  0.83852236774E+02  0.00000000000E+00 0. -1.
<scales pt_clust_5="13000.00000" pt_clust_6="13000.00000" pt_clust_7="13000.00000" pt_clust_8="13000.00000" pt_clust_9="35.15679"></scales>
<clustering>
<clus scale="   35.157">  1  9  2 -1</clus>
<clus scale="   80.952">  5  6 -1 -1</clus>
<clus scale="   84.533">  1  5  2 -1</clus>
<clus scale="   91.814">  7  8 -1 -1</clus>
<clus scale="   35.157">  1  5  2 -1</clus>
</clustering>
</event>
<event>
 9    1  0.4664604E-005  0.1300566E+03  0.7546771E-02  0.1242595E+00
         21   -1    0    0  501  502  0.00000000000E+00  0.00000000000E+00  0.44174670273E+02  0.44174670273E+02  0.00000000000E+00 0. -1.
          3   -1    0    0  502    0 -0.00000000000E+00 -0.00000000000E+00 -0.11017989450E+04  0.11017989450E+04  0.00000000000E+00 0. -1.
         23    2    1    2    0    0 -0.18993039441E+02 -0.21028664876E+02 -0.42825543810E+02  0.10440913121E+03  0.90908190960E+02 0.  0.
        -24    2    1    2    0    0 -0.47288958761E+02  0.96266286037E+02 -0.54358077769E+03  0.55979652916E+03  0.79929023152E+02 0.  0.
         13    1    4    4    0    0 -0.69306924947E+02  0.78680963528E+02 -0.40281110923E+03  0.41623422924E+03  0.00000000000E+00 0. -1.
        -14    1    4    4    0    0  0.22017966186E+02  0.17585322508E+02 -0.14076966846E+03  0.14356229992E+03  0.00000000000E+00 0.  1.
        -13    1    3    3    0    0 -0.31914860728E+00  0.31710814193E+02 -0.36111960168E+02  0.48059871617E+02  0.00000000000E+00 0.  1.
         13    1    3    3    0    0 -0.18673890834E+02 -0.52739479069E+02 -0.67135836419E+01  0.56349259593E+02  0.00000000000E+00 0. -1.
          4    1    1    2  501    0  0.66281998203E+02 -0.75237621161E+02 -0.47121795322E+03  0.48176795489E+03  0.00000000000E+00 0. -1.
<scales pt_clust_5="13000.00000" pt_clust_6="13000.00000" pt_clust_7="13000.00000" pt_clust_8="13000.00000" pt_clust_9="102.59664"></scales>
<clustering>
<clus scale="   79.929">  5  6 -1 -1</clus>
<clus scale="   90.908">  7  8 -1 -1</clus>
<clus scale="   95.222">  2  7  1 -1</clus>
<clus scale="  102.597">  1  9  2 -1</clus>
<clus scale="  102.597">  1  5  2 -1</clus>
</clustering>
</event>
<event>
 9    1  0.4664604E-005  0.2894378E+03  0.7546771E-02  0.1091012E+00
         21   -1    0    0  501  502  0.00000000000E+00  0.00000000000E+00  0.48225058149E+03  0.48225058149E+03  0.00000000000E+00 0. -1.
          1   -1    0    0  502    0 -0.00000000000E+00 -0.00000000000E+00 -0.33270736101E+03  0.33270736101E+03  0.00000000000E+00 0. -1.
        -24    2    1    2    0    0  0.32450305525E+03 -0.61670221294E+02 -0.68689710665E+02  0.34676149182E+03  0.80123696838E+02 0.  0.
         23    2    1    2    0    0 -0.18553439153E+03 -0.46609671209E+02  0.20028898213E+03  0.29111226188E+03  0.89639281368E+02 0.  0.
         13    1    3    3    0    0  0.26291228188E+03 -0.16392597778E+02 -0.54976999464E+02  0.26909859846E+03  0.00000000000E+00 0. -1.
        -14    1    3    3    0    0  0.61590773373E+02 -0.45277623516E+02 -0.13712711201E+02  0.77662893356E+02  0.00000000000E+00 0.  1.
        -11    1    4    4    0    0 -0.97823860876E+02 -0.32721693727E+02  0.16697210017E+03  0.19626487009E+03  0.00000000000E+00 0. -1.
         11    1    4    4    0    0 -0.87710530653E+02 -0.13887977482E+02  0.33316881966E+02  0.94847391793E+02  0.00000000000E+00 0.  1.
          2    1    1    2  501    0 -0.13896866372E+03  0.10827989250E+03  0.17943949013E+02  0.17708418880E+03  0.00000000000E+00 0. -1.
<scales pt_clust_5="13000.00000" pt_clust_6="13000.00000" pt_clust_7="13000.00000" pt_clust_8="13000.00000" pt_clust_9="176.17280"></scales>
<clustering>
<clus scale="   80.124">  5  6 -1 -1</clus>
<clus scale="   89.639">  7  8 -1 -1</clus>
<clus scale="  176.173">  1  9  2 -1</clus>
<clus scale="  286.634">  2  5  1 -1</clus>
<clus scale="  176.173">  1  5  2 -1</clus>
</clustering>
</event>
<event>
 9    1  0.4664604E-005  0.1027667E+03  0.7546771E-02  0.1281846E+00
          1   -1    0    0  502    0 -0.00000000000E+00  0.00000000000E+00  0.17641497628E+03  0.17641497628E+03  0.00000000000E+00 0. -1.
         21   -1    0    0  501  502  0.00000000000E+00 -0.00000000000E+00 -0.53931229897E+03  0.53931229897E+03  0.00000000000E+00 0. -1.
         23    2    1    2    0    0  0.36293824094E+02 -0.19676100381E+02  0.13615720074E+03  0.17246346803E+03  0.97470374473E+02 0.  0.
        -24    2    1    2    0    0  0.18418277737E+02  0.93114625469E+01 -0.70437469645E+02  0.11104462832E+03  0.83327882849E+02 0.  0.
         11    1    4    4    0    0 -0.24825945075E+00 -0.35924332910E+02 -0.21654097490E+02  0.41946624011E+02  0.00000000000E+00 0. -1.
        -12    1    4    4    0    0  0.18666537188E+02  0.45235795457E+02 -0.48783372155E+02  0.69098004313E+02  0.00000000000E+00 0.  1.
        -13    1    3    3    0    0 -0.23954564262E+02 -0.16607339312E+02  0.70967095667E+01  0.29999802577E+02  0.00000000000E+00 0.  1.
         13    1    3    3    0    0  0.60248388356E+02 -0.30687610687E+01  0.12906049117E+03  0.14246366546E+03  0.00000000000E+00 0. -1.
          2    1    1    2  501    0 -0.54712101831E+02  0.10364637834E+02 -0.42861705378E+03  0.43221917889E+03  0.00000000000E+00 0. -1.
<scales pt_clust_5="13000.00000" pt_clust_6="13000.00000" pt_clust_7="13000.00000" pt_clust_8="13000.00000" pt_clust_9="55.68518"></scales>
<clustering>
<clus scale="   55.685">  2  9  1 -1</clus>
<clus scale="   83.328">  5  6 -1 -1</clus>
<clus scale="   89.465">  2  5  1 -1</clus>
<clus scale="   97.470">  7  8 -1 -1</clus>
<clus scale="   55.685">  2  5  1 -1</clus>
</clustering>
</event>
<event>
 9    1  0.4664604E-005  0.1422951E+03  0.7546771E-02  0.1227485E+00
          1   -1    0    0  502    0 -0.00000000000E+00  0.00000000000E+00  0.31750024155E+03  0.31750024155E+03  0.00000000000E+00 0. -1.
         21   -1    0    0  501  502  0.00000000000E+00 -0.00000000000E+00 -0.19441618968E+03  0.19441618968E+03  0.00000000000E+00 0. -1.
         23    2    1    2    0    0  0.39517358848E+02  0.11684716849E+01  0.21811262937E+03  0.23955752520E+03  0.90838878304E+02 0.  0.
        -24    2    1    2    0    0  0.67416433198E+01  0.10495032311E+03 -0.57038601405E+02  0.15052158755E+03  0.91341809668E+02 0.  0.
         13    1    4    4    0    0  0.39659907829E+01  0.10902988166E+03 -0.17284761816E+02  0.11046269582E+03  0.00000000000E+00 0. -1.
        -14    1    4    4    0    0  0.27756525369E+01 -0.40795585438E+01 -0.39753839588E+02  0.40058891734E+02  0.00000000000E+00 0.  1.
        -11    1    3    3    0    0  0.60351344129E+02  0.24913073340E+02  0.16888271819E+03  0.18106440419E+03  0.00000000000E+00 0. -1.
         11    1    3    3    0    0 -0.20833985281E+02 -0.23744601655E+02  0.49229911185E+02  0.58493121012E+02  0.00000000000E+00 0.  1.
          2    1    1    2  501    0 -0.46259002168E+02 -0.10611879480E+03 -0.37989976101E+02  0.12183731848E+03  0.00000000000E+00 0. -1.
<scales pt_clust_5="13000.00000" pt_clust_6="13000.00000" pt_clust_7="13000.00000" pt_clust_8="13000.00000" pt_clust_9="109.10811"></scales>
<clustering>
<clus scale="   90.839">  7  8 -1 -1</clus>
<clus scale="   91.342">  5  6 -1 -1</clus>
<clus scale="   99.069">  1  7  2 -1</clus>
<clus scale="  109.108">  2  9  1 -1</clus>
<clus scale="  109.108">  2  5  1 -1</clus>
</clustering>
</event>
<event>
 9    1  0.4664604E-005  0.2225411E+03  0.7546771E-02  0.1132904E+00
         21   -1    0    0  501  502  0.00000000000E+00  0.00000000000E+00  0.10296575227E+03  0.10296575227E+03  0.00000000000E+00 0.  1.
          1   -1    0    0  502    0 -0.00000000000E+00 -0.00000000000E+00 -0.11653025565E+04  0.11653025565E+04  0.00000000000E+00 0. -1.
         23    2    1    2    0    0 -0.54832290769E+02  0.19622824402E+03 -0.94119905186E+03  0.96739319856E+03  0.92096913789E+02 0.  0.
        -24    2    1    2    0    0  0.83644818556E+02 -0.18128245765E+03 -0.14611771829E+03  0.25991736381E+03  0.79667203335E+02 0.  0.
         11    1    4    4    0    0  0.35806930366E+02 -0.10530907941E+03 -0.12569632986E+03  0.16784429037E+03  0.00000000000E+00 0. -1.
        -12    1    4    4    0    0  0.47837888190E+02 -0.75973378237E+02 -0.20421388433E+02  0.92073073441E+02  0.00000000000E+00 0.  1.
        -11    1    3    3    0    0 -0.13910991831E+02  0.46193229347E+02 -0.90097835532E+02  0.10220053864E+03  0.00000000000E+00 0.  1.
         11    1    3    3    0    0 -0.40921298938E+02  0.15003501468E+03 -0.85110121633E+03  0.86519265992E+03  0.00000000000E+00 0. -1.
          2    1    1    2  501    0 -0.28812527787E+02 -0.14945786373E+02  0.24979965964E+02  0.40957746366E+02  0.00000000000E+00 0. -1.
<scales pt_clust_5="13000.00000" pt_clust_6="13000.00000" pt_clust_7="13000.00000" pt_clust_8="13000.00000" pt_clust_9="32.45825"></scales>
<clustering>
<clus scale="   32.458">  1  9  2 -1</clus>
<clus scale="   79.667">  5  6 -1 -1</clus>
<clus scale="   92.097">  7  8 -1 -1</clus>
<clus scale="  217.691">  1  5  2 -1</clus>
<clus scale="   32.458">  1  5  2 -1</clus>
</clustering>
</event>
<event>
 9    1  0.1093704E-004  0.1291819E+03  0.7546771E-02  0.1261373E+00
         -2   -1    0    0    0  501 -0.00000000000E+00  0.00000000000E+00  0.63984903998E+03  0.63984903998E+03  0.00000000000E+00 0.  1.
         21   -1    0    0  501  502  0.00000000000E+00 -0.00000000000E+00 -0.19762939226E+03  0.19762939226E+03  0.00000000000E+00 0.  1.
        -24    2    1    2    0    0  0.24841470149E+02 -0.33632327898E+01  0.42484017916E+03  0.43006797220E+03  0.61974776414E+02 0.  0.
         23    2    1    2    0    0 -0.12745723587E+02  0.71940636954E+02  0.18452419160E+03  0.22633996027E+03  0.10882413157E+03 0.  0.
         11    1    3    3    0    0  0.30037678778E+02 -0.26419901661E+02  0.19805872867E+03  0.20205824248E+03  0.00000000000E+00 0. -1.
        -12    1    3    3    0    0 -0.51962086287E+01  0.23056668871E+02  0.22678145048E+03  0.22800972972E+03  0.00000000000E+00 0.  1.
        -11    1    4    4    0    0  0.43873624172E+02  0.48469616748E+02  0.12412299236E+03  0.14028797482E+03  0.00000000000E+00 0.  1.
         11    1    4    4    0    0 -0.56619347758E+02  0.23471020206E+02  0.60401199240E+02  0.86051985449E+02  0.00000000000E+00 0. -1.
         -1    1    1    2    0  502 -0.12095746563E+02 -0.68577404164E+02 -0.16714472304E+03  0.18107049977E+03  0.00000000000E+00 0.  1.
<scales pt_clust_5="13000.00000" pt_clust_6="13000.00000" pt_clust_7="13000.00000" pt_clust_8="13000.00000" pt_clust_9="69.60793"></scales>
<clustering>
<clus scale="   61.975">  5  6 -1 -1</clus>
<clus scale="   66.853">  1  5  2 -1</clus>
<clus scale="   69.608">  2  9  1 -1</clus>
<clus scale="  108.824">  7  8 -1 -1</clus>
<clus scale="   69.608">  2  5  1 -1</clus>
</clustering>
</event>
<event>
 9    1  0.4664604E-005  0.3102663E+03  0.7546771E-02  0.1111239E+00
          1   -1    0    0  502    0 -0.00000000000E+00  0.00000000000E+00  0.38732990647E+03  0.38732990647E+03  0.00000000000E+00 0. -1.
         21   -1    0    0  501  502  0.00000000000E+00 -0.00000000000E+00 -0.97193037696E+03  0.97193037696E+03  0.00000000000E+00 0. -1.
         23    2    1    2    0    0  0.10097084575E+03  0.22214970523E+02 -0.67685590619E+03  0.69074444122E+03  0.91133685969E+02 0.  0.
        -24    2    1    2    0    0 -0.35262644976E+03  0.84402249089E+02  0.12925271907E+03  0.39271414983E+03  0.77775223362E+02 0.  0.
         13    1    4    4    0    0 -0.27039460600E+03  0.31077845640E+02  0.84652998253E+02  0.28503544614E+03  0.00000000000E+00 0. -1.
        -14    1    4    4    0    0 -0.82231843755E+02  0.53324403449E+02  0.44599720813E+02  0.10767870369E+03  0.00000000000E+00 0.  1.
        -13    1    3    3    0    0  0.12605591855E+02 -0.28750289232E+02 -0.96092569345E+02  0.10109036532E+03  0.00000000000E+00 0.  1.
         13    1    3    3    0    0  0.88365253892E+02  0.50965259755E+02 -0.58076333685E+03  0.58965407590E+03  0.00000000000E+00 0. -1.
          2    1    1    2  501    0  0.25165560401E+03 -0.10661721961E+03 -0.36997283370E+02  0.27580169239E+03  0.00000000000E+00 0. -1.
<scales pt_clust_5="13000.00000" pt_clust_6="13000.00000" pt_clust_7="13000.00000" pt_clust_8="13000.00000" pt_clust_9="300.36015"></scales>
<clustering>
<clus scale="   77.775">  5  6 -1 -1</clus>
<clus scale="   91.134">  7  8 -1 -1</clus>
<clus scale="  137.819">  1  7  2 -1</clus>
<clus scale="  300.360">  2  9  1 -1</clus>
<clus scale="  300.360">  2  5  1 -1</clus>
</clustering>
</event>
<event>
 9    1  0.4664604E-005  0.1141263E+03  0.7546771E-02  0.1257598E+00
         21   -1    0    0  501  502  0.00000000000E+00  0.00000000000E+00  0.16573218652E+03  0.16573218652E+03  0.00000000000E+00 0.  1.
          1   -1    0    0  502    0 -0.00000000000E+00 -0.00000000000E+00 -0.13464787798E+03  0.13464787798E+03  0.00000000000E+00 0. -1.
         23    2    1    2    0    0 -0.61689415531E+02  0.30642949737E+02 -0.61585832115E+02  0.13019371597E+03  0.91722486899E+02 0.  0.
        -24    2    1    2    0    0  0.71338289549E+02  0.17518036453E+01  0.56726939074E+02  0.12084635911E+03  0.79332695158E+02 0.  0.
         11    1    4    4    0    0  0.16656799490E+02 -0.32875559773E+02  0.39173462074E+02  0.53784863395E+02  0.00000000000E+00 0. -1.
        -12    1    4    4    0    0  0.54681490060E+02  0.34627363418E+02  0.17553477000E+02  0.67061495713E+02  0.00000000000E+00 0.  1.
        -11    1    3    3    0    0 -0.56818574073E+02  0.10528967738E+02 -0.82530236532E+02  0.10074943902E+03  0.00000000000E+00 0. -1.
         11    1    3    3    0    0 -0.48708414580E+01  0.20113981999E+02  0.20944404418E+02  0.29444276944E+02  0.00000000000E+00 0.  1.
          2    1    1    2  501    0 -0.96488740188E+01 -0.32394753383E+02  0.35943201581E+02  0.49339989425E+02  0.00000000000E+00 0. -1.
<scales pt_clust_5="13000.00000" pt_clust_6="13000.00000" pt_clust_7="13000.00000" pt_clust_8="13000.00000" pt_clust_9="33.80120"></scales>
<clustering>
<clus scale="   33.801">  1  9  2 -1</clus>
<clus scale="   79.333">  5  6 -1 -1</clus>
<clus scale="   91.722">  7  8 -1 -1</clus>
<clus scale="  104.429">  1  5  2 -1</clus>
<clus scale="   33.801">  1  5  2 -1</clus>
</clustering>
</event>
<event>
 9    1  0.4664604E-005  0.1151261E+03  0.7546771E-02  0.1255083E+00
         21   -1    0    0  501  502  0.00000000000E+00  0.00000000000E+00  0.97810287947E+02  0.97810287947E+02  0.00000000000E+00 0.  1.
          1   -1    0    0  502    0 -0.00000000000E+00 -0.00000000000E+00 -0.17317850109E+03  0.17317850109E+03  0.00000000000E+00 0. -1.
        -24    2    1    2    0    0  0.10678346675E+02  0.75640704018E+02 -0.70980765785E+02  0.13175997419E+03  0.80541160256E+02 0.  0.
         23    2    1    2    0    0 -0.25679694922E+02 -0.57006606629E+02 -0.17552950801E+02  0.11192312834E+03  0.91156352740E+02 0.  0.
         11    1    3    3    0    0  0.15793775481E+02  0.22762315665E+02 -0.73527307056E+02  0.78573731242E+02  0.00000000000E+00 0. -1.
        -12    1    3    3    0    0 -0.51154288062E+01  0.52878388353E+02  0.25465412705E+01  0.53186242949E+02  0.00000000000E+00 0.  1.
        -13    1    4    4    0    0 -0.27223234400E+02 -0.28191777621E+02 -0.53189749725E+02  0.66068375888E+02  0.00000000000E+00 0. -1.
         13    1    4    4    0    0  0.15435394780E+01 -0.28814829008E+02  0.35636798924E+02  0.45854752452E+02  0.00000000000E+00 0.  1.
          2    1    1    2  501    0  0.15001348247E+02 -0.18634097389E+02  0.13165503442E+02  0.27305686507E+02  0.00000000000E+00 0. -1.
<scales pt_clust_5="13000.00000" pt_clust_6="13000.00000" pt_clust_7="13000.00000" pt_clust_8="13000.00000" pt_clust_9="23.92217"></scales>
<clustering>
<clus scale="   23.922">  1  9  2 -1</clus>
<clus scale="   80.541">  5  6 -1 -1</clus>
<clus scale="   91.156">  7  8 -1 -1</clus>
<clus scale="  106.918">  2  5  1 -1</clus>
<clus scale="   23.922">  1  5  2 -1</clus>
</clustering>
</event>
<event>
 9    1  0.4664604E-005  0.1169195E+03  0.7546771E-02  0.1251829E+00
         -2   -1    0    0    0  501 -0.00000000000E+00  0.00000000000E+00  0.24175543028E+02  0.24175543028E+02  0.00000000000E+00 0.  1.
         21   -1    0    0  501  502  0.00000000000E+00 -0.00000000000E+00 -0.82793668892E+03  0.82793668892E+03  0.00000000000E+00 0. -1.
         23    2    1    2    0    0 -0.54832005819E+02 -0.40902973918E+02 -0.20965147423E+03  0.23884660511E+03  0.91729809706E+02 0.  0.
        -24    2    1    2    0    0  0.78351424756E+02  0.24918138425E+02 -0.37757845375E+03  0.39487504470E+03  0.81246247988E+02 0.  0.
         13    1    4    4    0    0  0.32345089675E+02  0.52388226717E+02 -0.18467930954E+03  0.19467197666E+03  0.00000000000E+00 0. -1.
        -14    1    4    4    0    0  0.46006335081E+02 -0.27470088292E+02 -0.19289914421E+03  0.20020306804E+03  0.00000000000E+00 0.  1.
        -13    1    3    3    0    0 -0.58123016034E+02 -0.21067856533E+02 -0.20982105694E+03  0.21873960662E+03  0.00000000000E+00 0. -1.
         13    1    3    3    0    0  0.32910102152E+01 -0.19835117385E+02  0.16958270521E+00  0.20106998488E+02  0.00000000000E+00 0.  1.
         -1    1    1    2    0  502 -0.23519418938E+02  0.15984835493E+02 -0.21653121791E+03  0.21839058213E+03  0.00000000000E+00 0.  1.
<scales pt_clust_5="13000.00000" pt_clust_6="13000.00000" pt_clust_7="13000.00000" pt_clust_8="13000.00000" pt_clust_9="28.43726"></scales>
<clustering>
<clus scale="   28.437">  2  9  1 -1</clus>
<clus scale="   81.246">  5  6 -1 -1</clus>
<clus scale="   91.730">  7  8 -1 -1</clus>
<clus scale="  108.889">  2  5  1 -1</clus>
<clus scale="   28.437">  2  5  1 -1</clus>
</clustering>
</event>
<event>
 9    1  0.4664604E-005  0.9732558E+02  0.7546771E-02  0.1291264E+00
         21   -1    0    0  501  502  0.00000000000E+00  0.00000000000E+00  0.10629751910E+03  0.10629751910E+03  0.00000000000E+00 0.  1.
          3   -1    0    0  502    0 -0.00000000000E+00 -0.00000000000E+00 -0.16627752141E+03  0.16627752141E+03  0.00000000000E+00 0. -1.
         23    2    1    2    0    0 -0.20717242517E+02 -0.33163968786E+02 -0.82783991231E+02  0.12972846043E+03  0.91908820467E+02 0.  0.
        -24    2    1    2    0    0  0.28147348447E+01  0.23910177703E+02 -0.26444132700E+02  0.89634646130E+02  0.82191595085E+02 0.  0.
         11    1    4    4    0    0  0.17837631194E+02 -0.26906860411E+02 -0.14084667582E+02  0.35221273184E+02  0.00000000000E+00 0. -1.
        -12    1    4    4    0    0 -0.15022896349E+02  0.50817038114E+02 -0.12359465118E+02  0.54413372946E+02  0.00000000000E+00 0.  1.
        -13    1    3    3    0    0 -0.44893984780E+02  0.21868549723E+01 -0.11217140700E+02  0.46325764425E+02  0.00000000000E+00 0.  1.
         13    1    3    3    0    0  0.24176742263E+02 -0.35350823758E+02 -0.71566850530E+02  0.83402696010E+02  0.00000000000E+00 0. -1.
          4    1    1    2  501    0  0.17902507672E+02  0.92537910834E+01  0.49248121628E+02  0.53211933945E+02  0.00000000000E+00 0. -1.
<scales pt_clust_5="13000.00000" pt_clust_6="13000.00000" pt_clust_7="13000.00000" pt_clust_8="13000.00000" pt_clust_9="20.15273"></scales>
<clustering>
<clus scale="   20.153">  1  9  2 -1</clus>
<clus scale="   82.192">  5  6 -1 -1</clus>
<clus scale="   88.207">  1  5  2 -1</clus>
<clus scale="   91.909">  7  8 -1 -1</clus>
<clus scale="   20.153">  1  5  2 -1</clus>
</clustering>
</event>
<event>
 9    1  0.4664604E-005  0.1203700E+03  0.7546771E-02  0.1249428E+00
         -2   -1    0    0    0  501 -0.00000000000E+00  0.00000000000E+00  0.59588507741E+03  0.59588507741E+03  0.00000000000E+00 0.  1.
         21   -1    0    0  501  502  0.00000000000E+00 -0.00000000000E+00 -0.78403462739E+02  0.78403462739E+02  0.00000000000E+00 0. -1.
         23    2    1    2    0    0 -0.53276740197E+02 -0.47149162108E+02  0.30489831620E+03  0.32798679999E+03  0.97728722545E+02 0.  0.
        -24    2    1    2    0    0  0.67566355778E+02  0.24491498083E+02  0.26615778874E+03  0.28640358609E+03  0.77601544495E+02 0.  0.
         13    1    4    4    0    0 -0.35115671646E+01 -0.20940487915E+02  0.47112311260E+02  0.51675961630E+02  0.00000000000E+00 0. -1.
        -14    1    4    4    0    0  0.71077922943E+02  0.45431985998E+02  0.21904547748E+03  0.23472762446E+03  0.00000000000E+00 0.  1.
        -11    1    3    3    0    0 -0.51973701695E+02 -0.10713529567E+02  0.27710985382E+03  0.28214520458E+03  0.00000000000E+00 0.  1.
         11    1    3    3    0    0 -0.13030385017E+01 -0.36435632542E+02  0.27788462384E+02  0.45841595410E+02  0.00000000000E+00 0. -1.
         -1    1    1    2    0  502 -0.14289615582E+02  0.22657664026E+02 -0.53574490272E+02  0.59898154066E+02  0.00000000000E+00 0.  1.
<scales pt_clust_5="13000.00000" pt_clust_6="13000.00000" pt_clust_7="13000.00000" pt_clust_8="13000.00000" pt_clust_9="26.78736"></scales>
<clustering>
<clus scale="   26.787">  2  9  1 -1</clus>
<clus scale="   77.602">  5  6 -1 -1</clus>
<clus scale="   97.729">  7  8 -1 -1</clus>
<clus scale="  104.690">  2  5  1 -1</clus>
<clus scale="   26.787">  2  5  1 -1</clus>
</clustering>
</event>
<event>
 9    1  0.4664604E-005  0.1439789E+03  0.7546771E-02  0.1210848E+00
         -2   -1    0    0    0  501 -0.00000000000E+00  0.00000000000E+00  0.64329409095E+02  0.64329409095E+02  0.00000000000E+00 0.  1.
         21   -1    0    0  501  502  0.00000000000E+00 -0.00000000000E+00 -0.41906725826E+03  0.41906725826E+03  0.00000000000E+00 0. -1.
         23    2    1    2    0    0 -0.71176126972E+02  0.86973064355E+02 -0.92024536192E+02  0.17156660281E+03  0.91302951569E+02 0.  0.
        -24    2    1    2    0    0  0.91965233985E+02 -0.64159356510E+02 -0.22508248651E+03  0.26316045045E+03  0.77571061975E+02 0.  0.
         11    1    4    4    0    0  0.91758815665E+02 -0.24161112425E+02 -0.13975094103E+03  0.16891940423E+03  0.00000000000E+00 0. -1.
        -12    1    4    4    0    0  0.20641832032E+00 -0.39998244085E+02 -0.85331545482E+02  0.94241046221E+02  0.00000000000E+00 0.  1.
        -11    1    3    3    0    0 -0.87410359051E+02  0.50888107570E+02 -0.46713986255E+02  0.11141080232E+03  0.00000000000E+00 0.  1.
         11    1    3    3    0    0  0.16234232080E+02  0.36084956785E+02 -0.45310549937E+02  0.60155800493E+02  0.00000000000E+00 0. -1.
         -1    1    1    2    0  502 -0.20789107014E+02 -0.22813707845E+02 -0.37630826462E+02  0.48669614096E+02  0.00000000000E+00 0.  1.
<scales pt_clust_5="13000.00000" pt_clust_6="13000.00000" pt_clust_7="13000.00000" pt_clust_8="13000.00000" pt_clust_9="30.86506"></scales>
<clustering>
<clus scale="   30.865">  2  9  1 -1</clus>
<clus scale="   77.571">  5  6 -1 -1</clus>
<clus scale="   91.303">  7  8 -1 -1</clus>
<clus scale="  135.687">  2  5  1 -1</clus>
<clus scale="   30.865">  2  5  1 -1</clus>
</clustering>
</event>
<event>
 9    1  0.4664604E-005  0.9025340E+02  0.7546771E-02  0.1306613E+00
         21   -1    0    0  501  502  0.00000000000E+00  0.00000000000E+00  0.13957470085E+03  0.13957470085E+03  0.00000000000E+00 0.  1.
          3   -1    0    0  502    0 -0.00000000000E+00 -0.00000000000E+00 -0.10337276240E+03  0.10337276240E+03  0.00000000000E+00 0. -1.
        -24    2    1    2    0    0 -0.13968621499E+02 -0.20260306151E+02 -0.14499457086E+02  0.87714355306E+02  0.82933536516E+02 0.  0.
         23    2    1    2    0    0 -0.18097781712E+02 -0.85087366056E+01  0.47242795483E+01  0.92226701679E+02  0.89908383279E+02 0.  0.
         11    1    3    3    0    0  0.43663815343E+00 -0.47846635360E+02 -0.26096887586E+02  0.54502648649E+02  0.00000000000E+00 0. -1.
        -12    1    3    3    0    0 -0.14405259653E+02  0.27586329209E+02  0.11597430500E+02  0.33211706657E+02  0.00000000000E+00 0.  1.
        -13    1    4    4    0    0  0.22195802304E+02  0.28731588086E+02 -0.45180139926E+01  0.36586476249E+02  0.00000000000E+00 0.  1.
         13    1    4    4    0    0 -0.40293584016E+02 -0.37240324692E+02  0.92422935409E+01  0.55640225430E+02  0.00000000000E+00 0. -1.
          4    1    1    2  501    0  0.32066403212E+02  0.28769042757E+02  0.45977115992E+02  0.63006406270E+02  0.00000000000E+00 0. -1.
<scales pt_clust_5="13000.00000" pt_clust_6="13000.00000" pt_clust_7="13000.00000" pt_clust_8="13000.00000" pt_clust_9="43.08030"></scales>
<clustering>
<clus scale="   43.080">  1  9  2 -1</clus>
<clus scale="   82.934">  5  6 -1 -1</clus>
<clus scale="   83.307">  2  5  1 -1</clus>
<clus scale="   89.908">  7  8 -1 -1</clus>
<clus scale="   43.080">  1  5  2 -1</clus>
</clustering>
</event>
<event>
 9    1  0.4664604E-005  0.1062294E+03  0.7546771E-02  0.1272150E+00
         21   -1    0    0  501  502  0.00000000000E+00  0.00000000000E+00  0.29371637321E+02  0.29371637321E+02  0.00000000000E+00 0. -1.
          1   -1    0    0  502    0 -0.00000000000E+00 -0.00000000000E+00 -0.56584088944E+03  0.56584088944E+03  0.00000000000E+00 0. -1.
         23    2    1    2    0    0 -0.66031947654E+02 -0.16414048322E+02 -0.38470561120E+03  0.40096948525E+03  0.90268941056E+02 0.  0.
        -24    2    1    2    0    0  0.33854387016E+02  0.97347621147E+01 -0.12143259464E+03  0.14952189839E+03  0.79812517476E+02 0.  0.
         11    1    4    4    0    0  0.23417024551E+02 -0.21412169478E+02 -0.98800901330E+01  0.33233329981E+02  0.00000000000E+00 0. -1.
        -12    1    4    4    0    0  0.10437362464E+02  0.31146931592E+02 -0.11155250450E+03  0.11628856841E+03  0.00000000000E+00 0.  1.
        -11    1    3    3    0    0 -0.23445240896E+02 -0.47067941139E+02 -0.26654158459E+03  0.27167901413E+03  0.00000000000E+00 0.  1.
         11    1    3    3    0    0 -0.42586706758E+02  0.30653892817E+02 -0.11816402661E+03  0.12929047112E+03  0.00000000000E+00 0. -1.
          2    1    1    2  501    0  0.32177560638E+02  0.66792862071E+01 -0.30331046279E+02  0.44721143112E+02  0.00000000000E+00 0. -1.
<scales pt_clust_5="13000.00000" pt_clust_6="13000.00000" pt_clust_7="13000.00000" pt_clust_8="13000.00000" pt_clust_9="32.86348"></scales>
<clustering>
<clus scale="   32.863">  1  9  2 -1</clus>
<clus scale="   79.813">  5  6 -1 -1</clus>
<clus scale="   90.269">  7  8 -1 -1</clus>
<clus scale="   97.500">  1  5  2 -1</clus>
<clus scale="   32.863">  1  5  2 -1</clus>
</clustering>
</event>
<event>
 9    1  0.4664604E-005  0.1053507E+03  0.7546771E-02  0.1275221E+00
         21   -1    0    0  501  502  0.00000000000E+00  0.00000000000E+00  0.29223037678E+02  0.29223037678E+02  0.00000000000E+00 0. -1.
          1   -1    0    0  502    0 -0.00000000000E+00 -0.00000000000E+00 -0.68566190259E+03  0.68566190259E+03  0.00000000000E+00 0. -1.
        -24    2    1    2    0    0  0.15000712021E+02  0.43479723576E+02 -0.26687310608E+03  0.28280567103E+03  0.81500215313E+02 0.  0.
         23    2    1    2    0    0  0.47653864659E+02 -0.53862432609E+02 -0.20346414757E+03  0.23543948095E+03  0.94138394806E+02 0.  0.
         11    1    3    3    0    0  0.44685781480E+01  0.45242751702E+02 -0.58164272574E+02  0.73823826617E+02  0.00000000000E+00 0. -1.
        -12    1    3    3    0    0  0.10532133873E+02 -0.17630281267E+01 -0.20870883350E+03  0.20898184441E+03  0.00000000000E+00 0.  1.
        -13    1    4    4    0    0 -0.24894120532E+02  0.22702724519E+01 -0.28660101533E+02  0.38029893426E+02  0.00000000000E+00 0.  1.
         13    1    4    4    0    0  0.72547985191E+02 -0.56132705061E+02 -0.17480404604E+03  0.19740958752E+03  0.00000000000E+00 0. -1.
          2    1    1    2  501    0 -0.62654576680E+02  0.10382709033E+02 -0.18610161126E+03  0.19663978829E+03  0.00000000000E+00 0. -1.
<scales pt_clust_5="13000.00000" pt_clust_6="13000.00000" pt_clust_7="13000.00000" pt_clust_8="13000.00000" pt_clust_9="63.50906"></scales>
<clustering>
<clus scale="   63.509">  1  9  2 -1</clus>
<clus scale="   81.500">  5  6 -1 -1</clus>
<clus scale="   94.138">  7  8 -1 -1</clus>
<clus scale="   94.229">  2  5  1 -1</clus>
<clus scale="   63.509">  1  5  2 -1</clus>
</clustering>
</event>
<event>
 9    1  0.4664604E-005  0.9746641E+02  0.7546771E-02  0.1289755E+00
          1   -1    0    0  502    0 -0.00000000000E+00  0.00000000000E+00  0.58624137374E+03  0.58624137374E+03  0.00000000000E+00 0. -1.
         21   -1    0    0  501  502  0.00000000000E+00 -0.00000000000E+00 -0.37226256796E+02  0.37226256796E+02  0.00000000000E+00 0.  1.
         23    2    1    2    0    0 -0.20140824539E+02  0.37579945142E+02  0.39309368099E+03  0.40496946721E+03  0.87519839133E+02 0.  0.
        -24    2    1    2    0    0  0.62576788847E+02 -0.83192623598E+01  0.10285270504E+03  0.14451648435E+03  0.79506419157E+02 0.  0.
         13    1    4    4    0    0  0.76296820191E+00 -0.24868108487E+02  0.66316453590E+02  0.70829915692E+02  0.00000000000E+00 0. -1.
        -14    1    4    4    0    0  0.61813820645E+02  0.16548846127E+02  0.36536251446E+02  0.73686568659E+02  0.00000000000E+00 0.  1.
        -11    1    3    3    0    0 -0.42446391810E+02  0.54182320384E+02  0.30102009230E+03  0.30878878864E+03  0.00000000000E+00 0. -1.
         11    1    3    3    0    0  0.22305567271E+02 -0.16602375242E+02  0.92073588691E+02  0.96180678566E+02  0.00000000000E+00 0.  1.
          2    1    1    2  501    0 -0.42435964308E+02 -0.29260682782E+02  0.53068730910E+02  0.73981678975E+02  0.00000000000E+00 0. -1.
<scales pt_clust_5="13000.00000" pt_clust_6="13000.00000" pt_clust_7="13000.00000" pt_clust_8="13000.00000" pt_clust_9="51.54608"></scales>
<clustering>
<clus scale="   51.546">  2  9  1 -1</clus>
<clus scale="   79.506">  5  6 -1 -1</clus>
<clus scale="   87.520">  7  8 -1 -1</clus>
<clus scale="   90.340">  2  5  1 -1</clus>
<clus scale="   51.546">  2  5  1 -1</clus>
</clustering>
</event>
<event>
 9    1  0.4664604E-005  0.9276957E+02  0.7546771E-02  0.1302906E+00
          1   -1    0    0  502    0 -0.00000000000E+00  0.00000000000E+00  0.68041484259E+02  0.68041484259E+02  0.00000000000E+00 0. -1.
         21   -1    0    0  501  502  0.00000000000E+00 -0.00000000000E+00 -0.20536580062E+03  0.20536580062E+03  0.00000000000E+00 0. -1.
         23    2    1    2    0    0 -0.18051100116E+02  0.31064707148E+02 -0.50004355038E+02  0.10944597977E+03  0.90482753717E+02 0.  0.
        -24    2    1    2    0    0  0.21322188519E+02  0.21313879090E+02 -0.64552745417E+02  0.10675499045E+03  0.79502540092E+02 0.  0.
         11    1    4    4    0    0  0.30607690385E+02  0.51219410962E+01 -0.77869840307E+02  0.83825873218E+02  0.00000000000E+00 0. -1.
        -12    1    4    4    0    0 -0.92855018663E+01  0.16191937994E+02  0.13317094891E+02  0.22929117237E+02  0.00000000000E+00 0.  1.
        -11    1    3    3    0    0  0.36395024657E+02  0.99275681638E+01 -0.28214572315E+02  0.47108561009E+02  0.00000000000E+00 0.  1.
         11    1    3    3    0    0 -0.54446124772E+02  0.21137138984E+02 -0.21789782723E+02  0.62337418765E+02  0.00000000000E+00 0. -1.
          2    1    1    2  501    0 -0.32710884033E+01 -0.52378586238E+02 -0.22767215906E+02  0.57206314650E+02  0.00000000000E+00 0. -1.
<scales pt_clust_5="13000.00000" pt_clust_6="13000.00000" pt_clust_7="13000.00000" pt_clust_8="13000.00000" pt_clust_9="52.48065"></scales>
<clustering>
<clus scale="   52.481">  2  9  1 -1</clus>
<clus scale="   79.503">  5  6 -1 -1</clus>
<clus scale="   82.096">  2  5  1 -1</clus>
<clus scale="   90.483">  7  8 -1 -1</clus>
<clus scale="   52.481">  2  5  1 -1</clus>
</clustering>
</event>
<event>
 9    1  0.4664604E-005  0.1207293E+03  0.7546771E-02  0.1257428E+00
         21   -1    0    0  501  502  0.00000000000E+00  0.00000000000E+00  0.15220330576E+03  0.15220330576E+03  0.00000000000E+00 0.  1.
          1   -1    0    0  502    0 -0.00000000000E+00 -0.00000000000E+00 -0.14296212126E+03  0.14296212126E+03  0.00000000000E+00 0. -1.
        -24    2    1    2    0    0 -0.24676687651E+02 -0.21705935867E+02  0.21512316927E+02  0.91087825523E+02  0.82183487475E+02 0.  0.
         23    2    1    2    0    0 -0.34367872475E+02 -0.51094297953E+02 -0.14650703036E+02  0.11031302141E+03  0.90346785501E+02 0.  0.
         11    1    3    3    0    0  0.21057073668E+02  0.82536228659E+01 -0.13333219711E+02  0.26254473709E+02  0.00000000000E+00 0. -1.
        -12    1    3    3    0    0 -0.45733761319E+02 -0.29959558733E+02  0.34845536638E+02  0.64833351814E+02  0.00000000000E+00 0.  1.
        -11    1    4    4    0    0  0.28851670388E+02 -0.32052640680E+02 -0.26528457900E+01  0.43206807907E+02  0.00000000000E+00 0.  1.
         11    1    4    4    0    0 -0.63219542863E+02 -0.19041657273E+02 -0.11997857246E+02  0.67106213498E+02  0.00000000000E+00 0. -1.
          2    1    1    2  501    0  0.59044560126E+02  0.72800233820E+02  0.23795706051E+01  0.93764580098E+02  0.00000000000E+00 0. -1.
<scales pt_clust_5="13000.00000" pt_clust_6="13000.00000" pt_clust_7="13000.00000" pt_clust_8="13000.00000" pt_clust_9="80.08136"></scales>
<clustering>
<clus scale="   82.183">  5  6 -1 -1</clus>
<clus scale="   88.511">  2  5  1 -1</clus>
<clus scale="   80.081">  1  9  2 -1</clus>
<clus scale="   90.347">  7  8 -1 -1</clus>
<clus scale="   80.081">  1  5  2 -1</clus>
</clustering>
</event>
<event>
 9    1  0.4664604E-005  0.9558654E+02  0.7546771E-02  0.1294333E+00
          1   -1    0    0  502    0 -0.00000000000E+00  0.00000000000E+00  0.22120233285E+03  0.22120233285E+03  0.00000000000E+00 0. -1.
         21   -1    0    0  501  502  0.00000000000E+00 -0.00000000000E+00 -0.49140286051E+03  0.49140286051E+03  0.00000000000E+00 0. -1.
         23    2    1    2    0    0 -0.42592895952E+02 -0.38044932295E+02  0.11881567354E+03  0.16187753697E+03  0.93944670078E+02 0.  0.
        -24    2    1    2    0    0 -0.21440891143E+02 -0.22214888178E+02  0.50114851998E+02  0.10287985440E+03  0.84377443559E+02 0.  0.
         13    1    4    4    0    0  0.87316896283E-01 -0.45867423009E+02  0.30400505655E+01  0.45968141415E+02  0.00000000000E+00 0. -1.
        -14    1    4    4    0    0 -0.21528208039E+02  0.23652534831E+02  0.47074801433E+02  0.56911712988E+02  0.00000000000E+00 0.  1.
        -11    1    3    3    0    0  0.25153081500E+02  0.97785051295E+01  0.27576643568E+02  0.38584555744E+02  0.00000000000E+00 0.  1.
         11    1    3    3    0    0 -0.67745977452E+02 -0.47823437424E+02  0.91239029976E+02  0.12329298122E+03  0.00000000000E+00 0. -1.
          2    1    1    2  501    0  0.64033787095E+02  0.60259820473E+02 -0.43913105321E+03  0.44784780199E+03  0.00000000000E+00 0. -1.
<scales pt_clust_5="13000.00000" pt_clust_6="13000.00000" pt_clust_7="13000.00000" pt_clust_8="13000.00000" pt_clust_9="87.92936"></scales>
<clustering>
<clus scale="   84.377">  5  6 -1 -1</clus>
<clus scale="   87.929">  2  9  1 -1</clus>
<clus scale="   87.929">  2  5  1 -1</clus>
<clus scale="   93.945">  7  8 -1 -1</clus>
<clus scale="   87.929">  2  5  1 -1</clus>
</clustering>
</event>
<event>
 9    1  0.4664604E-005  0.1004011E+03  0.7546771E-02  0.1283525E+00
         21   -1    0    0  501  502  0.00000000000E+00  0.00000000000E+00  0.51348459247E+03  0.51348459247E+03  0.00000000000E+00 0.  1.
         -4   -1    0    0    0  501 -0.00000000000E+00 -0.00000000000E+00 -0.73151502022E+02  0.73151502022E+02  0.00000000000E+00 0.  1.
         23    2    1    2    0    0  0.73998163045E+01  0.57304728452E+02  0.28006279237E+02  0.11251234072E+03  0.92390940864E+02 0.  0.
        -24    2    1    2    0    0  0.48861337211E+02 -0.73146318170E+01  0.61677737873E+02  0.11548870279E+03  0.84217355760E+02 0.  0.
         11    1    4    4    0    0  0.23455803114E+02 -0.17091950223E+02 -0.16026887096E+02  0.33153741450E+02  0.00000000000E+00 0. -1.
        -12    1    4    4    0    0  0.25405534097E+02  0.97773184059E+01  0.77704624968E+02  0.82334961343E+02  0.00000000000E+00 0.  1.
        -13    1    3    3    0    0  0.20996662967E+02  0.24116047072E+02 -0.30304285471E+02  0.44054435646E+02  0.00000000000E+00 0.  1.
         13    1    3    3    0    0 -0.13596846662E+02  0.33188681380E+02  0.58310564708E+02  0.68457905076E+02  0.00000000000E+00 0. -1.
         -3    1    1    2    0  502 -0.56261153515E+02 -0.49990096635E+02  0.35064907334E+03  0.35863505098E+03  0.00000000000E+00 0.  1.
<scales pt_clust_5="13000.00000" pt_clust_6="13000.00000" pt_clust_7="13000.00000" pt_clust_8="13000.00000" pt_clust_9="75.26172"></scales>
<clustering>
<clus scale="   75.262">  1  9  2 -1</clus>
<clus scale="   84.217">  5  6 -1 -1</clus>
<clus scale="   92.391">  7  8 -1 -1</clus>
<clus scale="   92.935">  1  5  2 -1</clus>
<clus scale="   75.262">  1  5  2 -1</clus>
</clustering>
</event>
<event>
 9    1  0.4664604E-005  0.9719915E+02  0.7546771E-02  0.1292435E+00
         21   -1    0    0  501  502  0.00000000000E+00  0.00000000000E+00  0.39745690503E+03  0.39745690503E+03  0.00000000000E+00 0.  1.
          3   -1    0    0  502    0 -0.00000000000E+00 -0.00000000000E+00 -0.48353742461E+02  0.48353742461E+02  0.00000000000E+00 0. -1.
         23    2    1    2    0    0  0.19953544398E+02  0.24572582542E+02  0.20494708938E+02  0.99873305790E+02  0.92480745932E+02 0.  0.
        -24    2    1    2    0    0  0.14054377956E+01 -0.28522369669E+02  0.25319922074E+03  0.26746212686E+03  0.81305861385E+02 0.  0.
         11    1    4    4    0    0  0.22281251253E+02 -0.14447647451E+02  0.20876005714E+02  0.33778636574E+02  0.00000000000E+00 0. -1.
        -12    1    4    4    0    0 -0.20875813458E+02 -0.14074722218E+02  0.23232321503E+03  0.23368349029E+03  0.00000000000E+00 0.  1.
        -11    1    3    3    0    0  0.14914481506E+01 -0.34102729648E+02 -0.24471739226E+01  0.34222934522E+02  0.00000000000E+00 0.  1.
         11    1    3    3    0    0  0.18462096247E+02  0.58675312190E+02  0.22941882861E+02  0.65650371268E+02  0.00000000000E+00 0. -1.
          4    1    1    2  501    0 -0.21358982194E+02  0.39497871273E+01  0.75409232888E+02  0.78475214835E+02  0.00000000000E+00 0. -1.
<scales pt_clust_5="13000.00000" pt_clust_6="13000.00000" pt_clust_7="13000.00000" pt_clust_8="13000.00000" pt_clust_9="21.72112"></scales>
<clustering>
<clus scale="   21.721">  1  9  2 -1</clus>
<clus scale="   81.306">  5  6 -1 -1</clus>
<clus scale="   86.635">  1  5  2 -1</clus>
<clus scale="   92.481">  7  8 -1 -1</clus>
<clus scale="   21.721">  1  5  2 -1</clus>
</clustering>
</event>
<event>
 9    1  0.4664604E-005  0.9994762E+02  0.7546771E-02  0.1287961E+00
         21   -1    0    0  501  502  0.00000000000E+00  0.00000000000E+00  0.40095524892E+03  0.40095524892E+03  0.00000000000E+00 0. -1.
          1   -1    0    0  502    0 -0.00000000000E+00 -0.00000000000E+00 -0.77322215298E+02  0.77322215298E+02  0.00000000000E+00 0. -1.
         23    2    1    2    0    0 -0.42699582979E+01  0.29718757804E+02 -0.28895259807E+02  0.10302877226E+03  0.94226083254E+02 0.  0.
        -24    2    1    2    0    0 -0.31998573426E+01 -0.55343577036E+02  0.22811668614E+03  0.24800609871E+03  0.79979071623E+02 0.  0.
         11    1    4    4    0    0  0.30530918289E+02 -0.52902583054E+02  0.11887167192E+03  0.13364615464E+03  0.00000000000E+00 0. -1.
        -12    1    4    4    0    0 -0.33730775631E+02 -0.24409939814E+01  0.10924501422E+03  0.11435994407E+03  0.00000000000E+00 0.  1.
        -11    1    3    3    0    0 -0.42944807629E+02 -0.79102122055E+01 -0.47895478480E+01  0.43929121640E+02  0.00000000000E+00 0.  1.
         11    1    3    3    0    0  0.38674849331E+02  0.37628970010E+02 -0.24105711960E+02  0.59099650624E+02  0.00000000000E+00 0. -1.
          2    1    1    2  501    0  0.74698156405E+01  0.25624819232E+02  0.12441160729E+03  0.12724259324E+03  0.00000000000E+00 0. -1.
<scales pt_clust_5="13000.00000" pt_clust_6="13000.00000" pt_clust_7="13000.00000" pt_clust_8="13000.00000" pt_clust_9="26.69138"></scales>
<clustering>
<clus scale="   26.691">  1  9  2 -1</clus>
<clus scale="   79.979">  5  6 -1 -1</clus>
<clus scale="   86.647">  1  5  2 -1</clus>
<clus scale="   94.226">  7  8 -1 -1</clus>
<clus scale="   26.691">  1  5  2 -1</clus>
</clustering>
</event>
<event>
 9    1  0.4664604E-005  0.1119907E+03  0.7546771E-02  0.1269219E+00
          1   -1    0    0  502    0 -0.00000000000E+00  0.00000000000E+00  0.20542600995E+03  0.20542600995E+03  0.00000000000E+00 0. -1.
         21   -1    0    0  501  502  0.00000000000E+00 -0.00000000000E+00 -0.10123185401E+03  0.10123185401E+03  0.00000000000E+00 0.  1.
         23    2    1    2    0    0  0.58891260053E+02  0.97965830013E+01  0.10404165930E+03  0.15751313586E+03  0.10208607912E+03 0.  0.
        -24    2    1    2    0    0 -0.30286332365E+02 -0.17441985459E+02  0.45884874658E+02  0.94664048354E+02  0.75062477601E+02 0.  0.
         13    1    4    4    0    0 -0.10656587295E+02  0.20460249552E+02  0.46574489282E+02  0.51974683418E+02  0.00000000000E+00 0. -1.
        -14    1    4    4    0    0 -0.19629745071E+02 -0.37902235011E+02 -0.68961462451E+00  0.42689364937E+02  0.00000000000E+00 0.  1.
        -13    1    3    3    0    0  0.51462580709E+02 -0.23994962208E+02  0.10866608578E+03  0.12260698848E+03  0.00000000000E+00 0. -1.
         13    1    3    3    0    0  0.74286793441E+01  0.33791545209E+02 -0.46244264859E+01  0.34906147378E+02  0.00000000000E+00 0.  1.
          2    1    1    2  501    0 -0.28604927687E+02  0.76454024579E+01 -0.45732378016E+02  0.54480679748E+02  0.00000000000E+00 0. -1.
<scales pt_clust_5="13000.00000" pt_clust_6="13000.00000" pt_clust_7="13000.00000" pt_clust_8="13000.00000" pt_clust_9="29.60902"></scales>
<clustering>
<clus scale="   29.609">  2  9  1 -1</clus>
<clus scale="   75.062">  5  6 -1 -1</clus>
<clus scale="   88.061">  2  5  1 -1</clus>
<clus scale="  102.086">  7  8 -1 -1</clus>
<clus scale="   29.609">  2  5  1 -1</clus>
</clustering>
</event>
<event>
 9    1  0.4664604E-005  0.9214955E+02  0.7546771E-02  0.1305166E+00
         -2   -1    0    0    0  501 -0.00000000000E+00  0.00000000000E+00  0.23052998921E+03  0.23052998921E+03  0.00000000000E+00 0.  1.
         21   -1    0    0  501  502  0.00000000000E+00 -0.00000000000E+00 -0.31324548081E+03  0.31324548081E+03  0.00000000000E+00 0.  1.
         23    2    1    2    0    0  0.11977789779E+02  0.38689450804E+01  0.20578735732E+03  0.22559346475E+03  0.91572587174E+02 0.  0.
        -24    2    1    2    0    0  0.16949609612E+02  0.74538753252E+01 -0.11055402647E+03  0.13754207582E+03  0.79704330681E+02 0.  0.
         13    1    4    4    0    0  0.17627894075E+02 -0.27454362102E+02 -0.15193343824E+02  0.35990586888E+02  0.00000000000E+00 0. -1.
        -14    1    4    4    0    0 -0.67828446247E+00  0.34908237428E+02 -0.95360682645E+02  0.10155148893E+03  0.00000000000E+00 0.  1.
        -11    1    3    3    0    0 -0.24986560247E+02 -0.31498744656E+02  0.10782639748E+03  0.11507836939E+03  0.00000000000E+00 0. -1.
         11    1    3    3    0    0  0.36964350025E+02  0.35367689736E+02  0.97960959842E+02  0.11051509536E+03  0.00000000000E+00 0.  1.
         -1    1    1    2    0  502 -0.28927399391E+02 -0.11322820406E+02 -0.17794882245E+03  0.18063992944E+03  0.00000000000E+00 0.  1.
<scales pt_clust_5="13000.00000" pt_clust_6="13000.00000" pt_clust_7="13000.00000" pt_clust_8="13000.00000" pt_clust_9="31.06446"></scales>
<clustering>
<clus scale="   31.064">  2  9  1 -1</clus>
<clus scale="   79.704">  5  6 -1 -1</clus>
<clus scale="   80.367">  2  5  1 -1</clus>
<clus scale="   91.573">  7  8 -1 -1</clus>
<clus scale="   31.064">  2  5  1 -1</clus>
</clustering>
</event>
<event>
 9    1  0.4664604E-005  0.1754823E+03  0.7546771E-02  0.1179919E+00
          1   -1    0    0  502    0 -0.00000000000E+00  0.00000000000E+00  0.50212188611E+03  0.50212188611E+03  0.00000000000E+00 0. -1.
         21   -1    0    0  501  502  0.00000000000E+00 -0.00000000000E+00 -0.13169737600E+03  0.13169737600E+03  0.00000000000E+00 0.  1.
         23    2    1    2    0    0  0.50457031551E+02  0.10505413370E+03  0.15511417832E+03  0.21405872125E+03  0.90434754322E+02 0.  0.
        -24    2    1    2    0    0  0.94434657992E+02 -0.15708971323E+03  0.15792240419E+03  0.25545997034E+03  0.82007487887E+02 0.  0.
         11    1    4    4    0    0  0.65996690722E+02 -0.87682412588E+02  0.14081049052E+03  0.17852552452E+03  0.00000000000E+00 0. -1.
        -12    1    4    4    0    0  0.28437967270E+02 -0.69407300643E+02  0.17111913667E+02  0.76934445825E+02  0.00000000000E+00 0.  1.
        -11    1    3    3    0    0 -0.26405826289E+02  0.27328418344E+02  0.35221903293E+02  0.51814019172E+02  0.00000000000E+00 0. -1.
         11    1    3    3    0    0  0.76862857841E+02  0.77725715354E+02  0.11989227503E+03  0.16224470208E+03  0.00000000000E+00 0.  1.
          2    1    1    2  501    0 -0.14489168954E+03  0.52035579533E+02  0.57387927608E+02  0.16430057051E+03  0.00000000000E+00 0. -1.
<scales pt_clust_5="13000.00000" pt_clust_6="13000.00000" pt_clust_7="13000.00000" pt_clust_8="13000.00000" pt_clust_9="155.14121"></scales>
<clustering>
<clus scale="   82.007">  5  6 -1 -1</clus>
<clus scale="   90.435">  7  8 -1 -1</clus>
<clus scale="  147.515">  1  7  2 -1</clus>
<clus scale="  155.141">  2  9  1 -1</clus>
<clus scale="  155.141">  2  5  1 -1</clus>
</clustering>
</event>
<event>
 9    1  0.4664604E-005  0.3824081E+03  0.7546771E-02  0.1102376E+00
          1   -1    0    0  502    0 -0.00000000000E+00  0.00000000000E+00  0.89819071365E+03  0.89819071365E+03  0.00000000000E+00 0. -1.
         21   -1    0    0  501  502  0.00000000000E+00 -0.00000000000E+00 -0.23924785940E+03  0.23924785940E+03  0.00000000000E+00 0.  1.
         23    2    1    2    0    0 -0.20907212544E+02  0.20828368162E+02  0.21837810944E+03  0.23711289122E+03  0.87536232731E+02 0.  0.
        -24    2    1    2    0    0 -0.13154128879E+02 -0.38071220001E+03  0.96775485139E+02  0.40145936460E+03  0.81788242177E+02 0.  0.
         13    1    4    4    0    0 -0.24754418650E+01 -0.68171522038E+02 -0.14107834006E+02  0.69659997199E+02  0.00000000000E+00 0. -1.
        -14    1    4    4    0    0 -0.10678687014E+02 -0.31254067798E+03  0.11088331914E+03  0.33179936741E+03  0.00000000000E+00 0.  1.
        -13    1    3    3    0    0 -0.21174703829E+02 -0.27751327684E+02  0.44396813227E+02  0.56476378205E+02  0.00000000000E+00 0.  1.
         13    1    3    3    0    0  0.26749128428E+00  0.48579695846E+02  0.17398129621E+03  0.18063651301E+03  0.00000000000E+00 0. -1.
          2    1    1    2  501    0  0.34061341424E+02  0.35988383185E+03  0.34378925967E+03  0.49886631724E+03  0.00000000000E+00 0. -1.
<scales pt_clust_5="13000.00000" pt_clust_6="13000.00000" pt_clust_7="13000.00000" pt_clust_8="13000.00000" pt_clust_9="373.55957"></scales>
<clustering>
<clus scale="   81.788">  5  6 -1 -1</clus>
<clus scale="   87.536">  7  8 -1 -1</clus>
<clus scale="   92.377">  1  7  2 -1</clus>
<clus scale="  373.560">  2  9  1 -1</clus>
<clus scale="  373.560">  2  5  1 -1</clus>
</clustering>
</event>
<event>
 9    1  0.4664604E-005  0.1515021E+03  0.7546771E-02  0.1202412E+00
          3   -1    0    0  502    0 -0.00000000000E+00  0.00000000000E+00  0.10036391485E+03  0.10036391485E+03  0.00000000000E+00 0. -1.
         21   -1    0    0  501  502  0.00000000000E+00 -0.00000000000E+00 -0.28503931121E+03  0.28503931121E+03  0.00000000000E+00 0.  1.
         23    2    1    2    0    0 -0.10008064703E+03  0.15570363454E+02 -0.47993806601E+02  0.14497031213E+03  0.91947886323E+02 0.  0.
        -24    2    1    2    0    0  0.11144614152E+03  0.12690719888E+02 -0.79312035334E+02  0.17547809062E+03  0.10918271158E+03 0.  0.
         11    1    4    4    0    0  0.31445539981E+02  0.39287372402E+02  0.11443600103E+02  0.51606933626E+02  0.00000000000E+00 0. -1.
        -12    1    4    4    0    0  0.80000601537E+02 -0.26596652514E+02 -0.90755635438E+02  0.12387115699E+03  0.00000000000E+00 0.  1.
        -13    1    3    3    0    0 -0.97163382784E+02  0.43058973867E+02 -0.25403855237E+02  0.10927101192E+03  0.00000000000E+00 0.  1.
         13    1    3    3    0    0 -0.29172642456E+01 -0.27488610413E+02 -0.22589951364E+02  0.35699300214E+02  0.00000000000E+00 0. -1.
          4    1    1    2  501    0 -0.11365494488E+02 -0.28261083342E+02 -0.57369554419E+02  0.64954823307E+02  0.00000000000E+00 0. -1.
<scales pt_clust_5="13000.00000" pt_clust_6="13000.00000" pt_clust_7="13000.00000" pt_clust_8="13000.00000" pt_clust_9="30.46085"></scales>
<clustering>
<clus scale="   30.461">  2  9  1 -1</clus>
<clus scale="   91.948">  7  8 -1 -1</clus>
<clus scale="  109.183">  5  6 -1 -1</clus>
<clus scale="  139.594">  1  7  2 -1</clus>
<clus scale="   30.461">  2  5  1 -1</clus>
</clustering>
</event>
<event>
 9    1  0.4664604E-005  0.1591991E+03  0.7546771E-02  0.1201413E+00
          1   -1    0    0  502    0 -0.00000000000E+00  0.00000000000E+00  0.30727754366E+03  0.30727754366E+03  0.00000000000E+00 0. -1.
         21   -1    0    0  501  502  0.00000000000E+00 -0.00000000000E+00 -0.20443426337E+03  0.20443426337E+03  0.00000000000E+00 0. -1.
         23    2    1    2    0    0  0.65085220779E+02  0.52360852496E+02  0.10906433047E+03  0.16434366875E+03  0.90200157641E+02 0.  0.
        -24    2    1    2    0    0 -0.18241293707E+03 -0.43436551589E+01  0.54535069423E+02  0.20678808879E+03  0.80584694054E+02 0.  0.
         13    1    4    4    0    0 -0.14267880205E+03  0.15194602209E+02  0.70307108306E+02  0.15978487403E+03  0.00000000000E+00 0. -1.
        -14    1    4    4    0    0 -0.39734135023E+02 -0.19538257368E+02 -0.15772038882E+02  0.47003214758E+02  0.00000000000E+00 0.  1.
        -11    1    3    3    0    0  0.32329181343E+01 -0.24027586416E+02  0.16480236112E+02  0.29315095956E+02  0.00000000000E+00 0.  1.
         11    1    3    3    0    0  0.61852302645E+02  0.76388438912E+02  0.92584094356E+02  0.13502857279E+03  0.00000000000E+00 0. -1.
          2    1    1    2  501    0  0.11732771629E+03 -0.48017197337E+02 -0.60756119602E+02  0.14058004951E+03  0.00000000000E+00 0. -1.
<scales pt_clust_5="13000.00000" pt_clust_6="13000.00000" pt_clust_7="13000.00000" pt_clust_8="13000.00000" pt_clust_9="137.29702"></scales>
<clustering>
<clus scale="   80.585">  5  6 -1 -1</clus>
<clus scale="   90.200">  7  8 -1 -1</clus>
<clus scale="  122.938">  1  7  2 -1</clus>
<clus scale="  137.297">  2  9  1 -1</clus>
<clus scale="  137.297">  2  5  1 -1</clus>
</clustering>
</event>
<event>
 9    1  0.4664604E-005  0.8874408E+02  0.7546771E-02  0.1309698E+00
          1   -1    0    0  502    0 -0.00000000000E+00  0.00000000000E+00  0.32048537330E+03  0.32048537330E+03  0.00000000000E+00 0. -1.
         21   -1    0    0  501  502  0.00000000000E+00 -0.00000000000E+00 -0.34263608384E+02  0.34263608384E+02  0.00000000000E+00 0. -1.
        -24    2    1    2    0    0  0.16741084211E+02  0.20686341424E+02  0.17371761525E+03  0.19323964292E+03  0.80346506615E+02 0.  0.
         23    2    1    2    0    0 -0.99871260731E+01  0.13163253192E+01  0.64593841783E+02  0.10835737835E+03  0.86414591635E+02 0.  0.
         11    1    3    3    0    0  0.28860325972E+02  0.71411586077E+01  0.17247832685E+03  0.17502196375E+03  0.00000000000E+00 0. -1.
        -12    1    3    3    0    0 -0.12119241761E+02  0.13545182816E+02  0.12392883922E+01  0.18217679163E+02  0.00000000000E+00 0.  1.
        -11    1    4    4    0    0 -0.22228083800E+02  0.29600747653E+02  0.25560142482E+00  0.37018337390E+02  0.00000000000E+00 0. -1.
         11    1    4    4    0    0  0.12240957727E+02 -0.28284422334E+02  0.64338240358E+02  0.71339040961E+02  0.00000000000E+00 0.  1.
          2    1    1    2  501    0 -0.67539581380E+01 -0.22002666743E+02  0.47910307887E+02  0.53151960417E+02  0.00000000000E+00 0. -1.
<scales pt_clust_5="13000.00000" pt_clust_6="13000.00000" pt_clust_7="13000.00000" pt_clust_8="13000.00000" pt_clust_9="23.01595"></scales>
<clustering>
<clus scale="   23.016">  2  9  1 -1</clus>
<clus scale="   80.347">  5  6 -1 -1</clus>
<clus scale="   82.847">  1  5  2 -1</clus>
<clus scale="   86.415">  7  8 -1 -1</clus>
<clus scale="   23.016">  2  5  1 -1</clus>
</clustering>
</event>
<event>
 9    1  0.4664604E-005  0.7013015E+03  0.7546771E-02  0.9715009E-01
          1   -1    0    0  502    0 -0.00000000000E+00  0.00000000000E+00  0.23454284170E+04  0.23454284170E+04  0.00000000000E+00 0. -1.
         21   -1    0    0  501  502  0.00000000000E+00 -0.00000000000E+00 -0.18538309251E+03  0.18538309251E+03  0.00000000000E+00 0. -1.
        -24    2    1    2    0    0  0.22877033508E+03  0.10196048150E+03  0.56811372928E+03  0.62593295097E+03  0.79416898143E+02 0.  0.
         23    2    1    2    0    0  0.38515317392E+03 -0.16355261367E+03  0.61515012201E+03  0.74954409958E+03  0.91182562937E+02 0.  0.
         11    1    3    3    0    0  0.18937993562E+03  0.11076991933E+03  0.50987632485E+03  0.55507531173E+03  0.00000000000E+00 0. -1.
        -12    1    3    3    0    0  0.39390399457E+02 -0.88094378295E+01  0.58237404432E+02  0.70857639244E+02  0.00000000000E+00 0.  1.
        -13    1    4    4    0    0  0.30867492490E+03 -0.96256797354E+02  0.42725456034E+03  0.53580970468E+03  0.00000000000E+00 0. -1.
         13    1    4    4    0    0  0.76478249023E+02 -0.67295816314E+02  0.18789556167E+03  0.21373439490E+03  0.00000000000E+00 0.  1.
          2    1    1    2  501    0 -0.61392350900E+03  0.61592132168E+02  0.97678147316E+03  0.11553344589E+04  0.00000000000E+00 0. -1.
<scales pt_clust_5="13000.00000" pt_clust_6="13000.00000" pt_clust_7="13000.00000" pt_clust_8="13000.00000" pt_clust_9="617.00540"></scales>
<clustering>
<clus scale="   79.417">  5  6 -1 -1</clus>
<clus scale="   91.183">  7  8 -1 -1</clus>
<clus scale="  238.563">  5  7 -1 -1</clus>
<clus scale="  617.005">  2  9  1 -1</clus>
<clus scale="  617.005">  2  5  1 -1</clus>
</clustering>
</event>
<event>
 9    1  0.4664604E-005  0.1274237E+03  0.7546771E-02  0.1234537E+00
         21   -1    0    0  501  502  0.00000000000E+00  0.00000000000E+00  0.74700078950E+02  0.74700078950E+02  0.00000000000E+00 0. -1.
          1   -1    0    0  502    0 -0.00000000000E+00 -0.00000000000E+00 -0.82061023931E+03  0.82061023931E+03  0.00000000000E+00 0. -1.
        -24    2    1    2    0    0  0.84300791959E+02  0.10786986369E+01 -0.67983447577E+03  0.68987533520E+03  0.81518565681E+02 0.  0.
         23    2    1    2    0    0 -0.10885917050E+03 -0.45255249069E+01 -0.91449903248E+02  0.16995476970E+03  0.93009352015E+02 0.  0.
         11    1    3    3    0    0  0.80556347014E+02 -0.24586616374E+02 -0.39597382650E+03  0.40483218502E+03  0.00000000000E+00 0. -1.
        -12    1    3    3    0    0  0.37444449446E+01  0.25665315011E+02 -0.28386064927E+03  0.28504315018E+03  0.00000000000E+00 0.  1.
        -11    1    4    4    0    0 -0.94288936201E+02  0.33545808502E+02 -0.50208329267E+02  0.11196696426E+03  0.00000000000E+00 0.  1.
         11    1    4    4    0    0 -0.14570234294E+02 -0.38071333409E+02 -0.41241573981E+02  0.57987805437E+02  0.00000000000E+00 0. -1.
          2    1    1    2  501    0  0.24558378537E+02  0.34468262700E+01  0.25374218661E+02  0.35480213364E+02  0.00000000000E+00 0. -1.
<scales pt_clust_5="13000.00000" pt_clust_6="13000.00000" pt_clust_7="13000.00000" pt_clust_8="13000.00000" pt_clust_9="24.79908"></scales>
<clustering>
<clus scale="   24.799">  1  9  2 -1</clus>
<clus scale="   81.519">  5  6 -1 -1</clus>
<clus scale="   93.009">  7  8 -1 -1</clus>
<clus scale="  119.295">  2  5  1 -1</clus>
<clus scale="   24.799">  1  5  2 -1</clus>
</clustering>
</event>
<event>
 9    1  0.4664604E-005  0.1006624E+03  0.7546771E-02  0.1284028E+00
         21   -1    0    0  501  502  0.00000000000E+00  0.00000000000E+00  0.90147845487E+02  0.90147845487E+02  0.00000000000E+00 0. -1.
          3   -1    0    0  502    0 -0.00000000000E+00 -0.00000000000E+00 -0.16718101147E+03  0.16718101147E+03  0.00000000000E+00 0. -1.
        -24    2    1    2    0    0 -0.38993625606E+02  0.80767076240E+01 -0.35043527267E+02  0.96795348148E+02  0.80966379293E+02 0.  0.
         23    2    1    2    0    0  0.41917454178E+02  0.37037301172E+02 -0.42708978338E+02  0.11531913043E+03  0.91354312265E+02 0.  0.
         13    1    3    3    0    0 -0.63578505014E+02  0.48896924328E+01 -0.33314939158E+02  0.71944565903E+02  0.00000000000E+00 0. -1.
        -14    1    3    3    0    0  0.24584879408E+02  0.31870151911E+01 -0.17285881097E+01  0.24850782245E+02  0.00000000000E+00 0.  1.
        -13    1    4    4    0    0  0.61379987048E+02  0.53531318604E+02 -0.35202374132E+02  0.88726050436E+02  0.00000000000E+00 0. -1.
         13    1    4    4    0    0 -0.19462532871E+02 -0.16494017432E+02 -0.75066042058E+01  0.26593079993E+02  0.00000000000E+00 0.  1.
          4    1    1    2  501    0 -0.29238285719E+01 -0.45114008796E+02  0.71933961819E+00  0.45214378384E+02  0.00000000000E+00 0. -1.
<scales pt_clust_5="13000.00000" pt_clust_6="13000.00000" pt_clust_7="13000.00000" pt_clust_8="13000.00000" pt_clust_9="45.20866"></scales>
<clustering>
<clus scale="   45.209">  1  9  2 -1</clus>
<clus scale="   80.966">  5  6 -1 -1</clus>
<clus scale="   91.339">  2  5  1 -1</clus>
<clus scale="   91.354">  7  8 -1 -1</clus>
<clus scale="   45.209">  1  5  2 -1</clus>
</clustering>
</event>
<event>
 9    1  0.4664604E-005  0.1387052E+03  0.7546771E-02  0.1215821E+00
          1   -1    0    0  502    0 -0.00000000000E+00  0.00000000000E+00  0.66980261358E+03  0.66980261358E+03  0.00000000000E+00 0. -1.
         21   -1    0    0  501  502  0.00000000000E+00 -0.00000000000E+00 -0.48766392887E+02  0.48766392887E+02  0.00000000000E+00 0.  1.
         23    2    1    2    0    0 -0.89689545153E+02 -0.80795349980E+02  0.41742163398E+03  0.44396430146E+03  0.91057000677E+02 0.  0.
        -24    2    1    2    0    0  0.30393532460E+02  0.80086451306E+02  0.15679094110E+03  0.19904695592E+03  0.87742150364E+02 0.  0.
         11    1    4    4    0    0 -0.10740710413E+02  0.73344961389E+02  0.12953011593E+03  0.14924107060E+03  0.00000000000E+00 0. -1.
        -12    1    4    4    0    0  0.41134242873E+02  0.67414899173E+01  0.27260825167E+02  0.49805885313E+02  0.00000000000E+00 0.  1.
        -13    1    3    3    0    0 -0.50128025576E+02 -0.91922739399E+02  0.23999014923E+03  0.26183559860E+03  0.00000000000E+00 0. -1.
         13    1    3    3    0    0 -0.39561519576E+02  0.11127389420E+02  0.17743148475E+03  0.18212870286E+03  0.00000000000E+00 0.  1.
          2    1    1    2  501    0  0.59296012693E+02  0.70889867322E+00  0.46823645616E+02  0.75557749089E+02  0.00000000000E+00 0. -1.
<scales pt_clust_5="13000.00000" pt_clust_6="13000.00000" pt_clust_7="13000.00000" pt_clust_8="13000.00000" pt_clust_9="59.30025"></scales>
<clustering>
<clus scale="   59.300">  2  9  1 -1</clus>
<clus scale="   87.742">  5  6 -1 -1</clus>
<clus scale="   91.057">  7  8 -1 -1</clus>
<clus scale="  136.552">  2  5  1 -1</clus>
<clus scale="   59.300">  2  5  1 -1</clus>
</clustering>
</event>
<event>
 9    1  0.4664604E-005  0.1049287E+03  0.7546771E-02  0.1273012E+00
          1   -1    0    0  502    0 -0.00000000000E+00  0.00000000000E+00  0.71461429612E+03  0.71461429612E+03  0.00000000000E+00 0. -1.
         21   -1    0    0  501  502  0.00000000000E+00 -0.00000000000E+00 -0.22601188944E+02  0.22601188944E+02  0.00000000000E+00 0. -1.
         23    2    1    2    0    0  0.30521304310E+01  0.71803760317E+02  0.23018883170E+03  0.25158822967E+03  0.71726170757E+02 0.  0.
        -24    2    1    2    0    0 -0.33985699389E+02 -0.76860888861E+02  0.24699351573E+03  0.26852194553E+03  0.63526485984E+02 0.  0.
         13    1    4    4    0    0 -0.45770417889E+02 -0.80006112509E+02  0.22825890583E+03  0.24616668598E+03  0.00000000000E+00 0. -1.
        -14    1    4    4    0    0  0.11784718499E+02  0.31452236487E+01  0.18734609896E+02  0.22355259557E+02  0.00000000000E+00 0.  1.
        -11    1    3    3    0    0  0.35003377110E+02  0.28227814218E+02  0.77250669127E+02  0.89385187728E+02  0.00000000000E+00 0.  1.
         11    1    3    3    0    0 -0.31951246679E+02  0.43575946099E+02  0.15293816257E+03  0.16220304194E+03  0.00000000000E+00 0. -1.
          2    1    1    2  501    0  0.30933568958E+02  0.50571285435E+01  0.21483075975E+03  0.21710530986E+03  0.00000000000E+00 0. -1.
<scales pt_clust_5="13000.00000" pt_clust_6="13000.00000" pt_clust_7="13000.00000" pt_clust_8="13000.00000" pt_clust_9="31.34424"></scales>
<clustering>
<clus scale="   31.344">  2  9  1 -1</clus>
<clus scale="   63.526">  5  6 -1 -1</clus>
<clus scale="   71.726">  7  8 -1 -1</clus>
<clus scale="   99.504">  2  5  1 -1</clus>
<clus scale="   31.344">  2  5  1 -1</clus>
</clustering>
</event>
<event>
 9    1  0.4664604E-005  0.1299183E+03  0.7546771E-02  0.1237888E+00
         21   -1    0    0  501  502  0.00000000000E+00  0.00000000000E+00  0.11375971257E+03  0.11375971257E+03  0.00000000000E+00 0.  1.
          1   -1    0    0  502    0 -0.00000000000E+00 -0.00000000000E+00 -0.27426359980E+03  0.27426359980E+03  0.00000000000E+00 0. -1.
        -24    2    1    2    0    0  0.42922600155E+02  0.45913751524E+02  0.24757737285E+01  0.10513286805E+03  0.84239944834E+02 0.  0.
         23    2    1    2    0    0  0.12610471053E+01  0.62451429671E+02 -0.10437963399E+03  0.15201198795E+03  0.91163398258E+02 0.  0.
         11    1    3    3    0    0 -0.11063928145E+02 -0.17686499501E+02 -0.47524780058E+01  0.21396467414E+02  0.00000000000E+00 0. -1.
        -12    1    3    3    0    0  0.53986528300E+02  0.63600251024E+02  0.72282517344E+01  0.83736400636E+02  0.00000000000E+00 0.  1.
        -11    1    4    4    0    0 -0.66413204936E+01  0.19640068267E+02  0.14573841270E+02  0.25342380883E+02  0.00000000000E+00 0.  1.
         11    1    4    4    0    0  0.79023675990E+01  0.42811361404E+02 -0.11895347526E+03  0.12666960707E+03  0.00000000000E+00 0. -1.
          2    1    1    2  501    0 -0.44183647260E+02 -0.10836518119E+03 -0.58600026967E+02  0.13087845637E+03  0.00000000000E+00 0. -1.
<scales pt_clust_5="13000.00000" pt_clust_6="13000.00000" pt_clust_7="13000.00000" pt_clust_8="13000.00000" pt_clust_9="92.56350"></scales>
<clustering>
<clus scale="   84.240">  5  6 -1 -1</clus>
<clus scale="   91.163">  7  8 -1 -1</clus>
<clus scale="  105.104">  2  5  1 -1</clus>
<clus scale="   92.563">  1  9  2 -1</clus>
<clus scale="   92.563">  1  5  2 -1</clus>
</clustering>
</event>
<event>
 9    1  0.4664604E-005  0.1170859E+03  0.7546771E-02  0.1253799E+00
         -2   -1    0    0    0  501 -0.00000000000E+00  0.00000000000E+00  0.87315688647E+02  0.87315688647E+02  0.00000000000E+00 0.  1.
         21   -1    0    0  501  502  0.00000000000E+00 -0.00000000000E+00 -0.27110800201E+03  0.27110800201E+03  0.00000000000E+00 0.  1.
        -24    2    1    2    0    0  0.74877761967E+02  0.22124212559E+02 -0.47673367171E+01  0.11272831809E+03  0.81171338419E+02 0.  0.
         23    2    1    2    0    0 -0.40394787485E+02  0.26241164326E+02 -0.12442704412E+03  0.16501563877E+03  0.97096519857E+02 0.  0.
         11    1    3    3    0    0  0.10032662708E+02  0.23531247534E+02 -0.33198053797E+02  0.41910436736E+02  0.00000000000E+00 0. -1.
        -12    1    3    3    0    0  0.64845099259E+02 -0.14070349742E+01  0.28430717080E+02  0.70817881350E+02  0.00000000000E+00 0.  1.
        -13    1    4    4    0    0 -0.40331271393E+02  0.58303974420E+02 -0.59305854077E+02  0.92429157808E+02  0.00000000000E+00 0.  1.
         13    1    4    4    0    0 -0.63516092020E-01 -0.32062810094E+02 -0.65121190048E+02  0.72586480963E+02  0.00000000000E+00 0. -1.
         -1    1    1    2    0  502 -0.34482974482E+02 -0.48365376885E+02 -0.54597932521E+02  0.80679733800E+02  0.00000000000E+00 0.  1.
<scales pt_clust_5="13000.00000" pt_clust_6="13000.00000" pt_clust_7="13000.00000" pt_clust_8="13000.00000" pt_clust_9="59.39937"></scales>
<clustering>
<clus scale="   59.399">  2  9  1 -1</clus>
<clus scale="   81.171">  5  6 -1 -1</clus>
<clus scale="   97.097">  7  8 -1 -1</clus>
<clus scale="  104.260">  1  5  2 -1</clus>
<clus scale="   59.399">  2  5  1 -1</clus>
</clustering>
</event>
<event>
 9    1  0.4664604E-005  0.1235883E+03  0.7546771E-02  0.1238384E+00
         21   -1    0    0  501  502  0.00000000000E+00  0.00000000000E+00  0.86265581316E+02  0.86265581316E+02  0.00000000000E+00 0. -1.
          1   -1    0    0  502    0 -0.00000000000E+00 -0.00000000000E+00 -0.57659917532E+03  0.57659917532E+03  0.00000000000E+00 0. -1.
         23    2    1    2    0    0  0.89350743519E+02 -0.31995974228E+02 -0.48182791818E+03  0.49825390075E+03  0.84211098644E+02 0.  0.
        -24    2    1    2    0    0 -0.49335080066E+02  0.18495625523E+02  0.36733753182E+02  0.10272290332E+03  0.80166002488E+02 0.  0.
         11    1    4    4    0    0  0.81933408123E+01  0.22005938401E+02  0.38459843340E+02  0.45061643426E+02  0.00000000000E+00 0. -1.
        -12    1    4    4    0    0 -0.57528420879E+02 -0.35103128780E+01 -0.17260901575E+01  0.57661259894E+02  0.00000000000E+00 0.  1.
        -11    1    3    3    0    0  0.47785654506E+02 -0.59216596538E+02 -0.25855368021E+03  0.26951823617E+03  0.00000000000E+00 0.  1.
         11    1    3    3    0    0  0.41565089013E+02  0.27220622310E+02 -0.22327423798E+03  0.22873566457E+03  0.00000000000E+00 0. -1.
          2    1    1    2  501    0 -0.40015663453E+02  0.13500348705E+02 -0.45239429008E+02  0.61887952574E+02  0.00000000000E+00 0. -1.
<scales pt_clust_5="13000.00000" pt_clust_6="13000.00000" pt_clust_7="13000.00000" pt_clust_8="13000.00000" pt_clust_9="42.23166"></scales>
<clustering>
<clus scale="   42.232">  1  9  2 -1</clus>
<clus scale="   80.166">  5  6 -1 -1</clus>
<clus scale="   84.211">  7  8 -1 -1</clus>
<clus scale="  120.868">  1  5  2 -1</clus>
<clus scale="   42.232">  1  5  2 -1</clus>
</clustering>
</event>
<event>
 9    1  0.4664604E-005  0.1215430E+03  0.7546771E-02  0.1244124E+00
          3   -1    0    0  502    0 -0.00000000000E+00  0.00000000000E+00  0.53632963529E+03  0.53632963529E+03  0.00000000000E+00 0. -1.
         21   -1    0    0  501  502  0.00000000000E+00 -0.00000000000E+00 -0.59167671107E+02  0.59167671107E+02  0.00000000000E+00 0. -1.
         23    2    1    2    0    0 -0.68756660156E+02  0.26536441000E+02  0.33477294789E+03  0.35504325454E+03  0.92472292792E+02 0.  0.
        -24    2    1    2    0    0  0.63870921279E+02 -0.85454395540E+02  0.10762847995E+03  0.17187205205E+03  0.81081220243E+02 0.  0.
         13    1    4    4    0    0  0.28820596728E+01 -0.27589873376E+02  0.77912971775E+02  0.82703921018E+02  0.00000000000E+00 0. -1.
        -14    1    4    4    0    0  0.60988861606E+02 -0.57864522164E+02  0.29715508180E+02  0.89168131032E+02  0.00000000000E+00 0.  1.
        -13    1    3    3    0    0 -0.63290741800E+02  0.43333347718E+01  0.32329078571E+03  0.32945626101E+03  0.00000000000E+00 0. -1.
         13    1    3    3    0    0 -0.54659183560E+01  0.22203106228E+02  0.11482162179E+02  0.25586993531E+02  0.00000000000E+00 0.  1.
          4    1    1    2  501    0  0.48857388771E+01  0.58917954540E+02  0.34760536332E+02  0.68581999808E+02  0.00000000000E+00 0. -1.
<scales pt_clust_5="13000.00000" pt_clust_6="13000.00000" pt_clust_7="13000.00000" pt_clust_8="13000.00000" pt_clust_9="59.12018"></scales>
<clustering>
<clus scale="   59.120">  2  9  1 -1</clus>
<clus scale="   81.081">  5  6 -1 -1</clus>
<clus scale="   92.472">  7  8 -1 -1</clus>
<clus scale="  113.118">  2  5  1 -1</clus>
<clus scale="   59.120">  2  5  1 -1</clus>
</clustering>
</event>
<event>
 9    1  0.4664604E-005  0.1188024E+03  0.7546771E-02  0.1248290E+00
         21   -1    0    0  501  502  0.00000000000E+00  0.00000000000E+00  0.11888764724E+03  0.11888764724E+03  0.00000000000E+00 0. -1.
          1   -1    0    0  502    0 -0.00000000000E+00 -0.00000000000E+00 -0.37490302840E+03  0.37490302840E+03  0.00000000000E+00 0. -1.
         23    2    1    2    0    0 -0.15755454864E+02 -0.63843270676E+02 -0.20303647987E+03  0.23217745642E+03  0.91424075284E+02 0.  0.
        -24    2    1    2    0    0 -0.46326149400E+01  0.13906937663E+03  0.97172080572E+01  0.16158601025E+03  0.81571207787E+02 0.  0.
         11    1    4    4    0    0  0.33480609686E+01  0.53782373135E+02  0.43752887381E+02  0.69412306737E+02  0.00000000000E+00 0. -1.
        -12    1    4    4    0    0 -0.79806759087E+01  0.85287003490E+02 -0.34035679324E+02  0.92173703513E+02  0.00000000000E+00 0.  1.
        -11    1    3    3    0    0 -0.48130433430E+02 -0.36672289453E+02 -0.69692994274E+02  0.92295768520E+02  0.00000000000E+00 0.  1.
         11    1    3    3    0    0  0.32374978566E+02 -0.27170981223E+02 -0.13334348560E+03  0.13988168790E+03  0.00000000000E+00 0. -1.
          2    1    1    2  501    0  0.20388069804E+02 -0.75226105949E+02 -0.62696109351E+02  0.10002720897E+03  0.00000000000E+00 0. -1.
<scales pt_clust_5="13000.00000" pt_clust_6="13000.00000" pt_clust_7="13000.00000" pt_clust_8="13000.00000" pt_clust_9="77.94002"></scales>
<clustering>
<clus scale="   77.940">  1  9  2 -1</clus>
<clus scale="   81.571">  5  6 -1 -1</clus>
<clus scale="   91.424">  7  8 -1 -1</clus>
<clus scale="  111.398">  1  5  2 -1</clus>
<clus scale="   77.940">  1  5  2 -1</clus>
</clustering>
</event>
<event>
 9    1  0.4664604E-005  0.1798131E+03  0.7546771E-02  0.1169622E+00
         -4   -1    0    0    0  501 -0.00000000000E+00  0.00000000000E+00  0.52472994537E+03  0.52472994537E+03  0.00000000000E+00 0.  1.
         21   -1    0    0  501  502  0.00000000000E+00 -0.00000000000E+00 -0.98346137555E+02  0.98346137555E+02  0.00000000000E+00 0.  1.
        -24    2    1    2    0    0 -0.28313306986E+02 -0.14680753903E+03  0.24809326265E+03  0.29989955921E+03  0.77687719587E+02 0.  0.
         23    2    1    2    0    0 -0.33961805801E+02  0.17210152270E+03  0.10597830257E+03  0.22444944682E+03  0.91508552583E+02 0.  0.
         13    1    3    3    0    0 -0.22150452263E+02 -0.11737581432E+01  0.25158076224E+02  0.33540260031E+02  0.00000000000E+00 0. -1.
        -14    1    3    3    0    0 -0.61628547236E+01 -0.14563378088E+03  0.22293518643E+03  0.26635929918E+03  0.00000000000E+00 0.  1.
        -13    1    4    4    0    0  0.11574535044E+02  0.69496670310E+02  0.56192222949E+00  0.70456176466E+02  0.00000000000E+00 0. -1.
         13    1    4    4    0    0 -0.45536340846E+02  0.10260485239E+03  0.10541638034E+03  0.15399327036E+03  0.00000000000E+00 0.  1.
         -3    1    1    2    0  502  0.62275112788E+02 -0.25293983671E+02  0.72312242587E+02  0.98727076887E+02  0.00000000000E+00 0.  1.
<scales pt_clust_5="13000.00000" pt_clust_6="13000.00000" pt_clust_7="13000.00000" pt_clust_8="13000.00000" pt_clust_9="67.21592"></scales>
<clustering>
<clus scale="   67.216">  2  9  1 -1</clus>
<clus scale="   77.688">  5  6 -1 -1</clus>
<clus scale="   91.509">  7  8 -1 -1</clus>
<clus scale="  173.189">  1  5  2 -1</clus>
<clus scale="   67.216">  2  5  1 -1</clus>
</clustering>
</event>
<event>
 9    1  0.4664604E-005  0.9942816E+02  0.7546771E-02  0.1285873E+00
          3   -1    0    0  502    0 -0.00000000000E+00  0.00000000000E+00  0.18640505679E+03  0.18640505679E+03  0.00000000000E+00 0. -1.
         21   -1    0    0  501  502  0.00000000000E+00 -0.00000000000E+00 -0.95967547566E+02  0.95967547566E+02  0.00000000000E+00 0.  1.
         23    2    1    2    0    0 -0.53896901671E+02 -0.31292522732E+01  0.35497333142E+02  0.11118800554E+03  0.90487809596E+02 0.  0.
        -24    2    1    2    0    0  0.21275232136E+02 -0.26723326636E+02 -0.13591122825E+02  0.89625487000E+02  0.81738837840E+02 0.  0.
         11    1    4    4    0    0 -0.14341074768E+02  0.23146072063E+02 -0.59240235595E+01  0.27865769908E+02  0.00000000000E+00 0. -1.
        -12    1    4    4    0    0  0.35616306904E+02 -0.49869398699E+02 -0.76670992656E+01  0.61759717092E+02  0.00000000000E+00 0.  1.
        -11    1    3    3    0    0  0.16346021561E+02  0.23206649802E+02  0.45462769975E+00  0.28389218063E+02  0.00000000000E+00 0. -1.
         11    1    3    3    0    0 -0.70242923232E+02 -0.26335902075E+02  0.35042705443E+02  0.82798787473E+02  0.00000000000E+00 0.  1.
          4    1    1    2  501    0  0.32621669534E+02  0.29852578910E+02  0.68531298908E+02  0.81559111819E+02  0.00000000000E+00 0. -1.
<scales pt_clust_5="13000.00000" pt_clust_6="13000.00000" pt_clust_7="13000.00000" pt_clust_8="13000.00000" pt_clust_9="44.21936"></scales>
<clustering>
<clus scale="   44.219">  2  9  1 -1</clus>
<clus scale="   81.739">  5  6 -1 -1</clus>
<clus scale="   90.488">  7  8 -1 -1</clus>
<clus scale="   91.538">  2  5  1 -1</clus>
<clus scale="   44.219">  2  5  1 -1</clus>
</clustering>
</event>
<event>
 9    1  0.4664604E-005  0.1107224E+03  0.7546771E-02  0.1264948E+00
          1   -1    0    0  502    0 -0.00000000000E+00  0.00000000000E+00  0.25369054929E+03  0.25369054929E+03  0.00000000000E+00 0. -1.
         21   -1    0    0  501  502  0.00000000000E+00 -0.00000000000E+00 -0.12510077190E+03  0.12510077190E+03  0.00000000000E+00 0. -1.
         23    2    1    2    0    0 -0.21596509091E+02 -0.56516809953E+02  0.16742381701E+03  0.20030249213E+03  0.91813914189E+02 0.  0.
        -24    2    1    2    0    0 -0.20094556329E+02  0.73732161900E+02  0.13360565108E+02  0.10950484511E+03  0.77282491615E+02 0.  0.
         13    1    4    4    0    0 -0.34425560259E+02  0.72486598613E+02  0.31627485474E+02  0.86253834784E+02  0.00000000000E+00 0. -1.
        -14    1    4    4    0    0  0.14331003930E+02  0.12455632870E+01 -0.18266920366E+02  0.23251010326E+02  0.00000000000E+00 0.  1.
        -13    1    3    3    0    0 -0.53446617939E+02 -0.11432851814E+02  0.87586082707E+02  0.10324036494E+03  0.00000000000E+00 0. -1.
         13    1    3    3    0    0  0.31850108848E+02 -0.45083958140E+02  0.79837734308E+02  0.97062127189E+02  0.00000000000E+00 0.  1.
          2    1    1    2  501    0  0.41691065420E+02 -0.17215351946E+02 -0.52194604725E+02  0.68983983944E+02  0.00000000000E+00 0. -1.
<scales pt_clust_5="13000.00000" pt_clust_6="13000.00000" pt_clust_7="13000.00000" pt_clust_8="13000.00000" pt_clust_9="45.10558"></scales>
<clustering>
<clus scale="   45.106">  2  9  1 -1</clus>
<clus scale="   77.282">  5  6 -1 -1</clus>
<clus scale="   91.814">  7  8 -1 -1</clus>
<clus scale="   99.006">  2  5  1 -1</clus>
<clus scale="   45.106">  2  5  1 -1</clus>
</clustering>
</event>
<event>
 9    1  0.4664604E-005  0.1382661E+03  0.7546771E-02  0.1217401E+00
          1   -1    0    0  502    0 -0.00000000000E+00  0.00000000000E+00  0.16931385972E+03  0.16931385972E+03  0.00000000000E+00 0. -1.
         21   -1    0    0  501  502  0.00000000000E+00 -0.00000000000E+00 -0.17338727568E+03  0.17338727568E+03  0.00000000000E+00 0. -1.
         23    2    1    2    0    0 -0.62526995421E+02 -0.11079824282E+03  0.29059666545E+02  0.15846419212E+03  0.89891936208E+02 0.  0.
        -24    2    1    2    0    0  0.57602444494E+02  0.52679166347E+02 -0.49540172135E+02  0.12364593040E+03  0.82103296342E+02 0.  0.
         11    1    4    4    0    0  0.40799361823E+02  0.92224472217E+01  0.14657698559E+02  0.44322562933E+02  0.00000000000E+00 0. -1.
        -12    1    4    4    0    0  0.16803082671E+02  0.43456719126E+02 -0.64197870694E+02  0.79323367465E+02  0.00000000000E+00 0.  1.
        -13    1    3    3    0    0 -0.30140297816E+02 -0.80174873161E+02 -0.24207927562E+02  0.89008267008E+02  0.00000000000E+00 0. -1.
         13    1    3    3    0    0 -0.32386697605E+02 -0.30623369662E+02  0.53267594107E+02  0.69455925112E+02  0.00000000000E+00 0.  1.
          2    1    1    2  501    0  0.49245509277E+01  0.58119076476E+02  0.16407089628E+02  0.60591012884E+02  0.00000000000E+00 0. -1.
<scales pt_clust_5="13000.00000" pt_clust_6="13000.00000" pt_clust_7="13000.00000" pt_clust_8="13000.00000" pt_clust_9="58.32737"></scales>
<clustering>
<clus scale="   58.327">  2  9  1 -1</clus>
<clus scale="   82.103">  5  6 -1 -1</clus>
<clus scale="   89.892">  7  8 -1 -1</clus>
<clus scale="  133.334">  2  5  1 -1</clus>
<clus scale="   58.327">  2  5  1 -1</clus>
</clustering>
</event>
<event>
 9    1  0.4664604E-005  0.9221877E+02  0.7546771E-02  0.1304501E+00
         21   -1    0    0  501  502  0.00000000000E+00  0.00000000000E+00  0.91709256644E+02  0.91709256644E+02  0.00000000000E+00 0. -1.
          3   -1    0    0  502    0 -0.00000000000E+00 -0.00000000000E+00 -0.19485892577E+03  0.19485892577E+03  0.00000000000E+00 0. -1.
         23    2    1    2    0    0  0.88383089243E+01  0.21561539845E+00 -0.92760759516E+02  0.12998615782E+03  0.90629357954E+02 0.  0.
        -24    2    1    2    0    0 -0.17543521512E+01  0.57170647278E+02  0.68481524093E-01  0.97822152092E+02  0.79357470276E+02 0.  0.
         11    1    4    4    0    0  0.23128282374E+02  0.63876375799E+02  0.12717696860E+02  0.69114749831E+02  0.00000000000E+00 0. -1.
        -12    1    4    4    0    0 -0.24882634526E+02 -0.67057285212E+01 -0.12649215336E+02  0.28707402261E+02  0.00000000000E+00 0.  1.
        -13    1    3    3    0    0 -0.26637565811E+02 -0.30583574044E+02 -0.25379564581E+02  0.47843883746E+02  0.00000000000E+00 0. -1.
         13    1    3    3    0    0  0.35475874735E+02  0.30799189442E+02 -0.67381194934E+02  0.82142274069E+02  0.00000000000E+00 0.  1.
          4    1    1    2  501    0 -0.70839567731E+01 -0.57386262677E+02 -0.10457391133E+02  0.58759872505E+02  0.00000000000E+00 0. -1.
<scales pt_clust_5="13000.00000" pt_clust_6="13000.00000" pt_clust_7="13000.00000" pt_clust_8="13000.00000" pt_clust_9="57.82184"></scales>
<clustering>
<clus scale="   57.822">  1  9  2 -1</clus>
<clus scale="   79.357">  5  6 -1 -1</clus>
<clus scale="   81.168">  1  5  2 -1</clus>
<clus scale="   90.629">  7  8 -1 -1</clus>
<clus scale="   57.822">  1  5  2 -1</clus>
</clustering>
</event>
<event>
 9    1  0.4664604E-005  0.2093774E+03  0.7546771E-02  0.1143651E+00
         21   -1    0    0  501  502  0.00000000000E+00  0.00000000000E+00  0.60094275785E+03  0.60094275785E+03  0.00000000000E+00 0. -1.
          3   -1    0    0  502    0 -0.00000000000E+00 -0.00000000000E+00 -0.21696321809E+03  0.21696321809E+03  0.00000000000E+00 0. -1.
         23    2    1    2    0    0 -0.12621417501E+03  0.14022631518E+03 -0.37118108263E+02  0.21221189936E+03  0.89792532125E+02 0.  0.
        -24    2    1    2    0    0  0.21514668407E+03  0.81198860182E+01  0.14676147101E+03  0.28138569773E+03  0.10623066081E+03 0.  0.
         11    1    4    4    0    0  0.21252557991E+03 -0.18495687992E+02  0.13113057933E+03  0.25040854903E+03  0.00000000000E+00 0. -1.
        -12    1    4    4    0    0  0.26211041607E+01  0.26615574010E+02  0.15630891681E+02  0.30977148701E+02  0.00000000000E+00 0.  1.
        -13    1    3    3    0    0 -0.11078708035E+03  0.83638558729E+02 -0.57312783755E+02  0.15017969523E+03  0.00000000000E+00 0. -1.
         13    1    3    3    0    0 -0.15427094654E+02  0.56587756456E+02  0.20194675492E+02  0.62032204123E+02  0.00000000000E+00 0.  1.
          4    1    1    2  501    0 -0.88932509064E+02 -0.14834620120E+03  0.27433617701E+03  0.32430837886E+03  0.00000000000E+00 0. -1.
<scales pt_clust_5="13000.00000" pt_clust_6="13000.00000" pt_clust_7="13000.00000" pt_clust_8="13000.00000" pt_clust_9="172.96123"></scales>
<clustering>
<clus scale="   89.793">  7  8 -1 -1</clus>
<clus scale="  106.231">  5  6 -1 -1</clus>
<clus scale="  172.961">  1  9  2 -1</clus>
<clus scale="  201.536">  2  7  1 -1</clus>
<clus scale="  172.961">  1  5  2 -1</clus>
</clustering>
</event>
<event>
 9    1  0.4664604E-005  0.1203150E+03  0.7546771E-02  0.1250105E+00
          1   -1    0    0  502    0 -0.00000000000E+00  0.00000000000E+00  0.13288050589E+03  0.13288050589E+03  0.00000000000E+00 0. -1.
         21   -1    0    0  501  502  0.00000000000E+00 -0.00000000000E+00 -0.66265968185E+03  0.66265968185E+03  0.00000000000E+00 0.  1.
         23    2    1    2    0    0  0.76168951457E+01  0.49454288767E+02  0.99512733790E+02  0.14433895104E+03  0.91799808460E+02 0.  0.
        -24    2    1    2    0    0 -0.19705426133E+02  0.39630482563E+01 -0.44435957604E+03  0.45832948520E+03  0.11048291547E+03 0.  0.
         13    1    4    4    0    0  0.23410680009E+02  0.20547033270E+01 -0.17517739082E+02  0.29311310561E+02  0.00000000000E+00 0. -1.
        -14    1    4    4    0    0 -0.43116106142E+02  0.19083449293E+01 -0.42684183696E+03  0.42901817464E+03  0.00000000000E+00 0.  1.
        -13    1    3    3    0    0 -0.20593709658E+02  0.33895646041E+02  0.10446811632E+03  0.11174346972E+03  0.00000000000E+00 0. -1.
         13    1    3    3    0    0  0.28210604803E+02  0.15558642726E+02 -0.49553825279E+01  0.32595481325E+02  0.00000000000E+00 0.  1.
          2    1    1    2  501    0  0.12088530987E+02 -0.53417337023E+02 -0.18493233371E+03  0.19287175150E+03  0.00000000000E+00 0. -1.
<scales pt_clust_5="13000.00000" pt_clust_6="13000.00000" pt_clust_7="13000.00000" pt_clust_8="13000.00000" pt_clust_9="54.76810"></scales>
<clustering>
<clus scale="   54.768">  2  9  1 -1</clus>
<clus scale="   91.800">  7  8 -1 -1</clus>
<clus scale="  103.423">  1  7  2 -1</clus>
<clus scale="  110.483">  5  6 -1 -1</clus>
<clus scale="   54.768">  2  5  1 -1</clus>
</clustering>
</event>
<event>
 9    1  0.4664604E-005  0.9271824E+02  0.7546771E-02  0.1301679E+00
         -4   -1    0    0    0  501 -0.00000000000E+00  0.00000000000E+00  0.46333387032E+02  0.46333387032E+02  0.00000000000E+00 0.  1.
         21   -1    0    0  501  502  0.00000000000E+00 -0.00000000000E+00 -0.28903925416E+03  0.28903925416E+03  0.00000000000E+00 0. -1.
        -24    2    1    2    0    0  0.24519645235E+01  0.50973443062E+02 -0.49630333361E+02  0.10227719077E+03  0.73438067340E+02 0.  0.
         23    2    1    2    0    0 -0.39401628586E+01 -0.27270343111E+02 -0.83677358279E+02  0.12114897892E+03  0.83162361127E+02 0.  0.
         13    1    3    3    0    0  0.36410974918E+02  0.35127755882E+02 -0.19609158844E+02  0.54260827845E+02  0.00000000000E+00 0. -1.
        -14    1    3    3    0    0 -0.33959010395E+02  0.15845687180E+02 -0.30021174517E+02  0.48016362925E+02  0.00000000000E+00 0.  1.
        -11    1    4    4    0    0 -0.63876490985E-01  0.24727704745E+02 -0.27527627281E+01  0.24880537872E+02  0.00000000000E+00 0.  1.
         11    1    4    4    0    0 -0.38762863676E+01 -0.51998047856E+02 -0.80924595551E+02  0.96268441049E+02  0.00000000000E+00 0. -1.
         -3    1    1    2    0  502  0.14881983351E+01 -0.23703099951E+02 -0.10939817548E+03  0.11194647150E+03  0.00000000000E+00 0.  1.
<scales pt_clust_5="13000.00000" pt_clust_6="13000.00000" pt_clust_7="13000.00000" pt_clust_8="13000.00000" pt_clust_9="23.74977"></scales>
<clustering>
<clus scale="   23.750">  2  9  1 -1</clus>
<clus scale="   73.438">  5  6 -1 -1</clus>
<clus scale="   83.162">  7  8 -1 -1</clus>
<clus scale="   84.106">  1  5  2 -1</clus>
<clus scale="   23.750">  2  5  1 -1</clus>
</clustering>
</event>
<event>
 9    1  0.4664604E-005  0.2097327E+03  0.7546771E-02  0.1173796E+00
         21   -1    0    0  501  502  0.00000000000E+00  0.00000000000E+00  0.20277785888E+03  0.20277785888E+03  0.00000000000E+00 0. -1.
          1   -1    0    0  502    0 -0.00000000000E+00 -0.00000000000E+00 -0.45425262184E+03  0.45425262184E+03  0.00000000000E+00 0. -1.
        -24    2    1    2    0    0  0.55293879270E+02 -0.70407236484E+01  0.80370151248E+02  0.12769449753E+03  0.82094692965E+02 0.  0.
         23    2    1    2    0    0  0.37953861380E+02  0.17687575922E+03 -0.23988037273E+03  0.31486790321E+03  0.94200177589E+02 0.  0.
         13    1    3    3    0    0  0.37294927417E+02 -0.33860777780E+02  0.81003086219E+02  0.95388489138E+02  0.00000000000E+00 0. -1.
        -14    1    3    3    0    0  0.17998951852E+02  0.26820054132E+02 -0.63293497101E+00  0.32306008390E+02  0.00000000000E+00 0.  1.
        -11    1    4    4    0    0 -0.20909713584E+02  0.10170136863E+03 -0.91334451519E+02  0.13828364523E+03  0.00000000000E+00 0.  1.
         11    1    4    4    0    0  0.58863574964E+02  0.75174390582E+02 -0.14854592121E+03  0.17658425798E+03  0.00000000000E+00 0. -1.
          2    1    1    2  501    0 -0.93247740649E+02 -0.16983503557E+03 -0.91964541485E+02  0.21446807999E+03  0.00000000000E+00 0. -1.
<scales pt_clust_5="13000.00000" pt_clust_6="13000.00000" pt_clust_7="13000.00000" pt_clust_8="13000.00000" pt_clust_9="187.38761"></scales>
<clustering>
<clus scale="   82.095">  5  6 -1 -1</clus>
<clus scale="   94.200">  7  8 -1 -1</clus>
<clus scale="   99.230">  2  5  1 -1</clus>
<clus scale="  187.388">  1  9  2 -1</clus>
<clus scale="  187.388">  1  5  2 -1</clus>
</clustering>
</event>
<event>
 9    1  0.4664604E-005  0.1880832E+03  0.7546771E-02  0.1161816E+00
         21   -1    0    0  501  502  0.00000000000E+00  0.00000000000E+00  0.34669040413E+03  0.34669040413E+03  0.00000000000E+00 0.  1.
         -2   -1    0    0    0  501 -0.00000000000E+00 -0.00000000000E+00 -0.13349490230E+03  0.13349490230E+03  0.00000000000E+00 0.  1.
        -24    2    1    2    0    0 -0.11269883333E+03 -0.10928323066E+03  0.41328281646E+02  0.18131922009E+03  0.80776117587E+02 0.  0.
         23    2    1    2    0    0  0.15072614388E+03  0.88387475937E+02  0.15518869329E+03  0.25238079649E+03  0.95298581111E+02 0.  0.
         13    1    3    3    0    0 -0.49748499445E+02  0.39249633558E+00  0.66466254303E+01  0.50192079853E+02  0.00000000000E+00 0. -1.
        -14    1    3    3    0    0 -0.62950333884E+02 -0.10967572700E+03  0.34681656216E+02  0.13112714024E+03  0.00000000000E+00 0.  1.
        -13    1    4    4    0    0  0.12505341696E+03  0.10909507287E+03  0.12652931059E+03  0.20868578883E+03  0.00000000000E+00 0.  1.
         13    1    4    4    0    0  0.25672726915E+02 -0.20707596937E+02  0.28659382699E+02  0.43695007665E+02  0.00000000000E+00 0. -1.
         -1    1    1    2    0  502 -0.38027310551E+02  0.20895754728E+02  0.16678526893E+02  0.46485289853E+02  0.00000000000E+00 0.  1.
<scales pt_clust_5="13000.00000" pt_clust_6="13000.00000" pt_clust_7="13000.00000" pt_clust_8="13000.00000" pt_clust_9="43.39022"></scales>
<clustering>
<clus scale="   43.390">  1  9  2 -1</clus>
<clus scale="   80.776">  5  6 -1 -1</clus>
<clus scale="   95.299">  7  8 -1 -1</clus>
<clus scale="  181.158">  2  5  1 -1</clus>
<clus scale="   43.390">  1  5  2 -1</clus>
</clustering>
</event>
<event>
 9    1  0.4664604E-005  0.9168161E+02  0.7546771E-02  0.1304993E+00
          1   -1    0    0  502    0 -0.00000000000E+00  0.00000000000E+00  0.12407730568E+03  0.12407730568E+03  0.00000000000E+00 0. -1.
         21   -1    0    0  501  502  0.00000000000E+00 -0.00000000000E+00 -0.84267619910E+03  0.84267619910E+03  0.00000000000E+00 0.  1.
         23    2    1    2    0    0 -0.73012983985E+01  0.10386710484E+02  0.10224517924E+03  0.13726105572E+03  0.90693594192E+02 0.  0.
        -24    2    1    2    0    0  0.12844405991E+02 -0.38805477486E+02 -0.61903552404E+03  0.62561738275E+03  0.80754478068E+02 0.  0.
         11    1    4    4    0    0  0.58052762381E+00 -0.32521052372E+02 -0.79373095379E+02  0.85779042486E+02  0.00000000000E+00 0. -1.
        -12    1    4    4    0    0  0.12263878367E+02 -0.62844251138E+01 -0.53966242866E+03  0.53983834027E+03  0.00000000000E+00 0.  1.
        -11    1    3    3    0    0  0.10276160774E+02  0.43321047095E+02  0.24031004767E+02  0.50594483807E+02  0.00000000000E+00 0.  1.
         11    1    3    3    0    0 -0.17577459173E+02 -0.32934336611E+02  0.78214174476E+02  0.86666571918E+02  0.00000000000E+00 0. -1.
          2    1    1    2  501    0 -0.55431075923E+01  0.28418767002E+02 -0.20180854863E+03  0.20387506630E+03  0.00000000000E+00 0. -1.
<scales pt_clust_5="13000.00000" pt_clust_6="13000.00000" pt_clust_7="13000.00000" pt_clust_8="13000.00000" pt_clust_9="28.95432"></scales>
<clustering>
<clus scale="   28.954">  2  9  1 -1</clus>
<clus scale="   80.754">  5  6 -1 -1</clus>
<clus scale="   81.863">  2  5  1 -1</clus>
<clus scale="   90.694">  7  8 -1 -1</clus>
<clus scale="   28.954">  2  5  1 -1</clus>
</clustering>
</event>
<event>
 9    1  0.4664604E-005  0.1232595E+03  0.7546771E-02  0.1258681E+00
         21   -1    0    0  501  502  0.00000000000E+00  0.00000000000E+00  0.75605886067E+03  0.75605886067E+03  0.00000000000E+00 0. -1.
         -2   -1    0    0    0  501 -0.00000000000E+00 -0.00000000000E+00 -0.32641757675E+02  0.32641757675E+02  0.00000000000E+00 0.  1.
        -24    2    1    2    0    0 -0.39239312231E+02  0.30476778004E+02  0.90190395416E+02  0.12131917983E+03  0.64151994096E+02 0.  0.
         23    2    1    2    0    0 -0.58471216938E+02 -0.99820312446E+01  0.31237350885E+03  0.33135441983E+03  0.93273888901E+02 0.  0.
         13    1    3    3    0    0 -0.50256732113E+01  0.42572876447E+02  0.35372336428E+02  0.55577957722E+02  0.00000000000E+00 0. -1.
        -14    1    3    3    0    0 -0.34213639019E+02 -0.12096098443E+02  0.54818058988E+02  0.65741222104E+02  0.00000000000E+00 0.  1.
        -13    1    4    4    0    0  0.10833509257E+02  0.27571534853E+02  0.59274671877E+02  0.66264931775E+02  0.00000000000E+00 0.  1.
         13    1    4    4    0    0 -0.69304726196E+02 -0.37553566098E+02  0.25309883697E+03  0.26508948805E+03  0.00000000000E+00 0. -1.
         -1    1    1    2    0  502  0.97710529169E+02 -0.20494746760E+02  0.32085319874E+03  0.33602701870E+03  0.00000000000E+00 0.  1.
<scales pt_clust_5="13000.00000" pt_clust_6="13000.00000" pt_clust_7="13000.00000" pt_clust_8="13000.00000" pt_clust_9="80.57855"></scales>
<clustering>
<clus scale="   64.152">  5  6 -1 -1</clus>
<clus scale="   81.142">  2  5  1 -1</clus>
<clus scale="   80.579">  1  9  2 -1</clus>
<clus scale="   93.274">  7  8 -1 -1</clus>
<clus scale="   80.579">  1  5  2 -1</clus>
</clustering>
</event>
<event>
 9    1  0.4664604E-005  0.1918005E+03  0.7546771E-02  0.1157928E+00
         -2   -1    0    0    0  501 -0.00000000000E+00  0.00000000000E+00  0.65745797056E+03  0.65745797056E+03  0.00000000000E+00 0.  1.
         21   -1    0    0  501  502  0.00000000000E+00 -0.00000000000E+00 -0.89789410510E+02  0.89789410510E+02  0.00000000000E+00 0.  1.
        -24    2    1    2    0    0  0.15185898581E+03 -0.12005949140E+03  0.37633672037E+03  0.43081193324E+03  0.80586361581E+02 0.  0.
         23    2    1    2    0    0 -0.13133667546E+03  0.53403049476E+02  0.17853654085E+03  0.24552729495E+03  0.91143557824E+02 0.  0.
         13    1    3    3    0    0  0.31459264325E+02 -0.71216457515E+02  0.11380728773E+03  0.13788969459E+03  0.00000000000E+00 0. -1.
        -14    1    3    3    0    0  0.12039972148E+03 -0.48843033889E+02  0.26252943265E+03  0.29292223865E+03  0.00000000000E+00 0.  1.
        -11    1    4    4    0    0 -0.33322181653E+02  0.39953852992E+02  0.14572446853E+02  0.54028088679E+02  0.00000000000E+00 0. -1.
         11    1    4    4    0    0 -0.98014493811E+02  0.13449196484E+02  0.16396409400E+03  0.19149920627E+03  0.00000000000E+00 0.  1.
         -1    1    1    2    0  502 -0.20522310344E+02  0.66656441927E+02  0.12795298823E+02  0.70908152876E+02  0.00000000000E+00 0.  1.
<scales pt_clust_5="13000.00000" pt_clust_6="13000.00000" pt_clust_7="13000.00000" pt_clust_8="13000.00000" pt_clust_9="69.74415"></scales>
<clustering>
<clus scale="   69.744">  2  9  1 -1</clus>
<clus scale="   80.586">  5  6 -1 -1</clus>
<clus scale="   91.144">  7  8 -1 -1</clus>
<clus scale="  187.015">  1  5  2 -1</clus>
<clus scale="   69.744">  2  5  1 -1</clus>
</clustering>
</event>
<event>
 9    1  0.4664604E-005  0.1686347E+03  0.7546771E-02  0.1180600E+00
         21   -1    0    0  501  502  0.00000000000E+00  0.00000000000E+00  0.31017782421E+03  0.31017782421E+03  0.00000000000E+00 0. -1.
          1   -1    0    0  502    0 -0.00000000000E+00 -0.00000000000E+00 -0.21531872064E+03  0.21531872064E+03  0.00000000000E+00 0. -1.
        -24    2    1    2    0    0 -0.24272740383E+02  0.18989802616E+03 -0.71003972374E+02  0.21919577635E+03  0.79716986961E+02 0.  0.
         23    2    1    2    0    0 -0.39944637430E+02 -0.81064505794E+02  0.56244406647E+02  0.13901401042E+03  0.89411596868E+02 0.  0.
         11    1    3    3    0    0 -0.29463402757E+02  0.17550459544E+03 -0.86106041699E+02  0.19769725729E+03  0.00000000000E+00 0. -1.
        -12    1    3    3    0    0  0.51906623741E+01  0.14393430722E+02  0.15102069325E+02  0.21498519059E+02  0.00000000000E+00 0.  1.
        -13    1    4    4    0    0 -0.64958082709E+02 -0.77352577803E+02  0.38391699048E+02  0.10805968887E+03  0.00000000000E+00 0.  1.
         13    1    4    4    0    0  0.25013445280E+02 -0.37119279919E+01  0.17852707600E+02  0.30954321553E+02  0.00000000000E+00 0. -1.
          2    1    1    2  501    0  0.64217377812E+02 -0.10883352037E+03  0.10961866930E+03  0.16728675808E+03  0.00000000000E+00 0. -1.
<scales pt_clust_5="13000.00000" pt_clust_6="13000.00000" pt_clust_7="13000.00000" pt_clust_8="13000.00000" pt_clust_9="126.36695"></scales>
<clustering>
<clus scale="   79.717">  5  6 -1 -1</clus>
<clus scale="   89.412">  7  8 -1 -1</clus>
<clus scale="  126.367">  1  9  2 -1</clus>
<clus scale="  163.701">  2  5  1 -1</clus>
<clus scale="  126.367">  1  5  2 -1</clus>
</clustering>
</event>
<event>
 9    1  0.4664604E-005  0.1096944E+03  0.7546771E-02  0.1266476E+00
         21   -1    0    0  501  502  0.00000000000E+00  0.00000000000E+00  0.63403272127E+02  0.63403272127E+02  0.00000000000E+00 0. -1.
          3   -1    0    0  502    0 -0.00000000000E+00 -0.00000000000E+00 -0.37913011781E+03  0.37913011781E+03  0.00000000000E+00 0. -1.
        -24    2    1    2    0    0 -0.83267421197E+02  0.10294492759E+02 -0.11505797434E+03  0.16208902470E+03  0.77427866146E+02 0.  0.
         23    2    1    2    0    0  0.28659578913E+02  0.88837412355E+01 -0.30115953441E+02  0.10033851052E+03  0.90887588367E+02 0.  0.
         13    1    3    3    0    0 -0.74914783036E+02 -0.23113432124E+02 -0.68026040423E+02  0.10379786914E+03  0.00000000000E+00 0. -1.
        -14    1    3    3    0    0 -0.83526381612E+01  0.33407924883E+02 -0.47031933913E+02  0.58291155563E+02  0.00000000000E+00 0.  1.
        -13    1    4    4    0    0 -0.20125562511E+02 -0.85957505328E+01 -0.41830177639E+02  0.47208992310E+02  0.00000000000E+00 0.  1.
         13    1    4    4    0    0  0.48785141425E+02  0.17479491768E+02  0.11714224198E+02  0.53129518207E+02  0.00000000000E+00 0. -1.
          4    1    1    2  501    0  0.54607842284E+02 -0.19178233994E+02 -0.17055291791E+03  0.18010585472E+03  0.00000000000E+00 0. -1.
<scales pt_clust_5="13000.00000" pt_clust_6="13000.00000" pt_clust_7="13000.00000" pt_clust_8="13000.00000" pt_clust_9="57.87767"></scales>
<clustering>
<clus scale="   57.878">  1  9  2 -1</clus>
<clus scale="   77.428">  5  6 -1 -1</clus>
<clus scale="   90.888">  7  8 -1 -1</clus>
<clus scale="   98.830">  2  5  1 -1</clus>
<clus scale="   57.878">  1  5  2 -1</clus>
</clustering>
</event>
<event>
 9    1  0.4664604E-005  0.9250843E+02  0.7546771E-02  0.1305193E+00
         21   -1    0    0  501  502  0.00000000000E+00  0.00000000000E+00  0.34029103297E+03  0.34029103297E+03  0.00000000000E+00 0.  1.
          1   -1    0    0  502    0 -0.00000000000E+00 -0.00000000000E+00 -0.26994949644E+03  0.26994949644E+03  0.00000000000E+00 0. -1.
         23    2    1    2    0    0  0.13558933505E+02 -0.16500398653E+00 -0.25289603202E+03  0.26933068928E+03  0.91644668541E+02 0.  0.
        -24    2    1    2    0    0  0.11853528360E+02  0.45366434466E+01  0.20387221476E+03  0.21879107771E+03  0.78387297859E+02 0.  0.
         13    1    4    4    0    0  0.39427461864E+02 -0.10102344903E+02  0.66917778399E+02  0.78323503417E+02  0.00000000000E+00 0. -1.
        -14    1    4    4    0    0 -0.27573933504E+02  0.14638988349E+02  0.13695443636E+03  0.14046757429E+03  0.00000000000E+00 0.  1.
        -11    1    3    3    0    0 -0.11605357235E+02  0.37853798107E+02 -0.17174075449E+03  0.17624551370E+03  0.00000000000E+00 0.  1.
         11    1    3    3    0    0  0.25164290740E+02 -0.38018802094E+02 -0.81155277532E+02  0.93085175578E+02  0.00000000000E+00 0. -1.
          2    1    1    2  501    0 -0.25412461865E+02 -0.43716394600E+01  0.11936535380E+03  0.12211876243E+03  0.00000000000E+00 0. -1.
<scales pt_clust_5="13000.00000" pt_clust_6="13000.00000" pt_clust_7="13000.00000" pt_clust_8="13000.00000" pt_clust_9="25.78574"></scales>
<clustering>
<clus scale="   25.786">  1  9  2 -1</clus>
<clus scale="   78.387">  5  6 -1 -1</clus>
<clus scale="   79.395">  1  5  2 -1</clus>
<clus scale="   91.645">  7  8 -1 -1</clus>
<clus scale="   25.786">  1  5  2 -1</clus>
</clustering>
</event>
<event>
 9    1  0.4664604E-005  0.1018560E+03  0.7546771E-02  0.1281574E+00
         21   -1    0    0  501  502  0.00000000000E+00  0.00000000000E+00  0.14726085087E+03  0.14726085087E+03  0.00000000000E+00 0. -1.
          1   -1    0    0  502    0 -0.00000000000E+00 -0.00000000000E+00 -0.21975967010E+03  0.21975967010E+03  0.00000000000E+00 0. -1.
        -24    2    1    2    0    0  0.14515545022E+02 -0.68972636510E+02 -0.38911801693E+02  0.11427853390E+03  0.81101968931E+02 0.  0.
         23    2    1    2    0    0  0.34084785425E+02 -0.14585914852E+02  0.62006001562E+02  0.11679328747E+03  0.91768220305E+02 0.  0.
         13    1    3    3    0    0 -0.68473070246E+01 -0.78290040181E+02 -0.44497871774E+02  0.90312106595E+02  0.00000000000E+00 0. -1.
        -14    1    3    3    0    0  0.21362852046E+02  0.93174036714E+01  0.55860700815E+01  0.23966427303E+02  0.00000000000E+00 0.  1.
        -13    1    4    4    0    0  0.57896690645E+02  0.13650267880E+02  0.50717623335E+02  0.78170543798E+02  0.00000000000E+00 0. -1.
         13    1    4    4    0    0 -0.23811905220E+02 -0.28236182732E+02  0.11288378227E+02  0.38622743668E+02  0.00000000000E+00 0.  1.
          2    1    1    2  501    0 -0.48600330447E+02  0.83558551362E+02 -0.95593019094E+02  0.13594869961E+03  0.00000000000E+00 0. -1.
<scales pt_clust_5="13000.00000" pt_clust_6="13000.00000" pt_clust_7="13000.00000" pt_clust_8="13000.00000" pt_clust_9="96.66454"></scales>
<clustering>
<clus scale="   81.102">  5  6 -1 -1</clus>
<clus scale="   91.768">  7  8 -1 -1</clus>
<clus scale="   96.665">  1  9  2 -1</clus>
<clus scale="   92.362">  2  5  1 -1</clus>
<clus scale="   96.665">  1  5  2 -1</clus>
</clustering>
</event>
<event>
 9    1  0.4664604E-005  0.1177116E+03  0.7546771E-02  0.1256887E+00
          3   -1    0    0  502    0 -0.00000000000E+00  0.00000000000E+00  0.13909362113E+03  0.13909362113E+03  0.00000000000E+00 0. -1.
         21   -1    0    0  501  502  0.00000000000E+00 -0.00000000000E+00 -0.21208689066E+03  0.21208689066E+03  0.00000000000E+00 0. -1.
         23    2    1    2    0    0  0.59958288207E+02  0.40364629441E+02  0.81952610696E+02  0.14409951403E+03  0.93936893222E+02 0.  0.
        -24    2    1    2    0    0 -0.37438188062E+02 -0.57209949209E+02 -0.15165208871E+03  0.17876547603E+03  0.65453366576E+02 0.  0.
         11    1    4    4    0    0 -0.56027615620E+02 -0.36765015840E+02 -0.10654943084E+03  0.12587112979E+03  0.00000000000E+00 0. -1.
        -12    1    4    4    0    0  0.18589427558E+02 -0.20444933369E+02 -0.45102657870E+02  0.52894346242E+02  0.00000000000E+00 0.  1.
        -11    1    3    3    0    0  0.37221896576E+02  0.12774525903E+02 -0.13947960543E+02  0.41751690985E+02  0.00000000000E+00 0.  1.
         11    1    3    3    0    0  0.22736391631E+02  0.27590103538E+02  0.95900571238E+02  0.10234782304E+03  0.00000000000E+00 0. -1.
          4    1    1    2  501    0 -0.22520100145E+02  0.16845319768E+02 -0.32937915260E+01  0.28315521737E+02  0.00000000000E+00 0. -1.
<scales pt_clust_5="13000.00000" pt_clust_6="13000.00000" pt_clust_7="13000.00000" pt_clust_8="13000.00000" pt_clust_9="28.12331"></scales>
<clustering>
<clus scale="   28.123">  2  9  1 -1</clus>
<clus scale="   65.453">  5  6 -1 -1</clus>
<clus scale="   93.937">  7  8 -1 -1</clus>
<clus scale="   96.520">  2  5  1 -1</clus>
<clus scale="   28.123">  2  5  1 -1</clus>
</clustering>
</event>
<event>
 9    1  0.4664604E-005  0.9830907E+02  0.7546771E-02  0.1292670E+00
         21   -1    0    0  501  502  0.00000000000E+00  0.00000000000E+00  0.25883453603E+02  0.25883453603E+02  0.00000000000E+00 0.  1.
          1   -1    0    0  502    0 -0.00000000000E+00 -0.00000000000E+00 -0.51695600585E+03  0.51695600585E+03  0.00000000000E+00 0. -1.
         23    2    1    2    0    0  0.26117614212E+02 -0.27960685210E+02 -0.25085763309E+03  0.27134341467E+03  0.96092491481E+02 0.  0.
        -24    2    1    2    0    0  0.86476289665E+01  0.63850632726E+01 -0.12467190850E+03  0.14892232448E+03  0.80741708183E+02 0.  0.
         13    1    4    4    0    0  0.13081375491E+01  0.34221706260E+02 -0.11262260487E+03  0.11771443213E+03  0.00000000000E+00 0. -1.
        -14    1    4    4    0    0  0.73394914174E+01 -0.27836642987E+02 -0.12049303622E+02  0.31207892349E+02  0.00000000000E+00 0.  1.
        -11    1    3    3    0    0 -0.21804086197E+02  0.19444830881E+02 -0.37176451205E+02  0.47282218085E+02  0.00000000000E+00 0.  1.
         11    1    3    3    0    0  0.47921700409E+02 -0.47405516091E+02 -0.21368118188E+03  0.22406119659E+03  0.00000000000E+00 0. -1.
          2    1    1    2  501    0 -0.34765243178E+02  0.21575621938E+02 -0.11554301066E+03  0.12257372030E+03  0.00000000000E+00 0. -1.
<scales pt_clust_5="13000.00000" pt_clust_6="13000.00000" pt_clust_7="13000.00000" pt_clust_8="13000.00000" pt_clust_9="40.91615"></scales>
<clustering>
<clus scale="   40.916">  1  9  2 -1</clus>
<clus scale="   80.742">  5  6 -1 -1</clus>
<clus scale="   83.367">  1  5  2 -1</clus>
<clus scale="   96.092">  7  8 -1 -1</clus>
<clus scale="   40.916">  1  5  2 -1</clus>
</clustering>
</event>
<event>
 9    1  0.4664604E-005  0.9304746E+02  0.7546771E-02  0.1302007E+00
         -2   -1    0    0    0  501 -0.00000000000E+00  0.00000000000E+00  0.95975474442E+02  0.95975474442E+02  0.00000000000E+00 0.  1.
         21   -1    0    0  501  502  0.00000000000E+00 -0.00000000000E+00 -0.18866744475E+03  0.18866744475E+03  0.00000000000E+00 0. -1.
        -24    2    1    2    0    0 -0.74653599342E+01 -0.14236100146E+02  0.51112952776E+02  0.97001242616E+02  0.80859810667E+02 0.  0.
         23    2    1    2    0    0  0.28910039749E+02  0.10275415232E+02 -0.10116645087E+03  0.13975012586E+03  0.91400614546E+02 0.  0.
         13    1    3    3    0    0  0.76457364471E+01 -0.35054784416E+02  0.59894717624E+02  0.69818854155E+02  0.00000000000E+00 0. -1.
        -14    1    3    3    0    0 -0.15111096381E+02  0.20818684270E+02 -0.87817648479E+01  0.27182388461E+02  0.00000000000E+00 0.  1.
        -11    1    4    4    0    0  0.97654031423E+01 -0.29159540154E+02 -0.14061929337E+01  0.30783425071E+02  0.00000000000E+00 0.  1.
         11    1    4    4    0    0  0.19144636607E+02  0.39434955385E+02 -0.99760257937E+02  0.10896670079E+03  0.00000000000E+00 0. -1.
         -1    1    1    2    0  502 -0.21444679815E+02  0.39606849144E+01 -0.42638472212E+02  0.47891550716E+02  0.00000000000E+00 0.  1.
<scales pt_clust_5="13000.00000" pt_clust_6="13000.00000" pt_clust_7="13000.00000" pt_clust_8="13000.00000" pt_clust_9="21.80737"></scales>
<clustering>
<clus scale="   21.807">  2  9  1 -1</clus>
<clus scale="   80.860">  5  6 -1 -1</clus>
<clus scale="   82.717">  1  5  2 -1</clus>
<clus scale="   91.401">  7  8 -1 -1</clus>
<clus scale="   21.807">  2  5  1 -1</clus>
</clustering>
</event>
<event>
 9    1  0.4664604E-005  0.1041290E+03  0.7546771E-02  0.1277856E+00
         21   -1    0    0  501  502  0.00000000000E+00  0.00000000000E+00  0.24939640235E+03  0.24939640235E+03  0.00000000000E+00 0. -1.
          1   -1    0    0  502    0 -0.00000000000E+00 -0.00000000000E+00 -0.33186230187E+03  0.33186230187E+03  0.00000000000E+00 0. -1.
         23    2    1    2    0    0  0.17904975567E+02  0.50857269402E+02 -0.29416405707E+03  0.31264793768E+03  0.91154761061E+02 0.  0.
        -24    2    1    2    0    0 -0.32379250670E+02 -0.12323391960E+02  0.44085028886E+02  0.96017240435E+02  0.77945742832E+02 0.  0.
         13    1    4    4    0    0  0.10232408955E+02  0.17819868333E+02 -0.82128939069E+01  0.22129200771E+02  0.00000000000E+00 0. -1.
        -14    1    4    4    0    0 -0.42611659625E+02 -0.30143260292E+02  0.52297922793E+02  0.73888039665E+02  0.00000000000E+00 0.  1.
        -13    1    3    3    0    0  0.46936289011E+02  0.50858826343E+02 -0.25287347767E+03  0.26217290316E+03  0.00000000000E+00 0. -1.
         13    1    3    3    0    0 -0.29031313444E+02 -0.15569405132E-02 -0.41290579399E+02  0.50475034521E+02  0.00000000000E+00 0.  1.
          2    1    1    2  501    0  0.14474275103E+02 -0.38533877443E+02  0.16761312866E+03  0.17259352610E+03  0.00000000000E+00 0. -1.
<scales pt_clust_5="13000.00000" pt_clust_6="13000.00000" pt_clust_7="13000.00000" pt_clust_8="13000.00000" pt_clust_9="41.16266"></scales>
<clustering>
<clus scale="   41.163">  1  9  2 -1</clus>
<clus scale="   77.946">  5  6 -1 -1</clus>
<clus scale="   91.155">  7  8 -1 -1</clus>
<clus scale="   92.786">  1  5  2 -1</clus>
<clus scale="   41.163">  1  5  2 -1</clus>
</clustering>
</event>
<event>
 9    1  0.4664604E-005  0.1160213E+03  0.7546771E-02  0.1252524E+00
         21   -1    0    0  501  502  0.00000000000E+00  0.00000000000E+00  0.73626795778E+02  0.73626795778E+02  0.00000000000E+00 0.  1.
         -2   -1    0    0    0  501 -0.00000000000E+00 -0.00000000000E+00 -0.35987626677E+03  0.35987626677E+03  0.00000000000E+00 0.  1.
        -24    2    1    2    0    0 -0.38325613922E+02 -0.87958670104E+02 -0.23301332792E+03  0.26463248335E+03  0.80805692431E+02 0.  0.
         23    2    1    2    0    0  0.96277273744E+01  0.33692547848E+02 -0.48775051533E+02  0.10732155763E+03  0.88943972061E+02 0.  0.
         11    1    3    3    0    0 -0.33056640392E+02 -0.99460132425E+02 -0.16515373565E+03  0.19560372137E+03  0.00000000000E+00 0. -1.
        -12    1    3    3    0    0 -0.52689735303E+01  0.11501462321E+02 -0.67859592271E+02  0.69028761982E+02  0.00000000000E+00 0.  1.
        -13    1    4    4    0    0  0.47807452378E+02  0.62330331086E+01 -0.20057388832E+02  0.52217832695E+02  0.00000000000E+00 0.  1.
         13    1    4    4    0    0 -0.38179725004E+02  0.27459514740E+02 -0.28717662702E+02  0.55103724939E+02  0.00000000000E+00 0. -1.
         -1    1    1    2    0  502  0.28697886548E+02  0.54266122256E+02 -0.44610915384E+01  0.61549021557E+02  0.00000000000E+00 0.  1.
<scales pt_clust_5="13000.00000" pt_clust_6="13000.00000" pt_clust_7="13000.00000" pt_clust_8="13000.00000" pt_clust_9="61.38714"></scales>
<clustering>
<clus scale="   61.387">  1  9  2 -1</clus>
<clus scale="   80.806">  5  6 -1 -1</clus>
<clus scale="   88.944">  7  8 -1 -1</clus>
<clus scale="  109.907">  2  5  1 -1</clus>
<clus scale="   61.387">  1  5  2 -1</clus>
</clustering>
</event>
<event>
 9    1  0.4664604E-005  0.1082463E+03  0.7546771E-02  0.1269599E+00
         21   -1    0    0  501  502  0.00000000000E+00  0.00000000000E+00  0.29655279277E+03  0.29655279277E+03  0.00000000000E+00 0. -1.
          1   -1    0    0  502    0 -0.00000000000E+00 -0.00000000000E+00 -0.98515483621E+02  0.98515483621E+02  0.00000000000E+00 0. -1.
         23    2    1    2    0    0 -0.16174552095E+01  0.28715191176E+02  0.32183420692E+02  0.10380740687E+03  0.94408827911E+02 0.  0.
        -24    2    1    2    0    0  0.70902036009E+02 -0.92098278232E+02  0.12465048038E+03  0.18871580773E+03  0.81035314918E+02 0.  0.
         11    1    4    4    0    0  0.16041678286E+02 -0.34752551424E+02 -0.30139973914E+01  0.38394784190E+02  0.00000000000E+00 0. -1.
        -12    1    4    4    0    0  0.54860357723E+02 -0.57345726808E+02  0.12766447777E+03  0.15032102354E+03  0.00000000000E+00 0.  1.
        -13    1    3    3    0    0  0.35018215141E+02 -0.12317770478E+02  0.31672560533E+02  0.48797069091E+02  0.00000000000E+00 0. -1.
         13    1    3    3    0    0 -0.36635670351E+02  0.41032961654E+02  0.51086015900E+00  0.55010337776E+02  0.00000000000E+00 0.  1.
          2    1    1    2  501    0 -0.69284580799E+02  0.63383087056E+02  0.41203408075E+02  0.10254506179E+03  0.00000000000E+00 0. -1.
<scales pt_clust_5="13000.00000" pt_clust_6="13000.00000" pt_clust_7="13000.00000" pt_clust_8="13000.00000" pt_clust_9="93.90302"></scales>
<clustering>
<clus scale="   81.035">  5  6 -1 -1</clus>
<clus scale="   93.903">  1  9  2 -1</clus>
<clus scale="   94.409">  7  8 -1 -1</clus>
<clus scale="   96.804">  1  5  2 -1</clus>
<clus scale="   93.903">  1  5  2 -1</clus>
</clustering>
</event>
<event>
 9    1  0.4664604E-005  0.1167762E+03  0.7546771E-02  0.1251461E+00
         -2   -1    0    0    0  501 -0.00000000000E+00  0.00000000000E+00  0.11226721602E+03  0.11226721602E+03  0.00000000000E+00 0.  1.
         21   -1    0    0  501  502  0.00000000000E+00 -0.00000000000E+00 -0.55650628337E+03  0.55650628337E+03  0.00000000000E+00 0. -1.
         23    2    1    2    0    0  0.35243703071E+02 -0.56948952887E+02  0.69130616504E+02  0.13176100807E+03  0.89981216195E+02 0.  0.
        -24    2    1    2    0    0 -0.35726502594E+02  0.15462422743E+02 -0.26539722849E+03  0.28559311280E+03  0.98042173003E+02 0.  0.
         11    1    4    4    0    0 -0.39623903949E+02  0.29274592015E+02 -0.26667259861E+03  0.27118504817E+03  0.00000000000E+00 0. -1.
        -12    1    4    4    0    0  0.38974013551E+01 -0.13812169271E+02  0.12753701292E+01  0.14408064626E+02  0.00000000000E+00 0.  1.
        -13    1    3    3    0    0  0.98872394636E+01 -0.78353461744E+02  0.47814946822E+02  0.92321674655E+02  0.00000000000E+00 0.  1.
         13    1    3    3    0    0  0.25356463608E+02  0.21404508857E+02  0.21315669682E+02  0.39439333413E+02  0.00000000000E+00 0. -1.
         -1    1    1    2    0  502  0.48279952280E+00  0.41486530144E+02 -0.24797245537E+03  0.25141937853E+03  0.00000000000E+00 0.  1.
<scales pt_clust_5="13000.00000" pt_clust_6="13000.00000" pt_clust_7="13000.00000" pt_clust_8="13000.00000" pt_clust_9="41.48934"></scales>
<clustering>
<clus scale="   41.489">  2  9  1 -1</clus>
<clus scale="   89.981">  7  8 -1 -1</clus>
<clus scale="   98.042">  5  6 -1 -1</clus>
<clus scale="  110.096">  1  7  2 -1</clus>
<clus scale="   41.489">  2  5  1 -1</clus>
</clustering>
</event>
<event>
 9    1  0.4664604E-005  0.1095852E+03  0.7546771E-02  0.1266358E+00
         21   -1    0    0  501  502  0.00000000000E+00  0.00000000000E+00  0.20505807846E+03  0.20505807846E+03  0.00000000000E+00 0. -1.
          1   -1    0    0  502    0 -0.00000000000E+00 -0.00000000000E+00 -0.92101896935E+02  0.92101896935E+02  0.00000000000E+00 0. -1.
         23    2    1    2    0    0 -0.45874429585E+02 -0.17819413824E+02  0.22608714270E+01  0.10435110985E+03  0.91989389544E+02 0.  0.
        -24    2    1    2    0    0  0.67693257097E+02  0.30853696179E+02  0.37254303531E+02  0.11509441904E+03  0.79526816467E+02 0.  0.
         13    1    4    4    0    0  0.42930919046E+02 -0.88652796196E+01 -0.13678574803E+02  0.45921241289E+02  0.00000000000E+00 0. -1.
        -14    1    4    4    0    0  0.24762338050E+02  0.39718975798E+02  0.50932878333E+02  0.69173177746E+02  0.00000000000E+00 0.  1.
        -13    1    3    3    0    0 -0.72990903286E+02 -0.18595268962E+02 -0.70943898088E+01  0.75655709348E+02  0.00000000000E+00 0. -1.
         13    1    3    3    0    0  0.27116473701E+02  0.77585513788E+00  0.93552612359E+01  0.28695400502E+02  0.00000000000E+00 0.  1.
          2    1    1    2  501    0 -0.21818827512E+02 -0.13034282355E+02  0.73441006567E+02  0.77714446508E+02  0.00000000000E+00 0. -1.
<scales pt_clust_5="13000.00000" pt_clust_6="13000.00000" pt_clust_7="13000.00000" pt_clust_8="13000.00000" pt_clust_9="25.41562"></scales>
<clustering>
<clus scale="   25.416">  1  9  2 -1</clus>
<clus scale="   79.527">  5  6 -1 -1</clus>
<clus scale="   91.989">  7  8 -1 -1</clus>
<clus scale="   99.355">  1  5  2 -1</clus>
<clus scale="   25.416">  1  5  2 -1</clus>
</clustering>
</event>
<event>
 9    1  0.4664604E-005  0.1363980E+03  0.7546771E-02  0.1242611E+00
          1   -1    0    0  502    0 -0.00000000000E+00  0.00000000000E+00  0.84529896575E+03  0.84529896575E+03  0.00000000000E+00 0. -1.
         21   -1    0    0  501  502  0.00000000000E+00 -0.00000000000E+00 -0.43632593692E+02  0.43632593692E+02  0.00000000000E+00 0. -1.
        -24    2    1    2    0    0 -0.48995091744E+01 -0.72005850279E+01  0.48868163359E+03  0.49560031630E+03  0.82061445851E+02 0.  0.
         23    2    1    2    0    0  0.19053160507E+02 -0.96228348516E+02  0.17494168408E+03  0.22025971167E+03  0.91032026087E+02 0.  0.
         11    1    3    3    0    0 -0.17803876712E+02  0.34437343883E+02  0.21453348068E+03  0.21800808015E+03  0.00000000000E+00 0. -1.
        -12    1    3    3    0    0  0.12904367538E+02 -0.41637928911E+02  0.27414815291E+03  0.27759223615E+03  0.00000000000E+00 0.  1.
        -13    1    4    4    0    0  0.53975191424E+02 -0.40985470820E+02  0.77800576681E+02  0.10317974530E+03  0.00000000000E+00 0.  1.
         13    1    4    4    0    0 -0.34922030918E+02 -0.55242877696E+02  0.97141107403E+02  0.11707996638E+03  0.00000000000E+00 0. -1.
          2    1    1    2  501    0 -0.14153651332E+02  0.10342893354E+03  0.13804305439E+03  0.17307153147E+03  0.00000000000E+00 0. -1.
<scales pt_clust_5="13000.00000" pt_clust_6="13000.00000" pt_clust_7="13000.00000" pt_clust_8="13000.00000" pt_clust_9="101.57559"></scales>
<clustering>
<clus scale="   82.061">  5  6 -1 -1</clus>
<clus scale="   82.522">  1  5  2 -1</clus>
<clus scale="   91.032">  7  8 -1 -1</clus>
<clus scale="  101.576">  2  9  1 -1</clus>
<clus scale="  101.576">  2  5  1 -1</clus>
</clustering>
</event>
<event>
 9    1  0.4664604E-005  0.9127360E+02  0.7546771E-02  0.1307043E+00
         -2   -1    0    0    0  501 -0.00000000000E+00  0.00000000000E+00  0.12307258188E+03  0.12307258188E+03  0.00000000000E+00 0.  1.
         21   -1    0    0  501  502  0.00000000000E+00 -0.00000000000E+00 -0.97346964112E+02  0.97346964112E+02  0.00000000000E+00 0. -1.
         23    2    1    2    0    0 -0.40838323532E+01  0.65245469938E+01  0.52055450587E+02  0.10510306132E+03  0.90981515501E+02 0.  0.
        -24    2    1    2    0    0  0.11362141522E+02  0.17647249815E+02 -0.53237943347E+01  0.82475912227E+02  0.79582721903E+02 0.  0.
         13    1    4    4    0    0  0.19974574450E+02 -0.20330611060E+02 -0.25830211385E+02  0.38464492597E+02  0.00000000000E+00 0. -1.
        -14    1    4    4    0    0 -0.86124329279E+01  0.37977860875E+02  0.20506417051E+02  0.44011419630E+02  0.00000000000E+00 0.  1.
        -11    1    3    3    0    0  0.34522309993E+02  0.16564232364E+02  0.52779673029E+02  0.65206269378E+02  0.00000000000E+00 0.  1.
         11    1    3    3    0    0 -0.38606142346E+02 -0.10039685370E+02 -0.72422244193E+00  0.39896791943E+02  0.00000000000E+00 0. -1.
         -1    1    1    2    0  502 -0.72783091689E+01 -0.24171796809E+02 -0.21006038488E+02  0.32840572442E+02  0.00000000000E+00 0.  1.
<scales pt_clust_5="13000.00000" pt_clust_6="13000.00000" pt_clust_7="13000.00000" pt_clust_8="13000.00000" pt_clust_9="25.24380"></scales>
<clustering>
<clus scale="   25.244">  2  9  1 -1</clus>
<clus scale="   79.583">  5  6 -1 -1</clus>
<clus scale="   79.916">  2  5  1 -1</clus>
<clus scale="   90.982">  7  8 -1 -1</clus>
<clus scale="   25.244">  2  5  1 -1</clus>
</clustering>
</event>
<event>
 9    1  0.4664604E-005  0.9849603E+02  0.7546771E-02  0.1289092E+00
          3   -1    0    0  502    0 -0.00000000000E+00  0.00000000000E+00  0.22350713383E+03  0.22350713383E+03  0.00000000000E+00 0. -1.
         21   -1    0    0  501  502  0.00000000000E+00 -0.00000000000E+00 -0.19012266113E+03  0.19012266113E+03  0.00000000000E+00 0. -1.
        -24    2    1    2    0    0 -0.14700255331E+02  0.28970357180E+02  0.14714803787E+03  0.17080624387E+03  0.80416719614E+02 0.  0.
         23    2    1    2    0    0  0.29328857853E+02 -0.47159458833E+02  0.18645843436E+02  0.10837247852E+03  0.91174174862E+02 0.  0.
         13    1    3    3    0    0 -0.15520680449E+02  0.55557667601E+02  0.11800098267E+03  0.13134602340E+03  0.00000000000E+00 0. -1.
        -14    1    3    3    0    0  0.82042511868E+00 -0.26587310421E+02  0.29147055195E+02  0.39460220468E+02  0.00000000000E+00 0.  1.
        -11    1    4    4    0    0  0.34144747077E+02  0.14330739822E+02  0.27414579772E+02  0.46073778235E+02  0.00000000000E+00 0. -1.
         11    1    4    4    0    0 -0.48158892238E+01 -0.61490198655E+02 -0.87687363364E+01  0.62298700280E+02  0.00000000000E+00 0.  1.
          4    1    1    2  501    0 -0.14628602522E+02  0.18189101654E+02 -0.13240940861E+03  0.13445107258E+03  0.00000000000E+00 0. -1.
<scales pt_clust_5="13000.00000" pt_clust_6="13000.00000" pt_clust_7="13000.00000" pt_clust_8="13000.00000" pt_clust_9="23.34180"></scales>
<clustering>
<clus scale="   23.342">  2  9  1 -1</clus>
<clus scale="   80.417">  5  6 -1 -1</clus>
<clus scale="   88.632">  1  5  2 -1</clus>
<clus scale="   91.174">  7  8 -1 -1</clus>
<clus scale="   23.342">  2  5  1 -1</clus>
</clustering>
</event>
<event>
 9    1  0.4664604E-005  0.1849373E+03  0.7546771E-02  0.1170826E+00
          1   -1    0    0  502    0 -0.00000000000E+00  0.00000000000E+00  0.51324048957E+03  0.51324048957E+03  0.00000000000E+00 0. -1.
         21   -1    0    0  501  502  0.00000000000E+00 -0.00000000000E+00 -0.14775684071E+03  0.14775684071E+03  0.00000000000E+00 0. -1.
         23    2    1    2    0    0  0.12159283898E+03 -0.22088423293E+02  0.16792499729E+03  0.22843308757E+03  0.93328204992E+02 0.  0.
        -24    2    1    2    0    0 -0.10603866363E+03 -0.14865287314E+03  0.16115020363E+03  0.25729274544E+03  0.82995745963E+02 0.  0.
         13    1    4    4    0    0 -0.39607034375E+01 -0.61973473600E+02  0.26914820523E+02  0.67681653094E+02  0.00000000000E+00 0. -1.
        -14    1    4    4    0    0 -0.10207796020E+03 -0.86679399536E+02  0.13423538310E+03  0.18961109234E+03  0.00000000000E+00 0.  1.
        -13    1    3    3    0    0  0.78784274767E+02 -0.54704200208E+02  0.13409145942E+03  0.16486367387E+03  0.00000000000E+00 0.  1.
         13    1    3    3    0    0  0.42808564213E+02  0.32615776915E+02  0.33833537864E+02  0.63569413700E+02  0.00000000000E+00 0. -1.
          2    1    1    2  501    0 -0.15554175345E+02  0.17074129643E+03  0.36408447946E+02  0.17527149728E+03  0.00000000000E+00 0. -1.
<scales pt_clust_5="13000.00000" pt_clust_6="13000.00000" pt_clust_7="13000.00000" pt_clust_8="13000.00000" pt_clust_9="165.26796"></scales>
<clustering>
<clus scale="   82.996">  5  6 -1 -1</clus>
<clus scale="   93.328">  7  8 -1 -1</clus>
<clus scale="  154.864">  1  7  2 -1</clus>
<clus scale="  165.268">  2  9  1 -1</clus>
<clus scale="  165.268">  2  5  1 -1</clus>
</clustering>
</event>
<event>
 9    1  0.4664604E-005  0.9439010E+02  0.7546771E-02  0.1298471E+00
         21   -1    0    0  501  502  0.00000000000E+00  0.00000000000E+00  0.24439040595E+03  0.24439040595E+03  0.00000000000E+00 0. -1.
          3   -1    0    0  502    0 -0.00000000000E+00 -0.00000000000E+00 -0.19223301846E+03  0.19223301846E+03  0.00000000000E+00 0. -1.
        -24    2    1    2    0    0 -0.21125409337E+02 -0.33218331391E+01 -0.12472930876E+03  0.15020789947E+03  0.80917829329E+02 0.  0.
         23    2    1    2    0    0  0.37067776583E+02 -0.16278915825E+02 -0.77869327141E+01  0.10002159353E+03  0.91129905577E+02 0.  0.
         11    1    3    3    0    0 -0.34028087821E+02 -0.25490360680E+02 -0.11528382556E+03  0.12287403991E+03  0.00000000000E+00 0. -1.
        -12    1    3    3    0    0  0.12902678484E+02  0.22168527541E+02 -0.94454832034E+01  0.27333859558E+02  0.00000000000E+00 0.  1.
        -11    1    4    4    0    0  0.66598044019E+02 -0.11187258980E+02  0.43951984270E+01  0.67674012736E+02  0.00000000000E+00 0.  1.
         11    1    4    4    0    0 -0.29530267435E+02 -0.50916568458E+01 -0.12182131141E+02  0.32347580796E+02  0.00000000000E+00 0. -1.
          4    1    1    2  501    0 -0.15942367246E+02  0.19600748964E+02  0.18467362897E+03  0.18639393142E+03  0.00000000000E+00 0. -1.
<scales pt_clust_5="13000.00000" pt_clust_6="13000.00000" pt_clust_7="13000.00000" pt_clust_8="13000.00000" pt_clust_9="25.26556"></scales>
<clustering>
<clus scale="   25.266">  1  9  2 -1</clus>
<clus scale="   80.918">  5  6 -1 -1</clus>
<clus scale="   84.573">  2  5  1 -1</clus>
<clus scale="   91.130">  7  8 -1 -1</clus>
<clus scale="   25.266">  1  5  2 -1</clus>
</clustering>
</event>
<event>
 9    1  0.4664604E-005  0.2540900E+03  0.7546771E-02  0.1111476E+00
          1   -1    0    0  502    0 -0.00000000000E+00  0.00000000000E+00  0.13603816423E+04  0.13603816423E+04  0.00000000000E+00 0. -1.
         21   -1    0    0  501  502  0.00000000000E+00 -0.00000000000E+00 -0.74684925670E+02  0.74684925670E+02  0.00000000000E+00 0. -1.
        -24    2    1    2    0    0  0.19392058500E+03  0.94283116774E+01  0.44416855665E+03  0.49111926338E+03  0.78856437916E+02 0.  0.
         23    2    1    2    0    0 -0.29891508021E+03  0.19837530487E+02  0.68337926916E+03  0.75187595010E+03  0.92555205301E+02 0.  0.
         13    1    3    3    0    0  0.81951503042E+02  0.38591020351E+01  0.28401283548E+03  0.29562515494E+03  0.00000000000E+00 0. -1.
        -14    1    3    3    0    0  0.11196908195E+03  0.55692096423E+01  0.16015572118E+03  0.19549410844E+03  0.00000000000E+00 0.  1.
        -11    1    4    4    0    0 -0.14521243178E+03 -0.90195519445E+01  0.22873314960E+03  0.27108459268E+03  0.00000000000E+00 0.  1.
         11    1    4    4    0    0 -0.15370264843E+03  0.28857082431E+02  0.45464611957E+03  0.48079135743E+03  0.00000000000E+00 0. -1.
          2    1    1    2  501    0  0.10499449522E+03 -0.29265842164E+02  0.15814889077E+03  0.19207135444E+03  0.00000000000E+00 0. -1.
<scales pt_clust_5="13000.00000" pt_clust_6="13000.00000" pt_clust_7="13000.00000" pt_clust_8="13000.00000" pt_clust_9="108.99694"></scales>
<clustering>
<clus scale="   78.856">  5  6 -1 -1</clus>
<clus scale="   92.555">  7  8 -1 -1</clus>
<clus scale="  108.997">  2  9  1 -1</clus>
<clus scale="  249.427">  1  5  2 -1</clus>
<clus scale="  108.997">  2  5  1 -1</clus>
</clustering>
</event>
<event>
 9    1  0.4664604E-005  0.1472869E+03  0.7546771E-02  0.1204549E+00
          3   -1    0    0  502    0 -0.00000000000E+00  0.00000000000E+00  0.16156374020E+03  0.16156374020E+03  0.00000000000E+00 0. -1.
         21   -1    0    0  501  502  0.00000000000E+00 -0.00000000000E+00 -0.30398677150E+03  0.30398677150E+03  0.00000000000E+00 0. -1.
         23    2    1    2    0    0  0.13082562031E+03  0.21509594007E+01  0.71387322099E+02  0.17081646358E+03  0.83439468577E+02 0.  0.
        -24    2    1    2    0    0 -0.77940850512E+02 -0.17799230913E+02 -0.21134453123E+03  0.23952763947E+03  0.79469430523E+02 0.  0.
         13    1    4    4    0    0 -0.68867438662E+02  0.21452252241E+02 -0.14392178405E+03  0.16098572346E+03  0.00000000000E+00 0. -1.
        -14    1    4    4    0    0 -0.90734118495E+01 -0.39251483155E+02 -0.67422747184E+02  0.78541916008E+02  0.00000000000E+00 0.  1.
        -11    1    3    3    0    0  0.12554909364E+02 -0.29255794362E+02  0.72239623059E+01  0.32645258220E+02  0.00000000000E+00 0.  1.
         11    1    3    3    0    0  0.11827071095E+03  0.31406753762E+02  0.64163359793E+02  0.13817120536E+03  0.00000000000E+00 0. -1.
          4    1    1    2  501    0 -0.52884769803E+02  0.15648271513E+02 -0.24658221702E+01  0.55206408662E+02  0.00000000000E+00 0. -1.
<scales pt_clust_5="13000.00000" pt_clust_6="13000.00000" pt_clust_7="13000.00000" pt_clust_8="13000.00000" pt_clust_9="55.15134"></scales>
<clustering>
<clus scale="   55.151">  2  9  1 -1</clus>
<clus scale="   79.469">  5  6 -1 -1</clus>
<clus scale="   83.439">  7  8 -1 -1</clus>
<clus scale="  145.075">  2  5  1 -1</clus>
<clus scale="   55.151">  2  5  1 -1</clus>
</clustering>
</event>
<event>
 9    1  0.4664604E-005  0.1040492E+03  0.7546771E-02  0.1277590E+00
         21   -1    0    0  501  502  0.00000000000E+00  0.00000000000E+00  0.72599068830E+02  0.72599068830E+02  0.00000000000E+00 0. -1.
          1   -1    0    0  502    0 -0.00000000000E+00 -0.00000000000E+00 -0.52330243643E+03  0.52330243643E+03  0.00000000000E+00 0. -1.
         23    2    1    2    0    0 -0.45235259894E+02 -0.22293150898E+02 -0.42871276982E+03  0.44143356674E+03  0.92334942051E+02 0.  0.
        -24    2    1    2    0    0  0.31792175234E+01  0.51978939800E+02  0.60675241162E+01  0.95840172345E+02  0.80228462402E+02 0.  0.
         11    1    4    4    0    0  0.31327755601E+02  0.53387518637E+02 -0.11030576663E+02  0.62875504282E+02  0.00000000000E+00 0. -1.
        -12    1    4    4    0    0 -0.28148538077E+02 -0.14085788373E+01  0.17098100779E+02  0.32964668063E+02  0.00000000000E+00 0.  1.
        -13    1    3    3    0    0 -0.42580601747E+01  0.33811536672E+02 -0.10665175648E+03  0.11196404891E+03  0.00000000000E+00 0.  1.
         13    1    3    3    0    0 -0.40977199720E+02 -0.56104687570E+02 -0.32206101334E+03  0.32946951783E+03  0.00000000000E+00 0. -1.
          2    1    1    2  501    0  0.42056042371E+02 -0.29685788902E+02 -0.28058121902E+02  0.58627766180E+02  0.00000000000E+00 0. -1.
<scales pt_clust_5="13000.00000" pt_clust_6="13000.00000" pt_clust_7="13000.00000" pt_clust_8="13000.00000" pt_clust_9="51.47773"></scales>
<clustering>
<clus scale="   51.478">  1  9  2 -1</clus>
<clus scale="   80.228">  5  6 -1 -1</clus>
<clus scale="   92.335">  7  8 -1 -1</clus>
<clus scale="   93.472">  1  5  2 -1</clus>
<clus scale="   51.478">  1  5  2 -1</clus>
</clustering>
</event>
<event>
 9    1  0.4664604E-005  0.1251072E+03  0.7546771E-02  0.1238859E+00
          1   -1    0    0  502    0 -0.00000000000E+00  0.00000000000E+00  0.11193056346E+04  0.11193056346E+04  0.00000000000E+00 0. -1.
         21   -1    0    0  501  502  0.00000000000E+00 -0.00000000000E+00 -0.32204041679E+02  0.32204041679E+02  0.00000000000E+00 0. -1.
         23    2    1    2    0    0  0.12006800539E+02 -0.59378593395E+02  0.46218825221E+03  0.47494647172E+03  0.91028511476E+02 0.  0.
        -24    2    1    2    0    0  0.24824237582E+02  0.13775607220E+03  0.49720625092E+03  0.52226266880E+03  0.77144416945E+02 0.  0.
         11    1    4    4    0    0 -0.23398714651E+02  0.85785043780E+02  0.27382830496E+03  0.28790365434E+03  0.00000000000E+00 0. -1.
        -12    1    4    4    0    0  0.48222952233E+02  0.51971028418E+02  0.22337794596E+03  0.23435901446E+03  0.00000000000E+00 0.  1.
        -13    1    3    3    0    0 -0.23837848276E+02  0.75205426989E+01  0.50810572887E+02  0.56626106082E+02  0.00000000000E+00 0.  1.
         13    1    3    3    0    0  0.35844648814E+02 -0.66899136094E+02  0.41137767932E+03  0.41832036563E+03  0.00000000000E+00 0. -1.
          2    1    1    2  501    0 -0.36831038121E+02 -0.78377478803E+02  0.12770708974E+03  0.15430053572E+03  0.00000000000E+00 0. -1.
<scales pt_clust_5="13000.00000" pt_clust_6="13000.00000" pt_clust_7="13000.00000" pt_clust_8="13000.00000" pt_clust_9="86.59997"></scales>
<clustering>
<clus scale="   77.144">  5  6 -1 -1</clus>
<clus scale="   86.600">  2  9  1 -1</clus>
<clus scale="   91.029">  7  8 -1 -1</clus>
<clus scale="  115.399">  2  5  1 -1</clus>
<clus scale="   86.600">  2  5  1 -1</clus>
</clustering>
</event>
<event>
 9    1  0.4664604E-005  0.1073973E+03  0.7546771E-02  0.1269852E+00
         21   -1    0    0  501  502  0.00000000000E+00  0.00000000000E+00  0.44048044132E+03  0.44048044132E+03  0.00000000000E+00 0. -1.
          1   -1    0    0  502    0 -0.00000000000E+00 -0.00000000000E+00 -0.76426835758E+02  0.76426835758E+02  0.00000000000E+00 0. -1.
         23    2    1    2    0    0 -0.15539115382E+02  0.57074316162E+02 -0.17929036590E+02  0.11025594097E+03  0.91301590864E+02 0.  0.
        -24    2    1    2    0    0  0.35310711312E+02 -0.36193057654E+02  0.19048743200E+03  0.21300898931E+03  0.80812028935E+02 0.  0.
         11    1    4    4    0    0  0.21952856141E+02  0.23179705877E+02  0.43814804311E+02  0.54212210194E+02  0.00000000000E+00 0. -1.
        -12    1    4    4    0    0  0.13357855171E+02 -0.59372763530E+02  0.14667262769E+03  0.15879677912E+03  0.00000000000E+00 0.  1.
        -13    1    3    3    0    0 -0.10911651547E+02  0.18570099035E+02  0.37121082612E+02  0.42917216731E+02  0.00000000000E+00 0.  1.
         13    1    3    3    0    0 -0.46274638352E+01  0.38504217128E+02 -0.55050119202E+02  0.67338724241E+02  0.00000000000E+00 0. -1.
          2    1    1    2  501    0 -0.19771595930E+02 -0.20881258509E+02  0.19149521015E+03  0.19364234680E+03  0.00000000000E+00 0. -1.
<scales pt_clust_5="13000.00000" pt_clust_6="13000.00000" pt_clust_7="13000.00000" pt_clust_8="13000.00000" pt_clust_9="28.75662"></scales>
<clustering>
<clus scale="   28.757">  1  9  2 -1</clus>
<clus scale="   80.812">  5  6 -1 -1</clus>
<clus scale="   91.302">  7  8 -1 -1</clus>
<clus scale="   98.635">  1  5  2 -1</clus>
<clus scale="   28.757">  1  5  2 -1</clus>
</clustering>
</event>
<event>
 9    1  0.4664604E-005  0.1000079E+03  0.7546771E-02  0.1283589E+00
         21   -1    0    0  501  502  0.00000000000E+00  0.00000000000E+00  0.10955884405E+03  0.10955884405E+03  0.00000000000E+00 0.  1.
          3   -1    0    0  502    0 -0.00000000000E+00 -0.00000000000E+00 -0.22894838917E+03  0.22894838917E+03  0.00000000000E+00 0. -1.
        -24    2    1    2    0    0 -0.15244918690E+01 -0.32811871521E+02 -0.81139136509E+02  0.12071553327E+03  0.83124830897E+02 0.  0.
         23    2    1    2    0    0 -0.53999788034E+01  0.87810651550E+02  0.30515505614E+02  0.12946523133E+03  0.89945426480E+02 0.  0.
         13    1    3    3    0    0  0.37379745875E+02  0.16172264001E+01 -0.35016831436E+02  0.51244895421E+02  0.00000000000E+00 0. -1.
        -14    1    3    3    0    0 -0.38904237744E+02 -0.34429097921E+02 -0.46122305073E+02  0.69470637851E+02  0.00000000000E+00 0.  1.
        -11    1    4    4    0    0  0.71345493977E+01  0.42388388428E+02  0.60053870425E+02  0.73852180886E+02  0.00000000000E+00 0.  1.
         11    1    4    4    0    0 -0.12534528201E+02  0.45422263122E+02 -0.29538364811E+02  0.55613050447E+02  0.00000000000E+00 0. -1.
          4    1    1    2  501    0  0.69244706724E+01 -0.54998780028E+02 -0.68765914230E+02  0.88326468619E+02  0.00000000000E+00 0. -1.
<scales pt_clust_5="13000.00000" pt_clust_6="13000.00000" pt_clust_7="13000.00000" pt_clust_8="13000.00000" pt_clust_9="55.43300"></scales>
<clustering>
<clus scale="   55.433">  1  9  2 -1</clus>
<clus scale="   83.125">  5  6 -1 -1</clus>
<clus scale="   89.945">  7  8 -1 -1</clus>
<clus scale="   93.921">  2  5  1 -1</clus>
<clus scale="   55.433">  1  5  2 -1</clus>
</clustering>
</event>
<event>
 9    1  0.4664604E-005  0.1090070E+03  0.7546771E-02  0.1267147E+00
         21   -1    0    0  501  502  0.00000000000E+00  0.00000000000E+00  0.83683996042E+02  0.83683996042E+02  0.00000000000E+00 0. -1.
          1   -1    0    0  502    0 -0.00000000000E+00 -0.00000000000E+00 -0.38561257565E+03  0.38561257565E+03  0.00000000000E+00 0. -1.
         23    2    1    2    0    0  0.65473693214E+02  0.29589244971E+02 -0.29636813949E+03  0.31805632067E+03  0.90351652407E+02 0.  0.
        -24    2    1    2    0    0 -0.30217764564E+01 -0.38955019855E+02 -0.79354971232E+01  0.88045310232E+02  0.78500826966E+02 0.  0.
         13    1    4    4    0    0  0.21633723223E+02 -0.50546513485E+02 -0.19652411422E+02  0.58388228957E+02  0.00000000000E+00 0. -1.
        -14    1    4    4    0    0 -0.24655499680E+02  0.11591493630E+02  0.11716914299E+02  0.29657081275E+02  0.00000000000E+00 0.  1.
        -13    1    3    3    0    0  0.33517517259E+02  0.53716011615E+02 -0.10556269542E+03  0.12309474616E+03  0.00000000000E+00 0.  1.
         13    1    3    3    0    0  0.31956175955E+02 -0.24126766644E+02 -0.19080544406E+03  0.19496157451E+03  0.00000000000E+00 0. -1.
          2    1    1    2  501    0 -0.62451916758E+02  0.93657748839E+01  0.23750570036E+01  0.63194940791E+02  0.00000000000E+00 0. -1.
<scales pt_clust_5="13000.00000" pt_clust_6="13000.00000" pt_clust_7="13000.00000" pt_clust_8="13000.00000" pt_clust_9="63.15029"></scales>
<clustering>
<clus scale="   63.150">  1  9  2 -1</clus>
<clus scale="   78.501">  5  6 -1 -1</clus>
<clus scale="   90.352">  7  8 -1 -1</clus>
<clus scale="   99.406">  1  5  2 -1</clus>
<clus scale="   63.150">  1  5  2 -1</clus>
</clustering>
</event>
<event>
 9    1  0.4664604E-005  0.9324245E+02  0.7546771E-02  0.1302165E+00
          1   -1    0    0  502    0 -0.00000000000E+00  0.00000000000E+00  0.35361452664E+03  0.35361452664E+03  0.00000000000E+00 0. -1.
         21   -1    0    0  501  502  0.00000000000E+00 -0.00000000000E+00 -0.76048347747E+02  0.76048347747E+02  0.00000000000E+00 0.  1.
         23    2    1    2    0    0  0.23315285693E+02  0.18837237871E+02  0.27677805037E+03  0.29273725543E+03  0.90501753970E+02 0.  0.
        -24    2    1    2    0    0  0.20664803434E+02 -0.11868774714E+02  0.25229459094E+02  0.86130084122E+02  0.78828699536E+02 0.  0.
         13    1    4    4    0    0  0.11113414961E+01  0.26356709399E+02  0.33257566880E+02  0.42449699234E+02  0.00000000000E+00 0. -1.
        -14    1    4    4    0    0  0.19553461938E+02 -0.38225484112E+02 -0.80281077861E+01  0.43680384888E+02  0.00000000000E+00 0.  1.
        -13    1    3    3    0    0  0.47670603751E+02  0.27864987095E+02  0.24755804927E+03  0.25364134467E+03  0.00000000000E+00 0. -1.
         13    1    3    3    0    0 -0.24355318058E+02 -0.90277492237E+01  0.29220001103E+02  0.39095910761E+02  0.00000000000E+00 0.  1.
          2    1    1    2  501    0 -0.43980089127E+02 -0.69684631576E+01 -0.24441330576E+02  0.50795534831E+02  0.00000000000E+00 0. -1.
<scales pt_clust_5="13000.00000" pt_clust_6="13000.00000" pt_clust_7="13000.00000" pt_clust_8="13000.00000" pt_clust_9="44.52873"></scales>
<clustering>
<clus scale="   44.529">  2  9  1 -1</clus>
<clus scale="   78.829">  5  6 -1 -1</clus>
<clus scale="   81.961">  2  5  1 -1</clus>
<clus scale="   90.502">  7  8 -1 -1</clus>
<clus scale="   44.529">  2  5  1 -1</clus>
</clustering>
</event>
<event>
 9    1  0.4664604E-005  0.9892926E+02  0.7546771E-02  0.1286338E+00
         21   -1    0    0  501  502  0.00000000000E+00  0.00000000000E+00  0.21523599040E+03  0.21523599040E+03  0.00000000000E+00 0.  1.
          3   -1    0    0  502    0 -0.00000000000E+00 -0.00000000000E+00 -0.10758246186E+03  0.10758246186E+03  0.00000000000E+00 0. -1.
         23    2    1    2    0    0  0.35113618926E+02  0.61955852898E+02 -0.34276812379E+02  0.10976752821E+03  0.76174250503E+02 0.  0.
        -24    2    1    2    0    0  0.17791408909E+02 -0.15507890986E+02  0.66907977808E+02  0.11016890375E+03  0.84282150809E+02 0.  0.
         13    1    4    4    0    0  0.19495224466E+02  0.27086538919E+02  0.32154450567E+01  0.33527353825E+02  0.00000000000E+00 0. -1.
        -14    1    4    4    0    0 -0.17038155568E+01 -0.42594429905E+02  0.63692532752E+02  0.76641549924E+02  0.00000000000E+00 0.  1.
        -11    1    3    3    0    0 -0.24205664486E+01  0.24668069254E+02  0.21556078752E+02  0.32848703381E+02  0.00000000000E+00 0.  1.
         11    1    3    3    0    0  0.37534185375E+02  0.37287783644E+02 -0.55832891131E+02  0.76918824827E+02  0.00000000000E+00 0. -1.
          4    1    1    2  501    0 -0.52905027835E+02 -0.46447961911E+02  0.75022363111E+02  0.10288202031E+03  0.00000000000E+00 0. -1.
<scales pt_clust_5="13000.00000" pt_clust_6="13000.00000" pt_clust_7="13000.00000" pt_clust_8="13000.00000" pt_clust_9="70.40139"></scales>
<clustering>
<clus scale="   70.401">  1  9  2 -1</clus>
<clus scale="   76.174">  7  8 -1 -1</clus>
<clus scale="   84.282">  5  6 -1 -1</clus>
<clus scale="   92.120">  2  7  1 -1</clus>
<clus scale="   70.401">  1  5  2 -1</clus>
</clustering>
</event>
<event>
 9    1  0.4664604E-005  0.1657601E+03  0.7546771E-02  0.1213256E+00
          1   -1    0    0  502    0 -0.00000000000E+00  0.00000000000E+00  0.21153709398E+03  0.21153709398E+03  0.00000000000E+00 0. -1.
         21   -1    0    0  501  502  0.00000000000E+00 -0.00000000000E+00 -0.21230842692E+03  0.21230842692E+03  0.00000000000E+00 0. -1.
        -24    2    1    2    0    0  0.19795534897E+02  0.12608512728E+01  0.57398357498E+01  0.84673127480E+02  0.82116623500E+02 0.  0.
         23    2    1    2    0    0  0.21742348046E+02  0.13743009886E+03  0.68327221055E+02  0.17619583085E+03  0.83765147279E+02 0.  0.
         13    1    3    3    0    0  0.39435791079E+02  0.14441849974E+02  0.29362799465E+02  0.51243757094E+02  0.00000000000E+00 0. -1.
        -14    1    3    3    0    0 -0.19640256182E+02 -0.13180998701E+02 -0.23622963716E+02  0.33429370385E+02  0.00000000000E+00 0.  1.
        -13    1    4    4    0    0  0.84151114768E+01  0.79727627363E+02 -0.68862559948E+01  0.80465701934E+02  0.00000000000E+00 0. -1.
         13    1    4    4    0    0  0.13327236569E+02  0.57702471501E+02  0.75213477049E+02  0.95730128914E+02  0.00000000000E+00 0.  1.
          2    1    1    2  501    0 -0.41537882943E+02 -0.13869095014E+03 -0.74838389744E+02  0.16297656258E+03  0.00000000000E+00 0. -1.
<scales pt_clust_5="13000.00000" pt_clust_6="13000.00000" pt_clust_7="13000.00000" pt_clust_8="13000.00000" pt_clust_9="143.03781"></scales>
<clustering>
<clus scale="   82.117">  5  6 -1 -1</clus>
<clus scale="   83.765">  7  8 -1 -1</clus>
<clus scale="   84.478">  1  5  2 -1</clus>
<clus scale="  143.038">  2  9  1 -1</clus>
<clus scale="  143.038">  2  5  1 -1</clus>
</clustering>
</event>
<event>
 9    1  0.4664604E-005  0.1073484E+03  0.7546771E-02  0.1270220E+00
         21   -1    0    0  501  502  0.00000000000E+00  0.00000000000E+00  0.45008469388E+02  0.45008469388E+02  0.00000000000E+00 0. -1.
         -2   -1    0    0    0  501 -0.00000000000E+00 -0.00000000000E+00 -0.60723647799E+03  0.60723647799E+03  0.00000000000E+00 0.  1.
         23    2    1    2    0    0 -0.14556377553E+02  0.58686810294E+02 -0.35369003128E+03  0.37009473042E+03  0.90650104399E+02 0.  0.
        -24    2    1    2    0    0 -0.59180969630E+02 -0.53397419881E+02 -0.98334148632E+02  0.14944732370E+03  0.79443226005E+02 0.  0.
         13    1    4    4    0    0 -0.45185353568E+02 -0.73085672171E+02 -0.62584356376E+02  0.10630161484E+03  0.00000000000E+00 0. -1.
        -14    1    4    4    0    0 -0.13995616062E+02  0.19688252289E+02 -0.35749792256E+02  0.43145708865E+02  0.00000000000E+00 0.  1.
        -13    1    3    3    0    0  0.37106459550E+02  0.24495819981E+02 -0.10983820729E+03  0.11849627132E+03  0.00000000000E+00 0. -1.
         13    1    3    3    0    0 -0.51662837104E+02  0.34190990313E+02 -0.24385182399E+03  0.25159845910E+03  0.00000000000E+00 0.  1.
         -1    1    1    2    0  502  0.73737347183E+02 -0.52893904123E+01 -0.11020382868E+03  0.13270289325E+03  0.00000000000E+00 0.  1.
<scales pt_clust_5="13000.00000" pt_clust_6="13000.00000" pt_clust_7="13000.00000" pt_clust_8="13000.00000" pt_clust_9="73.92682"></scales>
<clustering>
<clus scale="   73.927">  1  9  2 -1</clus>
<clus scale="   79.443">  5  6 -1 -1</clus>
<clus scale="   90.650">  7  8 -1 -1</clus>
<clus scale="   98.069">  1  5  2 -1</clus>
<clus scale="   73.927">  1  5  2 -1</clus>
</clustering>
</event>
<event>
 9    1  0.4664604E-005  0.1775777E+03  0.7546771E-02  0.1191282E+00
          3   -1    0    0  502    0 -0.00000000000E+00  0.00000000000E+00  0.46528215499E+03  0.46528215499E+03  0.00000000000E+00 0. -1.
         21   -1    0    0  501  502  0.00000000000E+00 -0.00000000000E+00 -0.21439308140E+03  0.21439308140E+03  0.00000000000E+00 0. -1.
         23    2    1    2    0    0  0.99894468137E+01 -0.59560120922E+02  0.58576662366E+02  0.12509813110E+03  0.92580343369E+02 0.  0.
        -24    2    1    2    0    0 -0.12909384189E+03 -0.50749614472E+02  0.31356384373E+03  0.35195429183E+03  0.79427929971E+02 0.  0.
         13    1    4    4    0    0 -0.11615415478E+03 -0.38514593722E+02  0.18277585596E+03  0.21995948518E+03  0.00000000000E+00 0. -1.
        -14    1    4    4    0    0 -0.12939687109E+02 -0.12235020750E+02  0.13078798777E+03  0.13199480665E+03  0.00000000000E+00 0.  1.
        -13    1    3    3    0    0  0.29075789305E+02 -0.68476676643E+02  0.69113323197E+02  0.10154362713E+03  0.00000000000E+00 0. -1.
         13    1    3    3    0    0 -0.19086342492E+02  0.89165557210E+01 -0.10536660830E+02  0.23554503966E+02  0.00000000000E+00 0.  1.
          4    1    1    2  501    0  0.11910439507E+03  0.11030973539E+03 -0.12125143251E+03  0.20262281346E+03  0.00000000000E+00 0. -1.
<scales pt_clust_5="13000.00000" pt_clust_6="13000.00000" pt_clust_7="13000.00000" pt_clust_8="13000.00000" pt_clust_9="158.82398"></scales>
<clustering>
<clus scale="   79.428">  5  6 -1 -1</clus>
<clus scale="   92.580">  7  8 -1 -1</clus>
<clus scale="  110.536">  1  7  2 -1</clus>
<clus scale="  158.824">  2  9  1 -1</clus>
<clus scale="  158.824">  2  5  1 -1</clus>
</clustering>
</event>
<event>
 9    1  0.4664604E-005  0.9530155E+02  0.7546771E-02  0.1296925E+00
         21   -1    0    0  501  502  0.00000000000E+00  0.00000000000E+00  0.90970424598E+02  0.90970424598E+02  0.00000000000E+00 0. -1.
         -2   -1    0    0    0  501 -0.00000000000E+00 -0.00000000000E+00 -0.20536376617E+03  0.20536376617E+03  0.00000000000E+00 0.  1.
         23    2    1    2    0    0 -0.24781565763E+02  0.32458882308E+02 -0.24186338936E+02  0.10342952453E+03  0.91896585956E+02 0.  0.
        -24    2    1    2    0    0 -0.43630256609E+02 -0.13816480112E+02 -0.23840918485E+02  0.95785287509E+02  0.80696576721E+02 0.  0.
         13    1    4    4    0    0 -0.45740280439E+02  0.79084056918E+01  0.17035576826E+02  0.49446203221E+02  0.00000000000E+00 0. -1.
        -14    1    4    4    0    0  0.21100238300E+01 -0.21724885803E+02 -0.40876495311E+02  0.46339084288E+02  0.00000000000E+00 0.  1.
        -13    1    3    3    0    0 -0.24901010095E+02 -0.28332573364E+02  0.73725288229E+00  0.37727159434E+02  0.00000000000E+00 0.  1.
         13    1    3    3    0    0  0.11944433206E+00  0.60791455671E+02 -0.24923591818E+02  0.65702365092E+02  0.00000000000E+00 0. -1.
         -1    1    1    2    0  502  0.68411822372E+02 -0.18642402196E+02 -0.66366084153E+02  0.97119378734E+02  0.00000000000E+00 0.  1.
<scales pt_clust_5="13000.00000" pt_clust_6="13000.00000" pt_clust_7="13000.00000" pt_clust_8="13000.00000" pt_clust_9="70.90643"></scales>
<clustering>
<clus scale="   70.906">  1  9  2 -1</clus>
<clus scale="   80.697">  5  6 -1 -1</clus>
<clus scale="   84.554">  1  5  2 -1</clus>
<clus scale="   91.897">  7  8 -1 -1</clus>
<clus scale="   70.906">  1  5  2 -1</clus>
</clustering>
</event>
<event>
 9    1  0.4664604E-005  0.9438587E+02  0.7546771E-02  0.1298575E+00
          1   -1    0    0  502    0 -0.00000000000E+00  0.00000000000E+00  0.23722277738E+03  0.23722277738E+03  0.00000000000E+00 0. -1.
         21   -1    0    0  501  502  0.00000000000E+00 -0.00000000000E+00 -0.63591576601E+02  0.63591576601E+02  0.00000000000E+00 0. -1.
         23    2    1    2    0    0  0.21486462469E+02 -0.49489157936E+01  0.11669109214E+03  0.14883935665E+03  0.89722813517E+02 0.  0.
        -24    2    1    2    0    0 -0.37738720026E+02 -0.25919079813E+02  0.69531353595E+02  0.11488714920E+03  0.79173469243E+02 0.  0.
         11    1    4    4    0    0 -0.50208498303E+02 -0.30638997070E+00  0.13440918433E+02  0.51977355309E+02  0.00000000000E+00 0. -1.
        -12    1    4    4    0    0  0.12469778277E+02 -0.25612689842E+02  0.56090435163E+02  0.62909793896E+02  0.00000000000E+00 0.  1.
        -11    1    3    3    0    0 -0.30472247529E+02 -0.13263008769E+02  0.73856815374E+02  0.80989471218E+02  0.00000000000E+00 0. -1.
         11    1    3    3    0    0  0.51958709998E+02  0.83140929753E+01  0.42834276771E+02  0.67849885432E+02  0.00000000000E+00 0.  1.
          2    1    1    2  501    0  0.16252257557E+02  0.30867995607E+02 -0.12591244965E+02  0.37087848121E+02  0.00000000000E+00 0. -1.
<scales pt_clust_5="13000.00000" pt_clust_6="13000.00000" pt_clust_7="13000.00000" pt_clust_8="13000.00000" pt_clust_9="34.88508"></scales>
<clustering>
<clus scale="   34.885">  2  9  1 -1</clus>
<clus scale="   79.173">  5  6 -1 -1</clus>
<clus scale="   84.421">  2  5  1 -1</clus>
<clus scale="   89.723">  7  8 -1 -1</clus>
<clus scale="   34.885">  2  5  1 -1</clus>
</clustering>
</event>
<event>
 9    1  0.4664604E-005  0.1087616E+03  0.7546771E-02  0.1269927E+00
         21   -1    0    0  501  502  0.00000000000E+00  0.00000000000E+00  0.68331752344E+03  0.68331752344E+03  0.00000000000E+00 0. -1.
          3   -1    0    0  502    0 -0.00000000000E+00 -0.00000000000E+00 -0.26615065626E+02  0.26615065626E+02  0.00000000000E+00 0. -1.
        -24    2    1    2    0    0 -0.75406849523E+01 -0.70311024667E+02  0.18344860614E+03  0.21222565137E+03  0.79911412746E+02 0.  0.
         23    2    1    2    0    0  0.11836832112E+02  0.24848054344E+02  0.23890026976E+03  0.25894567637E+03  0.96031182547E+02 0.  0.
         11    1    3    3    0    0 -0.36997374207E+02 -0.96333436309E+01  0.52731024616E+02  0.65131927384E+02  0.00000000000E+00 0. -1.
        -12    1    3    3    0    0  0.29456689254E+02 -0.60677681036E+02  0.13071758152E+03  0.14709372399E+03  0.00000000000E+00 0.  1.
        -13    1    4    4    0    0 -0.35270313129E+01  0.55957778829E+02  0.89840884673E+02  0.10590135750E+03  0.00000000000E+00 0.  1.
         13    1    4    4    0    0  0.15363863425E+02 -0.31109724485E+02  0.14905938508E+03  0.15304431887E+03  0.00000000000E+00 0. -1.
          4    1    1    2  501    0 -0.42961471594E+01  0.45462970323E+02  0.23435358191E+03  0.23876126132E+03  0.00000000000E+00 0. -1.
<scales pt_clust_5="13000.00000" pt_clust_6="13000.00000" pt_clust_7="13000.00000" pt_clust_8="13000.00000" pt_clust_9="45.66551"></scales>
<clustering>
<clus scale="   45.666">  1  9  2 -1</clus>
<clus scale="   79.911">  5  6 -1 -1</clus>
<clus scale="   94.831">  2  5  1 -1</clus>
<clus scale="   96.031">  7  8 -1 -1</clus>
<clus scale="   45.666">  1  5  2 -1</clus>
</clustering>
</event>
<event>
 9    1  0.4664604E-005  0.1311781E+03  0.7546771E-02  0.1232479E+00
         21   -1    0    0  501  502  0.00000000000E+00  0.00000000000E+00  0.47266676397E+03  0.47266676397E+03  0.00000000000E+00 0.  1.
          1   -1    0    0  502    0 -0.00000000000E+00 -0.00000000000E+00 -0.11855183627E+03  0.11855183627E+03  0.00000000000E+00 0. -1.
         23    2    1    2    0    0 -0.46058700073E+02  0.53185936177E+02  0.63528946151E+02  0.13056106712E+03  0.89778157638E+02 0.  0.
        -24    2    1    2    0    0 -0.95746117388E+02 -0.19106047340E+02  0.28821909621E+03  0.31479579303E+03  0.80584017308E+02 0.  0.
         11    1    4    4    0    0 -0.49512519877E+02  0.30802437613E+02  0.12320584265E+03  0.13630832495E+03  0.00000000000E+00 0. -1.
        -12    1    4    4    0    0 -0.46233597512E+02 -0.49908484953E+02  0.16501325356E+03  0.17848746807E+03  0.00000000000E+00 0.  1.
        -13    1    3    3    0    0 -0.70056868413E+02  0.21224278485E+02  0.33147947016E+02  0.80356836675E+02  0.00000000000E+00 0.  1.
         13    1    3    3    0    0  0.23998168340E+02  0.31961657691E+02  0.30380999135E+02  0.50204230444E+02  0.00000000000E+00 0. -1.
          2    1    1    2  501    0  0.14180481746E+03 -0.34079888837E+02  0.23668853382E+01  0.14586174010E+03  0.00000000000E+00 0. -1.
<scales pt_clust_5="13000.00000" pt_clust_6="13000.00000" pt_clust_7="13000.00000" pt_clust_8="13000.00000" pt_clust_9="103.50809"></scales>
<clustering>
<clus scale="   80.584">  5  6 -1 -1</clus>
<clus scale="   89.778">  7  8 -1 -1</clus>
<clus scale="  114.063">  2  7  1 -1</clus>
<clus scale="  103.508">  1  9  2 -1</clus>
<clus scale="  103.508">  1  5  2 -1</clus>
</clustering>
</event>
<event>
 9    1  0.4664604E-005  0.2089663E+03  0.7546771E-02  0.1171714E+00
          1   -1    0    0  502    0 -0.00000000000E+00  0.00000000000E+00  0.14694949319E+03  0.14694949319E+03  0.00000000000E+00 0. -1.
         21   -1    0    0  501  502  0.00000000000E+00 -0.00000000000E+00 -0.71280038703E+03  0.71280038703E+03  0.00000000000E+00 0.  1.
         23    2    1    2    0    0  0.37116324638E+02  0.44480430013E+02  0.54540262600E+02  0.11849297521E+03  0.87805550625E+02 0.  0.
        -24    2    1    2    0    0  0.50474380417E+02 -0.20248712503E+03 -0.37025251045E+03  0.43269963399E+03  0.81199463537E+02 0.  0.
         11    1    4    4    0    0  0.22070425079E+02 -0.85786229779E+01 -0.18546510141E+02  0.30077723879E+02  0.00000000000E+00 0. -1.
        -12    1    4    4    0    0  0.28403955338E+02 -0.19390850206E+03 -0.35170600031E+03  0.40262191011E+03  0.00000000000E+00 0.  1.
        -11    1    3    3    0    0  0.39473844091E+02  0.69417061578E+02  0.37677433389E+02  0.88297801741E+02  0.00000000000E+00 0.  1.
         11    1    3    3    0    0 -0.23575194527E+01 -0.24936631565E+02  0.16862829211E+02  0.30195173468E+02  0.00000000000E+00 0. -1.
          2    1    1    2  501    0 -0.87590705055E+02  0.15800669502E+03 -0.25013864599E+03  0.30855727102E+03  0.00000000000E+00 0. -1.
<scales pt_clust_5="13000.00000" pt_clust_6="13000.00000" pt_clust_7="13000.00000" pt_clust_8="13000.00000" pt_clust_9="192.54502"></scales>
<clustering>
<clus scale="   81.199">  5  6 -1 -1</clus>
<clus scale="   87.806">  7  8 -1 -1</clus>
<clus scale="  105.195">  1  7  2 -1</clus>
<clus scale="  192.545">  2  9  1 -1</clus>
<clus scale="  192.545">  2  5  1 -1</clus>
</clustering>
</event>
<event>
 9    1  0.4664604E-005  0.8941387E+02  0.7546771E-02  0.1307065E+00
          1   -1    0    0  502    0 -0.00000000000E+00  0.00000000000E+00  0.27625718818E+03  0.27625718818E+03  0.00000000000E+00 0. -1.
         21   -1    0    0  501  502  0.00000000000E+00 -0.00000000000E+00 -0.10128787126E+03  0.10128787126E+03  0.00000000000E+00 0. -1.
         23    2    1    2    0    0  0.20772213461E+02  0.43330726589E+02  0.15421950048E+03  0.17916178766E+03  0.77500032963E+02 0.  0.
        -24    2    1    2    0    0 -0.40931762917E+02  0.21863948387E+02  0.67077814247E+02  0.11590275008E+03  0.82344233911E+02 0.  0.
         13    1    4    4    0    0 -0.17716174043E+02  0.23730630612E+02 -0.13120744908E+02  0.32390733226E+02  0.00000000000E+00 0. -1.
        -14    1    4    4    0    0 -0.23215588874E+02 -0.18666822254E+01  0.80198559155E+02  0.83512016859E+02  0.00000000000E+00 0.  1.
        -13    1    3    3    0    0  0.23424942448E+02 -0.11723004962E+01  0.57577275457E+01  0.24150644787E+02  0.00000000000E+00 0.  1.
         13    1    3    3    0    0 -0.26527289875E+01  0.44503027085E+02  0.14846177293E+03  0.15501114287E+03  0.00000000000E+00 0. -1.
          2    1    1    2  501    0  0.20159549456E+02 -0.65194674976E+02 -0.46327997799E+02  0.82480521698E+02  0.00000000000E+00 0. -1.
<scales pt_clust_5="13000.00000" pt_clust_6="13000.00000" pt_clust_7="13000.00000" pt_clust_8="13000.00000" pt_clust_9="68.24041"></scales>
<clustering>
<clus scale="   68.240">  2  9  1 -1</clus>
<clus scale="   77.500">  7  8 -1 -1</clus>
<clus scale="   82.344">  5  6 -1 -1</clus>
<clus scale="   84.974">  1  7  2 -1</clus>
<clus scale="   68.240">  2  5  1 -1</clus>
</clustering>
</event>
<event>
 9    1  0.4664604E-005  0.9397294E+02  0.7546771E-02  0.1299616E+00
          1   -1    0    0  502    0 -0.00000000000E+00  0.00000000000E+00  0.20094469180E+03  0.20094469180E+03  0.00000000000E+00 0. -1.
         21   -1    0    0  501  502  0.00000000000E+00 -0.00000000000E+00 -0.12669946674E+03  0.12669946674E+03  0.00000000000E+00 0.  1.
        -24    2    1    2    0    0  0.15230187602E+01 -0.36656023341E+02  0.92111627581E+02  0.12821747533E+03  0.81296896694E+02 0.  0.
         23    2    1    2    0    0 -0.28705653662E+02 -0.46901501349E+02 -0.29293445403E+02  0.11081893590E+03  0.91645868593E+02 0.  0.
         11    1    3    3    0    0  0.22666354194E+02 -0.66978269596E+01  0.88234437214E+02  0.91345171787E+02  0.00000000000E+00 0. -1.
        -12    1    3    3    0    0 -0.21143335434E+02 -0.29958196382E+02  0.38771903672E+01  0.36872303547E+02  0.00000000000E+00 0.  1.
        -11    1    4    4    0    0 -0.25224275085E+02 -0.72055803539E+02 -0.63699292017E+01  0.76608608362E+02  0.00000000000E+00 0. -1.
         11    1    4    4    0    0 -0.34813785765E+01  0.25154302189E+02 -0.22923516201E+02  0.34210327541E+02  0.00000000000E+00 0.  1.
          2    1    1    2  501    0  0.27182634902E+02  0.83557524690E+02  0.11427042884E+02  0.88607747300E+02  0.00000000000E+00 0. -1.
<scales pt_clust_5="13000.00000" pt_clust_6="13000.00000" pt_clust_7="13000.00000" pt_clust_8="13000.00000" pt_clust_9="87.86783"></scales>
<clustering>
<clus scale="   81.297">  5  6 -1 -1</clus>
<clus scale="   87.868">  2  9  1 -1</clus>
<clus scale="   83.911">  1  5  2 -1</clus>
<clus scale="   91.646">  7  8 -1 -1</clus>
<clus scale="   87.868">  2  5  1 -1</clus>
</clustering>
</event>
<event>
 9    1  0.4664604E-005  0.1573524E+03  0.7546771E-02  0.1193766E+00
          1   -1    0    0  502    0 -0.00000000000E+00  0.00000000000E+00  0.25170788468E+03  0.25170788468E+03  0.00000000000E+00 0. -1.
         21   -1    0    0  501  502  0.00000000000E+00 -0.00000000000E+00 -0.29524648944E+03  0.29524648944E+03  0.00000000000E+00 0.  1.
        -24    2    1    2    0    0  0.18426440269E+02 -0.14598839913E+03  0.58515088890E+02  0.17774003636E+03  0.80717770743E+02 0.  0.
         23    2    1    2    0    0 -0.56626284608E+02  0.46361166983E+02 -0.19474322141E+03  0.22787728652E+03  0.92990545298E+02 0.  0.
         13    1    3    3    0    0  0.27717489501E+02 -0.11133145014E+02  0.23763508893E+02  0.38169496945E+02  0.00000000000E+00 0. -1.
        -14    1    3    3    0    0 -0.92910492321E+01 -0.13485525412E+03  0.34751579997E+02  0.13957053941E+03  0.00000000000E+00 0.  1.
        -11    1    4    4    0    0 -0.61829441570E+02 -0.60240710567E+01 -0.77251359624E+02  0.99130932814E+02  0.00000000000E+00 0. -1.
         11    1    4    4    0    0  0.52031569616E+01  0.52385238040E+02 -0.11749186179E+03  0.12874635371E+03  0.00000000000E+00 0.  1.
          2    1    1    2  501    0  0.38199844339E+02  0.99627232150E+02  0.92689527767E+02  0.14133705123E+03  0.00000000000E+00 0. -1.
<scales pt_clust_5="13000.00000" pt_clust_6="13000.00000" pt_clust_7="13000.00000" pt_clust_8="13000.00000" pt_clust_9="106.69969"></scales>
<clustering>
<clus scale="   80.718">  5  6 -1 -1</clus>
<clus scale="   92.991">  7  8 -1 -1</clus>
<clus scale="  106.700">  2  9  1 -1</clus>
<clus scale="  150.426">  1  5  2 -1</clus>
<clus scale="  106.700">  2  5  1 -1</clus>
</clustering>
</event>
<event>
 9    1  0.4664604E-005  0.1547435E+03  0.7546771E-02  0.1197753E+00
         21   -1    0    0  501  502  0.00000000000E+00  0.00000000000E+00  0.39165922673E+03  0.39165922673E+03  0.00000000000E+00 0.  1.
         -2   -1    0    0    0  501 -0.00000000000E+00 -0.00000000000E+00 -0.24390945140E+03  0.24390945140E+03  0.00000000000E+00 0.  1.
         23    2    1    2    0    0  0.10448023075E+03 -0.42893762962E+02 -0.14195268619E+03  0.20591598203E+03  0.97441433802E+02 0.  0.
        -24    2    1    2    0    0 -0.16500804850E+03 -0.15651607868E+02  0.75210523117E+02  0.19922273101E+03  0.80996573186E+02 0.  0.
         13    1    4    4    0    0 -0.67931081243E+02  0.29417240978E+02  0.12206377586E+02  0.75026672053E+02  0.00000000000E+00 0. -1.
        -14    1    4    4    0    0 -0.97076967254E+02 -0.45068848846E+02  0.63004145531E+02  0.12419605896E+03  0.00000000000E+00 0.  1.
        -13    1    3    3    0    0  0.42978148307E+02 -0.68452999608E+02 -0.93269351315E+02  0.12341841954E+03  0.00000000000E+00 0.  1.
         13    1    3    3    0    0  0.61502082441E+02  0.25559236646E+02 -0.48683334878E+02  0.82497562493E+02  0.00000000000E+00 0. -1.
         -1    1    1    2    0  502  0.60527817750E+02  0.58545370831E+02  0.21449193841E+03  0.23042996509E+03  0.00000000000E+00 0.  1.
<scales pt_clust_5="13000.00000" pt_clust_6="13000.00000" pt_clust_7="13000.00000" pt_clust_8="13000.00000" pt_clust_9="84.20913"></scales>
<clustering>
<clus scale="   80.997">  5  6 -1 -1</clus>
<clus scale="   84.209">  1  9  2 -1</clus>
<clus scale="   97.441">  7  8 -1 -1</clus>
<clus scale="  144.952">  1  5  2 -1</clus>
<clus scale="   84.209">  1  5  2 -1</clus>
</clustering>
</event>
<event>
 9    1  0.4664604E-005  0.9239187E+02  0.7546771E-02  0.1300785E+00
          1   -1    0    0  502    0 -0.00000000000E+00  0.00000000000E+00  0.49001495126E+02  0.49001495126E+02  0.00000000000E+00 0. -1.
         21   -1    0    0  501  502  0.00000000000E+00 -0.00000000000E+00 -0.28372676627E+03  0.28372676627E+03  0.00000000000E+00 0.  1.
        -24    2    1    2    0    0  0.29433752850E+02  0.27403514498E+02 -0.96683729578E+02  0.13296976787E+03  0.81950699738E+02 0.  0.
         23    2    1    2    0    0 -0.23412697996E+01 -0.11710103290E+02 -0.14260403817E+03  0.16811829492E+03  0.88234014534E+02 0.  0.
         11    1    3    3    0    0  0.28482593180E+02 -0.25581298911E+02 -0.39624286005E+02  0.55097595316E+02  0.00000000000E+00 0. -1.
        -12    1    3    3    0    0  0.95115966978E+00  0.52984813409E+02 -0.57059443573E+02  0.77872172550E+02  0.00000000000E+00 0.  1.
        -11    1    4    4    0    0  0.37026336623E+02  0.15444806214E+02 -0.78302094311E+02  0.87981302651E+02  0.00000000000E+00 0.  1.
         11    1    4    4    0    0 -0.39367606423E+02 -0.27154909504E+02 -0.64301943860E+02  0.80136992268E+02  0.00000000000E+00 0. -1.
          2    1    1    2  501    0 -0.27092483050E+02 -0.15693411208E+02  0.45624966008E+01  0.31640198615E+02  0.00000000000E+00 0. -1.
<scales pt_clust_5="13000.00000" pt_clust_6="13000.00000" pt_clust_7="13000.00000" pt_clust_8="13000.00000" pt_clust_9="31.30953"></scales>
<clustering>
<clus scale="   31.310">  2  9  1 -1</clus>
<clus scale="   81.951">  5  6 -1 -1</clus>
<clus scale="   86.411">  1  5  2 -1</clus>
<clus scale="   88.234">  7  8 -1 -1</clus>
<clus scale="   31.310">  2  5  1 -1</clus>
</clustering>
</event>
<event>
 9    1  0.4664604E-005  0.1292513E+03  0.7546771E-02  0.1233228E+00
         21   -1    0    0  501  502  0.00000000000E+00  0.00000000000E+00  0.42793439912E+03  0.42793439912E+03  0.00000000000E+00 0.  1.
          1   -1    0    0  502    0 -0.00000000000E+00 -0.00000000000E+00 -0.13819359070E+03  0.13819359070E+03  0.00000000000E+00 0. -1.
        -24    2    1    2    0    0  0.36234703039E+01 -0.40849696644E+02 -0.45223570441E+01  0.11365712091E+03  0.10590402337E+03 0.  0.
         23    2    1    2    0    0 -0.54838429271E+02  0.11806761151E+03  0.16591452412E+02  0.15974717902E+03  0.91086062050E+02 0.  0.
         13    1    3    3    0    0  0.25495146516E+02 -0.46373254978E+02  0.38253243348E+02  0.65297717416E+02  0.00000000000E+00 0. -1.
        -14    1    3    3    0    0 -0.21871676212E+02  0.55235583336E+01 -0.42775600392E+02  0.48359403490E+02  0.00000000000E+00 0.  1.
        -13    1    4    4    0    0 -0.56677767852E+01  0.97269929928E+02 -0.13653896488E+02  0.98386949597E+02  0.00000000000E+00 0. -1.
         13    1    4    4    0    0 -0.49170652486E+02  0.20797681585E+02  0.30245348900E+02  0.61360229426E+02  0.00000000000E+00 0.  1.
          2    1    1    2  501    0  0.51214958967E+02 -0.77217914868E+02  0.27767171304E+03  0.29272368989E+03  0.00000000000E+00 0. -1.
<scales pt_clust_5="13000.00000" pt_clust_6="13000.00000" pt_clust_7="13000.00000" pt_clust_8="13000.00000" pt_clust_9="92.65840"></scales>
<clustering>
<clus scale="   91.086">  7  8 -1 -1</clus>
<clus scale="   92.658">  1  9  2 -1</clus>
<clus scale="  105.904">  5  6 -1 -1</clus>
<clus scale="  117.418">  1  7  2 -1</clus>
<clus scale="   92.658">  1  5  2 -1</clus>
</clustering>
</event>
<event>
 9    1  0.4664604E-005  0.1022683E+03  0.7546771E-02  0.1280748E+00
         -2   -1    0    0    0  501 -0.00000000000E+00  0.00000000000E+00  0.93347317839E+03  0.93347317839E+03  0.00000000000E+00 0.  1.
         21   -1    0    0  501  502  0.00000000000E+00 -0.00000000000E+00 -0.29647792703E+02  0.29647792703E+02  0.00000000000E+00 0.  1.
        -24    2    1    2    0    0 -0.50659911263E+01  0.48486761189E+02  0.75557936841E+03  0.76146342933E+03  0.80930476161E+02 0.  0.
         23    2    1    2    0    0  0.28074428685E+02 -0.17198705193E+02  0.98874969665E+02  0.13884169193E+03  0.91743047618E+02 0.  0.
         13    1    3    3    0    0  0.31949856049E+02  0.31959395474E+01  0.17296497878E+03  0.17592012738E+03  0.00000000000E+00 0. -1.
        -14    1    3    3    0    0 -0.37015847176E+02  0.45290821641E+02  0.58261438963E+03  0.58554330196E+03  0.00000000000E+00 0.  1.
        -11    1    4    4    0    0 -0.22947353493E+02 -0.36318629872E+02  0.45137152011E+02  0.62313613278E+02  0.00000000000E+00 0. -1.
         11    1    4    4    0    0  0.51021782178E+02  0.19119924679E+02  0.53737817654E+02  0.76528078655E+02  0.00000000000E+00 0.  1.
         -1    1    1    2    0  502 -0.23008437559E+02 -0.31288055995E+02  0.49371047611E+02  0.62815849824E+02  0.00000000000E+00 0.  1.
<scales pt_clust_5="13000.00000" pt_clust_6="13000.00000" pt_clust_7="13000.00000" pt_clust_8="13000.00000" pt_clust_9="38.83723"></scales>
<clustering>
<clus scale="   38.837">  2  9  1 -1</clus>
<clus scale="   80.930">  5  6 -1 -1</clus>
<clus scale="   91.743">  7  8 -1 -1</clus>
<clus scale="   92.692">  1  5  2 -1</clus>
<clus scale="   38.837">  2  5  1 -1</clus>
</clustering>
</event>
<event>
 9    1  0.4664604E-005  0.9607576E+02  0.7546771E-02  0.1294374E+00
          1   -1    0    0  502    0 -0.00000000000E+00  0.00000000000E+00  0.32161210267E+03  0.32161210267E+03  0.00000000000E+00 0. -1.
         21   -1    0    0  501  502  0.00000000000E+00 -0.00000000000E+00 -0.19625659094E+03  0.19625659094E+03  0.00000000000E+00 0.  1.
        -24    2    1    2    0    0  0.32362339225E+02  0.10097388771E+02  0.27550880341E+03  0.28894707662E+03  0.80224896850E+02 0.  0.
         23    2    1    2    0    0  0.13550727580E+02 -0.27406602599E+02 -0.15236550279E+03  0.17980428333E+03  0.90441084571E+02 0.  0.
         13    1    3    3    0    0  0.43945295144E+02  0.37222091908E+02  0.18024271515E+03  0.18921973855E+03  0.00000000000E+00 0. -1.
        -14    1    3    3    0    0 -0.11582955918E+02 -0.27124703137E+02  0.95266088258E+02  0.99727338078E+02  0.00000000000E+00 0.  1.
        -11    1    4    4    0    0  0.48296750710E+02 -0.19765865634E+02 -0.53516388861E+02  0.74748039775E+02  0.00000000000E+00 0. -1.
         11    1    4    4    0    0 -0.34746023130E+02 -0.76407369651E+01 -0.98849113932E+02  0.10505624356E+03  0.00000000000E+00 0.  1.
          2    1    1    2  501    0 -0.45913066806E+02  0.17309213828E+02  0.22122111200E+01  0.49117333650E+02  0.00000000000E+00 0. -1.
<scales pt_clust_5="13000.00000" pt_clust_6="13000.00000" pt_clust_7="13000.00000" pt_clust_8="13000.00000" pt_clust_9="49.06749"></scales>
<clustering>
<clus scale="   49.067">  2  9  1 -1</clus>
<clus scale="   80.225">  5  6 -1 -1</clus>
<clus scale="   86.527">  1  5  2 -1</clus>
<clus scale="   90.441">  7  8 -1 -1</clus>
<clus scale="   49.067">  2  5  1 -1</clus>
</clustering>
</event>
<event>
 9    1  0.4664604E-005  0.1239743E+03  0.7546771E-02  0.1239141E+00
         21   -1    0    0  501  502  0.00000000000E+00  0.00000000000E+00  0.17065659452E+03  0.17065659452E+03  0.00000000000E+00 0. -1.
          1   -1    0    0  502    0 -0.00000000000E+00 -0.00000000000E+00 -0.39256918883E+03  0.39256918883E+03  0.00000000000E+00 0. -1.
         23    2    1    2    0    0 -0.67526523334E+02 -0.47143764512E+02 -0.32644651067E+03  0.34842109790E+03  0.89708256282E+02 0.  0.
        -24    2    1    2    0    0  0.86398626181E+02  0.75751035992E+02  0.47864653953E+02  0.14857827418E+03  0.81126668865E+02 0.  0.
         11    1    4    4    0    0  0.97803444430E+02  0.80913976282E+02  0.37594263606E+02  0.13238547487E+03  0.00000000000E+00 0. -1.
        -12    1    4    4    0    0 -0.11404818249E+02 -0.51629402900E+01  0.10270390347E+02  0.16192799314E+02  0.00000000000E+00 0.  1.
        -11    1    3    3    0    0 -0.43376398672E+02  0.46649403069E+01 -0.51035714039E+02  0.67141028718E+02  0.00000000000E+00 0.  1.
         11    1    3    3    0    0 -0.24150124662E+02 -0.51808704819E+02 -0.27541079664E+03  0.28128006918E+03  0.00000000000E+00 0. -1.
          2    1    1    2  501    0 -0.18872102847E+02 -0.28607271480E+02  0.56669262408E+02  0.66226411267E+02  0.00000000000E+00 0. -1.
<scales pt_clust_5="13000.00000" pt_clust_6="13000.00000" pt_clust_7="13000.00000" pt_clust_8="13000.00000" pt_clust_9="34.27145"></scales>
<clustering>
<clus scale="   34.271">  1  9  2 -1</clus>
<clus scale="   81.127">  5  6 -1 -1</clus>
<clus scale="   89.708">  7  8 -1 -1</clus>
<clus scale="  117.913">  1  5  2 -1</clus>
<clus scale="   34.271">  1  5  2 -1</clus>
</clustering>
</event>
<event>
 9    1  0.4664604E-005  0.9325654E+02  0.7546771E-02  0.1302703E+00
         21   -1    0    0  501  502  0.00000000000E+00  0.00000000000E+00  0.13453787887E+03  0.13453787887E+03  0.00000000000E+00 0. -1.
         -4   -1    0    0    0  501 -0.00000000000E+00 -0.00000000000E+00 -0.10585956245E+03  0.10585956245E+03  0.00000000000E+00 0.  1.
         23    2    1    2    0    0  0.84639988929E+01  0.26320083024E+02  0.44113736227E+01  0.95667385753E+02  0.91478972622E+02 0.  0.
        -24    2    1    2    0    0  0.10033564170E+02 -0.49652628589E+01  0.59487917800E+02  0.99578031648E+02  0.79067349630E+02 0.  0.
         11    1    4    4    0    0 -0.25321445485E+02 -0.10851060049E+02  0.57408484302E+02  0.63676174316E+02  0.00000000000E+00 0. -1.
        -12    1    4    4    0    0  0.35355009654E+02  0.58857971905E+01  0.20794334977E+01  0.35901857332E+02  0.00000000000E+00 0.  1.
        -13    1    3    3    0    0  0.48014633244E+02  0.20795663126E+02  0.14849964992E+02  0.54391047707E+02  0.00000000000E+00 0. -1.
         13    1    3    3    0    0 -0.39550634351E+02  0.55244198981E+01 -0.10438591369E+02  0.41276338047E+02  0.00000000000E+00 0.  1.
         -3    1    1    2    0  502 -0.18497563063E+02 -0.21354820165E+02 -0.35220975003E+02  0.45152023916E+02  0.00000000000E+00 0.  1.
<scales pt_clust_5="13000.00000" pt_clust_6="13000.00000" pt_clust_7="13000.00000" pt_clust_8="13000.00000" pt_clust_9="28.25224"></scales>
<clustering>
<clus scale="   28.252">  1  9  2 -1</clus>
<clus scale="   79.067">  5  6 -1 -1</clus>
<clus scale="   81.117">  1  5  2 -1</clus>
<clus scale="   91.479">  7  8 -1 -1</clus>
<clus scale="   28.252">  1  5  2 -1</clus>
</clustering>
</event>
<event>
 9    1  0.4664604E-005  0.9475450E+02  0.7546771E-02  0.1299385E+00
         21   -1    0    0  501  502  0.00000000000E+00  0.00000000000E+00  0.22088960593E+03  0.22088960593E+03  0.00000000000E+00 0. -1.
          1   -1    0    0  502    0 -0.00000000000E+00 -0.00000000000E+00 -0.78477114371E+02  0.78477114371E+02  0.00000000000E+00 0. -1.
        -24    2    1    2    0    0  0.65300006278E+01  0.34030028659E+01  0.66396156021E+02  0.10355159660E+03  0.79121819283E+02 0.  0.
         23    2    1    2    0    0 -0.22420341280E+01  0.54704786401E+02  0.85125632673E+02  0.13684156077E+03  0.92095597309E+02 0.  0.
         11    1    3    3    0    0 -0.91116560120E+01 -0.25054012713E+02 -0.31040353081E+01  0.26839539182E+02  0.00000000000E+00 0. -1.
        -12    1    3    3    0    0  0.15641656640E+02  0.28457015579E+02  0.69500191329E+02  0.76712057415E+02  0.00000000000E+00 0.  1.
        -13    1    4    4    0    0 -0.24883837180E+02  0.56003075759E+02  0.14932438091E+02  0.63075570189E+02  0.00000000000E+00 0. -1.
         13    1    4    4    0    0  0.22641803052E+02 -0.12982893586E+01  0.70193194582E+02  0.73765990581E+02  0.00000000000E+00 0.  1.
          2    1    1    2  501    0 -0.42879664998E+01 -0.58107789267E+02 -0.91092971394E+01  0.58973562929E+02  0.00000000000E+00 0. -1.
<scales pt_clust_5="13000.00000" pt_clust_6="13000.00000" pt_clust_7="13000.00000" pt_clust_8="13000.00000" pt_clust_9="58.26582"></scales>
<clustering>
<clus scale="   58.266">  1  9  2 -1</clus>
<clus scale="   79.122">  5  6 -1 -1</clus>
<clus scale="   82.201">  2  5  1 -1</clus>
<clus scale="   92.096">  7  8 -1 -1</clus>
<clus scale="   58.266">  1  5  2 -1</clus>
</clustering>
</event>
<event>
 9    1  0.4664604E-005  0.9687922E+02  0.7546771E-02  0.1294108E+00
          1   -1    0    0  502    0 -0.00000000000E+00  0.00000000000E+00  0.18922599974E+03  0.18922599974E+03  0.00000000000E+00 0. -1.
         21   -1    0    0  501  502  0.00000000000E+00 -0.00000000000E+00 -0.10662522647E+03  0.10662522647E+03  0.00000000000E+00 0. -1.
         23    2    1    2    0    0 -0.49689385872E+01  0.34285112692E+02  0.83163838002E+02  0.12783902737E+03  0.90699689447E+02 0.  0.
        -24    2    1    2    0    0  0.63010137471E+02 -0.74418028689E+01 -0.17609139863E+02  0.10183128974E+03  0.77678001450E+02 0.  0.
         13    1    4    4    0    0  0.59500831110E+02 -0.28564550749E+01  0.20719734698E+02  0.63069926624E+02  0.00000000000E+00 0. -1.
        -14    1    4    4    0    0  0.35093063608E+01 -0.45853477940E+01 -0.38328874561E+02  0.38761363116E+02  0.00000000000E+00 0.  1.
        -13    1    3    3    0    0 -0.20173853716E+02  0.59829370352E+02  0.72779597205E+02  0.96350442136E+02  0.00000000000E+00 0. -1.
         13    1    3    3    0    0  0.15204915128E+02 -0.25544257659E+02  0.10384240796E+02  0.31488585239E+02  0.00000000000E+00 0.  1.
          2    1    1    2  501    0 -0.58041198883E+02 -0.26843309824E+02  0.17046075131E+02  0.66180909086E+02  0.00000000000E+00 0. -1.
<scales pt_clust_5="13000.00000" pt_clust_6="13000.00000" pt_clust_7="13000.00000" pt_clust_8="13000.00000" pt_clust_9="63.94798"></scales>
<clustering>
<clus scale="   63.948">  2  9  1 -1</clus>
<clus scale="   77.678">  5  6 -1 -1</clus>
<clus scale="   84.812">  2  5  1 -1</clus>
<clus scale="   90.700">  7  8 -1 -1</clus>
<clus scale="   63.948">  2  5  1 -1</clus>
</clustering>
</event>
<event>
 9    1  0.4664604E-005  0.1788349E+03  0.7546771E-02  0.1170469E+00
          1   -1    0    0  502    0 -0.00000000000E+00  0.00000000000E+00  0.50441944453E+03  0.50441944453E+03  0.00000000000E+00 0. -1.
         21   -1    0    0  501  502  0.00000000000E+00 -0.00000000000E+00 -0.12432183383E+03  0.12432183383E+03  0.00000000000E+00 0. -1.
         23    2    1    2    0    0 -0.73081718420E+02 -0.14881005286E+03  0.32196665253E+03  0.37356027039E+03  0.91648136222E+02 0.  0.
        -24    2    1    2    0    0  0.83612683204E+02  0.10701827273E+03  0.10696865163E+03  0.19004596049E+03  0.78937843763E+02 0.  0.
         11    1    4    4    0    0  0.84549546573E+02  0.52595539227E+02  0.86485018020E+02  0.13188849425E+03  0.00000000000E+00 0. -1.
        -12    1    4    4    0    0 -0.93686336905E+00  0.54422733499E+02  0.20483633611E+02  0.58157466248E+02  0.00000000000E+00 0.  1.
        -13    1    3    3    0    0  0.24366084348E+01 -0.81820461233E+02  0.96602731005E+02  0.12661995330E+03  0.00000000000E+00 0.  1.
         13    1    3    3    0    0 -0.75518326855E+02 -0.66989591626E+02  0.22536392153E+03  0.24694031709E+03  0.00000000000E+00 0. -1.
          2    1    1    2  501    0 -0.10530964784E+02  0.41791780133E+02 -0.48837693472E+02  0.65135047476E+02  0.00000000000E+00 0. -1.
<scales pt_clust_5="13000.00000" pt_clust_6="13000.00000" pt_clust_7="13000.00000" pt_clust_8="13000.00000" pt_clust_9="43.09819"></scales>
<clustering>
<clus scale="   43.098">  2  9  1 -1</clus>
<clus scale="   78.938">  5  6 -1 -1</clus>
<clus scale="   91.648">  7  8 -1 -1</clus>
<clus scale="  172.667">  2  5  1 -1</clus>
<clus scale="   43.098">  2  5  1 -1</clus>
</clustering>
</event>
<event>
 9    1  0.4664604E-005  0.1331299E+03  0.7546771E-02  0.1239899E+00
          3   -1    0    0  502    0 -0.00000000000E+00  0.00000000000E+00  0.18334040996E+03  0.18334040996E+03  0.00000000000E+00 0. -1.
         21   -1    0    0  501  502  0.00000000000E+00 -0.00000000000E+00 -0.26275126848E+03  0.26275126848E+03  0.00000000000E+00 0. -1.
        -24    2    1    2    0    0 -0.44021121780E+02  0.15718728557E+02 -0.32919378270E+02  0.99375540637E+02  0.81282685862E+02 0.  0.
         23    2    1    2    0    0 -0.56027180595E+02 -0.12368107651E+02  0.11400974696E+03  0.15755606430E+03  0.92377897480E+02 0.  0.
         11    1    3    3    0    0 -0.47381449965E+02 -0.16514474450E+02  0.38962106183E+01  0.50328025238E+02  0.00000000000E+00 0. -1.
        -12    1    3    3    0    0  0.33603281853E+01  0.32233203007E+02 -0.36815588888E+02  0.49047515398E+02  0.00000000000E+00 0.  1.
        -11    1    4    4    0    0 -0.76659978220E+02  0.95909539730E+01  0.92580232385E+02  0.12058125098E+03  0.00000000000E+00 0. -1.
         11    1    4    4    0    0  0.20632797624E+02 -0.21959061624E+02  0.21429514576E+02  0.36974813321E+02  0.00000000000E+00 0.  1.
          4    1    1    2  501    0  0.10004830238E+03 -0.33506209060E+01 -0.16050122721E+03  0.18916007350E+03  0.00000000000E+00 0. -1.
<scales pt_clust_5="13000.00000" pt_clust_6="13000.00000" pt_clust_7="13000.00000" pt_clust_8="13000.00000" pt_clust_9="95.86399"></scales>
<clustering>
<clus scale="   81.283">  5  6 -1 -1</clus>
<clus scale="   92.378">  7  8 -1 -1</clus>
<clus scale="   93.765">  1  5  2 -1</clus>
<clus scale="   95.864">  2  9  1 -1</clus>
<clus scale="   95.864">  2  5  1 -1</clus>
</clustering>
</event>
<event>
 9    1  0.4664604E-005  0.1130700E+03  0.7546771E-02  0.1261280E+00
          1   -1    0    0  502    0 -0.00000000000E+00  0.00000000000E+00  0.29641430225E+03  0.29641430225E+03  0.00000000000E+00 0. -1.
         21   -1    0    0  501  502  0.00000000000E+00 -0.00000000000E+00 -0.10985155420E+03  0.10985155420E+03  0.00000000000E+00 0.  1.
        -24    2    1    2    0    0  0.19947883477E+02 -0.81212660467E+02  0.17913277154E+03  0.21120657477E+03  0.74338772602E+02 0.  0.
         23    2    1    2    0    0 -0.52101127969E+02 -0.24898271213E+01  0.71866347909E+01  0.10539325257E+03  0.91298210243E+02 0.  0.
         13    1    3    3    0    0  0.44675449425E+02 -0.55693427258E+02  0.14645259208E+03  0.16292947967E+03  0.00000000000E+00 0. -1.
        -14    1    3    3    0    0 -0.24727565948E+02 -0.25519233209E+02  0.32680179462E+02  0.48277095097E+02  0.00000000000E+00 0.  1.
        -13    1    4    4    0    0 -0.33131140548E+02 -0.34544977840E+02  0.34671455546E+02  0.59102773181E+02  0.00000000000E+00 0.  1.
         13    1    4    4    0    0 -0.18969987421E+02  0.32055150719E+02 -0.27484820755E+02  0.46290479392E+02  0.00000000000E+00 0. -1.
          2    1    1    2  501    0  0.32153244492E+02  0.83702487588E+02  0.24334171801E+00  0.89666029102E+02  0.00000000000E+00 0. -1.
<scales pt_clust_5="13000.00000" pt_clust_6="13000.00000" pt_clust_7="13000.00000" pt_clust_8="13000.00000" pt_clust_9="89.66570"></scales>
<clustering>
<clus scale="   74.339">  5  6 -1 -1</clus>
<clus scale="   89.666">  2  9  1 -1</clus>
<clus scale="   91.298">  7  8 -1 -1</clus>
<clus scale="   99.878">  1  5  2 -1</clus>
<clus scale="   89.666">  2  5  1 -1</clus>
</clustering>
</event>
<event>
 9    1  0.4664604E-005  0.1050775E+03  0.7546771E-02  0.1272223E+00
         21   -1    0    0  501  502  0.00000000000E+00  0.00000000000E+00  0.23739293594E+03  0.23739293594E+03  0.00000000000E+00 0. -1.
          1   -1    0    0  502    0 -0.00000000000E+00 -0.00000000000E+00 -0.24618766412E+03  0.24618766412E+03  0.00000000000E+00 0. -1.
         23    2    1    2    0    0  0.51894232096E+02  0.17832685498E+02 -0.15308826763E+03  0.18420612379E+03  0.86515099019E+02 0.  0.
        -24    2    1    2    0    0 -0.56420479117E+02 -0.51165536769E+02 -0.35292966690E+02  0.11666465423E+03  0.81017685927E+02 0.  0.
         11    1    4    4    0    0 -0.16351992940E+02 -0.65257393564E+02 -0.12380997924E+02  0.68404708883E+02  0.00000000000E+00 0. -1.
        -12    1    4    4    0    0 -0.40068486177E+02  0.14091856795E+02 -0.22911968766E+02  0.48259945350E+02  0.00000000000E+00 0.  1.
        -11    1    3    3    0    0 -0.22125886396E+02  0.35327804790E+01 -0.15266276243E+02  0.27112627631E+02  0.00000000000E+00 0. -1.
         11    1    3    3    0    0  0.74020118492E+02  0.14299905019E+02 -0.13782199138E+03  0.15709349616E+03  0.00000000000E+00 0.  1.
          2    1    1    2  501    0  0.45262470206E+01  0.33332851271E+02  0.17958650613E+03  0.18270982204E+03  0.00000000000E+00 0. -1.
<scales pt_clust_5="13000.00000" pt_clust_6="13000.00000" pt_clust_7="13000.00000" pt_clust_8="13000.00000" pt_clust_9="33.63876"></scales>
<clustering>
<clus scale="   33.639">  1  9  2 -1</clus>
<clus scale="   81.018">  5  6 -1 -1</clus>
<clus scale="   86.515">  7  8 -1 -1</clus>
<clus scale="  100.600">  1  5  2 -1</clus>
<clus scale="   33.639">  1  5  2 -1</clus>
</clustering>
</event>
<event>
 9    1  0.4664604E-005  0.9270314E+02  0.7546771E-02  0.1307678E+00
         21   -1    0    0  501  502  0.00000000000E+00  0.00000000000E+00  0.10996475699E+03  0.10996475699E+03  0.00000000000E+00 0. -1.
          1   -1    0    0  502    0 -0.00000000000E+00 -0.00000000000E+00 -0.24403022194E+03  0.24403022194E+03  0.00000000000E+00 0. -1.
         23    2    1    2    0    0  0.17216326972E+02  0.22272111842E+01 -0.19202501690E+03  0.21328984691E+03  0.91200818502E+02 0.  0.
        -24    2    1    2    0    0 -0.13868694537E+02  0.17795026290E+02 -0.24603079599E+01  0.76966163500E+02  0.73544092624E+02 0.  0.
         13    1    4    4    0    0 -0.19013999823E+01  0.31899855350E+02 -0.29973081442E+02  0.43813259458E+02  0.00000000000E+00 0. -1.
        -14    1    4    4    0    0 -0.11967294554E+02 -0.14104829060E+02  0.27512773482E+02  0.33152904042E+02  0.00000000000E+00 0.  1.
        -11    1    3    3    0    0  0.36427211535E+02  0.33509066967E+02 -0.14749990655E+03  0.15558284527E+03  0.00000000000E+00 0. -1.
         11    1    3    3    0    0 -0.19210884563E+02 -0.31281855783E+02 -0.44525110348E+02  0.57707001641E+02  0.00000000000E+00 0.  1.
          2    1    1    2  501    0 -0.33476324358E+01 -0.20022237474E+02  0.60419859909E+02  0.63738968519E+02  0.00000000000E+00 0. -1.
<scales pt_clust_5="13000.00000" pt_clust_6="13000.00000" pt_clust_7="13000.00000" pt_clust_8="13000.00000" pt_clust_9="20.30016"></scales>
<clustering>
<clus scale="   20.300">  1  9  2 -1</clus>
<clus scale="   73.544">  5  6 -1 -1</clus>
<clus scale="   75.399">  1  5  2 -1</clus>
<clus scale="   91.201">  7  8 -1 -1</clus>
<clus scale="   20.300">  1  5  2 -1</clus>
</clustering>
</event>
<event>
 9    1  0.4664604E-005  0.2209052E+03  0.7546771E-02  0.1133960E+00
          1   -1    0    0  502    0 -0.00000000000E+00  0.00000000000E+00  0.25846852096E+03  0.25846852096E+03  0.00000000000E+00 0. -1.
         21   -1    0    0  501  502  0.00000000000E+00 -0.00000000000E+00 -0.36669004964E+03  0.36669004964E+03  0.00000000000E+00 0.  1.
         23    2    1    2    0    0  0.11309101282E+03 -0.14263453568E+03 -0.58205112873E+02  0.21157929432E+03  0.90795234851E+02 0.  0.
        -24    2    1    2    0    0 -0.14989080162E+03  0.17947465633E+03 -0.15814757348E+03  0.29356358479E+03  0.80563755149E+02 0.  0.
         13    1    4    4    0    0 -0.83225458024E+01  0.39934329163E+02 -0.58198977367E+02  0.71071347117E+02  0.00000000000E+00 0. -1.
        -14    1    4    4    0    0 -0.14156825582E+03  0.13954032717E+03 -0.99948596108E+02  0.22249223767E+03  0.00000000000E+00 0.  1.
        -11    1    3    3    0    0  0.10090556875E+03 -0.56441765292E+02 -0.24203651992E+02  0.11812460982E+03  0.00000000000E+00 0. -1.
         11    1    3    3    0    0  0.12185444071E+02 -0.86192770385E+02 -0.34001460881E+02  0.93454684505E+02  0.00000000000E+00 0.  1.
          2    1    1    2  501    0  0.36799788798E+02 -0.36840120654E+02  0.10813115766E+03  0.12001569149E+03  0.00000000000E+00 0. -1.
<scales pt_clust_5="13000.00000" pt_clust_6="13000.00000" pt_clust_7="13000.00000" pt_clust_8="13000.00000" pt_clust_9="52.07131"></scales>
<clustering>
<clus scale="   52.071">  2  9  1 -1</clus>
<clus scale="   80.564">  5  6 -1 -1</clus>
<clus scale="   90.795">  7  8 -1 -1</clus>
<clus scale="  216.901">  2  5  1 -1</clus>
<clus scale="   52.071">  2  5  1 -1</clus>
</clustering>
</event>
<event>
 9    1  0.4664604E-005  0.1249591E+03  0.7546771E-02  0.1239814E+00
         21   -1    0    0  501  502  0.00000000000E+00  0.00000000000E+00  0.43959202556E+03  0.43959202556E+03  0.00000000000E+00 0. -1.
          1   -1    0    0  502    0 -0.00000000000E+00 -0.00000000000E+00 -0.54182924492E+02  0.54182924492E+02  0.00000000000E+00 0. -1.
        -24    2    1    2    0    0  0.53984700185E+02  0.27719636575E+02  0.13957343380E+03  0.16997604265E+03  0.75686098779E+02 0.  0.
         23    2    1    2    0    0 -0.95423178132E+02 -0.70663251886E+02  0.18912977293E+03  0.24147722129E+03  0.91881985730E+02 0.  0.
         13    1    3    3    0    0  0.70292743317E+02  0.26626810826E+02  0.13213413021E+03  0.15201804230E+03  0.00000000000E+00 0. -1.
        -14    1    3    3    0    0 -0.16308043132E+02  0.10928257497E+01  0.74393035872E+01  0.17958000356E+02  0.00000000000E+00 0.  1.
        -13    1    4    4    0    0 -0.85437456242E+02 -0.77413222562E+01  0.11943009850E+03  0.14704773180E+03  0.00000000000E+00 0.  1.
         13    1    4    4    0    0 -0.99857218900E+01 -0.62921929630E+02  0.69699674427E+02  0.94429489490E+02  0.00000000000E+00 0. -1.
          2    1    1    2  501    0  0.41438477947E+02  0.42943615311E+02  0.56705894339E+02  0.82321686106E+02  0.00000000000E+00 0. -1.
<scales pt_clust_5="13000.00000" pt_clust_6="13000.00000" pt_clust_7="13000.00000" pt_clust_8="13000.00000" pt_clust_9="59.67667"></scales>
<clustering>
<clus scale="   59.677">  1  9  2 -1</clus>
<clus scale="   75.686">  5  6 -1 -1</clus>
<clus scale="   91.882">  7  8 -1 -1</clus>
<clus scale="  113.582">  2  5  1 -1</clus>
<clus scale="   59.677">  1  5  2 -1</clus>
</clustering>
</event>
<event>
 9    1  0.4664604E-005  0.1634103E+03  0.7546771E-02  0.1188139E+00
         21   -1    0    0  501  502  0.00000000000E+00  0.00000000000E+00  0.16904321779E+03  0.16904321779E+03  0.00000000000E+00 0.  1.
         -2   -1    0    0    0  501 -0.00000000000E+00 -0.00000000000E+00 -0.20113856603E+03  0.20113856603E+03  0.00000000000E+00 0.  1.
        -24    2    1    2    0    0 -0.86428186903E+02 -0.11181070788E+03 -0.78653723798E+02  0.17978941831E+03  0.78526178952E+02 0.  0.
         23    2    1    2    0    0  0.73662550087E+02  0.78922230401E+02  0.50782750939E+02  0.15486126953E+03  0.98733151835E+02 0.  0.
         13    1    3    3    0    0 -0.61474762817E+02 -0.77429390559E+02 -0.10422446258E+02  0.99413703138E+02  0.00000000000E+00 0. -1.
        -14    1    3    3    0    0 -0.24953424087E+02 -0.34381317316E+02 -0.68231277540E+02  0.80375715169E+02  0.00000000000E+00 0.  1.
        -11    1    4    4    0    0  0.48193217139E+02 -0.35801595596E+01 -0.98950923733E+01  0.49328658747E+02  0.00000000000E+00 0.  1.
         11    1    4    4    0    0  0.25469332948E+02  0.82502389961E+02  0.60677843312E+02  0.10553261078E+03  0.00000000000E+00 0. -1.
         -1    1    1    2    0  502  0.12765636817E+02  0.32888477474E+02 -0.42243753819E+01  0.35531095976E+02  0.00000000000E+00 0.  1.
<scales pt_clust_5="13000.00000" pt_clust_6="13000.00000" pt_clust_7="13000.00000" pt_clust_8="13000.00000" pt_clust_9="35.27910"></scales>
<clustering>
<clus scale="   35.279">  1  9  2 -1</clus>
<clus scale="   78.526">  5  6 -1 -1</clus>
<clus scale="   98.733">  7  8 -1 -1</clus>
<clus scale="  152.056">  2  5  1 -1</clus>
<clus scale="   35.279">  1  5  2 -1</clus>
</clustering>
</event>
<event>
 9    1  0.4664604E-005  0.1378716E+03  0.7546771E-02  0.1217747E+00
         21   -1    0    0  501  502  0.00000000000E+00  0.00000000000E+00  0.98614462951E+02  0.98614462951E+02  0.00000000000E+00 0.  1.
          1   -1    0    0  502    0 -0.00000000000E+00 -0.00000000000E+00 -0.64350283721E+03  0.64350283721E+03  0.00000000000E+00 0. -1.
         23    2    1    2    0    0 -0.72033371289E+02 -0.88174373973E+02 -0.51278100392E+03  0.53253610624E+03  0.87674509792E+02 0.  0.
        -24    2    1    2    0    0 -0.12701524454E+02  0.85902921843E+02  0.12027876659E+01  0.11850579286E+03  0.80632099929E+02 0.  0.
         13    1    4    4    0    0  0.34029916476E+02  0.38910780795E+02 -0.50517840141E+01  0.51938469357E+02  0.00000000000E+00 0. -1.
        -14    1    4    4    0    0 -0.46731440930E+02  0.46992141048E+02  0.62545716801E+01  0.66567323504E+02  0.00000000000E+00 0.  1.
        -11    1    3    3    0    0 -0.11661353129E+02 -0.81779540200E+02 -0.27608477994E+03  0.28817821928E+03  0.00000000000E+00 0. -1.
         11    1    3    3    0    0 -0.60372018160E+02 -0.63948337734E+01 -0.23669622398E+03  0.24435788696E+03  0.00000000000E+00 0.  1.
          2    1    1    2  501    0  0.84734895743E+02  0.22714521303E+01 -0.33310158008E+02  0.91075401058E+02  0.00000000000E+00 0. -1.
<scales pt_clust_5="13000.00000" pt_clust_6="13000.00000" pt_clust_7="13000.00000" pt_clust_8="13000.00000" pt_clust_9="84.76534"></scales>
<clustering>
<clus scale="   80.632">  5  6 -1 -1</clus>
<clus scale="   84.765">  1  9  2 -1</clus>
<clus scale="   87.675">  7  8 -1 -1</clus>
<clus scale="  133.504">  1  5  2 -1</clus>
<clus scale="   84.765">  1  5  2 -1</clus>
</clustering>
</event>
<event>
 9    1  0.4664604E-005  0.9670201E+02  0.7546771E-02  0.1293844E+00
         21   -1    0    0  501  502  0.00000000000E+00  0.00000000000E+00  0.44664183279E+03  0.44664183279E+03  0.00000000000E+00 0. -1.
          1   -1    0    0  502    0 -0.00000000000E+00 -0.00000000000E+00 -0.21983767625E+03  0.21983767625E+03  0.00000000000E+00 0. -1.
         23    2    1    2    0    0  0.18926423306E+02 -0.19651371263E+02 -0.18090023971E+03  0.20459646881E+03  0.91599303658E+02 0.  0.
        -24    2    1    2    0    0 -0.28871536970E+02  0.59755555542E+02  0.78747207091E+02  0.13034106222E+03  0.79896043777E+02 0.  0.
         13    1    4    4    0    0 -0.39184852937E+02  0.63248368479E+02  0.88571753432E+02  0.11567525371E+03  0.00000000000E+00 0. -1.
        -14    1    4    4    0    0  0.10313315967E+02 -0.34928129367E+01 -0.98245463419E+01  0.14665808511E+02  0.00000000000E+00 0.  1.
        -13    1    3    3    0    0 -0.29251555568E+02 -0.30292831642E+01 -0.19362794421E+02  0.35210053500E+02  0.00000000000E+00 0.  1.
         13    1    3    3    0    0  0.48177978875E+02 -0.16622088098E+02 -0.16153744529E+03  0.16938641531E+03  0.00000000000E+00 0. -1.
          2    1    1    2  501    0  0.99451136641E+01 -0.40104184280E+02  0.32895718916E+03  0.33154197801E+03  0.00000000000E+00 0. -1.
<scales pt_clust_5="13000.00000" pt_clust_6="13000.00000" pt_clust_7="13000.00000" pt_clust_8="13000.00000" pt_clust_9="41.31889"></scales>
<clustering>
<clus scale="   41.319">  1  9  2 -1</clus>
<clus scale="   79.896">  5  6 -1 -1</clus>
<clus scale="   85.698">  1  5  2 -1</clus>
<clus scale="   91.599">  7  8 -1 -1</clus>
<clus scale="   41.319">  1  5  2 -1</clus>
</clustering>
</event>
<event>
 9    1  0.4664604E-005  0.1281941E+03  0.7546771E-02  0.1241399E+00
         21   -1    0    0  501  502  0.00000000000E+00  0.00000000000E+00  0.12424117634E+03  0.12424117634E+03  0.00000000000E+00 0. -1.
          3   -1    0    0  502    0 -0.00000000000E+00 -0.00000000000E+00 -0.27172920594E+03  0.27172920594E+03  0.00000000000E+00 0. -1.
         23    2    1    2    0    0  0.39530547238E+02  0.20396651867E+02  0.12754174593E+02  0.10266503931E+03  0.91644714821E+02 0.  0.
        -24    2    1    2    0    0  0.17787446348E+02 -0.10730860509E+03 -0.12831706782E+03  0.18440973087E+03  0.75565527676E+02 0.  0.
         13    1    4    4    0    0 -0.28471728523E+02 -0.45209641710E+02 -0.38695055635E+02  0.65968616472E+02  0.00000000000E+00 0. -1.
        -14    1    4    4    0    0  0.46259174872E+02 -0.62098963384E+02 -0.89622012180E+02  0.11844111440E+03  0.00000000000E+00 0.  1.
        -11    1    3    3    0    0  0.65106027885E+02  0.27516653897E+02  0.22817274531E+02  0.74273744525E+02  0.00000000000E+00 0. -1.
         11    1    3    3    0    0 -0.25575480647E+02 -0.71200020303E+01 -0.10063099938E+02  0.28391294786E+02  0.00000000000E+00 0.  1.
          4    1    1    2  501    0 -0.57317993587E+02  0.86911953227E+02 -0.31925136373E+02  0.10889561210E+03  0.00000000000E+00 0. -1.
<scales pt_clust_5="13000.00000" pt_clust_6="13000.00000" pt_clust_7="13000.00000" pt_clust_8="13000.00000" pt_clust_9="103.55476"></scales>
<clustering>
<clus scale="   75.566">  5  6 -1 -1</clus>
<clus scale="   91.645">  7  8 -1 -1</clus>
<clus scale="  101.870">  2  7  1 -1</clus>
<clus scale="  103.555">  1  9  2 -1</clus>
<clus scale="  103.555">  1  5  2 -1</clus>
</clustering>
</event>
<event>
 9    1  0.4664604E-005  0.1032480E+03  0.7546771E-02  0.1281985E+00
          1   -1    0    0  502    0 -0.00000000000E+00  0.00000000000E+00  0.48518917631E+03  0.48518917631E+03  0.00000000000E+00 0. -1.
         21   -1    0    0  501  502  0.00000000000E+00 -0.00000000000E+00 -0.41106605662E+02  0.41106605662E+02  0.00000000000E+00 0. -1.
        -24    2    1    2    0    0 -0.35670853415E+02  0.18577566309E+02  0.24879078010E+03  0.26428398085E+03  0.79571568533E+02 0.  0.
         23    2    1    2    0    0 -0.10316864967E+02 -0.58968601152E+02  0.13242484947E+03  0.17427037295E+03  0.96177380423E+02 0.  0.
         11    1    3    3    0    0 -0.41918602406E+02  0.12990175948E+02  0.55233931790E+02  0.70545737786E+02  0.00000000000E+00 0. -1.
        -12    1    3    3    0    0  0.62477489907E+01  0.55873903607E+01  0.19355684831E+03  0.19373824306E+03  0.00000000000E+00 0.  1.
        -13    1    4    4    0    0 -0.35206014387E+02  0.79805983336E+01  0.20549192949E+02  0.41538208070E+02  0.00000000000E+00 0.  1.
         13    1    4    4    0    0  0.24889149420E+02 -0.66949199485E+02  0.11187565652E+03  0.13273216488E+03  0.00000000000E+00 0. -1.
          2    1    1    2  501    0  0.45987718382E+02  0.40391034843E+02  0.62866941081E+02  0.87741428178E+02  0.00000000000E+00 0. -1.
<scales pt_clust_5="13000.00000" pt_clust_6="13000.00000" pt_clust_7="13000.00000" pt_clust_8="13000.00000" pt_clust_9="61.20707"></scales>
<clustering>
<clus scale="   61.207">  2  9  1 -1</clus>
<clus scale="   79.572">  5  6 -1 -1</clus>
<clus scale="   87.987">  1  5  2 -1</clus>
<clus scale="   96.177">  7  8 -1 -1</clus>
<clus scale="   61.207">  2  5  1 -1</clus>
</clustering>
</event>
<event>
 9    1  0.4664604E-005  0.1365272E+03  0.7546771E-02  0.1223914E+00
         21   -1    0    0  501  502  0.00000000000E+00  0.00000000000E+00  0.21735280929E+03  0.21735280929E+03  0.00000000000E+00 0. -1.
          1   -1    0    0  502    0 -0.00000000000E+00 -0.00000000000E+00 -0.26203388446E+03  0.26203388446E+03  0.00000000000E+00 0. -1.
         23    2    1    2    0    0 -0.79499923687E+02 -0.36975161043E+01 -0.15016955333E+03  0.19875800957E+03  0.10305310343E+03 0.  0.
        -24    2    1    2    0    0  0.12561520070E+03 -0.64548000167E+02  0.23728335977E+02  0.16457356747E+03  0.81091320181E+02 0.  0.
         11    1    4    4    0    0  0.13159746116E+03 -0.56259884482E+02  0.49631747501E+01  0.14320509589E+03  0.00000000000E+00 0. -1.
        -12    1    4    4    0    0 -0.59822604565E+01 -0.82881156853E+01  0.18765161227E+02  0.21368471580E+02  0.00000000000E+00 0.  1.
        -11    1    3    3    0    0 -0.48534596087E+02 -0.18083530628E+02 -0.15577239109E+03  0.16415742116E+03  0.00000000000E+00 0. -1.
         11    1    3    3    0    0 -0.30965327600E+02  0.14386014524E+02  0.56028377521E+01  0.34600588408E+02  0.00000000000E+00 0.  1.
          2    1    1    2  501    0 -0.46115277016E+02  0.68245516271E+02  0.81760142183E+02  0.11605511671E+03  0.00000000000E+00 0. -1.
<scales pt_clust_5="13000.00000" pt_clust_6="13000.00000" pt_clust_7="13000.00000" pt_clust_8="13000.00000" pt_clust_9="82.36546"></scales>
<clustering>
<clus scale="   81.091">  5  6 -1 -1</clus>
<clus scale="   82.365">  1  9  2 -1</clus>
<clus scale="  103.053">  7  8 -1 -1</clus>
<clus scale="  120.812">  1  5  2 -1</clus>
<clus scale="   82.365">  1  5  2 -1</clus>
</clustering>
</event>
<event>
 9    1  0.4664604E-005  0.1406833E+03  0.7546771E-02  0.1214156E+00
         -2   -1    0    0    0  501 -0.00000000000E+00  0.00000000000E+00  0.67839376129E+02  0.67839376129E+02  0.00000000000E+00 0.  1.
         21   -1    0    0  501  502  0.00000000000E+00 -0.00000000000E+00 -0.50885547762E+03  0.50885547762E+03  0.00000000000E+00 0.  1.
         23    2    1    2    0    0 -0.71722783416E+02  0.38719387236E+02 -0.18727489002E+03  0.22277014552E+03  0.88945515311E+02 0.  0.
        -24    2    1    2    0    0  0.14323922443E+03  0.20080756366E+01 -0.17266623634E+03  0.23839774531E+03  0.80612331653E+02 0.  0.
         13    1    4    4    0    0  0.60984391965E+02 -0.38859584646E+02 -0.70015671930E+02  0.10065464569E+03  0.00000000000E+00 0. -1.
        -14    1    4    4    0    0  0.82254832468E+02  0.40867660283E+02 -0.10265056441E+03  0.13774309963E+03  0.00000000000E+00 0.  1.
        -11    1    3    3    0    0 -0.86081583647E+02  0.13268544788E+02 -0.16287529368E+03  0.18470098705E+03  0.00000000000E+00 0.  1.
         11    1    3    3    0    0  0.14358800231E+02  0.25450842448E+02 -0.24399596339E+02  0.38069158474E+02  0.00000000000E+00 0. -1.
         -1    1    1    2    0  502 -0.71516441017E+02 -0.40727462873E+02 -0.81074975125E+02  0.11552696291E+03  0.00000000000E+00 0.  1.
<scales pt_clust_5="13000.00000" pt_clust_6="13000.00000" pt_clust_7="13000.00000" pt_clust_8="13000.00000" pt_clust_9="82.30027"></scales>
<clustering>
<clus scale="   80.612">  5  6 -1 -1</clus>
<clus scale="   82.300">  2  9  1 -1</clus>
<clus scale="   88.946">  7  8 -1 -1</clus>
<clus scale="  135.569">  2  5  1 -1</clus>
<clus scale="   82.300">  2  5  1 -1</clus>
</clustering>
</event>
<event>
 9    1  0.4664604E-005  0.1425653E+03  0.7546771E-02  0.1212399E+00
         21   -1    0    0  501  502  0.00000000000E+00  0.00000000000E+00  0.28102616470E+03  0.28102616470E+03  0.00000000000E+00 0. -1.
          3   -1    0    0  502    0 -0.00000000000E+00 -0.00000000000E+00 -0.12159958245E+03  0.12159958245E+03  0.00000000000E+00 0. -1.
         23    2    1    2    0    0  0.81218374186E+02 -0.27079660421E+02  0.64601906385E+02  0.14100189511E+03  0.91533577464E+02 0.  0.
        -24    2    1    2    0    0 -0.12122263150E+03  0.80808209810E+02  0.10103614894E+03  0.19435067744E+03  0.79617769783E+02 0.  0.
         13    1    4    4    0    0 -0.11761512970E+03  0.94599442055E+02  0.86390927349E+02  0.17391309755E+03  0.00000000000E+00 0. -1.
        -14    1    4    4    0    0 -0.36075018084E+01 -0.13791232245E+02  0.14645221595E+02  0.20437579889E+02  0.00000000000E+00 0.  1.
        -13    1    3    3    0    0  0.12956924247E+01 -0.40859333840E+02  0.68764063786E+01  0.41454178865E+02  0.00000000000E+00 0.  1.
         13    1    3    3    0    0  0.79922681761E+02  0.13779673419E+02  0.57725500006E+02  0.99547716249E+02  0.00000000000E+00 0. -1.
          4    1    1    2  501    0  0.40004257318E+02 -0.53728549389E+02 -0.62114730787E+01  0.67273174600E+02  0.00000000000E+00 0. -1.
<scales pt_clust_5="13000.00000" pt_clust_6="13000.00000" pt_clust_7="13000.00000" pt_clust_8="13000.00000" pt_clust_9="66.98584"></scales>
<clustering>
<clus scale="   66.986">  1  9  2 -1</clus>
<clus scale="   79.618">  5  6 -1 -1</clus>
<clus scale="   91.534">  7  8 -1 -1</clus>
<clus scale="  135.224">  1  5  2 -1</clus>
<clus scale="   66.986">  1  5  2 -1</clus>
</clustering>
</event>
<event>
 9    1  0.4664604E-005  0.1004728E+03  0.7546771E-02  0.1284537E+00
          3   -1    0    0  502    0 -0.00000000000E+00  0.00000000000E+00  0.48635918905E+03  0.48635918905E+03  0.00000000000E+00 0. -1.
         21   -1    0    0  501  502  0.00000000000E+00 -0.00000000000E+00 -0.43860701731E+02  0.43860701731E+02  0.00000000000E+00 0.  1.
         23    2    1    2    0    0 -0.10495861528E+02  0.37490402910E+02  0.36373319289E+03  0.37690876080E+03  0.90789233617E+02 0.  0.
        -24    2    1    2    0    0  0.31661244963E+02 -0.50528941135E+02  0.80631664652E+02  0.12838202504E+03  0.80155291061E+02 0.  0.
         13    1    4    4    0    0 -0.25591071304E+02 -0.36314484153E+01  0.22610423653E+02  0.34341252246E+02  0.00000000000E+00 0. -1.
        -14    1    4    4    0    0  0.57252316267E+02 -0.46897492720E+02  0.58021240999E+02  0.94040772798E+02  0.00000000000E+00 0.  1.
        -11    1    3    3    0    0  0.23847691418E+01 -0.21343026487E+02  0.25424075356E+02  0.33280557555E+02  0.00000000000E+00 0.  1.
         11    1    3    3    0    0 -0.12880630670E+02  0.58833429396E+02  0.33830911753E+03  0.34362820324E+03  0.00000000000E+00 0. -1.
          4    1    1    2  501    0 -0.21165383435E+02  0.13038538226E+02 -0.18663702217E+01  0.24929104934E+02  0.00000000000E+00 0. -1.
<scales pt_clust_5="13000.00000" pt_clust_6="13000.00000" pt_clust_7="13000.00000" pt_clust_8="13000.00000" pt_clust_9="24.85914"></scales>
<clustering>
<clus scale="   24.859">  2  9  1 -1</clus>
<clus scale="   80.155">  5  6 -1 -1</clus>
<clus scale="   90.789">  7  8 -1 -1</clus>
<clus scale="   90.978">  2  5  1 -1</clus>
<clus scale="   24.859">  2  5  1 -1</clus>
</clustering>
</event>
<event>
 9    1  0.4664604E-005  0.1019108E+03  0.7546771E-02  0.1281703E+00
         21   -1    0    0  501  502  0.00000000000E+00  0.00000000000E+00  0.70650763080E+02  0.70650763080E+02  0.00000000000E+00 0.  1.
          3   -1    0    0  502    0 -0.00000000000E+00 -0.00000000000E+00 -0.33472635903E+03  0.33472635903E+03  0.00000000000E+00 0. -1.
        -24    2    1    2    0    0  0.38986472090E+02  0.25273285097E+02 -0.22020089455E+03  0.23915559412E+03  0.80921445217E+02 0.  0.
         23    2    1    2    0    0 -0.39228545849E+02  0.12286843376E+02  0.91715077081E+01  0.10122366532E+03  0.92044926731E+02 0.  0.
         11    1    3    3    0    0  0.63653575313E+02  0.10752991010E+02 -0.14656575834E+03  0.16015282072E+03  0.00000000000E+00 0. -1.
        -12    1    3    3    0    0 -0.24667103223E+02  0.14520294087E+02 -0.73635136208E+02  0.79002773408E+02  0.00000000000E+00 0.  1.
        -13    1    4    4    0    0  0.75637209503E+01 -0.34052395881E+02  0.49762425816E+01  0.35235472611E+02  0.00000000000E+00 0.  1.
         13    1    4    4    0    0 -0.46792266799E+02  0.46339239257E+02  0.41952651265E+01  0.65988192706E+02  0.00000000000E+00 0. -1.
          4    1    1    2  501    0  0.24207375846E+00 -0.37560128473E+02 -0.53046209110E+02  0.64997862669E+02  0.00000000000E+00 0. -1.
<scales pt_clust_5="13000.00000" pt_clust_6="13000.00000" pt_clust_7="13000.00000" pt_clust_8="13000.00000" pt_clust_9="37.56093"></scales>
<clustering>
<clus scale="   37.561">  1  9  2 -1</clus>
<clus scale="   80.921">  5  6 -1 -1</clus>
<clus scale="   91.988">  2  5  1 -1</clus>
<clus scale="   92.045">  7  8 -1 -1</clus>
<clus scale="   37.561">  1  5  2 -1</clus>
</clustering>
</event>
<event>
 9    1  0.4664604E-005  0.9622424E+02  0.7546771E-02  0.1294857E+00
         21   -1    0    0  501  502  0.00000000000E+00  0.00000000000E+00  0.92058104714E+02  0.92058104714E+02  0.00000000000E+00 0.  1.
         -4   -1    0    0    0  501 -0.00000000000E+00 -0.00000000000E+00 -0.29497628962E+03  0.29497628962E+03  0.00000000000E+00 0.  1.
        -24    2    1    2    0    0  0.20044867693E+02 -0.35495745225E+02 -0.55734647774E+02  0.10615850527E+03  0.80632081885E+02 0.  0.
         23    2    1    2    0    0 -0.36979915935E+02 -0.40899008645E+02  0.74559556108E+01  0.10756597303E+03  0.92057613428E+02 0.  0.
         11    1    3    3    0    0  0.47248188726E+02 -0.35265740664E+01 -0.37355027188E+02  0.60334286428E+02  0.00000000000E+00 0. -1.
        -12    1    3    3    0    0 -0.27203321033E+02 -0.31969171158E+02 -0.18379620586E+02  0.45824218844E+02  0.00000000000E+00 0.  1.
        -13    1    4    4    0    0 -0.90755416857E+01 -0.61853802326E+02 -0.17198874902E+02  0.64838720044E+02  0.00000000000E+00 0. -1.
         13    1    4    4    0    0 -0.27904374250E+02  0.20954793681E+02  0.24654830513E+02  0.42727252990E+02  0.00000000000E+00 0.  1.
         -3    1    1    2    0  502  0.16935048243E+02  0.76394753869E+02 -0.15463949274E+03  0.17330991602E+03  0.00000000000E+00 0.  1.
<scales pt_clust_5="13000.00000" pt_clust_6="13000.00000" pt_clust_7="13000.00000" pt_clust_8="13000.00000" pt_clust_9="78.24935"></scales>
<clustering>
<clus scale="   78.249">  1  9  2 -1</clus>
<clus scale="   80.632">  5  6 -1 -1</clus>
<clus scale="   85.358">  2  5  1 -1</clus>
<clus scale="   92.058">  7  8 -1 -1</clus>
<clus scale="   78.249">  1  5  2 -1</clus>
</clustering>
</event>
<event>
 9    1  0.4664604E-005  0.1089299E+03  0.7546771E-02  0.1266195E+00
         -2   -1    0    0    0  501 -0.00000000000E+00  0.00000000000E+00  0.76257103532E+03  0.76257103532E+03  0.00000000000E+00 0.  1.
         21   -1    0    0  501  502  0.00000000000E+00 -0.00000000000E+00 -0.48441395417E+02  0.48441395417E+02  0.00000000000E+00 0.  1.
        -24    2    1    2    0    0 -0.47212422455E+02  0.39041642170E+02  0.45744346639E+03  0.46932709363E+03  0.85206415368E+02 0.  0.
         23    2    1    2    0    0 -0.35591652417E+02 -0.75876603444E+02  0.19479148426E+03  0.23193889413E+03  0.93956924161E+02 0.  0.
         11    1    3    3    0    0 -0.16011949706E+02  0.60423557334E+02  0.34702617776E+03  0.35261105607E+03  0.00000000000E+00 0. -1.
        -12    1    3    3    0    0 -0.31200472749E+02 -0.21381915164E+02  0.11041728863E+03  0.11671603756E+03  0.00000000000E+00 0.  1.
        -11    1    4    4    0    0  0.36489053932E+01 -0.62464467987E+02  0.46498283244E+02  0.77956491815E+02  0.00000000000E+00 0. -1.
         11    1    4    4    0    0 -0.39240557811E+02 -0.13412135456E+02  0.14829320102E+03  0.15398240231E+03  0.00000000000E+00 0.  1.
         -1    1    1    2    0  502  0.82804074872E+02  0.36834961274E+02  0.61894689256E+02  0.10974644297E+03  0.00000000000E+00 0.  1.
<scales pt_clust_5="13000.00000" pt_clust_6="13000.00000" pt_clust_7="13000.00000" pt_clust_8="13000.00000" pt_clust_9="90.62742"></scales>
<clustering>
<clus scale="   85.206">  5  6 -1 -1</clus>
<clus scale="   90.627">  2  9  1 -1</clus>
<clus scale="   93.957">  7  8 -1 -1</clus>
<clus scale="  101.479">  1  5  2 -1</clus>
<clus scale="   90.627">  2  5  1 -1</clus>
</clustering>
</event>
<event>
 9    1  0.4664604E-005  0.1171616E+03  0.7546771E-02  0.1252552E+00
         -4   -1    0    0    0  501 -0.00000000000E+00  0.00000000000E+00  0.46091885947E+02  0.46091885947E+02  0.00000000000E+00 0.  1.
         21   -1    0    0  501  502  0.00000000000E+00 -0.00000000000E+00 -0.55480089197E+03  0.55480089197E+03  0.00000000000E+00 0. -1.
         23    2    1    2    0    0 -0.43355257569E+02 -0.51936361270E+02 -0.14684616185E+03  0.18671524023E+03  0.93390158499E+02 0.  0.
        -24    2    1    2    0    0 -0.16254684869E+02  0.87424339693E+02 -0.15326569367E+03  0.19434689140E+03  0.79831769287E+02 0.  0.
         11    1    4    4    0    0  0.56086140844E+01  0.64377929866E+02 -0.14885281327E+03  0.16227487306E+03  0.00000000000E+00 0. -1.
        -12    1    4    4    0    0 -0.21863298954E+02  0.23046409827E+02 -0.44128803998E+01  0.32072018341E+02  0.00000000000E+00 0.  1.
        -11    1    3    3    0    0 -0.65920854657E+02 -0.29839537678E+02 -0.59001567501E+02  0.93365636372E+02  0.00000000000E+00 0.  1.
         11    1    3    3    0    0  0.22565597088E+02 -0.22096823592E+02 -0.87844594345E+02  0.93349603858E+02  0.00000000000E+00 0. -1.
         -3    1    1    2    0  502  0.59609942439E+02 -0.35487978424E+02 -0.20859715051E+03  0.21983064629E+03  0.00000000000E+00 0.  1.
<scales pt_clust_5="13000.00000" pt_clust_6="13000.00000" pt_clust_7="13000.00000" pt_clust_8="13000.00000" pt_clust_9="69.37393"></scales>
<clustering>
<clus scale="   69.374">  2  9  1 -1</clus>
<clus scale="   79.832">  5  6 -1 -1</clus>
<clus scale="   93.390">  7  8 -1 -1</clus>
<clus scale="  106.669">  2  5  1 -1</clus>
<clus scale="   69.374">  2  5  1 -1</clus>
</clustering>
</event>
<event>
 9    1  0.4664604E-005  0.1462725E+03  0.7546771E-02  0.1207005E+00
         21   -1    0    0  501  502  0.00000000000E+00  0.00000000000E+00  0.19160354420E+03  0.19160354420E+03  0.00000000000E+00 0.  1.
          1   -1    0    0  502    0 -0.00000000000E+00 -0.00000000000E+00 -0.32269076008E+03  0.32269076008E+03  0.00000000000E+00 0. -1.
         23    2    1    2    0    0 -0.12655160735E+03  0.34411710334E+02 -0.16563609980E+03  0.22990012712E+03  0.90660221503E+02 0.  0.
        -24    2    1    2    0    0  0.93931518434E+02 -0.28068020197E+02 -0.89799125011E+02  0.15568232871E+03  0.81007164544E+02 0.  0.
         11    1    4    4    0    0  0.70288228939E+02 -0.55354104682E+02 -0.74679198305E+02  0.11653967004E+03  0.00000000000E+00 0. -1.
        -12    1    4    4    0    0  0.23643289495E+02  0.27286084486E+02 -0.15119926706E+02  0.39142658677E+02  0.00000000000E+00 0.  1.
        -11    1    3    3    0    0 -0.10233649714E+03  0.41536062259E+01 -0.16107224727E+03  0.19087765697E+03  0.00000000000E+00 0.  1.
         11    1    3    3    0    0 -0.24215110218E+02  0.30258104108E+02 -0.45638525343E+01  0.39022470156E+02  0.00000000000E+00 0. -1.
          2    1    1    2  501    0  0.32620088919E+02 -0.63436901374E+01  0.12434800893E+03  0.12871184845E+03  0.00000000000E+00 0. -1.
<scales pt_clust_5="13000.00000" pt_clust_6="13000.00000" pt_clust_7="13000.00000" pt_clust_8="13000.00000" pt_clust_9="33.23120"></scales>
<clustering>
<clus scale="   33.231">  1  9  2 -1</clus>
<clus scale="   81.007">  5  6 -1 -1</clus>
<clus scale="   90.660">  7  8 -1 -1</clus>
<clus scale="  140.494">  1  5  2 -1</clus>
<clus scale="   33.231">  1  5  2 -1</clus>
</clustering>
</event>
<event>
 9    1  0.4664604E-005  0.1044608E+03  0.7546771E-02  0.1280172E+00
         21   -1    0    0  501  502  0.00000000000E+00  0.00000000000E+00  0.32075445890E+03  0.32075445890E+03  0.00000000000E+00 0.  1.
          1   -1    0    0  502    0 -0.00000000000E+00 -0.00000000000E+00 -0.10551006652E+03  0.10551006652E+03  0.00000000000E+00 0. -1.
        -24    2    1    2    0    0  0.36592706168E+02 -0.42925448868E+00 -0.58580878712E+02  0.10485984575E+03  0.78896498634E+02 0.  0.
         23    2    1    2    0    0 -0.65389199903E+02  0.10942505022E+02  0.26441845733E+03  0.28933826993E+03  0.96974367713E+02 0.  0.
         11    1    3    3    0    0  0.49733141134E+02 -0.26349134004E+02 -0.47876446130E+02  0.73890569655E+02  0.00000000000E+00 0. -1.
        -12    1    3    3    0    0 -0.13140434966E+02  0.25919879515E+02 -0.10704432582E+02  0.30969276099E+02  0.00000000000E+00 0.  1.
        -11    1    4    4    0    0 -0.18948643335E+02 -0.37222915298E+02  0.15968635001E+03  0.16505855593E+03  0.00000000000E+00 0.  1.
         11    1    4    4    0    0 -0.46440556569E+02  0.48165420319E+02  0.10473210732E+03  0.12427971400E+03  0.00000000000E+00 0. -1.
          2    1    1    2  501    0  0.28796493735E+02 -0.10513250533E+02  0.94068137617E+01  0.32066409736E+02  0.00000000000E+00 0. -1.
<scales pt_clust_5="13000.00000" pt_clust_6="13000.00000" pt_clust_7="13000.00000" pt_clust_8="13000.00000" pt_clust_9="30.65563"></scales>
<clustering>
<clus scale="   30.656">  1  9  2 -1</clus>
<clus scale="   78.896">  5  6 -1 -1</clus>
<clus scale="   87.936">  2  5  1 -1</clus>
<clus scale="   96.974">  7  8 -1 -1</clus>
<clus scale="   30.656">  1  5  2 -1</clus>
</clustering>
</event>
<event>
 9    1  0.4664604E-005  0.1742099E+03  0.7546771E-02  0.1174620E+00
         21   -1    0    0  501  502  0.00000000000E+00  0.00000000000E+00  0.10336374112E+03  0.10336374112E+03  0.00000000000E+00 0. -1.
          1   -1    0    0  502    0 -0.00000000000E+00 -0.00000000000E+00 -0.11263489480E+04  0.11263489480E+04  0.00000000000E+00 0. -1.
         23    2    1    2    0    0  0.14928620964E+03 -0.33734641041E+02 -0.10159566994E+04  0.10314066340E+04  0.90593770187E+02 0.  0.
        -24    2    1    2    0    0 -0.96996928081E+02  0.46245979164E+02  0.22321009286E+02  0.13705169460E+03  0.82084376658E+02 0.  0.
         11    1    4    4    0    0 -0.67801443688E+02  0.44550538341E+01  0.44746702675E+02  0.81358162904E+02  0.00000000000E+00 0. -1.
        -12    1    4    4    0    0 -0.29195484393E+02  0.41790925330E+02 -0.22425693389E+02  0.55693531697E+02  0.00000000000E+00 0.  1.
        -11    1    3    3    0    0  0.15062352794E+03 -0.76378300869E+01 -0.89933735196E+03  0.91189552924E+03  0.00000000000E+00 0. -1.
         11    1    3    3    0    0 -0.13373183004E+01 -0.26096810954E+02 -0.11661934743E+03  0.11951110474E+03  0.00000000000E+00 0.  1.
          2    1    1    2  501    0 -0.52289281557E+02 -0.12511338124E+02 -0.29349516733E+02  0.61254360497E+02  0.00000000000E+00 0. -1.
<scales pt_clust_5="13000.00000" pt_clust_6="13000.00000" pt_clust_7="13000.00000" pt_clust_8="13000.00000" pt_clust_9="53.76525"></scales>
<clustering>
<clus scale="   53.765">  1  9  2 -1</clus>
<clus scale="   82.084">  5  6 -1 -1</clus>
<clus scale="   90.594">  7  8 -1 -1</clus>
<clus scale="  169.940">  1  5  2 -1</clus>
<clus scale="   53.765">  1  5  2 -1</clus>
</clustering>
</event>
<event>
 9    1  0.4664604E-005  0.9678784E+02  0.7546771E-02  0.1291316E+00
         -4   -1    0    0    0  501 -0.00000000000E+00  0.00000000000E+00  0.21398431643E+03  0.21398431643E+03  0.00000000000E+00 0.  1.
         21   -1    0    0  501  502  0.00000000000E+00 -0.00000000000E+00 -0.28575618794E+03  0.28575618794E+03  0.00000000000E+00 0.  1.
        -24    2    1    2    0    0 -0.16417567847E+02 -0.31013761674E+02  0.12719987841E+03  0.15388391125E+03  0.79177390250E+02 0.  0.
         23    2    1    2    0    0  0.40536253813E+02  0.48696817587E+02  0.32387156413E+02  0.11257276381E+03  0.87230334945E+02 0.  0.
         13    1    3    3    0    0  0.23833159414E+02 -0.29466173877E+02  0.28927814022E+02  0.47676968388E+02  0.00000000000E+00 0. -1.
        -14    1    3    3    0    0 -0.40250727261E+02 -0.15475877977E+01  0.98272064386E+02  0.10620694286E+03  0.00000000000E+00 0.  1.
        -11    1    4    4    0    0  0.23775298402E+02 -0.14136774681E+02 -0.15597243863E+02  0.31755113425E+02  0.00000000000E+00 0. -1.
         11    1    4    4    0    0  0.16760955410E+02  0.62833592268E+02  0.47984400276E+02  0.80817650383E+02  0.00000000000E+00 0.  1.
         -3    1    1    2    0  502 -0.24118685966E+02 -0.17683055912E+02 -0.23135890633E+03  0.23328382931E+03  0.00000000000E+00 0.  1.
<scales pt_clust_5="13000.00000" pt_clust_6="13000.00000" pt_clust_7="13000.00000" pt_clust_8="13000.00000" pt_clust_9="29.90655"></scales>
<clustering>
<clus scale="   29.907">  2  9  1 -1</clus>
<clus scale="   79.177">  5  6 -1 -1</clus>
<clus scale="   87.230">  7  8 -1 -1</clus>
<clus scale="   89.598">  1  5  2 -1</clus>
<clus scale="   29.907">  2  5  1 -1</clus>
</clustering>
</event>
<event>
 9    1  0.4664604E-005  0.1191357E+03  0.7546771E-02  0.1247978E+00
         -4   -1    0    0    0  501 -0.00000000000E+00  0.00000000000E+00  0.10679739876E+03  0.10679739876E+03  0.00000000000E+00 0.  1.
         21   -1    0    0  501  502  0.00000000000E+00 -0.00000000000E+00 -0.25524560248E+03  0.25524560248E+03  0.00000000000E+00 0.  1.
         23    2    1    2    0    0 -0.17718877540E+02  0.34287591873E+02 -0.57450758329E+02  0.11404077115E+03  0.90637245519E+02 0.  0.
        -24    2    1    2    0    0  0.72761622312E+02 -0.96997868414E+02 -0.41586371500E+02  0.15102936399E+03  0.79859891904E+02 0.  0.
         13    1    4    4    0    0  0.10102453759E+02 -0.43791233649E+02 -0.51362535916E+02  0.68248383220E+02  0.00000000000E+00 0. -1.
        -14    1    4    4    0    0  0.62659168554E+02 -0.53206634765E+02  0.97761644160E+01  0.82780980772E+02  0.00000000000E+00 0.  1.
        -13    1    3    3    0    0  0.24291646849E+02 -0.78578140663E+00 -0.53985685481E+02  0.59204356224E+02  0.00000000000E+00 0.  1.
         13    1    3    3    0    0 -0.42010524389E+02  0.35073373280E+02 -0.34650728484E+01  0.54836414931E+02  0.00000000000E+00 0. -1.
         -3    1    1    2    0  502 -0.55042744773E+02  0.62710276540E+02 -0.49411073895E+02  0.96972866098E+02  0.00000000000E+00 0.  1.
<scales pt_clust_5="13000.00000" pt_clust_6="13000.00000" pt_clust_7="13000.00000" pt_clust_8="13000.00000" pt_clust_9="83.44029"></scales>
<clustering>
<clus scale="   79.860">  5  6 -1 -1</clus>
<clus scale="   83.440">  2  9  1 -1</clus>
<clus scale="   90.637">  7  8 -1 -1</clus>
<clus scale="  111.157">  2  5  1 -1</clus>
<clus scale="   83.440">  2  5  1 -1</clus>
</clustering>
</event>
<event>
 9    1  0.4664604E-005  0.1002561E+03  0.7546771E-02  0.1283863E+00
         21   -1    0    0  501  502  0.00000000000E+00  0.00000000000E+00  0.62003353198E+02  0.62003353198E+02  0.00000000000E+00 0. -1.
          1   -1    0    0  502    0 -0.00000000000E+00 -0.00000000000E+00 -0.34699244531E+03  0.34699244531E+03  0.00000000000E+00 0. -1.
         23    2    1    2    0    0 -0.91754139104E+01 -0.29525283599E+02 -0.16454921694E+03  0.18950579540E+03  0.88769764583E+02 0.  0.
        -24    2    1    2    0    0 -0.18800055742E+02  0.85219611306E+02 -0.96095662076E+02  0.15257867557E+03  0.80187603291E+02 0.  0.
         13    1    4    4    0    0 -0.31399333872E+02  0.60291116482E+02 -0.10336706702E+03  0.12371615674E+03  0.00000000000E+00 0. -1.
        -14    1    4    4    0    0  0.12599278130E+02  0.24928494824E+02  0.72714049391E+01  0.28862518833E+02  0.00000000000E+00 0.  1.
        -11    1    3    3    0    0 -0.44289862037E+02 -0.32472065171E+02 -0.12502004964E+03  0.13655050241E+03  0.00000000000E+00 0. -1.
         11    1    3    3    0    0  0.35114448126E+02  0.29467815720E+01 -0.39529167294E+02  0.52955292992E+02  0.00000000000E+00 0.  1.
          2    1    1    2  501    0  0.27975469653E+02 -0.55694327708E+02 -0.24344213094E+02  0.66911327533E+02  0.00000000000E+00 0. -1.
<scales pt_clust_5="13000.00000" pt_clust_6="13000.00000" pt_clust_7="13000.00000" pt_clust_8="13000.00000" pt_clust_9="62.32564"></scales>
<clustering>
<clus scale="   62.326">  1  9  2 -1</clus>
<clus scale="   80.188">  5  6 -1 -1</clus>
<clus scale="   88.770">  7  8 -1 -1</clus>
<clus scale="   92.743">  1  5  2 -1</clus>
<clus scale="   62.326">  1  5  2 -1</clus>
</clustering>
</event>
<event>
 9    1  0.4664604E-005  0.1109025E+03  0.7546771E-02  0.1263285E+00
          1   -1    0    0  502    0 -0.00000000000E+00  0.00000000000E+00  0.12154692382E+04  0.12154692382E+04  0.00000000000E+00 0. -1.
         21   -1    0    0  501  502  0.00000000000E+00 -0.00000000000E+00 -0.59801493185E+02  0.59801493185E+02  0.00000000000E+00 0. -1.
         23    2    1    2    0    0  0.43920706296E+02  0.43708662679E+02  0.48885463040E+03  0.50116693623E+03  0.91378184873E+02 0.  0.
        -24    2    1    2    0    0  0.16432585782E+02 -0.10654305153E+03  0.38372322190E+02  0.13965244961E+03  0.80055729757E+02 0.  0.
         11    1    4    4    0    0  0.82740858035E+01 -0.11451595394E+03  0.48271064859E+02  0.12454902611E+03  0.00000000000E+00 0. -1.
        -12    1    4    4    0    0  0.81584999787E+01  0.79729024148E+01 -0.98987426695E+01  0.15103423495E+02  0.00000000000E+00 0.  1.
        -13    1    3    3    0    0 -0.26499872917E+02  0.37517168547E+01  0.79571968106E+02  0.83952467220E+02  0.00000000000E+00 0.  1.
         13    1    3    3    0    0  0.70420579213E+02  0.39956945824E+02  0.40928266229E+03  0.41721446901E+03  0.00000000000E+00 0. -1.
          2    1    1    2  501    0 -0.60353292078E+02  0.62834388847E+02  0.62844079246E+03  0.63445134559E+03  0.00000000000E+00 0. -1.
<scales pt_clust_5="13000.00000" pt_clust_6="13000.00000" pt_clust_7="13000.00000" pt_clust_8="13000.00000" pt_clust_9="87.12455"></scales>
<clustering>
<clus scale="   80.056">  5  6 -1 -1</clus>
<clus scale="   87.125">  2  9  1 -1</clus>
<clus scale="   91.378">  7  8 -1 -1</clus>
<clus scale="  101.776">  2  5  1 -1</clus>
<clus scale="   87.125">  2  5  1 -1</clus>
</clustering>
</event>
<event>
 9    1  0.4664604E-005  0.3812583E+03  0.7546771E-02  0.1050470E+00
          1   -1    0    0  502    0 -0.00000000000E+00  0.00000000000E+00  0.10852138711E+04  0.10852138711E+04  0.00000000000E+00 0. -1.
         21   -1    0    0  501  502  0.00000000000E+00 -0.00000000000E+00 -0.11440086743E+03  0.11440086743E+03  0.00000000000E+00 0. -1.
        -24    2    1    2    0    0 -0.81988737043E+02  0.10878427728E+03  0.18653438348E+03  0.24391037360E+03  0.78364674066E+02 0.  0.
         23    2    1    2    0    0 -0.19953160189E+03  0.46127771460E+02  0.29380636456E+03  0.36934741084E+03  0.90303369740E+02 0.  0.
         13    1    3    3    0    0 -0.70312148987E+02  0.12017458440E+03  0.15462648153E+03  0.20807469289E+03  0.00000000000E+00 0. -1.
        -14    1    3    3    0    0 -0.11676588056E+02 -0.11390307117E+02  0.31907901948E+02  0.35835680705E+02  0.00000000000E+00 0.  1.
        -13    1    4    4    0    0 -0.87406695637E+02  0.66359835317E+02  0.15070775016E+03  0.18643064165E+03  0.00000000000E+00 0.  1.
         13    1    4    4    0    0 -0.11212490626E+03 -0.20232063857E+02  0.14309861440E+03  0.18291676920E+03  0.00000000000E+00 0. -1.
          2    1    1    2  501    0  0.28152033894E+03 -0.15491204874E+03  0.49047225563E+03  0.58635695410E+03  0.00000000000E+00 0. -1.
<scales pt_clust_5="13000.00000" pt_clust_6="13000.00000" pt_clust_7="13000.00000" pt_clust_8="13000.00000" pt_clust_9="321.32779"></scales>
<clustering>
<clus scale="   78.365">  5  6 -1 -1</clus>
<clus scale="   90.303">  7  8 -1 -1</clus>
<clus scale="  130.340">  5  7 -1 -1</clus>
<clus scale="  321.328">  2  9  1 -1</clus>
<clus scale="  321.328">  2  5  1 -1</clus>
</clustering>
</event>
<event>
 9    1  0.4664604E-005  0.3382028E+03  0.7546771E-02  0.1107351E+00
         21   -1    0    0  501  502  0.00000000000E+00  0.00000000000E+00  0.63836733292E+03  0.63836733292E+03  0.00000000000E+00 0. -1.
          1   -1    0    0  502    0 -0.00000000000E+00 -0.00000000000E+00 -0.31139281543E+03  0.31139281543E+03  0.00000000000E+00 0. -1.
         23    2    1    2    0    0 -0.71418623721E+02  0.23169137242E+02  0.12148282843E+03  0.16901195496E+03  0.90385477710E+02 0.  0.
        -24    2    1    2    0    0  0.37488403671E+03  0.43378450784E+02 -0.34992667747E+02  0.38787090438E+03  0.82459812590E+02 0.  0.
         13    1    4    4    0    0  0.35163640213E+03  0.30776525027E+02 -0.51470497791E+02  0.35671356288E+03  0.00000000000E+00 0. -1.
        -14    1    4    4    0    0  0.23247634576E+02  0.12601925757E+02  0.16477830045E+02  0.31157341497E+02  0.00000000000E+00 0.  1.
        -11    1    3    3    0    0 -0.59060820628E+02 -0.27620697170E+02  0.65491252006E+02  0.92413135077E+02  0.00000000000E+00 0.  1.
         11    1    3    3    0    0 -0.12357803093E+02  0.50789834411E+02  0.55991576424E+02  0.76598819881E+02  0.00000000000E+00 0. -1.
          2    1    1    2  501    0 -0.30346541299E+03 -0.66547588026E+02  0.24048435681E+03  0.39287728901E+03  0.00000000000E+00 0. -1.
<scales pt_clust_5="13000.00000" pt_clust_6="13000.00000" pt_clust_7="13000.00000" pt_clust_8="13000.00000" pt_clust_9="327.99622"></scales>
<clustering>
<clus scale="   82.460">  5  6 -1 -1</clus>
<clus scale="   90.385">  7  8 -1 -1</clus>
<clus scale="  117.503">  2  7  1 -1</clus>
<clus scale="  327.996">  1  9  2 -1</clus>
<clus scale="  327.996">  1  5  2 -1</clus>
</clustering>
</event>
<event>
 9    1  0.4664604E-005  0.8645778E+02  0.7546771E-02  0.1315515E+00
          1   -1    0    0  502    0 -0.00000000000E+00  0.00000000000E+00  0.92484607338E+02  0.92484607338E+02  0.00000000000E+00 0. -1.
         21   -1    0    0  501  502  0.00000000000E+00 -0.00000000000E+00 -0.27098756606E+03  0.27098756606E+03  0.00000000000E+00 0. -1.
         23    2    1    2    0    0  0.31204988475E+02 -0.17881419762E+02  0.45024039707E+02  0.93220934300E+02  0.73276749122E+02 0.  0.
        -24    2    1    2    0    0 -0.31958005573E+02 -0.68950016993E+01 -0.60156509854E+02  0.10501094549E+03  0.79621842641E+02 0.  0.
         11    1    4    4    0    0 -0.43103849816E+02 -0.51474976924E+01  0.40049116226E+00  0.43411968334E+02  0.00000000000E+00 0. -1.
        -12    1    4    4    0    0  0.11145844243E+02 -0.17475040069E+01 -0.60557001016E+02  0.61598977152E+02  0.00000000000E+00 0.  1.
        -13    1    3    3    0    0  0.48168456467E+02 -0.29358987002E+02  0.17799052204E+02  0.59151978628E+02  0.00000000000E+00 0.  1.
         13    1    3    3    0    0 -0.16963467992E+02  0.11477567240E+02  0.27224987504E+02  0.34068955673E+02  0.00000000000E+00 0. -1.
          2    1    1    2  501    0  0.75301709828E+00  0.24776421461E+02 -0.16337048857E+03  0.16524029361E+03  0.00000000000E+00 0. -1.
<scales pt_clust_5="13000.00000" pt_clust_6="13000.00000" pt_clust_7="13000.00000" pt_clust_8="13000.00000" pt_clust_9="24.78786"></scales>
<clustering>
<clus scale="   24.788">  2  9  1 -1</clus>
<clus scale="   73.277">  7  8 -1 -1</clus>
<clus scale="   79.622">  5  6 -1 -1</clus>
<clus scale="   80.652">  1  7  2 -1</clus>
<clus scale="   24.788">  2  5  1 -1</clus>
</clustering>
</event>
<event>
 9    1  0.4664604E-005  0.9664063E+02  0.7546771E-02  0.1290879E+00
         21   -1    0    0  501  502  0.00000000000E+00  0.00000000000E+00  0.22938595999E+03  0.22938595999E+03  0.00000000000E+00 0.  1.
          1   -1    0    0  502    0 -0.00000000000E+00 -0.00000000000E+00 -0.50129370940E+03  0.50129370940E+03  0.00000000000E+00 0. -1.
         23    2    1    2    0    0 -0.17668255403E+02 -0.33828922098E+02 -0.45728212233E+03  0.46726941141E+03  0.88188435835E+02 0.  0.
        -24    2    1    2    0    0  0.63308225363E+02  0.36465350296E+02  0.49875079795E+02  0.12040670542E+03  0.81685971591E+02 0.  0.
         11    1    4    4    0    0  0.68083335639E+01  0.33651864196E+02 -0.12185991765E+02  0.36432125454E+02  0.00000000000E+00 0. -1.
        -12    1    4    4    0    0  0.56499891799E+02  0.28134860996E+01  0.62061071560E+02  0.83974579967E+02  0.00000000000E+00 0.  1.
        -11    1    3    3    0    0  0.24440875516E+02  0.12927277764E+02 -0.76933197346E+02  0.81750766114E+02  0.00000000000E+00 0.  1.
         11    1    3    3    0    0 -0.42109130919E+02 -0.46756199863E+02 -0.38034892498E+03  0.38551864529E+03  0.00000000000E+00 0. -1.
          2    1    1    2  501    0 -0.45639969960E+02 -0.26364281971E+01  0.13549929312E+03  0.14300355257E+03  0.00000000000E+00 0. -1.
<scales pt_clust_5="13000.00000" pt_clust_6="13000.00000" pt_clust_7="13000.00000" pt_clust_8="13000.00000" pt_clust_9="45.71605"></scales>
<clustering>
<clus scale="   45.716">  1  9  2 -1</clus>
<clus scale="   81.686">  5  6 -1 -1</clus>
<clus scale="   88.188">  7  8 -1 -1</clus>
<clus scale="   90.746">  1  5  2 -1</clus>
<clus scale="   45.716">  1  5  2 -1</clus>
</clustering>
</event>
<event>
 9    1  0.4664604E-005  0.9419178E+02  0.7546771E-02  0.1304167E+00
          1   -1    0    0  502    0 -0.00000000000E+00  0.00000000000E+00  0.20798375403E+03  0.20798375403E+03  0.00000000000E+00 0. -1.
         21   -1    0    0  501  502  0.00000000000E+00 -0.00000000000E+00 -0.14139476832E+03  0.14139476832E+03  0.00000000000E+00 0. -1.
         23    2    1    2    0    0  0.50647981539E+01  0.78331303870E+01  0.10881336142E+03  0.14181781299E+03  0.90470626972E+02 0.  0.
        -24    2    1    2    0    0  0.25063946316E+02 -0.62333375582E+02  0.38379258421E+02  0.10570314309E+03  0.72017608023E+02 0.  0.
         13    1    4    4    0    0  0.34025255819E+02 -0.52872015685E+02  0.55720243487E+02  0.84011389766E+02  0.00000000000E+00 0. -1.
        -14    1    4    4    0    0 -0.89613095029E+01 -0.94613598974E+01 -0.17340985066E+02  0.21691753322E+02  0.00000000000E+00 0.  1.
        -13    1    3    3    0    0  0.47549701366E+02  0.21278732402E+01  0.64537456883E+02  0.80190930195E+02  0.00000000000E+00 0.  1.
         13    1    3    3    0    0 -0.42484903212E+02  0.57052571468E+01  0.44275904541E+02  0.61626882795E+02  0.00000000000E+00 0. -1.
          2    1    1    2  501    0 -0.30128744470E+02  0.54500245195E+02 -0.80603634140E+02  0.10185756627E+03  0.00000000000E+00 0. -1.
<scales pt_clust_5="13000.00000" pt_clust_6="13000.00000" pt_clust_7="13000.00000" pt_clust_8="13000.00000" pt_clust_9="62.27373"></scales>
<clustering>
<clus scale="   62.274">  2  9  1 -1</clus>
<clus scale="   72.018">  5  6 -1 -1</clus>
<clus scale="   76.640">  2  5  1 -1</clus>
<clus scale="   90.471">  7  8 -1 -1</clus>
<clus scale="   62.274">  2  5  1 -1</clus>
</clustering>
</event>
<event>
 9    1  0.4664604E-005  0.1343852E+03  0.7546771E-02  0.1223459E+00
         21   -1    0    0  501  502  0.00000000000E+00  0.00000000000E+00  0.82566028285E+02  0.82566028285E+02  0.00000000000E+00 0. -1.
          1   -1    0    0  502    0 -0.00000000000E+00 -0.00000000000E+00 -0.74679626835E+03  0.74679626835E+03  0.00000000000E+00 0. -1.
        -24    2    1    2    0    0 -0.69612416885E+02  0.80271961925E+02 -0.13313546291E+03  0.18858740966E+03  0.80936290622E+02 0.  0.
         23    2    1    2    0    0 -0.18930102632E+02 -0.11152530822E+03 -0.54448923000E+02  0.15496852669E+03  0.90853265702E+02 0.  0.
         11    1    3    3    0    0 -0.63812278181E+02  0.38902507748E+02 -0.12557928479E+03  0.14613544650E+03  0.00000000000E+00 0. -1.
        -12    1    3    3    0    0 -0.58001387040E+01  0.41369454176E+02 -0.75561781237E+01  0.42451963155E+02  0.00000000000E+00 0.  1.
        -11    1    4    4    0    0 -0.45719362921E+02 -0.35938765201E+02 -0.46353793253E+02  0.74367527450E+02  0.00000000000E+00 0.  1.
         11    1    4    4    0    0  0.26789260289E+02 -0.75586543023E+02 -0.80951297468E+01  0.80600999240E+02  0.00000000000E+00 0. -1.
          2    1    1    2  501    0  0.88542519517E+02  0.31253346299E+02 -0.47664585415E+03  0.48580636029E+03  0.00000000000E+00 0. -1.
<scales pt_clust_5="13000.00000" pt_clust_6="13000.00000" pt_clust_7="13000.00000" pt_clust_8="13000.00000" pt_clust_9="93.89653"></scales>
<clustering>
<clus scale="   80.936">  5  6 -1 -1</clus>
<clus scale="   90.853">  7  8 -1 -1</clus>
<clus scale="   93.897">  1  9  2 -1</clus>
<clus scale="  127.890">  2  5  1 -1</clus>
<clus scale="   93.897">  1  5  2 -1</clus>
</clustering>
</event>
<event>
 9    1  0.4664604E-005  0.1824598E+03  0.7546771E-02  0.1184571E+00
          1   -1    0    0  502    0 -0.00000000000E+00  0.00000000000E+00  0.34675071203E+03  0.34675071203E+03  0.00000000000E+00 0. -1.
         21   -1    0    0  501  502  0.00000000000E+00 -0.00000000000E+00 -0.17931654186E+03  0.17931654186E+03  0.00000000000E+00 0. -1.
         23    2    1    2    0    0 -0.55964475398E+02  0.50773460009E+02  0.11010430353E+03  0.16157342319E+03  0.90956289922E+02 0.  0.
        -24    2    1    2    0    0  0.60329975450E+02  0.14042092532E+03  0.43772571295E+02  0.17276967774E+03  0.67643043570E+02 0.  0.
         13    1    4    4    0    0  0.27134278105E+02  0.11363467948E+03  0.80055313084E+01  0.11710336443E+03  0.00000000000E+00 0. -1.
        -14    1    4    4    0    0  0.33195697345E+02  0.26786245839E+02  0.35767039987E+02  0.55666313312E+02  0.00000000000E+00 0.  1.
        -11    1    3    3    0    0  0.64366152147E+01  0.45361685592E+02  0.79742399433E+02  0.91967183292E+02  0.00000000000E+00 0. -1.
         11    1    3    3    0    0 -0.62401090612E+02  0.54117744170E+01  0.30361904100E+02  0.69606239897E+02  0.00000000000E+00 0.  1.
          2    1    1    2  501    0 -0.43655000518E+01 -0.19119438533E+03  0.13557295334E+02  0.19172415296E+03  0.00000000000E+00 0. -1.
<scales pt_clust_5="13000.00000" pt_clust_6="13000.00000" pt_clust_7="13000.00000" pt_clust_8="13000.00000" pt_clust_9="169.45800"></scales>
<clustering>
<clus scale="   67.643">  5  6 -1 -1</clus>
<clus scale="   90.956">  7  8 -1 -1</clus>
<clus scale="  118.250">  1  7  2 -1</clus>
<clus scale="  169.458">  2  9  1 -1</clus>
<clus scale="  169.458">  2  5  1 -1</clus>
</clustering>
</event>
<event>
 9    1  0.4664604E-005  0.9975528E+02  0.7546771E-02  0.1285964E+00
         21   -1    0    0  501  502  0.00000000000E+00  0.00000000000E+00  0.33328408842E+03  0.33328408842E+03  0.00000000000E+00 0. -1.
         -2   -1    0    0    0  501 -0.00000000000E+00 -0.00000000000E+00 -0.37659075393E+02  0.37659075393E+02  0.00000000000E+00 0.  1.
         23    2    1    2    0    0  0.37811028514E+02 -0.32798436079E+02  0.88346804813E+02  0.13583797399E+03  0.90229629110E+02 0.  0.
        -24    2    1    2    0    0 -0.31719889286E+02  0.90779868622E+01  0.16446217679E+03  0.18578000118E+03  0.79861380040E+02 0.  0.
         13    1    4    4    0    0  0.21581345955E+02 -0.97050435915E+01  0.85257669016E+02  0.88480576911E+02  0.00000000000E+00 0. -1.
        -14    1    4    4    0    0 -0.53301235242E+02  0.18783030454E+02  0.79204507769E+02  0.97299424264E+02  0.00000000000E+00 0.  1.
        -11    1    3    3    0    0  0.14324119304E+02 -0.62354833618E+02  0.66225734548E+02  0.92082319615E+02  0.00000000000E+00 0. -1.
         11    1    3    3    0    0  0.23486909210E+02  0.29556397539E+02  0.22121070264E+02  0.43755654370E+02  0.00000000000E+00 0.  1.
         -1    1    1    2    0  502 -0.60911392271E+01  0.23720449216E+02  0.42816031426E+02  0.49325188648E+02  0.00000000000E+00 0.  1.
<scales pt_clust_5="13000.00000" pt_clust_6="13000.00000" pt_clust_7="13000.00000" pt_clust_8="13000.00000" pt_clust_9="24.49003"></scales>
<clustering>
<clus scale="   24.490">  1  9  2 -1</clus>
<clus scale="   79.861">  5  6 -1 -1</clus>
<clus scale="   90.230">  7  8 -1 -1</clus>
<clus scale="   90.485">  1  5  2 -1</clus>
<clus scale="   24.490">  1  5  2 -1</clus>
</clustering>
</event>
<event>
 9    1  0.4664604E-005  0.1238668E+03  0.7546771E-02  0.1248665E+00
         21   -1    0    0  501  502  0.00000000000E+00  0.00000000000E+00  0.26491651999E+03  0.26491651999E+03  0.00000000000E+00 0.  1.
          1   -1    0    0  502    0 -0.00000000000E+00 -0.00000000000E+00 -0.14325202445E+03  0.14325202445E+03  0.00000000000E+00 0. -1.
         23    2    1    2    0    0  0.45299163998E+02  0.22927829662E+02 -0.76330756174E+02  0.14344090349E+03  0.11032320165E+03 0.  0.
        -24    2    1    2    0    0 -0.70974592164E+02 -0.57137487191E+02  0.18301074610E+03  0.21940586155E+03  0.79648689368E+02 0.  0.
         11    1    4    4    0    0  0.16082621773E+02 -0.19462328583E+02  0.28263045374E+02  0.37897660756E+02  0.00000000000E+00 0. -1.
        -12    1    4    4    0    0 -0.87057213937E+02 -0.37675158608E+02  0.15474770073E+03  0.18150820079E+03  0.00000000000E+00 0.  1.
        -13    1    3    3    0    0 -0.15671606548E+02 -0.32923208552E+02 -0.36754005406E+02  0.51772519994E+02  0.00000000000E+00 0.  1.
         13    1    3    3    0    0  0.60970770547E+02  0.55851038215E+02 -0.39576750768E+02  0.91668383492E+02  0.00000000000E+00 0. -1.
          2    1    1    2  501    0  0.25675428166E+02  0.34209657529E+02  0.14984505621E+02  0.45321779405E+02  0.00000000000E+00 0. -1.
<scales pt_clust_5="13000.00000" pt_clust_6="13000.00000" pt_clust_7="13000.00000" pt_clust_8="13000.00000" pt_clust_9="42.77299"></scales>
<clustering>
<clus scale="   42.773">  1  9  2 -1</clus>
<clus scale="   79.649">  5  6 -1 -1</clus>
<clus scale="   97.548">  1  5  2 -1</clus>
<clus scale="  110.323">  7  8 -1 -1</clus>
<clus scale="   42.773">  1  5  2 -1</clus>
</clustering>
</event>
<event>
 9    1  0.4664604E-005  0.1129290E+03  0.7546771E-02  0.1258772E+00
          1   -1    0    0  502    0 -0.00000000000E+00  0.00000000000E+00  0.91497680589E+03  0.91497680589E+03  0.00000000000E+00 0. -1.
         21   -1    0    0  501  502  0.00000000000E+00 -0.00000000000E+00 -0.24745663901E+02  0.24745663901E+02  0.00000000000E+00 0. -1.
        -24    2    1    2    0    0 -0.72131070476E+02  0.57746416823E+02  0.35058646924E+03  0.37114654289E+03  0.79381004646E+02 0.  0.
         23    2    1    2    0    0  0.30500712401E+02 -0.27066761301E+02  0.17794652893E+03  0.20319957953E+03  0.89231154534E+02 0.  0.
         11    1    3    3    0    0 -0.73201665687E+02  0.74554565399E+02  0.28936826565E+03  0.30765379934E+03  0.00000000000E+00 0. -1.
        -12    1    3    3    0    0  0.10705952107E+01 -0.16808148577E+02  0.61218203588E+02  0.63492743548E+02  0.00000000000E+00 0.  1.
        -13    1    4    4    0    0  0.42249489775E+02 -0.53619027114E+02  0.11233091730E+03  0.13144677415E+03  0.00000000000E+00 0. -1.
         13    1    4    4    0    0 -0.11748777374E+02  0.26552265812E+02  0.65615611630E+02  0.71752805375E+02  0.00000000000E+00 0.  1.
          2    1    1    2  501    0  0.41630358075E+02 -0.30679655522E+02  0.36169814382E+03  0.36537634737E+03  0.00000000000E+00 0. -1.
<scales pt_clust_5="13000.00000" pt_clust_6="13000.00000" pt_clust_7="13000.00000" pt_clust_8="13000.00000" pt_clust_9="51.71393"></scales>
<clustering>
<clus scale="   51.714">  2  9  1 -1</clus>
<clus scale="   79.381">  5  6 -1 -1</clus>
<clus scale="   89.231">  7  8 -1 -1</clus>
<clus scale="  105.319">  1  5  2 -1</clus>
<clus scale="   51.714">  2  5  1 -1</clus>
</clustering>
</event>
<event>
 9    1  0.4664604E-005  0.2112868E+03  0.7546771E-02  0.1140551E+00
         21   -1    0    0  501  502  0.00000000000E+00  0.00000000000E+00  0.31686691168E+02  0.31686691168E+02  0.00000000000E+00 0. -1.
          1   -1    0    0  502    0 -0.00000000000E+00 -0.00000000000E+00 -0.88533319431E+03  0.88533319431E+03  0.00000000000E+00 0. -1.
        -24    2    1    2    0    0  0.56942089606E+02  0.19083992849E+00 -0.31607556452E+03  0.33082006660E+03  0.79345548005E+02 0.  0.
         23    2    1    2    0    0  0.62769647119E+02  0.29537929283E+02 -0.20253148855E+03  0.22917582426E+03  0.81792644573E+02 0.  0.
         11    1    3    3    0    0  0.16956956034E+02 -0.26136664811E+02 -0.40397219151E+02  0.51015673283E+02  0.00000000000E+00 0. -1.
        -12    1    3    3    0    0  0.39985133572E+02  0.26327504739E+02 -0.27567834537E+03  0.27980439332E+03  0.00000000000E+00 0.  1.
        -11    1    4    4    0    0  0.37695268637E+02 -0.25672728303E+02 -0.71711802984E+02  0.84985910263E+02  0.00000000000E+00 0.  1.
         11    1    4    4    0    0  0.25074378483E+02  0.55210657586E+02 -0.13081968556E+03  0.14418991400E+03  0.00000000000E+00 0. -1.
          2    1    1    2  501    0 -0.11971173673E+03 -0.29728769212E+02 -0.33503945007E+03  0.35702399462E+03  0.00000000000E+00 0. -1.
<scales pt_clust_5="13000.00000" pt_clust_6="13000.00000" pt_clust_7="13000.00000" pt_clust_8="13000.00000" pt_clust_9="123.34794"></scales>
<clustering>
<clus scale="   79.346">  5  6 -1 -1</clus>
<clus scale="   81.793">  7  8 -1 -1</clus>
<clus scale="   97.263">  5  7 -1 -1</clus>
<clus scale="  123.348">  1  9  2 -1</clus>
<clus scale="  123.348">  1  5  2 -1</clus>
</clustering>
</event>
<event>
 9    1  0.4664604E-005  0.8998823E+02  0.7546771E-02  0.1309488E+00
          1   -1    0    0  502    0 -0.00000000000E+00  0.00000000000E+00  0.72852794345E+02  0.72852794345E+02  0.00000000000E+00 0. -1.
         21   -1    0    0  501  502  0.00000000000E+00 -0.00000000000E+00 -0.30549807344E+03  0.30549807344E+03  0.00000000000E+00 0.  1.
        -24    2    1    2    0    0 -0.15435886269E+02  0.99136554036E+01  0.21062750747E+02  0.83592738831E+02  0.78788066152E+02 0.  0.
         23    2    1    2    0    0 -0.32510540936E+02  0.29275518972E+01 -0.20141301447E+03  0.22265733062E+03  0.89126756092E+02 0.  0.
         11    1    3    3    0    0 -0.26685945295E+02  0.25976814945E+02  0.41163585729E+02  0.55510137642E+02  0.00000000000E+00 0. -1.
        -12    1    3    3    0    0  0.11250059026E+02 -0.16063159542E+02 -0.20100834982E+02  0.28082601189E+02  0.00000000000E+00 0.  1.
        -11    1    4    4    0    0  0.15013244201E+02  0.34199631968E+02 -0.67138322997E+02  0.76828163736E+02  0.00000000000E+00 0.  1.
         11    1    4    4    0    0 -0.47523785137E+02 -0.31272080071E+02 -0.13427469147E+03  0.14582916689E+03  0.00000000000E+00 0. -1.
          2    1    1    2  501    0  0.47946427205E+02 -0.12841207301E+02 -0.52295015370E+02  0.72100798326E+02  0.00000000000E+00 0. -1.
<scales pt_clust_5="13000.00000" pt_clust_6="13000.00000" pt_clust_7="13000.00000" pt_clust_8="13000.00000" pt_clust_9="49.63624"></scales>
<clustering>
<clus scale="   49.636">  2  9  1 -1</clus>
<clus scale="   78.788">  5  6 -1 -1</clus>
<clus scale="   79.761">  1  5  2 -1</clus>
<clus scale="   89.127">  7  8 -1 -1</clus>
<clus scale="   49.636">  2  5  1 -1</clus>
</clustering>
</event>
<event>
 9    1  0.4664604E-005  0.1461213E+03  0.7546771E-02  0.1208412E+00
         21   -1    0    0  501  502  0.00000000000E+00  0.00000000000E+00  0.24791469998E+03  0.24791469998E+03  0.00000000000E+00 0. -1.
          1   -1    0    0  502    0 -0.00000000000E+00 -0.00000000000E+00 -0.15027470425E+03  0.15027470425E+03  0.00000000000E+00 0. -1.
         23    2    1    2    0    0 -0.88553333762E+02 -0.97626869381E+01  0.52264760160E+01  0.13115722208E+03  0.96113983761E+02 0.  0.
        -24    2    1    2    0    0  0.14781919975E+03 -0.39727126087E+02  0.60889654996E+02  0.18363291050E+03  0.81146382368E+02 0.  0.
         13    1    4    4    0    0  0.78665044877E+02  0.12888658000E+02  0.54376898568E+02  0.96494320498E+02  0.00000000000E+00 0. -1.
        -14    1    4    4    0    0  0.69154154874E+02 -0.52615784087E+02  0.65127564278E+01  0.87138590003E+02  0.00000000000E+00 0.  1.
        -11    1    3    3    0    0 -0.26610693029E+02  0.36645372219E+02 -0.20338572840E+02  0.49645441218E+02  0.00000000000E+00 0.  1.
         11    1    3    3    0    0 -0.61942640733E+02 -0.46408059157E+02  0.25565048856E+02  0.81511780858E+02  0.00000000000E+00 0. -1.
          2    1    1    2  501    0 -0.59265865988E+02  0.49489813025E+02  0.31523864722E+02  0.83399271649E+02  0.00000000000E+00 0. -1.
<scales pt_clust_5="13000.00000" pt_clust_6="13000.00000" pt_clust_7="13000.00000" pt_clust_8="13000.00000" pt_clust_9="77.21195"></scales>
<clustering>
<clus scale="   77.212">  1  9  2 -1</clus>
<clus scale="   81.146">  5  6 -1 -1</clus>
<clus scale="   96.114">  7  8 -1 -1</clus>
<clus scale="  136.742">  1  5  2 -1</clus>
<clus scale="   77.212">  1  5  2 -1</clus>
</clustering>
</event>
<event>
 9    1  0.4664604E-005  0.1016946E+03  0.7546771E-02  0.1286814E+00
          1   -1    0    0  502    0 -0.00000000000E+00  0.00000000000E+00  0.77654701256E+02  0.77654701256E+02  0.00000000000E+00 0. -1.
         21   -1    0    0  501  502  0.00000000000E+00 -0.00000000000E+00 -0.20614989480E+03  0.20614989480E+03  0.00000000000E+00 0. -1.
         23    2    1    2    0    0 -0.32138725982E+01  0.40827511860E+02  0.15804834807E+02  0.10476277425E+03  0.95122191755E+02 0.  0.
        -24    2    1    2    0    0 -0.13975349803E+02 -0.22027544325E+02 -0.11403634583E+03  0.13948428617E+03  0.75967458855E+02 0.  0.
         13    1    4    4    0    0 -0.21538582883E+02  0.92413020742E+01 -0.10275348171E+03  0.10539255297E+03  0.00000000000E+00 0. -1.
        -14    1    4    4    0    0  0.75632330792E+01 -0.31268846399E+02 -0.11282864121E+02  0.34091733199E+02  0.00000000000E+00 0.  1.
        -13    1    3    3    0    0 -0.19411970506E+02  0.28217996200E+02 -0.35606089115E+02  0.49405196999E+02  0.00000000000E+00 0.  1.
         13    1    3    3    0    0  0.16198097907E+02  0.12609515661E+02  0.51410923922E+02  0.55357577255E+02  0.00000000000E+00 0. -1.
          2    1    1    2  501    0  0.17189222402E+02 -0.18799967535E+02 -0.30263682516E+02  0.39557535635E+02  0.00000000000E+00 0. -1.
<scales pt_clust_5="13000.00000" pt_clust_6="13000.00000" pt_clust_7="13000.00000" pt_clust_8="13000.00000" pt_clust_9="25.47368"></scales>
<clustering>
<clus scale="   25.474">  2  9  1 -1</clus>
<clus scale="   75.967">  5  6 -1 -1</clus>
<clus scale="   84.051">  2  5  1 -1</clus>
<clus scale="   95.122">  7  8 -1 -1</clus>
<clus scale="   25.474">  2  5  1 -1</clus>
</clustering>
</event>
<event>
 9    1  0.4664604E-005  0.9611241E+02  0.7546771E-02  0.1293649E+00
         21   -1    0    0  501  502  0.00000000000E+00  0.00000000000E+00  0.17801235505E+03  0.17801235505E+03  0.00000000000E+00 0. -1.
          1   -1    0    0  502    0 -0.00000000000E+00 -0.00000000000E+00 -0.12967355548E+03  0.12967355548E+03  0.00000000000E+00 0. -1.
         23    2    1    2    0    0  0.21171072114E+02  0.85975354342E+01 -0.51943842064E+02  0.10710596887E+03  0.90837183631E+02 0.  0.
        -24    2    1    2    0    0 -0.44310883093E+02 -0.10519849489E+02 -0.40506011676E+01  0.93694153556E+02  0.81780593340E+02 0.  0.
         13    1    4    4    0    0 -0.41033615328E+01 -0.38780612634E+02 -0.17496317542E+02  0.42742187820E+02  0.00000000000E+00 0. -1.
        -14    1    4    4    0    0 -0.40207521560E+02  0.28260763145E+02  0.13445716375E+02  0.50951965736E+02  0.00000000000E+00 0.  1.
        -13    1    3    3    0    0 -0.39357970242E+01  0.43988647307E+02 -0.45197186368E+02  0.63192382814E+02  0.00000000000E+00 0. -1.
         13    1    3    3    0    0  0.25106869138E+02 -0.35391111873E+02 -0.67466556962E+01  0.43913586060E+02  0.00000000000E+00 0.  1.
          2    1    1    2  501    0  0.23139810979E+02  0.19223140548E+01  0.10433324280E+03  0.10688578809E+03  0.00000000000E+00 0. -1.
<scales pt_clust_5="13000.00000" pt_clust_6="13000.00000" pt_clust_7="13000.00000" pt_clust_8="13000.00000" pt_clust_9="23.21952"></scales>
<clustering>
<clus scale="   23.220">  1  9  2 -1</clus>
<clus scale="   81.781">  5  6 -1 -1</clus>
<clus scale="   87.603">  1  5  2 -1</clus>
<clus scale="   90.837">  7  8 -1 -1</clus>
<clus scale="   23.220">  1  5  2 -1</clus>
</clustering>
</event>
<event>
 9    1  0.4664604E-005  0.9975501E+02  0.7546771E-02  0.1285857E+00
          1   -1    0    0  502    0 -0.00000000000E+00  0.00000000000E+00  0.39189474232E+03  0.39189474232E+03  0.00000000000E+00 0. -1.
         21   -1    0    0  501  502  0.00000000000E+00 -0.00000000000E+00 -0.40288086289E+02  0.40288086289E+02  0.00000000000E+00 0.  1.
         23    2    1    2    0    0 -0.59418508655E+02  0.18217581122E+02  0.16499971207E+03  0.19798921794E+03  0.90068784842E+02 0.  0.
        -24    2    1    2    0    0  0.21762461826E+02  0.59593662216E+01  0.67615116486E+02  0.10706549556E+03  0.79888031471E+02 0.  0.
         13    1    4    4    0    0 -0.46796502091E+01  0.23949636536E+02  0.70836456666E+02  0.74921878041E+02  0.00000000000E+00 0. -1.
        -14    1    4    4    0    0  0.26442112035E+02 -0.17990270314E+02 -0.32213401794E+01  0.32143617522E+02  0.00000000000E+00 0.  1.
        -11    1    3    3    0    0  0.21851121331E+02  0.12042395994E+02  0.60652644460E+02  0.65583794375E+02  0.00000000000E+00 0. -1.
         11    1    3    3    0    0 -0.81269629986E+02  0.61751851273E+01  0.10434706761E+03  0.13240542356E+03  0.00000000000E+00 0.  1.
          2    1    1    2  501    0  0.37656046829E+02 -0.24176947343E+02  0.11899182747E+03  0.12712811511E+03  0.00000000000E+00 0. -1.
<scales pt_clust_5="13000.00000" pt_clust_6="13000.00000" pt_clust_7="13000.00000" pt_clust_8="13000.00000" pt_clust_9="44.74935"></scales>
<clustering>
<clus scale="   44.749">  2  9  1 -1</clus>
<clus scale="   79.888">  5  6 -1 -1</clus>
<clus scale="   90.069">  7  8 -1 -1</clus>
<clus scale="   90.668">  2  5  1 -1</clus>
<clus scale="   44.749">  2  5  1 -1</clus>
</clustering>
</event>
<event>
 9    1  0.4664604E-005  0.1287621E+03  0.7546771E-02  0.1231435E+00
         21   -1    0    0  501  502  0.00000000000E+00  0.00000000000E+00  0.14760078334E+03  0.14760078334E+03  0.00000000000E+00 0. -1.
          3   -1    0    0  502    0 -0.00000000000E+00 -0.00000000000E+00 -0.23651869616E+03  0.23651869616E+03  0.00000000000E+00 0. -1.
        -24    2    1    2    0    0  0.19826496113E+02  0.98646108269E+02 -0.10139931681E+03  0.16602645561E+03  0.84609797812E+02 0.  0.
         23    2    1    2    0    0 -0.80729521482E+02 -0.44770761045E+02 -0.16624254527E+02  0.13172826895E+03  0.92489428145E+02 0.  0.
         11    1    3    3    0    0  0.45510471447E+02  0.50173732385E+02 -0.85162281970E+02  0.10881737317E+03  0.00000000000E+00 0. -1.
        -12    1    3    3    0    0 -0.25683975334E+02  0.48472375884E+02 -0.16237034844E+02  0.57209082438E+02  0.00000000000E+00 0.  1.
        -13    1    4    4    0    0  0.10000934497E+02 -0.37107217669E+02  0.31230752170E+01  0.38557980921E+02  0.00000000000E+00 0.  1.
         13    1    4    4    0    0 -0.90730455979E+02 -0.76635433763E+01 -0.19747329744E+02  0.93170288028E+02  0.00000000000E+00 0. -1.
          4    1    1    2  501    0  0.60903025368E+02 -0.53875347224E+02  0.29105658522E+02  0.86364754938E+02  0.00000000000E+00 0. -1.
<scales pt_clust_5="13000.00000" pt_clust_6="13000.00000" pt_clust_7="13000.00000" pt_clust_8="13000.00000" pt_clust_9="81.31255"></scales>
<clustering>
<clus scale="   81.313">  1  9  2 -1</clus>
<clus scale="   84.610">  5  6 -1 -1</clus>
<clus scale="   92.489">  7  8 -1 -1</clus>
<clus scale="  123.224">  2  5  1 -1</clus>
<clus scale="   81.313">  1  5  2 -1</clus>
</clustering>
</event>
<event>
 9    1  0.4664604E-005  0.9234010E+02  0.7546771E-02  0.1302261E+00
          1   -1    0    0  502    0 -0.00000000000E+00  0.00000000000E+00  0.23485654540E+03  0.23485654540E+03  0.00000000000E+00 0. -1.
         21   -1    0    0  501  502  0.00000000000E+00 -0.00000000000E+00 -0.96990721288E+02  0.96990721288E+02  0.00000000000E+00 0.  1.
         23    2    1    2    0    0  0.37535159272E+00  0.56095675312E+01  0.11723552168E+03  0.14901504365E+03  0.91813438851E+02 0.  0.
        -24    2    1    2    0    0  0.52796411437E+02  0.11459022583E+02 -0.33487146618E+02  0.10506801891E+03  0.83660799361E+02 0.  0.
         13    1    4    4    0    0  0.12381275315E+02 -0.25623226319E+02  0.14724718463E+02  0.32041582970E+02  0.00000000000E+00 0. -1.
        -14    1    4    4    0    0  0.40415136123E+02  0.37082248902E+02 -0.48211865081E+02  0.73026435939E+02  0.00000000000E+00 0.  1.
        -11    1    3    3    0    0  0.23028928691E+02  0.40584081660E+02  0.82429872844E+02  0.94721080958E+02  0.00000000000E+00 0. -1.
         11    1    3    3    0    0 -0.22653577099E+02 -0.34974514128E+02  0.34805648840E+02  0.54293962695E+02  0.00000000000E+00 0.  1.
          2    1    1    2  501    0 -0.53171763030E+02 -0.17068590114E+02  0.54117449047E+02  0.77764204127E+02  0.00000000000E+00 0. -1.
<scales pt_clust_5="13000.00000" pt_clust_6="13000.00000" pt_clust_7="13000.00000" pt_clust_8="13000.00000" pt_clust_9="55.84421"></scales>
<clustering>
<clus scale="   55.844">  2  9  1 -1</clus>
<clus scale="   83.661">  5  6 -1 -1</clus>
<clus scale="   84.238">  2  5  1 -1</clus>
<clus scale="   91.813">  7  8 -1 -1</clus>
<clus scale="   55.844">  2  5  1 -1</clus>
</clustering>
</event>
<event>
 9    1  0.4664604E-005  0.1022482E+03  0.7546771E-02  0.1275990E+00
         21   -1    0    0  501  502  0.00000000000E+00  0.00000000000E+00  0.23618461431E+03  0.23618461431E+03  0.00000000000E+00 0. -1.
          3   -1    0    0  502    0 -0.00000000000E+00 -0.00000000000E+00 -0.24627259129E+03  0.24627259129E+03  0.00000000000E+00 0. -1.
         23    2    1    2    0    0 -0.25513129098E+02  0.33819511707E+02 -0.18379861053E+03  0.20969895010E+03  0.91635371523E+02 0.  0.
        -24    2    1    2    0    0 -0.12528823785E+02 -0.97875321225E+02  0.94949607080E+02  0.16434406731E+03  0.90868006718E+02 0.  0.
         11    1    4    4    0    0 -0.18481379519E+02 -0.68335208984E+02  0.10988394906E+03  0.13071244943E+03  0.00000000000E+00 0. -1.
        -12    1    4    4    0    0  0.59525557340E+01 -0.29540112241E+02 -0.14934341976E+02  0.33631617880E+02  0.00000000000E+00 0.  1.
        -11    1    3    3    0    0  0.21521922045E+02  0.32816696469E+02 -0.31570489111E+02  0.50366898638E+02  0.00000000000E+00 0.  1.
         11    1    3    3    0    0 -0.47035051143E+02  0.10028152378E+01 -0.15222812141E+03  0.15933205146E+03  0.00000000000E+00 0. -1.
          4    1    1    2  501    0  0.38041952883E+02  0.64055809519E+02  0.78761026457E+02  0.10841418819E+03  0.00000000000E+00 0. -1.
<scales pt_clust_5="13000.00000" pt_clust_6="13000.00000" pt_clust_7="13000.00000" pt_clust_8="13000.00000" pt_clust_9="74.50058"></scales>
<clustering>
<clus scale="   74.501">  1  9  2 -1</clus>
<clus scale="   90.868">  5  6 -1 -1</clus>
<clus scale="   91.635">  7  8 -1 -1</clus>
<clus scale="  101.561">  1  5  2 -1</clus>
<clus scale="   74.501">  1  5  2 -1</clus>
</clustering>
</event>
<event>
 9    1  0.4664604E-005  0.8864683E+02  0.7546771E-02  0.1309931E+00
         21   -1    0    0  501  502  0.00000000000E+00  0.00000000000E+00  0.15973640208E+03  0.15973640208E+03  0.00000000000E+00 0. -1.
         -2   -1    0    0    0  501 -0.00000000000E+00 -0.00000000000E+00 -0.95315515281E+02  0.95315515281E+02  0.00000000000E+00 0.  1.
        -24    2    1    2    0    0 -0.23296718319E+02  0.72328860626E+01 -0.37841754585E+02  0.91654704299E+02  0.79834420552E+02 0.  0.
         23    2    1    2    0    0  0.17153157207E+02  0.26337256251E+02  0.61491145243E+02  0.11022755352E+03  0.85913158147E+02 0.  0.
         13    1    3    3    0    0 -0.50399464171E+02  0.19041556209E+02 -0.23107828152E+02  0.58623020849E+02  0.00000000000E+00 0. -1.
        -14    1    3    3    0    0  0.27102745853E+02 -0.11808670146E+02 -0.14733926433E+02  0.33031683449E+02  0.00000000000E+00 0.  1.
        -13    1    4    4    0    0  0.31007840252E+01  0.57349792387E+02  0.38815256100E+02  0.69319821512E+02  0.00000000000E+00 0. -1.
         13    1    4    4    0    0  0.14052373182E+02 -0.31012536136E+02  0.22675889144E+02  0.40907732008E+02  0.00000000000E+00 0.  1.
         -1    1    1    2    0  502  0.61435611116E+01 -0.33570142314E+02  0.40771496138E+02  0.53169659539E+02  0.00000000000E+00 0.  1.
<scales pt_clust_5="13000.00000" pt_clust_6="13000.00000" pt_clust_7="13000.00000" pt_clust_8="13000.00000" pt_clust_9="34.12767"></scales>
<clustering>
<clus scale="   34.128">  1  9  2 -1</clus>
<clus scale="   79.834">  5  6 -1 -1</clus>
<clus scale="   82.769">  2  5  1 -1</clus>
<clus scale="   85.913">  7  8 -1 -1</clus>
<clus scale="   34.128">  1  5  2 -1</clus>
</clustering>
</event>
<event>
 9    1  0.4664604E-005  0.9360154E+02  0.7546771E-02  0.1297996E+00
          1   -1    0    0  502    0 -0.00000000000E+00  0.00000000000E+00  0.30522818605E+03  0.30522818605E+03  0.00000000000E+00 0. -1.
         21   -1    0    0  501  502  0.00000000000E+00 -0.00000000000E+00 -0.73750626575E+02  0.73750626575E+02  0.00000000000E+00 0.  1.
         23    2    1    2    0    0  0.24429627176E+02 -0.23045811613E+02  0.24568655055E+03  0.26322687217E+03  0.88309620033E+02 0.  0.
        -24    2    1    2    0    0 -0.23505682610E+02  0.30454055749E+01  0.83610949239E+01  0.85581115181E+02  0.81807259807E+02 0.  0.
         11    1    4    4    0    0 -0.77827792298E+01 -0.37639280934E+02  0.15388310702E+02  0.41401536542E+02  0.00000000000E+00 0. -1.
        -12    1    4    4    0    0 -0.15722903381E+02  0.40684686509E+02 -0.70272157782E+01  0.44179578638E+02  0.00000000000E+00 0.  1.
        -13    1    3    3    0    0 -0.37514711331E+01 -0.50999847387E+02  0.17310375602E+03  0.18049921971E+03  0.00000000000E+00 0. -1.
         13    1    3    3    0    0  0.28181098309E+02  0.27954035774E+02  0.72582794539E+02  0.82727652457E+02  0.00000000000E+00 0.  1.
          2    1    1    2  501    0 -0.92394456547E+00  0.20000406038E+02 -0.22570086008E+02  0.30170825273E+02  0.00000000000E+00 0. -1.
<scales pt_clust_5="13000.00000" pt_clust_6="13000.00000" pt_clust_7="13000.00000" pt_clust_8="13000.00000" pt_clust_9="20.02174"></scales>
<clustering>
<clus scale="   20.022">  2  9  1 -1</clus>
<clus scale="   81.807">  5  6 -1 -1</clus>
<clus scale="   87.493">  2  5  1 -1</clus>
<clus scale="   88.310">  7  8 -1 -1</clus>
<clus scale="   20.022">  2  5  1 -1</clus>
</clustering>
</event>
<event>
 9    1  0.4664604E-005  0.9554788E+02  0.7546771E-02  0.1298427E+00
         21   -1    0    0  501  502  0.00000000000E+00  0.00000000000E+00  0.11192538435E+03  0.11192538435E+03  0.00000000000E+00 0. -1.
          1   -1    0    0  502    0 -0.00000000000E+00 -0.00000000000E+00 -0.31077970595E+03  0.31077970595E+03  0.00000000000E+00 0. -1.
         23    2    1    2    0    0 -0.36840784714E+02 -0.15945514055E+02 -0.52181056420E+02  0.11388882681E+03  0.92931692043E+02 0.  0.
        -24    2    1    2    0    0 -0.41341017653E+02  0.21122823603E+02  0.45023479987E+02  0.10172488061E+03  0.78521233867E+02 0.  0.
         13    1    4    4    0    0 -0.20902608290E+02  0.14602232730E+02  0.66590207720E+02  0.71304978776E+02  0.00000000000E+00 0. -1.
        -14    1    4    4    0    0 -0.20438409363E+02  0.65205908728E+01 -0.21566727733E+02  0.30419901836E+02  0.00000000000E+00 0.  1.
        -11    1    3    3    0    0 -0.46380749822E+02  0.12022700608E+02 -0.65763086874E+02  0.81366472697E+02  0.00000000000E+00 0.  1.
         11    1    3    3    0    0  0.95399651084E+01 -0.27968214663E+02  0.13582030454E+02  0.32522354112E+02  0.00000000000E+00 0. -1.
          2    1    1    2  501    0  0.78181802366E+02 -0.51773095478E+01 -0.19169674516E+03  0.20709138288E+03  0.00000000000E+00 0. -1.
<scales pt_clust_5="13000.00000" pt_clust_6="13000.00000" pt_clust_7="13000.00000" pt_clust_8="13000.00000" pt_clust_9="78.35308"></scales>
<clustering>
<clus scale="   78.353">  1  9  2 -1</clus>
<clus scale="   78.521">  5  6 -1 -1</clus>
<clus scale="   81.601">  1  5  2 -1</clus>
<clus scale="   92.932">  7  8 -1 -1</clus>
<clus scale="   78.353">  1  5  2 -1</clus>
</clustering>
</event>
<event>
 9    1  0.4664604E-005  0.1556377E+03  0.7546771E-02  0.1215898E+00
         21   -1    0    0  501  502  0.00000000000E+00  0.00000000000E+00  0.23894805419E+03  0.23894805419E+03  0.00000000000E+00 0. -1.
          1   -1    0    0  502    0 -0.00000000000E+00 -0.00000000000E+00 -0.46738259209E+03  0.46738259209E+03  0.00000000000E+00 0. -1.
        -24    2    1    2    0    0 -0.46659641169E+02  0.18662811742E+02 -0.37413759735E+03  0.38638200188E+03  0.82381350872E+02 0.  0.
         23    2    1    2    0    0  0.23741782481E+02  0.81940058470E+02  0.85360048751E+01  0.14830667226E+03  0.12101305814E+03 0.  0.
         11    1    3    3    0    0 -0.32632525035E+02 -0.29416459882E+02 -0.13201343719E+03  0.13913215804E+03  0.00000000000E+00 0. -1.
        -12    1    3    3    0    0 -0.14027116134E+02  0.48079271624E+02 -0.24212416015E+03  0.24724984383E+03  0.00000000000E+00 0.  1.
        -13    1    4    4    0    0 -0.14258936663E+02 -0.26560482777E+02 -0.10205096425E+02  0.31826412194E+02  0.00000000000E+00 0.  1.
         13    1    4    4    0    0  0.38000719144E+02  0.10850054125E+03  0.18741101300E+02  0.11648026006E+03  0.00000000000E+00 0. -1.
          2    1    1    2  501    0  0.22917858688E+02 -0.10060287021E+03  0.13716705458E+03  0.17164197215E+03  0.00000000000E+00 0. -1.
<scales pt_clust_5="13000.00000" pt_clust_6="13000.00000" pt_clust_7="13000.00000" pt_clust_8="13000.00000" pt_clust_9="97.87203"></scales>
<clustering>
<clus scale="   82.381">  5  6 -1 -1</clus>
<clus scale="   96.499">  2  5  1 -1</clus>
<clus scale="   97.872">  1  9  2 -1</clus>
<clus scale="  121.013">  7  8 -1 -1</clus>
<clus scale="   97.872">  1  5  2 -1</clus>
</clustering>
</event>
<event>
 9    1  0.4664604E-005  0.1036274E+03  0.7546771E-02  0.1275203E+00
         21   -1    0    0  501  502  0.00000000000E+00  0.00000000000E+00  0.98874331350E+02  0.98874331350E+02  0.00000000000E+00 0.  1.
         -2   -1    0    0    0  501 -0.00000000000E+00 -0.00000000000E+00 -0.35872261740E+03  0.35872261740E+03  0.00000000000E+00 0.  1.
        -24    2    1    2    0    0 -0.34076142064E+02  0.52238360357E+02 -0.25502617381E+03  0.27490060670E+03  0.81498248348E+02 0.  0.
         23    2    1    2    0    0 -0.29581762754E+02 -0.32561872036E+02  0.36708938071E+02  0.10418315094E+03  0.87012795658E+02 0.  0.
         11    1    3    3    0    0 -0.19847227544E+02  0.55685956083E+02 -0.81101472235E+02  0.10036078390E+03  0.00000000000E+00 0. -1.
        -12    1    3    3    0    0 -0.14228914520E+02 -0.34475957265E+01 -0.17392470157E+03  0.17453982280E+03  0.00000000000E+00 0.  1.
        -13    1    4    4    0    0  0.53062433986E+01 -0.51346664679E+02  0.38689716646E+02  0.64509924561E+02  0.00000000000E+00 0.  1.
         13    1    4    4    0    0 -0.34888006152E+02  0.18784792643E+02 -0.19807785750E+01  0.39673226383E+02  0.00000000000E+00 0. -1.
         -1    1    1    2    0  502  0.63657904817E+02 -0.19676488321E+02 -0.41531050313E+02  0.78513191111E+02  0.00000000000E+00 0.  1.
<scales pt_clust_5="13000.00000" pt_clust_6="13000.00000" pt_clust_7="13000.00000" pt_clust_8="13000.00000" pt_clust_9="66.62952"></scales>
<clustering>
<clus scale="   66.630">  1  9  2 -1</clus>
<clus scale="   81.498">  5  6 -1 -1</clus>
<clus scale="   87.013">  7  8 -1 -1</clus>
<clus scale="   99.042">  2  5  1 -1</clus>
<clus scale="   66.630">  1  5  2 -1</clus>
</clustering>
</event>
<event>
 9    1  0.4664604E-005  0.3304304E+03  0.7546771E-02  0.1071267E+00
          1   -1    0    0  502    0 -0.00000000000E+00  0.00000000000E+00  0.53922749070E+03  0.53922749070E+03  0.00000000000E+00 0. -1.
         21   -1    0    0  501  502  0.00000000000E+00 -0.00000000000E+00 -0.74596198984E+03  0.74596198984E+03  0.00000000000E+00 0. -1.
        -24    2    1    2    0    0  0.32072247819E+03  0.12890005651E+03  0.39199912063E+03  0.52879336638E+03  0.80504541262E+02 0.  0.
         23    2    1    2    0    0 -0.13060379388E+03 -0.19072662566E+03 -0.23916405801E+03  0.34498645394E+03  0.91554410322E+02 0.  0.
         13    1    3    3    0    0  0.94208658412E+02  0.70693724302E+02  0.16621742396E+03  0.20371820244E+03  0.00000000000E+00 0. -1.
        -14    1    3    3    0    0  0.22651381978E+03  0.58206332212E+02  0.22578169666E+03  0.32507516394E+03  0.00000000000E+00 0.  1.
        -11    1    4    4    0    0 -0.52051823886E+01 -0.28600180929E+02 -0.81105317684E+02  0.86157627808E+02  0.00000000000E+00 0. -1.
         11    1    4    4    0    0 -0.12539861149E+03 -0.16212644473E+03 -0.15805874032E+03  0.25882882613E+03  0.00000000000E+00 0.  1.
          2    1    1    2  501    0 -0.19011868431E+03  0.61826569147E+02 -0.35956956176E+03  0.41140966022E+03  0.00000000000E+00 0. -1.
<scales pt_clust_5="13000.00000" pt_clust_6="13000.00000" pt_clust_7="13000.00000" pt_clust_8="13000.00000" pt_clust_9="199.91908"></scales>
<clustering>
<clus scale="   80.505">  5  6 -1 -1</clus>
<clus scale="   91.554">  7  8 -1 -1</clus>
<clus scale="  199.919">  2  9  1 -1</clus>
<clus scale="  327.541">  1  5  2 -1</clus>
<clus scale="  199.919">  2  5  1 -1</clus>
</clustering>
</event>
<event>
 9    1  0.4664604E-005  0.9380703E+02  0.7546771E-02  0.1300855E+00
         21   -1    0    0  501  502  0.00000000000E+00  0.00000000000E+00  0.15950669862E+03  0.15950669862E+03  0.00000000000E+00 0. -1.
          1   -1    0    0  502    0 -0.00000000000E+00 -0.00000000000E+00 -0.24087284237E+03  0.24087284237E+03  0.00000000000E+00 0. -1.
         23    2    1    2    0    0  0.30425051916E+01 -0.74006318167E+01 -0.11343000493E+03  0.14572917643E+03  0.91140554397E+02 0.  0.
        -24    2    1    2    0    0  0.64215582903E+02 -0.21636346324E+02 -0.72415042277E+02  0.12704692503E+03  0.79405353991E+02 0.  0.
         13    1    4    4    0    0  0.46415039987E+02  0.25344615272E+02 -0.46968058850E+02  0.70729795790E+02  0.00000000000E+00 0. -1.
        -14    1    4    4    0    0  0.17800542915E+02 -0.46980961597E+02 -0.25446983427E+02  0.56317129243E+02  0.00000000000E+00 0.  1.
        -11    1    3    3    0    0  0.24900063320E+02 -0.23901612452E+02 -0.62133288043E+01  0.35070011205E+02  0.00000000000E+00 0.  1.
         11    1    3    3    0    0 -0.21857558128E+02  0.16500980635E+02 -0.10721667612E+03  0.11065916522E+03  0.00000000000E+00 0. -1.
          2    1    1    2  501    0 -0.67258088094E+02  0.29036978141E+02  0.10447890345E+03  0.12760343953E+03  0.00000000000E+00 0. -1.
<scales pt_clust_5="13000.00000" pt_clust_6="13000.00000" pt_clust_7="13000.00000" pt_clust_8="13000.00000" pt_clust_9="73.25842"></scales>
<clustering>
<clus scale="   73.258">  1  9  2 -1</clus>
<clus scale="   79.405">  5  6 -1 -1</clus>
<clus scale="   82.452">  1  5  2 -1</clus>
<clus scale="   91.141">  7  8 -1 -1</clus>
<clus scale="   73.258">  1  5  2 -1</clus>
</clustering>
</event>
<event>
 9    1  0.4664604E-005  0.1580184E+03  0.7546771E-02  0.1192107E+00
          1   -1    0    0  502    0 -0.00000000000E+00  0.00000000000E+00  0.29554449899E+03  0.29554449899E+03  0.00000000000E+00 0. -1.
         21   -1    0    0  501  502  0.00000000000E+00 -0.00000000000E+00 -0.22334902889E+03  0.22334902889E+03  0.00000000000E+00 0. -1.
         23    2    1    2    0    0  0.13866496771E+03 -0.36951131178E+02  0.18205031929E+03  0.24780889650E+03  0.87598921603E+02 0.  0.
        -24    2    1    2    0    0 -0.10037565916E+03 -0.59885980436E+02 -0.79911506505E+02  0.16273288425E+03  0.80215579158E+02 0.  0.
         11    1    4    4    0    0 -0.66942983094E+02 -0.50547486523E+02 -0.93357650365E+02  0.12550721996E+03  0.00000000000E+00 0. -1.
        -12    1    4    4    0    0 -0.33432676064E+02 -0.93384939135E+01  0.13446143860E+02  0.37225664293E+02  0.00000000000E+00 0.  1.
        -13    1    3    3    0    0  0.31578138507E+02 -0.11122554548E+02 -0.17503960870E+01  0.33525422259E+02  0.00000000000E+00 0.  1.
         13    1    3    3    0    0  0.10708682920E+03 -0.25828576630E+02  0.18380071538E+03  0.21428347424E+03  0.00000000000E+00 0. -1.
          2    1    1    2  501    0 -0.38289308547E+02  0.96837111614E+02 -0.29943342692E+02  0.10835174713E+03  0.00000000000E+00 0. -1.
<scales pt_clust_5="13000.00000" pt_clust_6="13000.00000" pt_clust_7="13000.00000" pt_clust_8="13000.00000" pt_clust_9="104.13211"></scales>
<clustering>
<clus scale="   80.216">  5  6 -1 -1</clus>
<clus scale="   87.599">  7  8 -1 -1</clus>
<clus scale="  104.132">  2  9  1 -1</clus>
<clus scale="  154.048">  2  5  1 -1</clus>
<clus scale="  104.132">  2  5  1 -1</clus>
</clustering>
</event>
<event>
 9    1  0.4664604E-005  0.9827107E+02  0.7546771E-02  0.1289428E+00
         21   -1    0    0  501  502  0.00000000000E+00  0.00000000000E+00  0.77362160924E+02  0.77362160924E+02  0.00000000000E+00 0. -1.
          1   -1    0    0  502    0 -0.00000000000E+00 -0.00000000000E+00 -0.50900578883E+03  0.50900578883E+03  0.00000000000E+00 0. -1.
        -24    2    1    2    0    0 -0.28032303160E+02 -0.22263444726E+02 -0.37493321532E+03  0.38565176765E+03  0.82890885814E+02 0.  0.
         23    2    1    2    0    0 -0.17630740342E+02  0.36658930479E+02 -0.95251653915E+02  0.13925260888E+03  0.93078952059E+02 0.  0.
         11    1    3    3    0    0 -0.12039386571E+02  0.31720333676E+02 -0.14780947677E+03  0.15165344645E+03  0.00000000000E+00 0. -1.
        -12    1    3    3    0    0 -0.15992916588E+02 -0.53983778402E+02 -0.22712373855E+03  0.23399832120E+03  0.00000000000E+00 0.  1.
        -13    1    4    4    0    0  0.10396004803E+02 -0.22983994923E+02 -0.23274149413E+01  0.25332939009E+02  0.00000000000E+00 0.  1.
         13    1    4    4    0    0 -0.28026745145E+02  0.59642925402E+02 -0.92924238973E+02  0.11391966987E+03  0.00000000000E+00 0. -1.
          2    1    1    2  501    0  0.45663043502E+02 -0.14395485753E+02  0.38541241322E+02  0.61463573233E+02  0.00000000000E+00 0. -1.
<scales pt_clust_5="13000.00000" pt_clust_6="13000.00000" pt_clust_7="13000.00000" pt_clust_8="13000.00000" pt_clust_9="47.87842"></scales>
<clustering>
<clus scale="   47.878">  1  9  2 -1</clus>
<clus scale="   82.891">  5  6 -1 -1</clus>
<clus scale="   88.682">  2  5  1 -1</clus>
<clus scale="   93.079">  7  8 -1 -1</clus>
<clus scale="   47.878">  1  5  2 -1</clus>
</clustering>
</event>
<event>
 9    1  0.4664604E-005  0.1358294E+03  0.7546771E-02  0.1237099E+00
          1   -1    0    0  502    0 -0.00000000000E+00  0.00000000000E+00  0.11067876970E+03  0.11067876970E+03  0.00000000000E+00 0. -1.
         21   -1    0    0  501  502  0.00000000000E+00 -0.00000000000E+00 -0.26492668036E+03  0.26492668036E+03  0.00000000000E+00 0. -1.
        -24    2    1    2    0    0  0.34029858678E+02  0.30315141314E+02 -0.87802184258E+01  0.93874657774E+02  0.81598529778E+02 0.  0.
         23    2    1    2    0    0  0.55036293627E+02  0.51004689866E+02 -0.49961146542E+02  0.12788933266E+03  0.90714349689E+02 0.  0.
         13    1    3    3    0    0  0.15774253278E+02 -0.16721692206E+02 -0.31124329381E+02  0.38693228556E+02  0.00000000000E+00 0. -1.
        -14    1    3    3    0    0  0.18255605399E+02  0.47036833520E+02  0.22344110955E+02  0.55181429217E+02  0.00000000000E+00 0.  1.
        -11    1    4    4    0    0 -0.20211773823E+02  0.77432660892E+01 -0.32977066837E+02  0.39445670332E+02  0.00000000000E+00 0.  1.
         11    1    4    4    0    0  0.75248067451E+02  0.43261423777E+02 -0.16984079705E+02  0.88443662327E+02  0.00000000000E+00 0. -1.
          2    1    1    2  501    0 -0.89066152305E+02 -0.81319831181E+02 -0.95506545696E+02  0.15384145963E+03  0.00000000000E+00 0. -1.
<scales pt_clust_5="13000.00000" pt_clust_6="13000.00000" pt_clust_7="13000.00000" pt_clust_8="13000.00000" pt_clust_9="101.09664"></scales>
<clustering>
<clus scale="   81.599">  5  6 -1 -1</clus>
<clus scale="   90.714">  7  8 -1 -1</clus>
<clus scale="   93.463">  1  5  2 -1</clus>
<clus scale="  101.097">  2  9  1 -1</clus>
<clus scale="  101.097">  2  5  1 -1</clus>
</clustering>
</event>
<event>
 9    1  0.4664604E-005  0.1590980E+03  0.7546771E-02  0.1209730E+00
          1   -1    0    0  502    0 -0.00000000000E+00  0.00000000000E+00  0.10847352862E+04  0.10847352862E+04  0.00000000000E+00 0. -1.
         21   -1    0    0  501  502  0.00000000000E+00 -0.00000000000E+00 -0.11657054235E+03  0.11657054235E+03  0.00000000000E+00 0. -1.
         23    2    1    2    0    0 -0.21882147787E+02  0.42731112831E+02  0.40060582498E+01  0.10307147178E+03  0.91120268854E+02 0.  0.
        -24    2    1    2    0    0  0.14613215913E+03 -0.93045234285E+02  0.94337821415E+03  0.96258258155E+03  0.81183420865E+02 0.  0.
         13    1    4    4    0    0  0.10135504464E+03 -0.98370316748E+02  0.79691648475E+03  0.80933642446E+03  0.00000000000E+00 0. -1.
        -14    1    4    4    0    0  0.44777114491E+02  0.53250824625E+01  0.14646172939E+03  0.15324615709E+03  0.00000000000E+00 0.  1.
        -13    1    3    3    0    0 -0.23965332804E+02 -0.25250738184E+02 -0.14181543658E+01  0.34841758237E+02  0.00000000000E+00 0.  1.
         13    1    3    3    0    0  0.20831850171E+01  0.67981851015E+02  0.54242126156E+01  0.68229713540E+02  0.00000000000E+00 0. -1.
          2    1    1    2  501    0 -0.12425001135E+03  0.50314121455E+02  0.20780471498E+02  0.13565177527E+03  0.00000000000E+00 0. -1.
<scales pt_clust_5="13000.00000" pt_clust_6="13000.00000" pt_clust_7="13000.00000" pt_clust_8="13000.00000" pt_clust_9="136.82630"></scales>
<clustering>
<clus scale="   81.183">  5  6 -1 -1</clus>
<clus scale="   91.120">  7  8 -1 -1</clus>
<clus scale="  102.994">  1  7  2 -1</clus>
<clus scale="  136.826">  2  9  1 -1</clus>
<clus scale="  136.826">  2  5  1 -1</clus>
</clustering>
</event>
<event>
 9    1  0.4664604E-005  0.2734495E+03  0.7546771E-02  0.1099321E+00
          1   -1    0    0  502    0 -0.00000000000E+00  0.00000000000E+00  0.10423258448E+03  0.10423258448E+03  0.00000000000E+00 0. -1.
         21   -1    0    0  501  502  0.00000000000E+00 -0.00000000000E+00 -0.57625362394E+03  0.57625362394E+03  0.00000000000E+00 0. -1.
        -24    2    1    2    0    0 -0.10678211488E+03  0.31092978524E+02 -0.13075327601E+03  0.19191716581E+03  0.85828817847E+02 0.  0.
         23    2    1    2    0    0 -0.81210443775E+02  0.30047548650E+02 -0.47573278110E+02  0.13454105376E+03  0.91324076768E+02 0.  0.
         13    1    3    3    0    0 -0.96504959512E+02  0.55578060614E+02 -0.11867502974E+03  0.16274486387E+03  0.00000000000E+00 0. -1.
        -14    1    3    3    0    0 -0.10277155370E+02 -0.24485082090E+02 -0.12078246263E+02  0.29172301936E+02  0.00000000000E+00 0.  1.
        -11    1    4    4    0    0  0.15397512863E+02  0.24445004514E+02 -0.78727367665E+01  0.29943640932E+02  0.00000000000E+00 0.  1.
         11    1    4    4    0    0 -0.96607956638E+02  0.56025441362E+01 -0.39700541344E+02  0.10459741282E+03  0.00000000000E+00 0. -1.
          2    1    1    2  501    0  0.18799255866E+03 -0.61140527174E+02 -0.29369448534E+03  0.35402798885E+03  0.00000000000E+00 0. -1.
<scales pt_clust_5="13000.00000" pt_clust_6="13000.00000" pt_clust_7="13000.00000" pt_clust_8="13000.00000" pt_clust_9="197.68502"></scales>
<clustering>
<clus scale="   85.829">  5  6 -1 -1</clus>
<clus scale="   91.324">  7  8 -1 -1</clus>
<clus scale="  107.992">  5  7 -1 -1</clus>
<clus scale="  197.685">  2  9  1 -1</clus>
<clus scale="  197.685">  2  5  1 -1</clus>
</clustering>
</event>
<event>
 9    1  0.4664604E-005  0.9642517E+02  0.7546771E-02  0.1294487E+00
         21   -1    0    0  501  502  0.00000000000E+00  0.00000000000E+00  0.52179475693E+02  0.52179475693E+02  0.00000000000E+00 0. -1.
          1   -1    0    0  502    0 -0.00000000000E+00 -0.00000000000E+00 -0.49806121366E+03  0.49806121366E+03  0.00000000000E+00 0. -1.
         23    2    1    2    0    0  0.32930291936E+02 -0.30530292457E+02 -0.37706164791E+03  0.39042482576E+03  0.90771996556E+02 0.  0.
        -24    2    1    2    0    0 -0.93468670553E+01 -0.84673752743E+01 -0.79757644641E+02  0.11294768550E+03  0.78973650115E+02 0.  0.
         13    1    4    4    0    0  0.16946785736E+02 -0.37287539711E+02 -0.40275902820E+02  0.57443037110E+02  0.00000000000E+00 0. -1.
        -14    1    4    4    0    0 -0.26293652791E+02  0.28820164437E+02 -0.39481741820E+02  0.55504648386E+02  0.00000000000E+00 0.  1.
        -11    1    3    3    0    0 -0.92675513940E+01  0.24501714630E+02 -0.54188431958E+02  0.60188102535E+02  0.00000000000E+00 0.  1.
         11    1    3    3    0    0  0.42197843330E+02 -0.55032007087E+02 -0.32287321596E+03  0.33023672323E+03  0.00000000000E+00 0. -1.
          2    1    1    2  501    0 -0.23583424881E+02  0.38997667731E+02  0.10937554588E+02  0.46868178095E+02  0.00000000000E+00 0. -1.
<scales pt_clust_5="13000.00000" pt_clust_6="13000.00000" pt_clust_7="13000.00000" pt_clust_8="13000.00000" pt_clust_9="45.57407"></scales>
<clustering>
<clus scale="   45.574">  1  9  2 -1</clus>
<clus scale="   78.974">  5  6 -1 -1</clus>
<clus scale="   85.411">  1  5  2 -1</clus>
<clus scale="   90.772">  7  8 -1 -1</clus>
<clus scale="   45.574">  1  5  2 -1</clus>
</clustering>
</event>
<event>
 9    1  0.4664604E-005  0.9818456E+02  0.7546771E-02  0.1291874E+00
         21   -1    0    0  501  502  0.00000000000E+00  0.00000000000E+00  0.20893932003E+02  0.20893932003E+02  0.00000000000E+00 0.  1.
          1   -1    0    0  502    0 -0.00000000000E+00 -0.00000000000E+00 -0.11071029052E+04  0.11071029052E+04  0.00000000000E+00 0. -1.
        -24    2    1    2    0    0  0.24181427284E+02  0.92728007462E+01 -0.82058081688E+03  0.82487596349E+03  0.79979696527E+02 0.  0.
         23    2    1    2    0    0 -0.46874940866E+02  0.98262631498E+01 -0.24575773907E+03  0.26741928718E+03  0.93927596120E+02 0.  0.
         13    1    3    3    0    0 -0.22737493390E+02 -0.12703503838E+02 -0.14572809087E+03  0.14803732328E+03  0.00000000000E+00 0. -1.
        -14    1    3    3    0    0  0.46918920674E+02  0.21976304585E+02 -0.67485272601E+03  0.67683864022E+03  0.00000000000E+00 0.  1.
        -13    1    4    4    0    0 -0.75579753599E+02  0.38410246586E+01 -0.18756674384E+03  0.20225809259E+03  0.00000000000E+00 0. -1.
         13    1    4    4    0    0  0.28704812733E+02  0.59852384911E+01 -0.58190995235E+02  0.65161194589E+02  0.00000000000E+00 0.  1.
          2    1    1    2  501    0  0.22693513582E+02 -0.19099063896E+02 -0.19870417277E+02  0.35701586563E+02  0.00000000000E+00 0. -1.
<scales pt_clust_5="13000.00000" pt_clust_6="13000.00000" pt_clust_7="13000.00000" pt_clust_8="13000.00000" pt_clust_9="29.66091"></scales>
<clustering>
<clus scale="   29.661">  1  9  2 -1</clus>
<clus scale="   79.980">  5  6 -1 -1</clus>
<clus scale="   84.939">  2  5  1 -1</clus>
<clus scale="   93.928">  7  8 -1 -1</clus>
<clus scale="   29.661">  1  5  2 -1</clus>
</clustering>
</event>
<event>
 9    1  0.4664604E-005  0.1590372E+03  0.7546771E-02  0.1191334E+00
          3   -1    0    0  502    0 -0.00000000000E+00  0.00000000000E+00  0.10634397662E+04  0.10634397662E+04  0.00000000000E+00 0. -1.
         21   -1    0    0  501  502  0.00000000000E+00 -0.00000000000E+00 -0.17086220157E+03  0.17086220157E+03  0.00000000000E+00 0. -1.
         23    2    1    2    0    0  0.59877616884E+02  0.10197825473E+03  0.75788357234E+03  0.77251506092E+03  0.91690330348E+02 0.  0.
        -24    2    1    2    0    0 -0.10404960437E+03 -0.15770144546E+03  0.25146541398E+03  0.32506893663E+03  0.82090761142E+02 0.  0.
         13    1    4    4    0    0 -0.59303206958E+02 -0.37631115529E+02  0.13374607968E+03  0.15106616114E+03  0.00000000000E+00 0. -1.
        -14    1    4    4    0    0 -0.44746397413E+02 -0.12007032993E+03  0.11771933430E+03  0.17400277549E+03  0.00000000000E+00 0.  1.
        -11    1    3    3    0    0 -0.22626640086E+02  0.30059010900E+02  0.13768396157E+03  0.14273185437E+03  0.00000000000E+00 0.  1.
         11    1    3    3    0    0  0.82504256970E+02  0.71919243833E+02  0.62019961077E+03  0.62978320655E+03  0.00000000000E+00 0. -1.
          4    1    1    2  501    0  0.44171987488E+02  0.55723190727E+02 -0.11677142168E+03  0.13671797023E+03  0.00000000000E+00 0. -1.
<scales pt_clust_5="13000.00000" pt_clust_6="13000.00000" pt_clust_7="13000.00000" pt_clust_8="13000.00000" pt_clust_9="71.10723"></scales>
<clustering>
<clus scale="   71.107">  2  9  1 -1</clus>
<clus scale="   82.091">  5  6 -1 -1</clus>
<clus scale="   91.690">  7  8 -1 -1</clus>
<clus scale="  153.703">  2  5  1 -1</clus>
<clus scale="   71.107">  2  5  1 -1</clus>
</clustering>
</event>
<event>
 9    1  0.4664604E-005  0.1687282E+03  0.7546771E-02  0.1197114E+00
         21   -1    0    0  501  502  0.00000000000E+00  0.00000000000E+00  0.53827467089E+03  0.53827467089E+03  0.00000000000E+00 0. -1.
          3   -1    0    0  502    0 -0.00000000000E+00 -0.00000000000E+00 -0.17752902880E+03  0.17752902880E+03  0.00000000000E+00 0. -1.
         23    2    1    2    0    0  0.62543893079E+02  0.22615138106E+02 -0.29743658589E+02  0.11722023187E+03  0.91829812701E+02 0.  0.
        -24    2    1    2    0    0 -0.73344419725E+01 -0.16044089855E+03 -0.13701234552E+01  0.17953951783E+03  0.80233940822E+02 0.  0.
         11    1    4    4    0    0 -0.13835836360E+02 -0.16854491548E+03 -0.20932820408E+01  0.16912480815E+03  0.00000000000E+00 0. -1.
        -12    1    4    4    0    0  0.65013943877E+01  0.81040169334E+01  0.72315858564E+00  0.10414709683E+02  0.00000000000E+00 0.  1.
        -11    1    3    3    0    0 -0.32224743282E+01 -0.27611346752E+02 -0.19232407465E+02  0.33803199658E+02  0.00000000000E+00 0.  1.
         11    1    3    3    0    0  0.65766367407E+02  0.50226484857E+02 -0.10511251125E+02  0.83417032213E+02  0.00000000000E+00 0. -1.
          4    1    1    2  501    0 -0.55209451106E+02  0.13782576044E+03  0.39185942414E+03  0.41904394998E+03  0.00000000000E+00 0. -1.
<scales pt_clust_5="13000.00000" pt_clust_6="13000.00000" pt_clust_7="13000.00000" pt_clust_8="13000.00000" pt_clust_9="148.43081"></scales>
<clustering>
<clus scale="   80.234">  5  6 -1 -1</clus>
<clus scale="   91.830">  7  8 -1 -1</clus>
<clus scale="  113.384">  2  7  1 -1</clus>
<clus scale="  148.431">  1  9  2 -1</clus>
<clus scale="  148.431">  1  5  2 -1</clus>
</clustering>
</event>
<event>
 9    1  0.4664604E-005  0.9132935E+02  0.7546771E-02  0.1305298E+00
         21   -1    0    0  501  502  0.00000000000E+00  0.00000000000E+00  0.13559349235E+03  0.13559349235E+03  0.00000000000E+00 0. -1.
         -4   -1    0    0    0  501 -0.00000000000E+00 -0.00000000000E+00 -0.29526341308E+03  0.29526341308E+03  0.00000000000E+00 0.  1.
        -24    2    1    2    0    0  0.27021656054E+01 -0.79926947367E+01 -0.23655629742E+03  0.25059356706E+03  0.82262197489E+02 0.  0.
         23    2    1    2    0    0  0.12053187166E+01 -0.49759514551E+02  0.38668430078E+02  0.11090054175E+03  0.91248126530E+02 0.  0.
         13    1    3    3    0    0  0.74981031353E+01 -0.31154546203E+02 -0.34226268743E+02  0.46885656355E+02  0.00000000000E+00 0. -1.
        -14    1    3    3    0    0 -0.47959375299E+01  0.23161851467E+02 -0.20233002868E+03  0.20370791071E+03  0.00000000000E+00 0.  1.
        -11    1    4    4    0    0 -0.44469762446E+02 -0.18969229952E+02  0.12611736356E+02  0.49964460878E+02  0.00000000000E+00 0.  1.
         11    1    4    4    0    0  0.45675081162E+02 -0.30790284599E+02  0.26056693722E+02  0.60936080876E+02  0.00000000000E+00 0. -1.
         -3    1    1    2    0  502 -0.39074843220E+01  0.57752209288E+02  0.38217946608E+02  0.69362796616E+02  0.00000000000E+00 0.  1.
<scales pt_clust_5="13000.00000" pt_clust_6="13000.00000" pt_clust_7="13000.00000" pt_clust_8="13000.00000" pt_clust_9="57.88425"></scales>
<clustering>
<clus scale="   57.884">  1  9  2 -1</clus>
<clus scale="   82.262">  5  6 -1 -1</clus>
<clus scale="   82.352">  2  5  1 -1</clus>
<clus scale="   91.248">  7  8 -1 -1</clus>
<clus scale="   57.884">  1  5  2 -1</clus>
</clustering>
</event>
<event>
 9    1  0.4664604E-005  0.1140090E+03  0.7546771E-02  0.1257493E+00
         21   -1    0    0  501  502  0.00000000000E+00  0.00000000000E+00  0.65675058088E+03  0.65675058088E+03  0.00000000000E+00 0. -1.
          1   -1    0    0  502    0 -0.00000000000E+00 -0.00000000000E+00 -0.53013109568E+02  0.53013109568E+02  0.00000000000E+00 0. -1.
         23    2    1    2    0    0 -0.40199307852E+02  0.50159937837E+02  0.58652456687E+02  0.12623051201E+03  0.91444123770E+02 0.  0.
        -24    2    1    2    0    0  0.18516428379E+02 -0.96162571883E+02  0.49948864060E+03  0.51522930647E+03  0.79888909148E+02 0.  0.
         13    1    4    4    0    0  0.49017849288E+01 -0.96999353395E+02  0.48746456337E+03  0.49704587575E+03  0.00000000000E+00 0. -1.
        -14    1    4    4    0    0  0.13614643450E+02  0.83678151247E+00  0.12024077226E+02  0.18183430719E+02  0.00000000000E+00 0.  1.
        -13    1    3    3    0    0  0.14831364122E+02  0.33748439832E+02  0.58093022949E+02  0.68802077499E+02  0.00000000000E+00 0. -1.
         13    1    3    3    0    0 -0.55030671974E+02  0.16411498005E+02  0.55943373826E+00  0.57428434514E+02  0.00000000000E+00 0.  1.
          2    1    1    2  501    0  0.21682879473E+02  0.46002634046E+02  0.45596374028E+02  0.68303871969E+02  0.00000000000E+00 0. -1.
<scales pt_clust_5="13000.00000" pt_clust_6="13000.00000" pt_clust_7="13000.00000" pt_clust_8="13000.00000" pt_clust_9="50.85658"></scales>
<clustering>
<clus scale="   50.857">  1  9  2 -1</clus>
<clus scale="   79.889">  5  6 -1 -1</clus>
<clus scale="   91.444">  7  8 -1 -1</clus>
<clus scale="  104.968">  1  5  2 -1</clus>
<clus scale="   50.857">  1  5  2 -1</clus>
</clustering>
</event>
<event>
 9    1  0.4664604E-005  0.1019444E+03  0.7546771E-02  0.1283310E+00
         -4   -1    0    0    0  501 -0.00000000000E+00  0.00000000000E+00  0.39640455011E+03  0.39640455011E+03  0.00000000000E+00 0.  1.
         21   -1    0    0  501  502  0.00000000000E+00 -0.00000000000E+00 -0.11763770487E+03  0.11763770487E+03  0.00000000000E+00 0. -1.
         23    2    1    2    0    0  0.13016248593E+02  0.25824265605E+02  0.20091121096E+03  0.22413755306E+03  0.95057943283E+02 0.  0.
        -24    2    1    2    0    0  0.14941920188E+01 -0.10859893702E+03 -0.43405259004E+02  0.14237028778E+03  0.81174630287E+02 0.  0.
         13    1    4    4    0    0 -0.21409536977E+02 -0.26672963369E+02 -0.45929584854E+02  0.57265539492E+02  0.00000000000E+00 0. -1.
        -14    1    4    4    0    0  0.22903728996E+02 -0.81925973650E+02  0.25243258502E+01  0.85104748289E+02  0.00000000000E+00 0.  1.
        -13    1    3    3    0    0 -0.35774814595E+02 -0.15151586498E+00  0.38396886175E+02  0.52480293295E+02  0.00000000000E+00 0. -1.
         13    1    3    3    0    0  0.48791063188E+02  0.25975781470E+02  0.16251432479E+03  0.17165725977E+03  0.00000000000E+00 0.  1.
         -3    1    1    2    0  502 -0.14510440611E+02  0.82774671414E+02  0.12126089328E+03  0.14753441414E+03  0.00000000000E+00 0.  1.
<scales pt_clust_5="13000.00000" pt_clust_6="13000.00000" pt_clust_7="13000.00000" pt_clust_8="13000.00000" pt_clust_9="84.03693"></scales>
<clustering>
<clus scale="   81.175">  5  6 -1 -1</clus>
<clus scale="   84.037">  2  9  1 -1</clus>
<clus scale="   89.140">  2  5  1 -1</clus>
<clus scale="   95.058">  7  8 -1 -1</clus>
<clus scale="   84.037">  2  5  1 -1</clus>
</clustering>
</event>
<event>
 9    1  0.4664604E-005  0.1122409E+03  0.7546771E-02  0.1258878E+00
          1   -1    0    0  502    0 -0.00000000000E+00  0.00000000000E+00  0.25648126779E+03  0.25648126779E+03  0.00000000000E+00 0. -1.
         21   -1    0    0  501  502  0.00000000000E+00 -0.00000000000E+00 -0.68719726484E+02  0.68719726484E+02  0.00000000000E+00 0.  1.
         23    2    1    2    0    0  0.96898319522E+01 -0.72673629854E+02  0.16490129527E+03  0.20178824339E+03  0.90281275289E+02 0.  0.
        -24    2    1    2    0    0 -0.68426668481E+01  0.52633760362E+02  0.27005377436E+02  0.10275155943E+03  0.83734447719E+02 0.  0.
         11    1    4    4    0    0  0.30348854191E+02  0.46026517117E+02  0.33371589782E+02  0.64444986098E+02  0.00000000000E+00 0. -1.
        -12    1    4    4    0    0 -0.37191521039E+02  0.66072432446E+01 -0.63662123460E+01  0.38306573328E+02  0.00000000000E+00 0.  1.
        -11    1    3    3    0    0  0.15028418941E+02 -0.33276374455E+02  0.15708143849E+03  0.16126918115E+03  0.00000000000E+00 0. -1.
         11    1    3    3    0    0 -0.53385869891E+01 -0.39397255399E+02  0.78198567815E+01  0.40519062232E+02  0.00000000000E+00 0.  1.
          2    1    1    2  501    0 -0.28471651041E+01  0.20039869492E+02 -0.41451313977E+01  0.20661191464E+02  0.00000000000E+00 0. -1.
<scales pt_clust_5="13000.00000" pt_clust_6="13000.00000" pt_clust_7="13000.00000" pt_clust_8="13000.00000" pt_clust_9="20.24111"></scales>
<clustering>
<clus scale="   20.241">  2  9  1 -1</clus>
<clus scale="   83.734">  5  6 -1 -1</clus>
<clus scale="   90.281">  7  8 -1 -1</clus>
<clus scale="  107.046">  2  5  1 -1</clus>
<clus scale="   20.241">  2  5  1 -1</clus>
</clustering>
</event>
<event>
 9    1  0.4664604E-005  0.1015006E+03  0.7546771E-02  0.1282703E+00
          1   -1    0    0  502    0 -0.00000000000E+00  0.00000000000E+00  0.17385884539E+04  0.17385884539E+04  0.00000000000E+00 0. -1.
         21   -1    0    0  501  502  0.00000000000E+00 -0.00000000000E+00 -0.16272866786E+02  0.16272866786E+02  0.00000000000E+00 0.  1.
        -24    2    1    2    0    0 -0.18680704249E+02  0.39534766618E+02  0.14092553960E+04  0.14121426788E+04  0.78956998668E+02 0.  0.
         23    2    1    2    0    0  0.15892857586E+02 -0.59876271118E+02  0.29715298952E+03  0.31674581075E+03  0.90500047963E+02 0.  0.
         11    1    3    3    0    0  0.18707699929E+02  0.12611241345E+02  0.12235042872E+03  0.12441321815E+03  0.00000000000E+00 0. -1.
        -12    1    3    3    0    0 -0.37388404178E+02  0.26923525274E+02  0.12869049673E+04  0.12877294607E+04  0.00000000000E+00 0.  1.
        -11    1    4    4    0    0 -0.32572297822E+02 -0.27747522034E+02  0.19075774010E+03  0.19549781322E+03  0.00000000000E+00 0.  1.
         11    1    4    4    0    0  0.48465155408E+02 -0.32128749084E+02  0.10639524942E+03  0.12124799753E+03  0.00000000000E+00 0. -1.
          2    1    1    2  501    0  0.27878466629E+01  0.20341504500E+02  0.15907201562E+02  0.25972831110E+02  0.00000000000E+00 0. -1.
<scales pt_clust_5="13000.00000" pt_clust_6="13000.00000" pt_clust_7="13000.00000" pt_clust_8="13000.00000" pt_clust_9="20.53166"></scales>
<clustering>
<clus scale="   20.532">  2  9  1 -1</clus>
<clus scale="   78.957">  5  6 -1 -1</clus>
<clus scale="   90.500">  7  8 -1 -1</clus>
<clus scale="   91.358">  1  5  2 -1</clus>
<clus scale="   20.532">  2  5  1 -1</clus>
</clustering>
</event>
<event>
 9    1  0.4664604E-005  0.3006297E+03  0.7546771E-02  0.1085260E+00
         21   -1    0    0  501  502  0.00000000000E+00  0.00000000000E+00  0.51580245779E+03  0.51580245779E+03  0.00000000000E+00 0. -1.
          1   -1    0    0  502    0 -0.00000000000E+00 -0.00000000000E+00 -0.59759745563E+03  0.59759745563E+03  0.00000000000E+00 0. -1.
        -24    2    1    2    0    0 -0.23589649181E+03  0.12433221673E+03 -0.16617956756E+03  0.32454072594E+03  0.81273483732E+02 0.  0.
         23    2    1    2    0    0  0.28639146916E+03 -0.28426754613E+03  0.30346560256E+03  0.51295059523E+03  0.90547389896E+02 0.  0.
         13    1    3    3    0    0 -0.99817963062E+01  0.33893840859E+02 -0.18374141782E+02  0.39825089979E+02  0.00000000000E+00 0. -1.
        -14    1    3    3    0    0 -0.22591469550E+03  0.90438375876E+02 -0.14780542578E+03  0.28471563596E+03  0.00000000000E+00 0.  1.
        -11    1    4    4    0    0  0.21857971416E+02 -0.25889371066E+02 -0.10868496030E+01  0.33900024936E+02  0.00000000000E+00 0.  1.
         11    1    4    4    0    0  0.26453349775E+03 -0.25837817507E+03  0.30455245216E+03  0.47905057029E+03  0.00000000000E+00 0. -1.
          2    1    1    2  501    0 -0.50494977355E+02  0.15993532940E+03 -0.21908103284E+03  0.27590859225E+03  0.00000000000E+00 0. -1.
<scales pt_clust_5="13000.00000" pt_clust_6="13000.00000" pt_clust_7="13000.00000" pt_clust_8="13000.00000" pt_clust_9="167.71726"></scales>
<clustering>
<clus scale="   81.273">  5  6 -1 -1</clus>
<clus scale="   90.547">  7  8 -1 -1</clus>
<clus scale="  167.717">  1  9  2 -1</clus>
<clus scale="  297.968">  2  5  1 -1</clus>
<clus scale="  167.717">  1  5  2 -1</clus>
</clustering>
</event>
<event>
 9    1  0.4664604E-005  0.4578276E+03  0.7546771E-02  0.1025413E+00
          1   -1    0    0  502    0 -0.00000000000E+00  0.00000000000E+00  0.23825162596E+03  0.23825162596E+03  0.00000000000E+00 0. -1.
         21   -1    0    0  501  502  0.00000000000E+00 -0.00000000000E+00 -0.13515381604E+04  0.13515381604E+04  0.00000000000E+00 0.  1.
        -24    2    1    2    0    0 -0.15384138823E+03 -0.25651602163E+03 -0.85547655050E+03  0.91006248947E+03  0.83102131097E+02 0.  0.
         23    2    1    2    0    0 -0.56869776722E+02 -0.88446378779E+02 -0.23757259708E+03  0.27499552820E+03  0.90138050924E+02 0.  0.
         13    1    3    3    0    0  0.27840091404E+01 -0.50820300006E+02 -0.11535985409E+03  0.12608865744E+03  0.00000000000E+00 0. -1.
        -14    1    3    3    0    0 -0.15662539737E+03 -0.20569572163E+03 -0.74011669641E+03  0.78397383203E+03  0.00000000000E+00 0.  1.
        -13    1    4    4    0    0  0.16643800508E+02 -0.23110302324E+02 -0.11159874772E+03  0.11517544296E+03  0.00000000000E+00 0.  1.
         13    1    4    4    0    0 -0.73513577230E+02 -0.65336076455E+02 -0.12597384936E+03  0.15982008524E+03  0.00000000000E+00 0. -1.
          2    1    1    2  501    0  0.21071116495E+03  0.34496240041E+03 -0.20237386826E+02  0.40473176865E+03  0.00000000000E+00 0. -1.
<scales pt_clust_5="13000.00000" pt_clust_6="13000.00000" pt_clust_7="13000.00000" pt_clust_8="13000.00000" pt_clust_9="404.22570"></scales>
<clustering>
<clus scale="   83.102">  5  6 -1 -1</clus>
<clus scale="   90.138">  7  8 -1 -1</clus>
<clus scale="   96.635">  5  7 -1 -1</clus>
<clus scale="  404.226">  2  9  1 -1</clus>
<clus scale="  404.226">  2  5  1 -1</clus>
</clustering>
</event>
<event>
 9    1  0.4664604E-005  0.9940283E+02  0.7546771E-02  0.1287422E+00
         -2   -1    0    0    0  501 -0.00000000000E+00  0.00000000000E+00  0.56556604155E+03  0.56556604155E+03  0.00000000000E+00 0.  1.
         21   -1    0    0  501  502  0.00000000000E+00 -0.00000000000E+00 -0.61634893623E+02  0.61634893623E+02  0.00000000000E+00 0.  1.
        -24    2    1    2    0    0  0.34351804783E+02  0.22815726990E+02  0.41398661325E+03  0.42368787563E+03  0.80161687304E+02 0.  0.
         23    2    1    2    0    0 -0.33148306245E+02 -0.23171043581E+01  0.12764397134E+03  0.16058417110E+03  0.91597562249E+02 0.  0.
         11    1    3    3    0    0 -0.21320180813E+02  0.21237481453E+02  0.88646418233E+02  0.93614999834E+02  0.00000000000E+00 0. -1.
        -12    1    3    3    0    0  0.55671985596E+02  0.15782455374E+01  0.32534019502E+03  0.33007287579E+03  0.00000000000E+00 0.  1.
        -13    1    4    4    0    0 -0.34599011672E+02 -0.35170249943E+02  0.30446622978E+02  0.57974433507E+02  0.00000000000E+00 0. -1.
         13    1    4    4    0    0  0.14507054270E+01  0.32853145585E+02  0.97197348359E+02  0.10260973759E+03  0.00000000000E+00 0.  1.
         -1    1    1    2    0  502 -0.12034985372E+01 -0.20498622632E+02 -0.37699436662E+02  0.42928888445E+02  0.00000000000E+00 0.  1.
<scales pt_clust_5="13000.00000" pt_clust_6="13000.00000" pt_clust_7="13000.00000" pt_clust_8="13000.00000" pt_clust_9="20.53392"></scales>
<clustering>
<clus scale="   20.534">  2  9  1 -1</clus>
<clus scale="   80.162">  5  6 -1 -1</clus>
<clus scale="   88.976">  1  5  2 -1</clus>
<clus scale="   91.598">  7  8 -1 -1</clus>
<clus scale="   20.534">  2  5  1 -1</clus>
</clustering>
</event>
<event>
 9    1  0.4664604E-005  0.1300939E+03  0.7546771E-02  0.1236468E+00
         21   -1    0    0  501  502  0.00000000000E+00  0.00000000000E+00  0.68471744276E+02  0.68471744276E+02  0.00000000000E+00 0.  1.
          1   -1    0    0  502    0 -0.00000000000E+00 -0.00000000000E+00 -0.47755298856E+03  0.47755298856E+03  0.00000000000E+00 0. -1.
        -24    2    1    2    0    0  0.11527983849E+02 -0.71283086512E+02 -0.21468426984E+03  0.24021019125E+03  0.79983919796E+02 0.  0.
         23    2    1    2    0    0  0.55855641566E+02 -0.32200819418E+02 -0.10532150301E+03  0.15355190214E+03  0.91262381024E+02 0.  0.
         11    1    3    3    0    0 -0.24309618470E+02 -0.17178601284E+01 -0.87942532397E+02  0.91256767409E+02  0.00000000000E+00 0. -1.
        -12    1    3    3    0    0  0.35837602319E+02 -0.69565226383E+02 -0.12674173745E+03  0.14895342384E+03  0.00000000000E+00 0.  1.
        -11    1    4    4    0    0 -0.11952713577E+02  0.21155266751E+02 -0.14582073062E+02  0.28338128518E+02  0.00000000000E+00 0.  1.
         11    1    4    4    0    0  0.67808355143E+02 -0.53356086169E+02 -0.90739429947E+02  0.12521377363E+03  0.00000000000E+00 0. -1.
          2    1    1    2  501    0 -0.67383625414E+02  0.10348390593E+03 -0.89075471435E+02  0.15226263945E+03  0.00000000000E+00 0. -1.
<scales pt_clust_5="13000.00000" pt_clust_6="13000.00000" pt_clust_7="13000.00000" pt_clust_8="13000.00000" pt_clust_9="92.71250"></scales>
<clustering>
<clus scale="   79.984">  5  6 -1 -1</clus>
<clus scale="   91.262">  7  8 -1 -1</clus>
<clus scale="  107.757">  2  5  1 -1</clus>
<clus scale="   92.713">  1  9  2 -1</clus>
<clus scale="   92.713">  1  5  2 -1</clus>
</clustering>
</event>
<event>
 9    1  0.4664604E-005  0.1022093E+03  0.7546771E-02  0.1281516E+00
         21   -1    0    0  501  502  0.00000000000E+00  0.00000000000E+00  0.13822399440E+03  0.13822399440E+03  0.00000000000E+00 0. -1.
          3   -1    0    0  502    0 -0.00000000000E+00 -0.00000000000E+00 -0.29553464659E+03  0.29553464659E+03  0.00000000000E+00 0. -1.
         23    2    1    2    0    0 -0.29430729846E+02  0.23158578867E+02 -0.19313224857E+03  0.21720313585E+03  0.92057857612E+02 0.  0.
        -24    2    1    2    0    0  0.37969300189E+02 -0.49511644531E+02 -0.59273575474E+02  0.11750762297E+03  0.80010086904E+02 0.  0.
         11    1    4    4    0    0  0.16349983090E+02 -0.40376662309E+02  0.97188368447E+01  0.44632416424E+02  0.00000000000E+00 0. -1.
        -12    1    4    4    0    0  0.21619317099E+02 -0.91349822220E+01 -0.68992412319E+02  0.72875206549E+02  0.00000000000E+00 0.  1.
        -13    1    3    3    0    0 -0.50287352122E+02 -0.14329903495E+02 -0.74224973252E+02  0.90793780469E+02  0.00000000000E+00 0.  1.
         13    1    3    3    0    0  0.20856622276E+02  0.37488482362E+02 -0.11890727532E+03  0.12640935538E+03  0.00000000000E+00 0. -1.
          4    1    1    2  501    0 -0.85385703428E+01  0.26353065664E+02  0.95095171857E+02  0.99047882178E+02  0.00000000000E+00 0. -1.
<scales pt_clust_5="13000.00000" pt_clust_6="13000.00000" pt_clust_7="13000.00000" pt_clust_8="13000.00000" pt_clust_9="27.70183"></scales>
<clustering>
<clus scale="   27.702">  1  9  2 -1</clus>
<clus scale="   80.010">  5  6 -1 -1</clus>
<clus scale="   91.508">  1  5  2 -1</clus>
<clus scale="   92.058">  7  8 -1 -1</clus>
<clus scale="   27.702">  1  5  2 -1</clus>
</clustering>
</event>
<event>
 9    1  0.4664604E-005  0.1004012E+03  0.7546771E-02  0.1285122E+00
          1   -1    0    0  502    0 -0.00000000000E+00  0.00000000000E+00  0.15566799811E+03  0.15566799811E+03  0.00000000000E+00 0. -1.
         21   -1    0    0  501  502  0.00000000000E+00 -0.00000000000E+00 -0.13444467148E+03  0.13444467148E+03  0.00000000000E+00 0.  1.
         23    2    1    2    0    0  0.43794961989E+02  0.18829195932E+02  0.96762420765E+02  0.14165796810E+03  0.91823071936E+02 0.  0.
        -24    2    1    2    0    0 -0.17891407054E+02 -0.18095722819E+02 -0.19418482598E+02  0.86640017299E+02  0.80509983856E+02 0.  0.
         13    1    4    4    0    0  0.22485591114E+02 -0.29388662454E+02  0.61800784116E+01  0.37516511801E+02  0.00000000000E+00 0. -1.
        -14    1    4    4    0    0 -0.40376998168E+02  0.11292939635E+02 -0.25598561009E+02  0.49123505498E+02  0.00000000000E+00 0.  1.
        -13    1    3    3    0    0 -0.17227318259E+02 -0.10556255738E+02 -0.36572675650E+01  0.20532672394E+02  0.00000000000E+00 0.  1.
         13    1    3    3    0    0  0.61022280248E+02  0.29385451670E+02  0.10041968833E+03  0.12112529571E+03  0.00000000000E+00 0. -1.
          2    1    1    2  501    0 -0.25903554935E+02 -0.73347311293E+00 -0.56120611538E+02  0.61814684182E+02  0.00000000000E+00 0. -1.
<scales pt_clust_5="13000.00000" pt_clust_6="13000.00000" pt_clust_7="13000.00000" pt_clust_8="13000.00000" pt_clust_9="25.91394"></scales>
<clustering>
<clus scale="   25.914">  2  9  1 -1</clus>
<clus scale="   80.510">  5  6 -1 -1</clus>
<clus scale="   90.171">  2  5  1 -1</clus>
<clus scale="   91.823">  7  8 -1 -1</clus>
<clus scale="   25.914">  2  5  1 -1</clus>
</clustering>
</event>
<event>
 9    1  0.4664604E-005  0.1478052E+03  0.7546771E-02  0.1204120E+00
          1   -1    0    0  502    0 -0.00000000000E+00  0.00000000000E+00  0.18613403471E+03  0.18613403471E+03  0.00000000000E+00 0. -1.
         21   -1    0    0  501  502  0.00000000000E+00 -0.00000000000E+00 -0.17057611572E+03  0.17057611572E+03  0.00000000000E+00 0.  1.
        -24    2    1    2    0    0  0.11118787738E+03 -0.47671970538E+02  0.48829436485E+02  0.15590726660E+03  0.85366275895E+02 0.  0.
         23    2    1    2    0    0 -0.88323245216E+02  0.73302298641E+02  0.90703657710E+01  0.14628187686E+03  0.90232440574E+02 0.  0.
         13    1    3    3    0    0  0.45487561271E+02 -0.65278234323E+02  0.32573486347E+02  0.85973240718E+02  0.00000000000E+00 0. -1.
        -14    1    3    3    0    0  0.65700316109E+02  0.17606263785E+02  0.16255950138E+02  0.69934025883E+02  0.00000000000E+00 0.  1.
        -11    1    4    4    0    0 -0.88466264962E+02  0.39108614703E+02  0.35531694923E+02  0.10304496652E+03  0.00000000000E+00 0. -1.
         11    1    4    4    0    0  0.14301974530E+00  0.34193683938E+02 -0.26461329152E+02  0.43236910347E+02  0.00000000000E+00 0.  1.
          2    1    1    2  501    0 -0.22864632164E+02 -0.25630328103E+02 -0.42341883257E+02  0.54521006965E+02  0.00000000000E+00 0. -1.
<scales pt_clust_5="13000.00000" pt_clust_6="13000.00000" pt_clust_7="13000.00000" pt_clust_8="13000.00000" pt_clust_9="34.34684"></scales>
<clustering>
<clus scale="   34.347">  2  9  1 -1</clus>
<clus scale="   85.366">  5  6 -1 -1</clus>
<clus scale="   90.232">  7  8 -1 -1</clus>
<clus scale="  144.886">  1  5  2 -1</clus>
<clus scale="   34.347">  2  5  1 -1</clus>
</clustering>
</event>
<event>
 9    1  0.4664604E-005  0.1314095E+03  0.7546771E-02  0.1227969E+00
         21   -1    0    0  501  502  0.00000000000E+00  0.00000000000E+00  0.42482637817E+03  0.42482637817E+03  0.00000000000E+00 0. -1.
          1   -1    0    0  502    0 -0.00000000000E+00 -0.00000000000E+00 -0.82583034966E+02  0.82583034966E+02  0.00000000000E+00 0. -1.
         23    2    1    2    0    0  0.33698962690E+02 -0.11059343480E+03  0.27485127284E+02  0.15031731634E+03  0.92050722238E+02 0.  0.
        -24    2    1    2    0    0 -0.34761331238E+02  0.41261967797E+02  0.16300811459E+03  0.19025063253E+03  0.81931420219E+02 0.  0.
         13    1    4    4    0    0 -0.51622785521E+02  0.28365300073E+02  0.56402782143E+02  0.81552290382E+02  0.00000000000E+00 0. -1.
        -14    1    4    4    0    0  0.16861454283E+02  0.12896667725E+02  0.10660533245E+03  0.10869834215E+03  0.00000000000E+00 0.  1.
        -11    1    3    3    0    0  0.68773755728E+01 -0.19215867380E+02 -0.32057222969E+02  0.38002807770E+02  0.00000000000E+00 0.  1.
         11    1    3    3    0    0  0.26821587117E+02 -0.91377567419E+02  0.59542350253E+02  0.11231450857E+03  0.00000000000E+00 0. -1.
          2    1    1    2  501    0  0.10623685486E+01  0.69331467001E+02  0.15175010132E+03  0.16684146426E+03  0.00000000000E+00 0. -1.
<scales pt_clust_5="13000.00000" pt_clust_6="13000.00000" pt_clust_7="13000.00000" pt_clust_8="13000.00000" pt_clust_9="69.33961"></scales>
<clustering>
<clus scale="   69.340">  1  9  2 -1</clus>
<clus scale="   81.931">  5  6 -1 -1</clus>
<clus scale="   92.051">  7  8 -1 -1</clus>
<clus scale="  124.531">  1  5  2 -1</clus>
<clus scale="   69.340">  1  5  2 -1</clus>
</clustering>
</event>
<event>
 9    1  0.4664604E-005  0.1116056E+03  0.7546771E-02  0.1260884E+00
         21   -1    0    0  501  502  0.00000000000E+00  0.00000000000E+00  0.15180072810E+03  0.15180072810E+03  0.00000000000E+00 0.  1.
          1   -1    0    0  502    0 -0.00000000000E+00 -0.00000000000E+00 -0.34048780246E+03  0.34048780246E+03  0.00000000000E+00 0. -1.
         23    2    1    2    0    0 -0.61678312078E+02 -0.83721962488E+01 -0.21829613597E+03  0.24457631143E+03  0.91049773655E+02 0.  0.
        -24    2    1    2    0    0  0.73885220287E+02 -0.82291374347E+02 -0.26433561711E+02  0.14042910177E+03  0.82405724141E+02 0.  0.
         13    1    4    4    0    0  0.12163410736E+02 -0.42869830787E+02 -0.46588946543E+02  0.64469379495E+02  0.00000000000E+00 0. -1.
        -14    1    4    4    0    0  0.61721809551E+02 -0.39421543560E+02  0.20155384831E+02  0.75959722278E+02  0.00000000000E+00 0.  1.
        -13    1    3    3    0    0  0.36345520786E+01  0.32009889347E+02 -0.82597846024E+02  0.88658034901E+02  0.00000000000E+00 0.  1.
         13    1    3    3    0    0 -0.65312864156E+02 -0.40382085596E+02 -0.13569828995E+03  0.15591827653E+03  0.00000000000E+00 0. -1.
          2    1    1    2  501    0 -0.12206908209E+02  0.90663570596E+02  0.56042623316E+02  0.10728311736E+03  0.00000000000E+00 0. -1.
<scales pt_clust_5="13000.00000" pt_clust_6="13000.00000" pt_clust_7="13000.00000" pt_clust_8="13000.00000" pt_clust_9="91.48165"></scales>
<clustering>
<clus scale="   82.406">  5  6 -1 -1</clus>
<clus scale="   91.050">  7  8 -1 -1</clus>
<clus scale="   91.482">  1  9  2 -1</clus>
<clus scale="  104.673">  1  5  2 -1</clus>
<clus scale="   91.482">  1  5  2 -1</clus>
</clustering>
</event>
<event>
 9    1  0.4664604E-005  0.1562294E+03  0.7546771E-02  0.1217135E+00
         21   -1    0    0  501  502  0.00000000000E+00  0.00000000000E+00  0.10030579126E+04  0.10030579126E+04  0.00000000000E+00 0. -1.
          3   -1    0    0  502    0 -0.00000000000E+00 -0.00000000000E+00 -0.52949186951E+02  0.52949186951E+02  0.00000000000E+00 0. -1.
        -24    2    1    2    0    0 -0.19846463429E+02 -0.41937619000E+02  0.19382134283E+03  0.21495580034E+03  0.80539662076E+02 0.  0.
         23    2    1    2    0    0 -0.32313626543E+02  0.15190302788E+03  0.19086333514E+03  0.26267649008E+03  0.91931634380E+02 0.  0.
         11    1    3    3    0    0 -0.44650349692E+02 -0.49444119857E+02  0.13007979786E+03  0.14614762580E+03  0.00000000000E+00 0. -1.
        -12    1    3    3    0    0  0.24803886263E+02  0.75065008569E+01  0.63741544966E+02  0.68808174540E+02  0.00000000000E+00 0.  1.
        -13    1    4    4    0    0 -0.29600769143E+02  0.16383170940E+02  0.82401492439E+02  0.89076482755E+02  0.00000000000E+00 0.  1.
         13    1    4    4    0    0 -0.27128574007E+01  0.13551985694E+03  0.10846184271E+03  0.17360000733E+03  0.00000000000E+00 0. -1.
          4    1    1    2  501    0  0.52160089972E+02 -0.10996540888E+03  0.56542404765E+03  0.57837480909E+03  0.00000000000E+00 0. -1.
<scales pt_clust_5="13000.00000" pt_clust_6="13000.00000" pt_clust_7="13000.00000" pt_clust_8="13000.00000" pt_clust_9="126.31783"></scales>
<clustering>
<clus scale="   80.540">  5  6 -1 -1</clus>
<clus scale="   91.932">  7  8 -1 -1</clus>
<clus scale="   92.948">  2  5  1 -1</clus>
<clus scale="  126.318">  1  9  2 -1</clus>
<clus scale="  126.318">  1  5  2 -1</clus>
</clustering>
</event>
<event>
 9    1  0.4664604E-005  0.9451959E+02  0.7546771E-02  0.1295053E+00
         21   -1    0    0  501  502  0.00000000000E+00  0.00000000000E+00  0.14206871487E+03  0.14206871487E+03  0.00000000000E+00 0. -1.
          3   -1    0    0  502    0 -0.00000000000E+00 -0.00000000000E+00 -0.28200131344E+03  0.28200131344E+03  0.00000000000E+00 0. -1.
        -24    2    1    2    0    0  0.39913717495E+02  0.19066268024E+02 -0.20474048431E+03  0.22419010086E+03  0.79911876372E+02 0.  0.
         23    2    1    2    0    0  0.86126519646E+00  0.30358663075E+01  0.10722941943E+03  0.13702541230E+03  0.85251727037E+02 0.  0.
         11    1    3    3    0    0  0.54318803413E+02 -0.13226486160E+02 -0.12970295512E+03  0.14123855319E+03  0.00000000000E+00 0. -1.
        -12    1    3    3    0    0 -0.14405085918E+02  0.32292754184E+02 -0.75037529190E+02  0.82951547665E+02  0.00000000000E+00 0.  1.
        -13    1    4    4    0    0  0.41307794561E+02  0.57525604479E+01  0.72523841844E+02  0.83660824039E+02  0.00000000000E+00 0. -1.
         13    1    4    4    0    0 -0.40446529364E+02 -0.27166941404E+01  0.34705577586E+02  0.53364588261E+02  0.00000000000E+00 0.  1.
          4    1    1    2  501    0 -0.40774982692E+02 -0.22102134331E+02 -0.42421533681E+02  0.62854515155E+02  0.00000000000E+00 0. -1.
<scales pt_clust_5="13000.00000" pt_clust_6="13000.00000" pt_clust_7="13000.00000" pt_clust_8="13000.00000" pt_clust_9="46.38001"></scales>
<clustering>
<clus scale="   46.380">  1  9  2 -1</clus>
<clus scale="   79.912">  5  6 -1 -1</clus>
<clus scale="   85.252">  7  8 -1 -1</clus>
<clus scale="   89.733">  2  5  1 -1</clus>
<clus scale="   46.380">  1  5  2 -1</clus>
</clustering>
</event>
<event>
 9    1  0.4664604E-005  0.2042331E+03  0.7546771E-02  0.1147170E+00
          1   -1    0    0  502    0 -0.00000000000E+00  0.00000000000E+00  0.11310130042E+04  0.11310130042E+04  0.00000000000E+00 0. -1.
         21   -1    0    0  501  502  0.00000000000E+00 -0.00000000000E+00 -0.10504782624E+03  0.10504782624E+03  0.00000000000E+00 0.  1.
         23    2    1    2    0    0  0.30189007469E+02  0.17719948267E+03  0.95150487270E+03  0.97261833574E+03  0.91180433376E+02 0.  0.
        -24    2    1    2    0    0 -0.48538140061E+02 -0.19931065273E+03  0.79597706146E+02  0.23425367160E+03  0.80363552090E+02 0.  0.
         13    1    4    4    0    0  0.19897914638E+01 -0.96073401643E+02  0.70054915171E+02  0.11891908557E+03  0.00000000000E+00 0. -1.
        -14    1    4    4    0    0 -0.50527931525E+02 -0.10323725108E+03  0.95427909747E+01  0.11533458603E+03  0.00000000000E+00 0.  1.
        -13    1    3    3    0    0 -0.15130032886E+02  0.31546091504E+02  0.72792386702E+02  0.80763886398E+02  0.00000000000E+00 0.  1.
         13    1    3    3    0    0  0.45319040354E+02  0.14565339116E+03  0.87871248599E+03  0.89185444934E+03  0.00000000000E+00 0. -1.
          2    1    1    2  501    0  0.18349132592E+02  0.22111170061E+02 -0.51374008384E+01  0.29188823130E+02  0.00000000000E+00 0. -1.
<scales pt_clust_5="13000.00000" pt_clust_6="13000.00000" pt_clust_7="13000.00000" pt_clust_8="13000.00000" pt_clust_9="28.73316"></scales>
<clustering>
<clus scale="   28.733">  2  9  1 -1</clus>
<clus scale="   80.364">  5  6 -1 -1</clus>
<clus scale="   91.180">  7  8 -1 -1</clus>
<clus scale="  199.639">  2  5  1 -1</clus>
<clus scale="   28.733">  2  5  1 -1</clus>
</clustering>
</event>
<event>
 9    1  0.4664604E-005  0.1150056E+03  0.7546771E-02  0.1255742E+00
         21   -1    0    0  501  502  0.00000000000E+00  0.00000000000E+00  0.38569866377E+03  0.38569866377E+03  0.00000000000E+00 0. -1.
          3   -1    0    0  502    0 -0.00000000000E+00 -0.00000000000E+00 -0.13503516565E+03  0.13503516565E+03  0.00000000000E+00 0. -1.
        -24    2    1    2    0    0  0.48273876531E+02 -0.53765916921E+02 -0.85913665335E+02  0.13794024677E+03  0.80157425178E+02 0.  0.
         23    2    1    2    0    0 -0.75727416760E+01  0.61076489668E+02  0.12368025981E+03  0.16591776925E+03  0.91892412524E+02 0.  0.
         13    1    3    3    0    0  0.51920035262E+02 -0.65575082886E+02 -0.91852426865E+02  0.12422821692E+03  0.00000000000E+00 0. -1.
        -14    1    3    3    0    0 -0.36461587318E+01  0.11809165965E+02  0.59387615303E+01  0.13712029857E+02  0.00000000000E+00 0.  1.
        -11    1    4    4    0    0  0.84390636367E+01 -0.20685581580E+02  0.88118785262E+01  0.24015834017E+02  0.00000000000E+00 0.  1.
         11    1    4    4    0    0 -0.16011805313E+02  0.81762071249E+02  0.11486838128E+03  0.14190193523E+03  0.00000000000E+00 0. -1.
          4    1    1    2  501    0 -0.40701134855E+02 -0.73105727475E+01  0.21289690365E+03  0.21687581339E+03  0.00000000000E+00 0. -1.
<scales pt_clust_5="13000.00000" pt_clust_6="13000.00000" pt_clust_7="13000.00000" pt_clust_8="13000.00000" pt_clust_9="41.35247"></scales>
<clustering>
<clus scale="   41.352">  1  9  2 -1</clus>
<clus scale="   80.157">  5  6 -1 -1</clus>
<clus scale="   91.892">  7  8 -1 -1</clus>
<clus scale="  105.864">  2  5  1 -1</clus>
<clus scale="   41.352">  1  5  2 -1</clus>
</clustering>
</event>
<event>
 9    1  0.4664604E-005  0.1018768E+03  0.7546771E-02  0.1281554E+00
         21   -1    0    0  501  502  0.00000000000E+00  0.00000000000E+00  0.52018388368E+02  0.52018388368E+02  0.00000000000E+00 0. -1.
          1   -1    0    0  502    0 -0.00000000000E+00 -0.00000000000E+00 -0.44781861116E+03  0.44781861116E+03  0.00000000000E+00 0. -1.
         23    2    1    2    0    0 -0.50013749687E+02 -0.28189359961E+02 -0.29181984768E+03  0.31164952442E+03  0.93115988939E+02 0.  0.
        -24    2    1    2    0    0  0.23547845003E+02 -0.16309091276E+02 -0.10472981418E+03  0.13640796244E+03  0.82573063264E+02 0.  0.
         11    1    4    4    0    0  0.44722886686E+02 -0.23845212450E+02 -0.31191821724E+02  0.59511851701E+02  0.00000000000E+00 0. -1.
        -12    1    4    4    0    0 -0.21175041683E+02  0.75361211745E+01 -0.73537992458E+02  0.76896110743E+02  0.00000000000E+00 0.  1.
        -13    1    3    3    0    0 -0.30026202004E+02  0.12414166335E+02 -0.24939805909E+02  0.40959470838E+02  0.00000000000E+00 0.  1.
         13    1    3    3    0    0 -0.19987547682E+02 -0.40603526296E+02 -0.26688004177E+03  0.27069005358E+03  0.00000000000E+00 0. -1.
          2    1    1    2  501    0  0.26465904683E+02  0.44498451237E+02  0.74943907197E+00  0.51779512668E+02  0.00000000000E+00 0. -1.
<scales pt_clust_5="13000.00000" pt_clust_6="13000.00000" pt_clust_7="13000.00000" pt_clust_8="13000.00000" pt_clust_9="51.77409"></scales>
<clustering>
<clus scale="   51.774">  1  9  2 -1</clus>
<clus scale="   82.573">  5  6 -1 -1</clus>
<clus scale="   92.340">  1  5  2 -1</clus>
<clus scale="   93.116">  7  8 -1 -1</clus>
<clus scale="   51.774">  1  5  2 -1</clus>
</clustering>
</event>
<event>
 9    1  0.4664604E-005  0.3294403E+03  0.7546771E-02  0.1071385E+00
         21   -1    0    0  501  502  0.00000000000E+00  0.00000000000E+00  0.22112022824E+03  0.22112022824E+03  0.00000000000E+00 0. -1.
          3   -1    0    0  502    0 -0.00000000000E+00 -0.00000000000E+00 -0.38798559275E+03  0.38798559275E+03  0.00000000000E+00 0. -1.
        -24    2    1    2    0    0 -0.13414559295E+03  0.17740224604E+03 -0.13857210571E+03  0.27367620683E+03  0.78929339924E+02 0.  0.
         23    2    1    2    0    0 -0.55900972984E+01  0.10870821950E+02 -0.39286135751E+02  0.10070923881E+03  0.91921305267E+02 0.  0.
         11    1    3    3    0    0 -0.10821053736E+03  0.80406943066E+02 -0.68328030083E+02  0.15114071783E+03  0.00000000000E+00 0. -1.
        -12    1    3    3    0    0 -0.25935055587E+02  0.96995302970E+02 -0.70244075624E+02  0.12253548901E+03  0.00000000000E+00 0.  1.
        -13    1    4    4    0    0 -0.29809582013E+02 -0.27355803464E+02  0.48634512707E+00  0.40462176097E+02  0.00000000000E+00 0. -1.
         13    1    4    4    0    0  0.24219484715E+02  0.38226625414E+02 -0.39772480878E+02  0.60247062713E+02  0.00000000000E+00 0.  1.
          4    1    1    2  501    0  0.13973569025E+03 -0.18827306799E+03  0.10992876950E+02  0.23472037534E+03  0.00000000000E+00 0. -1.
<scales pt_clust_5="13000.00000" pt_clust_6="13000.00000" pt_clust_7="13000.00000" pt_clust_8="13000.00000" pt_clust_9="234.46281"></scales>
<clustering>
<clus scale="   78.929">  5  6 -1 -1</clus>
<clus scale="   91.921">  7  8 -1 -1</clus>
<clus scale="   92.231">  5  7 -1 -1</clus>
<clus scale="  234.463">  1  9  2 -1</clus>
<clus scale="  234.463">  1  5  2 -1</clus>
</clustering>
</event>
<event>
 9    1  0.4664604E-005  0.1968531E+03  0.7546771E-02  0.1153589E+00
         21   -1    0    0  501  502  0.00000000000E+00  0.00000000000E+00  0.19517836928E+03  0.19517836928E+03  0.00000000000E+00 0. -1.
          1   -1    0    0  502    0 -0.00000000000E+00 -0.00000000000E+00 -0.25745354122E+03  0.25745354122E+03  0.00000000000E+00 0. -1.
        -24    2    1    2    0    0  0.10557321365E+03 -0.13475955209E+03 -0.11648806811E+03  0.22214150228E+03  0.80445861932E+02 0.  0.
         23    2    1    2    0    0 -0.12530861631E+03  0.13056350188E+03  0.54196816421E+02  0.21031385714E+03  0.92442123793E+02 0.  0.
         13    1    3    3    0    0  0.86287148747E+02 -0.12467757168E+03 -0.12717421854E+03  0.19789707118E+03  0.00000000000E+00 0. -1.
        -14    1    3    3    0    0  0.19286064906E+02 -0.10081980405E+02  0.10686150427E+02  0.24244431100E+02  0.00000000000E+00 0.  1.
        -13    1    4    4    0    0 -0.98053881915E+02  0.11153828539E+03  0.21100663495E+01  0.14852543636E+03  0.00000000000E+00 0.  1.
         13    1    4    4    0    0 -0.27254734393E+02  0.19025216486E+02  0.52086750072E+02  0.61788420778E+02  0.00000000000E+00 0. -1.
          2    1    1    2  501    0  0.19735402655E+02  0.41960502121E+01  0.16079753383E-01  0.20176551090E+02  0.00000000000E+00 0. -1.
<scales pt_clust_5="13000.00000" pt_clust_6="13000.00000" pt_clust_7="13000.00000" pt_clust_8="13000.00000" pt_clust_9="20.17654"></scales>
<clustering>
<clus scale="   20.177">  1  9  2 -1</clus>
<clus scale="   80.446">  5  6 -1 -1</clus>
<clus scale="   92.442">  7  8 -1 -1</clus>
<clus scale="  191.513">  2  5  1 -1</clus>
<clus scale="   20.177">  1  5  2 -1</clus>
</clustering>
</event>
<event>
 9    1  0.4664604E-005  0.9704526E+02  0.7546771E-02  0.1291414E+00
         21   -1    0    0  501  502  0.00000000000E+00  0.00000000000E+00  0.22298055275E+03  0.22298055275E+03  0.00000000000E+00 0. -1.
          1   -1    0    0  502    0 -0.00000000000E+00 -0.00000000000E+00 -0.20053296903E+03  0.20053296903E+03  0.00000000000E+00 0. -1.
         23    2    1    2    0    0  0.41943495564E+02 -0.55550781286E+01 -0.14054897930E+03  0.17264900681E+03  0.90904060734E+02 0.  0.
        -24    2    1    2    0    0  0.15982564084E+01 -0.51197819011E+02  0.32358427322E+02  0.10192460092E+03  0.81962097085E+02 0.  0.
         11    1    4    4    0    0  0.37793407220E+02 -0.45688410826E+02  0.13804828804E+02  0.60879765205E+02  0.00000000000E+00 0. -1.
        -12    1    4    4    0    0 -0.36195150811E+02 -0.55094081853E+01  0.18553598518E+02  0.41044835714E+02  0.00000000000E+00 0.  1.
        -11    1    3    3    0    0  0.68001041608E+02 -0.66075790536E+01 -0.71758861873E+02  0.99081461526E+02  0.00000000000E+00 0.  1.
         11    1    3    3    0    0 -0.26057546044E+02  0.10525009250E+01 -0.68790117422E+02  0.73567545283E+02  0.00000000000E+00 0. -1.
          2    1    1    2  501    0 -0.43541751972E+02  0.56752897140E+02  0.13063813570E+03  0.14893991405E+03  0.00000000000E+00 0. -1.
<scales pt_clust_5="13000.00000" pt_clust_6="13000.00000" pt_clust_7="13000.00000" pt_clust_8="13000.00000" pt_clust_9="71.53164"></scales>
<clustering>
<clus scale="   71.532">  1  9  2 -1</clus>
<clus scale="   81.962">  5  6 -1 -1</clus>
<clus scale="   88.724">  1  5  2 -1</clus>
<clus scale="   90.904">  7  8 -1 -1</clus>
<clus scale="   71.532">  1  5  2 -1</clus>
</clustering>
</event>
<event>
 9    1  0.4664604E-005  0.1019537E+03  0.7546771E-02  0.1279088E+00
         -2   -1    0    0    0  501 -0.00000000000E+00  0.00000000000E+00  0.49664495989E+03  0.49664495989E+03  0.00000000000E+00 0.  1.
         21   -1    0    0  501  502  0.00000000000E+00 -0.00000000000E+00 -0.79778542322E+02  0.79778542322E+02  0.00000000000E+00 0. -1.
         23    2    1    2    0    0  0.29599082165E+02  0.13470970019E+02  0.76136243009E+02  0.12036763490E+03  0.87373149957E+02 0.  0.
        -24    2    1    2    0    0 -0.94287244130E+02 -0.37396371930E+02  0.24137407068E+02  0.13203740552E+03  0.81010425237E+02 0.  0.
         13    1    4    4    0    0 -0.97784358296E+02 -0.21024378478E+02 -0.30992043250E+01  0.10006702896E+03  0.00000000000E+00 0. -1.
        -14    1    4    4    0    0  0.34971141656E+01 -0.16371993452E+02  0.27236611393E+02  0.31970376558E+02  0.00000000000E+00 0.  1.
        -11    1    3    3    0    0 -0.14374171968E+02  0.24463253554E+02 -0.36477979792E+01  0.28607237272E+02  0.00000000000E+00 0.  1.
         11    1    3    3    0    0  0.43973254134E+02 -0.10992283535E+02  0.79784040988E+02  0.91760397627E+02  0.00000000000E+00 0. -1.
         -1    1    1    2    0  502  0.64688161965E+02  0.23925401911E+02  0.31659276749E+03  0.32401846180E+03  0.00000000000E+00 0.  1.
<scales pt_clust_5="13000.00000" pt_clust_6="13000.00000" pt_clust_7="13000.00000" pt_clust_8="13000.00000" pt_clust_9="68.97092"></scales>
<clustering>
<clus scale="   68.971">  2  9  1 -1</clus>
<clus scale="   81.010">  5  6 -1 -1</clus>
<clus scale="   87.373">  7  8 -1 -1</clus>
<clus scale="   96.557">  2  5  1 -1</clus>
<clus scale="   68.971">  2  5  1 -1</clus>
</clustering>
</event>
<event>
 9    1  0.4664604E-005  0.1576361E+03  0.7546771E-02  0.1210427E+00
          1   -1    0    0  502    0 -0.00000000000E+00  0.00000000000E+00  0.35163524179E+03  0.35163524179E+03  0.00000000000E+00 0. -1.
         21   -1    0    0  501  502  0.00000000000E+00 -0.00000000000E+00 -0.12404089483E+03  0.12404089483E+03  0.00000000000E+00 0. -1.
        -24    2    1    2    0    0 -0.55324371133E-01  0.64928042373E+02  0.12983517054E+03  0.16655299525E+03  0.81652158404E+02 0.  0.
         23    2    1    2    0    0  0.91812615215E+02  0.52786255839E+02  0.72543100283E+02  0.15775634540E+03  0.91698516879E+02 0.  0.
         13    1    3    3    0    0 -0.82443143088E+01  0.33535755095E+02  0.12958654803E+03  0.13410924285E+03  0.00000000000E+00 0. -1.
        -14    1    3    3    0    0  0.81889899376E+01  0.31392287278E+02  0.24862250970E+00  0.32443752402E+02  0.00000000000E+00 0.  1.
        -13    1    4    4    0    0 -0.23562933915E+01  0.32199787195E+02 -0.66982804099E+01  0.32973404046E+02  0.00000000000E+00 0.  1.
         13    1    4    4    0    0  0.94168908606E+02  0.20586468644E+02  0.79241380693E+02  0.12478294136E+03  0.00000000000E+00 0. -1.
          2    1    1    2  501    0 -0.91757290844E+02 -0.11771429821E+03  0.25216076135E+02  0.15136679597E+03  0.00000000000E+00 0. -1.
<scales pt_clust_5="13000.00000" pt_clust_6="13000.00000" pt_clust_7="13000.00000" pt_clust_8="13000.00000" pt_clust_9="128.22065"></scales>
<clustering>
<clus scale="   81.652">  5  6 -1 -1</clus>
<clus scale="   91.699">  7  8 -1 -1</clus>
<clus scale="  104.320">  1  5  2 -1</clus>
<clus scale="  128.221">  2  9  1 -1</clus>
<clus scale="  128.221">  2  5  1 -1</clus>
</clustering>
</event>
<event>
 9    1  0.9051897E-005  0.9272426E+02  0.7546771E-02  0.1308295E+00
         21   -1    0    0  501  502  0.00000000000E+00  0.00000000000E+00  0.15784437042E+03  0.15784437042E+03  0.00000000000E+00 0. -1.
         -4   -1    0    0    0  501 -0.00000000000E+00 -0.00000000000E+00 -0.16725015676E+03  0.16725015676E+03  0.00000000000E+00 0.  1.
        -24    2    1    2    0    0 -0.23694763427E+02 -0.94706767568E+01 -0.12762883637E+03  0.15864321175E+03  0.90705089328E+02 0.  0.
         23    2    1    2    0    0 -0.48025939827E+01 -0.14898313754E+02  0.51376707395E+02  0.89806807447E+02  0.71976884758E+02 0.  0.
         13    1    3    3    0    0  0.29801999408E+02 -0.65652618161E+00 -0.14404729592E+02  0.33107196045E+02  0.00000000000E+00 0. -1.
        -14    1    3    3    0    0 -0.53496762835E+02 -0.88141505752E+01 -0.11322410678E+03  0.12553601571E+03  0.00000000000E+00 0.  1.
        -11    1    4    4    0    0  0.18804705077E+02 -0.36021733690E+02  0.20271838002E+02  0.45410677677E+02  0.00000000000E+00 0. -1.
         11    1    4    4    0    0 -0.23607299060E+02  0.21123419935E+02  0.31104869392E+02  0.44396129770E+02  0.00000000000E+00 0.  1.
         -3    1    1    2    0  502  0.28497357410E+02  0.24368990511E+02  0.66846342638E+02  0.76644507970E+02  0.00000000000E+00 0.  1.
<scales pt_clust_5="13000.00000" pt_clust_6="13000.00000" pt_clust_7="13000.00000" pt_clust_8="13000.00000" pt_clust_9="37.49596"></scales>
<clustering>
<clus scale="   37.496">  1  9  2 -1</clus>
<clus scale="   71.977">  7  8 -1 -1</clus>
<clus scale="   74.505">  1  7  2 -1</clus>
<clus scale="   90.705">  5  6 -1 -1</clus>
<clus scale="   37.496">  1  5  2 -1</clus>
</clustering>
</event>
<event>
 9    1  0.4664604E-005  0.9529271E+02  0.7546771E-02  0.1296391E+00
         21   -1    0    0  501  502  0.00000000000E+00  0.00000000000E+00  0.57234544082E+02  0.57234544082E+02  0.00000000000E+00 0.  1.
          1   -1    0    0  502    0 -0.00000000000E+00 -0.00000000000E+00 -0.29607003752E+03  0.29607003752E+03  0.00000000000E+00 0. -1.
        -24    2    1    2    0    0  0.21261937677E+02 -0.26998986060E+02 -0.99705413318E+02  0.13311945711E+03  0.81231799029E+02 0.  0.
         23    2    1    2    0    0  0.88208452652E+01  0.15318752674E+02 -0.18181074322E+02  0.95004999534E+02  0.91558325554E+02 0.  0.
         13    1    3    3    0    0 -0.80513808287E+01  0.21596944867E+02 -0.58816166622E+02  0.63171150195E+02  0.00000000000E+00 0. -1.
        -14    1    3    3    0    0  0.29313318506E+02 -0.48595930927E+02 -0.40889246695E+02  0.69948306912E+02  0.00000000000E+00 0.  1.
        -13    1    4    4    0    0  0.25907541252E+02 -0.25607318890E+02 -0.32068613561E+02  0.48531757130E+02  0.00000000000E+00 0. -1.
         13    1    4    4    0    0 -0.17086695987E+02  0.40926071564E+02  0.13887539239E+02  0.46473242403E+02  0.00000000000E+00 0.  1.
          2    1    1    2  501    0 -0.30082782942E+02  0.11680233386E+02 -0.12094900580E+03  0.12518012496E+03  0.00000000000E+00 0. -1.
<scales pt_clust_5="13000.00000" pt_clust_6="13000.00000" pt_clust_7="13000.00000" pt_clust_8="13000.00000" pt_clust_9="32.27077"></scales>
<clustering>
<clus scale="   32.271">  1  9  2 -1</clus>
<clus scale="   81.232">  5  6 -1 -1</clus>
<clus scale="   85.419">  2  5  1 -1</clus>
<clus scale="   91.558">  7  8 -1 -1</clus>
<clus scale="   32.271">  1  5  2 -1</clus>
</clustering>
</event>
<event>
 9    1  0.4664604E-005  0.1019480E+03  0.7546771E-02  0.1281879E+00
         21   -1    0    0  501  502  0.00000000000E+00  0.00000000000E+00  0.64688784027E+02  0.64688784027E+02  0.00000000000E+00 0. -1.
          1   -1    0    0  502    0 -0.00000000000E+00 -0.00000000000E+00 -0.30673307108E+03  0.30673307108E+03  0.00000000000E+00 0. -1.
        -24    2    1    2    0    0 -0.43694470081E+02 -0.14181078233E+02 -0.11959456640E+03  0.15095277121E+03  0.79834636147E+02 0.  0.
         23    2    1    2    0    0  0.47488093038E+02 -0.45373157331E+02 -0.41864620398E+02  0.12019417711E+03  0.91543166771E+02 0.  0.
         13    1    3    3    0    0 -0.22914286042E+02 -0.47074666746E+02 -0.78538053749E+02  0.94389165908E+02  0.00000000000E+00 0. -1.
        -14    1    3    3    0    0 -0.20780184039E+02  0.32893588513E+02 -0.41056512650E+02  0.56563605304E+02  0.00000000000E+00 0.  1.
        -13    1    4    4    0    0  0.20176928942E+01 -0.56690812971E+02 -0.46167498999E+02  0.73139300816E+02  0.00000000000E+00 0.  1.
         13    1    4    4    0    0  0.45470400144E+02  0.11317655640E+02  0.43028786011E+01  0.47054876290E+02  0.00000000000E+00 0. -1.
          2    1    1    2  501    0 -0.37936229572E+01  0.59554235564E+02 -0.80585100259E+02  0.10027490679E+03  0.00000000000E+00 0. -1.
<scales pt_clust_5="13000.00000" pt_clust_6="13000.00000" pt_clust_7="13000.00000" pt_clust_8="13000.00000" pt_clust_9="59.67497"></scales>
<clustering>
<clus scale="   59.675">  1  9  2 -1</clus>
<clus scale="   79.835">  5  6 -1 -1</clus>
<clus scale="   91.543">  7  8 -1 -1</clus>
<clus scale="   91.580">  2  5  1 -1</clus>
<clus scale="   59.675">  1  5  2 -1</clus>
</clustering>
</event>
<event>
 9    1  0.4664604E-005  0.9477612E+02  0.7546771E-02  0.1296802E+00
         21   -1    0    0  501  502  0.00000000000E+00  0.00000000000E+00  0.14529550640E+03  0.14529550640E+03  0.00000000000E+00 0. -1.
          1   -1    0    0  502    0 -0.00000000000E+00 -0.00000000000E+00 -0.84074574235E+02  0.84074574235E+02  0.00000000000E+00 0. -1.
         23    2    1    2    0    0  0.16521522190E+02 -0.31970203771E+01  0.16916976660E+02  0.92821963144E+02  0.89702570241E+02 0.  0.
        -24    2    1    2    0    0 -0.48938677243E+02 -0.56579240381E+01  0.40461070257E+02  0.10272431302E+03  0.80549239869E+02 0.  0.
         13    1    4    4    0    0 -0.57543717296E+02  0.79630876327E+01 -0.11495319458E+01  0.58103455909E+02  0.00000000000E+00 0. -1.
        -14    1    4    4    0    0  0.86050400531E+01 -0.13621011671E+02  0.41610602203E+02  0.44620857107E+02  0.00000000000E+00 0.  1.
        -13    1    3    3    0    0  0.19663157915E+02  0.40016913322E+02 -0.38913007153E+01  0.44756400127E+02  0.00000000000E+00 0. -1.
         13    1    3    3    0    0 -0.31416357250E+01 -0.43213933699E+02  0.20808277375E+02  0.48065563017E+02  0.00000000000E+00 0.  1.
          2    1    1    2  501    0  0.32417155053E+02  0.88549444152E+01  0.38428852506E+01  0.33823804478E+02  0.00000000000E+00 0. -1.
<scales pt_clust_5="13000.00000" pt_clust_6="13000.00000" pt_clust_7="13000.00000" pt_clust_8="13000.00000" pt_clust_9="33.60481"></scales>
<clustering>
<clus scale="   33.605">  1  9  2 -1</clus>
<clus scale="   80.549">  5  6 -1 -1</clus>
<clus scale="   86.163">  1  5  2 -1</clus>
<clus scale="   89.703">  7  8 -1 -1</clus>
<clus scale="   33.605">  1  5  2 -1</clus>
</clustering>
</event>
<event>
 9    1  0.4664604E-005  0.1301113E+03  0.7546771E-02  0.1229305E+00
         21   -1    0    0  501  502  0.00000000000E+00  0.00000000000E+00  0.12627239986E+03  0.12627239986E+03  0.00000000000E+00 0.  1.
          1   -1    0    0  502    0 -0.00000000000E+00 -0.00000000000E+00 -0.73681734195E+03  0.73681734195E+03  0.00000000000E+00 0. -1.
        -24    2    1    2    0    0 -0.52574866655E+02 -0.78612812354E+02 -0.53635477374E+03  0.55100755083E+03  0.83598964682E+02 0.  0.
         23    2    1    2    0    0  0.63827568955E+02  0.31989537308E+02  0.86332194294E+02  0.14454777066E+03  0.91342876975E+02 0.  0.
         11    1    3    3    0    0  0.79488774154E+01 -0.57155305471E+02 -0.32606415713E+03  0.33113101359E+03  0.00000000000E+00 0. -1.
        -12    1    3    3    0    0 -0.60523744070E+02 -0.21457506883E+02 -0.21029061660E+03  0.21987653724E+03  0.00000000000E+00 0.  1.
        -11    1    4    4    0    0  0.37877176856E+02  0.60205947551E+02  0.77528680268E+02  0.10521469912E+03  0.00000000000E+00 0.  1.
         11    1    4    4    0    0  0.25950392099E+02 -0.28216410243E+02  0.88035140260E+01  0.39333071534E+02  0.00000000000E+00 0. -1.
          2    1    1    2  501    0 -0.11252702300E+02  0.46623275046E+02 -0.16052236264E+03  0.16753442032E+03  0.00000000000E+00 0. -1.
<scales pt_clust_5="13000.00000" pt_clust_6="13000.00000" pt_clust_7="13000.00000" pt_clust_8="13000.00000" pt_clust_9="47.96202"></scales>
<clustering>
<clus scale="   47.962">  1  9  2 -1</clus>
<clus scale="   83.599">  5  6 -1 -1</clus>
<clus scale="   91.343">  7  8 -1 -1</clus>
<clus scale="  124.797">  2  5  1 -1</clus>
<clus scale="   47.962">  1  5  2 -1</clus>
</clustering>
</event>
<event>
 9    1  0.4664604E-005  0.1140555E+03  0.7546771E-02  0.1254248E+00
         21   -1    0    0  501  502  0.00000000000E+00  0.00000000000E+00  0.28502132086E+02  0.28502132086E+02  0.00000000000E+00 0. -1.
          1   -1    0    0  502    0 -0.00000000000E+00 -0.00000000000E+00 -0.79517656582E+03  0.79517656582E+03  0.00000000000E+00 0. -1.
         23    2    1    2    0    0 -0.43940906657E+02 -0.67183554224E+02 -0.46314665836E+03  0.47862415701E+03  0.90176622736E+02 0.  0.
        -24    2    1    2    0    0 -0.54702914512E+01  0.56435764664E+02 -0.14385798164E+03  0.17756894596E+03  0.87296575343E+02 0.  0.
         11    1    4    4    0    0 -0.18537316112E+01  0.36159088009E+02 -0.42561319571E+01  0.36455872308E+02  0.00000000000E+00 0. -1.
        -12    1    4    4    0    0 -0.36165598400E+01  0.20276676656E+02 -0.13960184968E+03  0.14111307365E+03  0.00000000000E+00 0.  1.
        -13    1    3    3    0    0 -0.88133898882E+01  0.21154557304E+02 -0.13705022405E+03  0.13895306779E+03  0.00000000000E+00 0.  1.
         13    1    3    3    0    0 -0.35127516768E+02 -0.88338111529E+02 -0.32609643431E+03  0.33967108922E+03  0.00000000000E+00 0. -1.
          2    1    1    2  501    0  0.49411198108E+02  0.10747789560E+02 -0.15966979374E+03  0.16748559493E+03  0.00000000000E+00 0. -1.
<scales pt_clust_5="13000.00000" pt_clust_6="13000.00000" pt_clust_7="13000.00000" pt_clust_8="13000.00000" pt_clust_9="50.56663"></scales>
<clustering>
<clus scale="   50.567">  1  9  2 -1</clus>
<clus scale="   87.297">  5  6 -1 -1</clus>
<clus scale="   90.177">  7  8 -1 -1</clus>
<clus scale="  111.792">  1  5  2 -1</clus>
<clus scale="   50.567">  1  5  2 -1</clus>
</clustering>
</event>
<event>
 9    1  0.4664604E-005  0.1236291E+03  0.7546771E-02  0.1240396E+00
          1   -1    0    0  502    0 -0.00000000000E+00  0.00000000000E+00  0.27761916047E+03  0.27761916047E+03  0.00000000000E+00 0. -1.
         21   -1    0    0  501  502  0.00000000000E+00 -0.00000000000E+00 -0.82497561920E+02  0.82497561920E+02  0.00000000000E+00 0.  1.
        -24    2    1    2    0    0  0.36524072253E+02 -0.68833355020E+02  0.10962972194E+03  0.15612998954E+03  0.79283409887E+02 0.  0.
         23    2    1    2    0    0 -0.59151814089E+02  0.73172418890E+02  0.10985159007E+03  0.17045707710E+03  0.90194807476E+02 0.  0.
         11    1    3    3    0    0  0.61670720815E+02 -0.47144664662E+02  0.82176132299E+02  0.11304341614E+03  0.00000000000E+00 0. -1.
        -12    1    3    3    0    0 -0.25146648563E+02 -0.21688690359E+02  0.27453589637E+02  0.43086573400E+02  0.00000000000E+00 0.  1.
        -11    1    4    4    0    0 -0.27537847109E+02 -0.18518941553E+02  0.24334956306E+02  0.41151844650E+02  0.00000000000E+00 0.  1.
         11    1    4    4    0    0 -0.31613966979E+02  0.91691360443E+02  0.85516633764E+02  0.12930523245E+03  0.00000000000E+00 0. -1.
          2    1    1    2  501    0  0.22627741836E+02 -0.43390638694E+01 -0.24359713452E+02  0.33529655759E+02  0.00000000000E+00 0. -1.
<scales pt_clust_5="13000.00000" pt_clust_6="13000.00000" pt_clust_7="13000.00000" pt_clust_8="13000.00000" pt_clust_9="23.04001"></scales>
<clustering>
<clus scale="   23.040">  2  9  1 -1</clus>
<clus scale="   79.283">  5  6 -1 -1</clus>
<clus scale="   90.195">  7  8 -1 -1</clus>
<clus scale="  115.909">  1  5  2 -1</clus>
<clus scale="   23.040">  2  5  1 -1</clus>
</clustering>
</event>
<event>
 9    1  0.4664604E-005  0.1057592E+03  0.7546771E-02  0.1270366E+00
         21   -1    0    0  501  502  0.00000000000E+00  0.00000000000E+00  0.15018259221E+03  0.15018259221E+03  0.00000000000E+00 0.  1.
          1   -1    0    0  502    0 -0.00000000000E+00 -0.00000000000E+00 -0.13107299400E+03  0.13107299400E+03  0.00000000000E+00 0. -1.
         23    2    1    2    0    0  0.30177865004E+02 -0.28114530246E+02 -0.54725557759E+02  0.11298707937E+03  0.89833529851E+02 0.  0.
        -24    2    1    2    0    0 -0.55322132987E+02  0.44560091912E+02  0.43135846637E+02  0.12531343374E+03  0.93790272529E+02 0.  0.
         11    1    4    4    0    0 -0.46101572505E+02  0.26880631687E+02 -0.21603610168E+02  0.57572904388E+02  0.00000000000E+00 0. -1.
        -12    1    4    4    0    0 -0.92205604819E+01  0.17679460225E+02  0.64739456805E+02  0.67740529352E+02  0.00000000000E+00 0.  1.
        -11    1    3    3    0    0 -0.30799241840E+02 -0.19950019867E+02 -0.14360739703E+02  0.39405931476E+02  0.00000000000E+00 0.  1.
         11    1    3    3    0    0  0.60977106844E+02 -0.81645103786E+01 -0.40364818056E+02  0.73581147895E+02  0.00000000000E+00 0. -1.
          2    1    1    2  501    0  0.25144267983E+02 -0.16445561666E+02  0.30699309340E+02  0.42955073098E+02  0.00000000000E+00 0. -1.
<scales pt_clust_5="13000.00000" pt_clust_6="13000.00000" pt_clust_7="13000.00000" pt_clust_8="13000.00000" pt_clust_9="30.04481"></scales>
<clustering>
<clus scale="   30.045">  1  9  2 -1</clus>
<clus scale="   89.834">  7  8 -1 -1</clus>
<clus scale="   93.790">  5  6 -1 -1</clus>
<clus scale="  102.267">  2  7  1 -1</clus>
<clus scale="   30.045">  1  5  2 -1</clus>
</clustering>
</event>
<event>
 9    1  0.4664604E-005  0.9750252E+02  0.7546771E-02  0.1292230E+00
          1   -1    0    0  502    0 -0.00000000000E+00  0.00000000000E+00  0.52188865070E+03  0.52188865070E+03  0.00000000000E+00 0. -1.
         21   -1    0    0  501  502  0.00000000000E+00 -0.00000000000E+00 -0.29871644031E+02  0.29871644031E+02  0.00000000000E+00 0. -1.
         23    2    1    2    0    0 -0.36719010227E+02 -0.23967590342E+02  0.35785479457E+03  0.37193959825E+03  0.91412688699E+02 0.  0.
        -24    2    1    2    0    0  0.35139474954E+01  0.20710172762E+02  0.11543346997E+03  0.14155906109E+03  0.79201153433E+02 0.  0.
         13    1    4    4    0    0 -0.40862203230E+01 -0.29998655735E+02  0.49650431959E+02  0.58153090512E+02  0.00000000000E+00 0. -1.
        -14    1    4    4    0    0  0.76001678183E+01  0.50708828497E+02  0.65783038010E+02  0.83405970579E+02  0.00000000000E+00 0.  1.
        -13    1    3    3    0    0  0.90107068555E+00 -0.51901055805E+02  0.14566170696E+03  0.15463461578E+03  0.00000000000E+00 0. -1.
         13    1    3    3    0    0 -0.37620080912E+02  0.27933465463E+02  0.21219308761E+03  0.21730498247E+03  0.00000000000E+00 0.  1.
          2    1    1    2  501    0  0.33205062732E+02  0.32574175805E+01  0.18728742128E+02  0.38261635381E+02  0.00000000000E+00 0. -1.
<scales pt_clust_5="13000.00000" pt_clust_6="13000.00000" pt_clust_7="13000.00000" pt_clust_8="13000.00000" pt_clust_9="33.36446"></scales>
<clustering>
<clus scale="   33.364">  2  9  1 -1</clus>
<clus scale="   79.201">  5  6 -1 -1</clus>
<clus scale="   86.158">  2  5  1 -1</clus>
<clus scale="   91.413">  7  8 -1 -1</clus>
<clus scale="   33.364">  2  5  1 -1</clus>
</clustering>
</event>
<event>
 9    1  0.4664604E-005  0.1528152E+03  0.7546771E-02  0.1208423E+00
         -4   -1    0    0    0  501 -0.00000000000E+00  0.00000000000E+00  0.68346941103E+03  0.68346941103E+03  0.00000000000E+00 0.  1.
         21   -1    0    0  501  502  0.00000000000E+00 -0.00000000000E+00 -0.77729517841E+02  0.77729517841E+02  0.00000000000E+00 0. -1.
        -24    2    1    2    0    0  0.11048978920E+02 -0.85977705594E+02  0.99523874208E+02  0.15553208817E+03  0.82285983732E+02 0.  0.
         23    2    1    2    0    0  0.10011849186E+03 -0.42922632731E+02  0.12730357117E+03  0.19027768956E+03  0.90185004847E+02 0.  0.
         13    1    3    3    0    0 -0.28731005677E+02 -0.63859579922E+02  0.79105403344E+02  0.10564649295E+03  0.00000000000E+00 0. -1.
        -14    1    3    3    0    0  0.39779984597E+02 -0.22118125672E+02  0.20418470865E+02  0.49885595218E+02  0.00000000000E+00 0.  1.
        -13    1    4    4    0    0  0.66150081157E+02 -0.49326815923E+01  0.16557773921E+02  0.68369031454E+02  0.00000000000E+00 0. -1.
         13    1    4    4    0    0  0.33968410703E+02 -0.37989951138E+02  0.11074579725E+03  0.12190865811E+03  0.00000000000E+00 0.  1.
         -3    1    1    2    0  502 -0.11116747078E+03  0.12890033832E+03  0.37891244781E+03  0.41538915114E+03  0.00000000000E+00 0.  1.
<scales pt_clust_5="13000.00000" pt_clust_6="13000.00000" pt_clust_7="13000.00000" pt_clust_8="13000.00000" pt_clust_9="123.36595"></scales>
<clustering>
<clus scale="   82.286">  5  6 -1 -1</clus>
<clus scale="   90.185">  7  8 -1 -1</clus>
<clus scale="  119.521">  1  5  2 -1</clus>
<clus scale="  123.366">  2  9  1 -1</clus>
<clus scale="  123.366">  2  5  1 -1</clus>
</clustering>
</event>
<event>
 9    1  0.4664604E-005  0.9324919E+02  0.7546771E-02  0.1301874E+00
         21   -1    0    0  501  502  0.00000000000E+00  0.00000000000E+00  0.96141639982E+02  0.96141639982E+02  0.00000000000E+00 0.  1.
          1   -1    0    0  502    0 -0.00000000000E+00 -0.00000000000E+00 -0.18026355371E+03  0.18026355371E+03  0.00000000000E+00 0. -1.
        -24    2    1    2    0    0 -0.11001333801E+02  0.21869553319E+01 -0.11315873202E+03  0.13988363252E+03  0.81466065900E+02 0.  0.
         23    2    1    2    0    0  0.75871702951E+01 -0.22003469985E+02 -0.66518172523E+01  0.95557803130E+02  0.92440949919E+02 0.  0.
         11    1    3    3    0    0 -0.41719040186E+02 -0.12972817510E+02 -0.84880693623E+02  0.95464676494E+02  0.00000000000E+00 0. -1.
        -12    1    3    3    0    0  0.30717706385E+02  0.15159772842E+02 -0.28278038402E+02  0.44418956021E+02  0.00000000000E+00 0.  1.
        -11    1    4    4    0    0  0.37910918323E+02 -0.43839515143E+02 -0.41493039241E+01  0.58106432855E+02  0.00000000000E+00 0.  1.
         11    1    4    4    0    0 -0.30323748028E+02  0.21836045158E+02 -0.25025133282E+01  0.37451370276E+02  0.00000000000E+00 0. -1.
          2    1    1    2  501    0  0.34141635060E+01  0.19816514653E+02  0.35688635552E+02  0.40963758043E+02  0.00000000000E+00 0. -1.
<scales pt_clust_5="13000.00000" pt_clust_6="13000.00000" pt_clust_7="13000.00000" pt_clust_8="13000.00000" pt_clust_9="20.10847"></scales>
<clustering>
<clus scale="   20.108">  1  9  2 -1</clus>
<clus scale="   81.466">  5  6 -1 -1</clus>
<clus scale="   82.382">  2  5  1 -1</clus>
<clus scale="   92.441">  7  8 -1 -1</clus>
<clus scale="   20.108">  1  5  2 -1</clus>
</clustering>
</event>
<event>
 9    1  0.4664604E-005  0.2873476E+03  0.7546771E-02  0.1091742E+00
         21   -1    0    0  501  502  0.00000000000E+00  0.00000000000E+00  0.66526007890E+03  0.66526007890E+03  0.00000000000E+00 0. -1.
          1   -1    0    0  502    0 -0.00000000000E+00 -0.00000000000E+00 -0.95285855283E+02  0.95285855283E+02  0.00000000000E+00 0. -1.
        -24    2    1    2    0    0 -0.71123737013E+02  0.15032075841E+03  0.11310253538E+03  0.21616312541E+03  0.79242645731E+02 0.  0.
         23    2    1    2    0    0 -0.22195676341E+02  0.13040603246E+02  0.10218337626E+03  0.14288654971E+03  0.96500872133E+02 0.  0.
         13    1    3    3    0    0 -0.74860566022E+02  0.68674878820E+02  0.52054924879E+02  0.11414928178E+03  0.00000000000E+00 0. -1.
        -14    1    3    3    0    0  0.37368290089E+01  0.81645879589E+02  0.61047610505E+02  0.10201384364E+03  0.00000000000E+00 0.  1.
        -11    1    4    4    0    0 -0.50134761171E+02 -0.22195131032E+02  0.58961265202E+02  0.80514277699E+02  0.00000000000E+00 0.  1.
         11    1    4    4    0    0  0.27939084830E+02  0.35235734279E+02  0.43222111060E+02  0.62372272011E+02  0.00000000000E+00 0. -1.
          2    1    1    2  501    0  0.93319413354E+02 -0.16336136165E+03  0.35468831197E+03  0.40149625906E+03  0.00000000000E+00 0. -1.
<scales pt_clust_5="13000.00000" pt_clust_6="13000.00000" pt_clust_7="13000.00000" pt_clust_8="13000.00000" pt_clust_9="188.13678"></scales>
<clustering>
<clus scale="   79.243">  5  6 -1 -1</clus>
<clus scale="   96.501">  7  8 -1 -1</clus>
<clus scale="   97.757">  5  7 -1 -1</clus>
<clus scale="  188.137">  1  9  2 -1</clus>
<clus scale="  188.137">  1  5  2 -1</clus>
</clustering>
</event>
<event>
 9    1  0.4664604E-005  0.1055933E+03  0.7546771E-02  0.1276798E+00
          3   -1    0    0  502    0 -0.00000000000E+00  0.00000000000E+00  0.88538014765E+02  0.88538014765E+02  0.00000000000E+00 0. -1.
         21   -1    0    0  501  502  0.00000000000E+00 -0.00000000000E+00 -0.29812728747E+03  0.29812728747E+03  0.00000000000E+00 0. -1.
         23    2    1    2    0    0 -0.22917866580E+02  0.32550934201E+02  0.31231720176E+02  0.10886095024E+03  0.96387209818E+02 0.  0.
        -24    2    1    2    0    0  0.83672996131E+01 -0.61520104196E+02 -0.14635149323E+03  0.17792733676E+03  0.79903959040E+02 0.  0.
         11    1    4    4    0    0  0.66811148715E+00 -0.73266694959E+02 -0.73674428945E+02  0.10390561315E+03  0.00000000000E+00 0. -1.
        -12    1    4    4    0    0  0.76991881259E+01  0.11746590763E+02 -0.72677064288E+02  0.74021723608E+02  0.00000000000E+00 0.  1.
        -11    1    3    3    0    0 -0.35624768778E+02 -0.78979162447E+01 -0.20595665231E+02  0.41900867029E+02  0.00000000000E+00 0. -1.
         11    1    3    3    0    0  0.12706902197E+02  0.40448850445E+02  0.51827385406E+02  0.66960083213E+02  0.00000000000E+00 0.  1.
          4    1    1    2  501    0  0.14550566967E+02  0.28969169995E+02 -0.94469499643E+02  0.99877015234E+02  0.00000000000E+00 0. -1.
<scales pt_clust_5="13000.00000" pt_clust_6="13000.00000" pt_clust_7="13000.00000" pt_clust_8="13000.00000" pt_clust_9="32.41808"></scales>
<clustering>
<clus scale="   32.418">  2  9  1 -1</clus>
<clus scale="   79.904">  5  6 -1 -1</clus>
<clus scale="   90.797">  2  5  1 -1</clus>
<clus scale="   96.387">  7  8 -1 -1</clus>
<clus scale="   32.418">  2  5  1 -1</clus>
</clustering>
</event>
<event>
 9    1  0.4664604E-005  0.9224878E+02  0.7546771E-02  0.1305543E+00
         21   -1    0    0  501  502  0.00000000000E+00  0.00000000000E+00  0.37875960317E+03  0.37875960317E+03  0.00000000000E+00 0. -1.
          3   -1    0    0  502    0 -0.00000000000E+00 -0.00000000000E+00 -0.62775778151E+02  0.62775778151E+02  0.00000000000E+00 0. -1.
        -24    2    1    2    0    0 -0.34653585209E+01 -0.49291339018E+01 -0.21137180434E+02  0.82467453690E+02  0.79484561084E+02 0.  0.
         23    2    1    2    0    0 -0.10592303587E+02 -0.10867682826E+02  0.20525658994E+03  0.22551875555E+03  0.92185345739E+02 0.  0.
         13    1    3    3    0    0 -0.31540973674E+02 -0.24450759723E+02 -0.26427266637E+02  0.47865155314E+02  0.00000000000E+00 0. -1.
        -14    1    3    3    0    0  0.28075615153E+02  0.19521625821E+02  0.52900862022E+01  0.34602298377E+02  0.00000000000E+00 0.  1.
        -11    1    4    4    0    0  0.10739586610E+02 -0.46850085513E+02  0.78582036467E+02  0.92116261802E+02  0.00000000000E+00 0. -1.
         11    1    4    4    0    0 -0.21331890197E+02  0.35982402687E+02  0.12667455347E+03  0.13340249375E+03  0.00000000000E+00 0.  1.
          4    1    1    2  501    0  0.14057662108E+02  0.15796816728E+02  0.13186441552E+03  0.13354917207E+03  0.00000000000E+00 0. -1.
<scales pt_clust_5="13000.00000" pt_clust_6="13000.00000" pt_clust_7="13000.00000" pt_clust_8="13000.00000" pt_clust_9="21.14609"></scales>
<clustering>
<clus scale="   21.146">  1  9  2 -1</clus>
<clus scale="   79.485">  5  6 -1 -1</clus>
<clus scale="   79.558">  2  5  1 -1</clus>
<clus scale="   92.185">  7  8 -1 -1</clus>
<clus scale="   21.146">  1  5  2 -1</clus>
</clustering>
</event>
<event>
 9    1  0.4664604E-005  0.1564747E+03  0.7546771E-02  0.1213320E+00
         21   -1    0    0  501  502  0.00000000000E+00  0.00000000000E+00  0.11621705748E+03  0.11621705748E+03  0.00000000000E+00 0. -1.
          1   -1    0    0  502    0 -0.00000000000E+00 -0.00000000000E+00 -0.35476889533E+03  0.35476889533E+03  0.00000000000E+00 0. -1.
         23    2    1    2    0    0  0.95897806700E+01  0.30525837911E+02 -0.45307111070E+02  0.11005066052E+03  0.95050633321E+02 0.  0.
        -24    2    1    2    0    0  0.69134175872E+02 -0.13179061949E+03 -0.14889217574E+03  0.22521806380E+03  0.80037457524E+02 0.  0.
         11    1    4    4    0    0  0.52436440084E+02 -0.26646566656E+02 -0.76400939804E+02  0.96419517559E+02  0.00000000000E+00 0. -1.
        -12    1    4    4    0    0  0.16697735788E+02 -0.10514405283E+03 -0.72491235936E+02  0.12879854624E+03  0.00000000000E+00 0.  1.
        -13    1    3    3    0    0  0.39266593748E+02  0.50526556025E+02 -0.23654310938E+02  0.68222611165E+02  0.00000000000E+00 0.  1.
         13    1    3    3    0    0 -0.29676813078E+02 -0.20000718114E+02 -0.21652800132E+02  0.41828049358E+02  0.00000000000E+00 0. -1.
          2    1    1    2  501    0 -0.78723956542E+02  0.10126478158E+03 -0.44352551038E+02  0.13571722848E+03  0.00000000000E+00 0. -1.
<scales pt_clust_5="13000.00000" pt_clust_6="13000.00000" pt_clust_7="13000.00000" pt_clust_8="13000.00000" pt_clust_9="134.45573"></scales>
<clustering>
<clus scale="   80.037">  5  6 -1 -1</clus>
<clus scale="   95.051">  7  8 -1 -1</clus>
<clus scale="  100.292">  2  7  1 -1</clus>
<clus scale="  134.456">  1  9  2 -1</clus>
<clus scale="  134.456">  1  5  2 -1</clus>
</clustering>
</event>
<event>
 9    1  0.4664604E-005  0.1079954E+03  0.7546771E-02  0.1269575E+00
         21   -1    0    0  501  502  0.00000000000E+00  0.00000000000E+00  0.31415214396E+03  0.31415214396E+03  0.00000000000E+00 0.  1.
          3   -1    0    0  502    0 -0.00000000000E+00 -0.00000000000E+00 -0.79958557069E+02  0.79958557069E+02  0.00000000000E+00 0. -1.
         23    2    1    2    0    0 -0.18512974576E+02  0.60735009169E+02 -0.55399024277E+01  0.11223031683E+03  0.92376847368E+02 0.  0.
        -24    2    1    2    0    0  0.17923260163E+02 -0.38026398175E+02  0.80242264339E+02  0.12077954739E+03  0.79885091653E+02 0.  0.
         11    1    4    4    0    0  0.75811510392E+01 -0.57332193590E+02  0.80202363966E+02  0.98878073700E+02  0.00000000000E+00 0. -1.
        -12    1    4    4    0    0  0.10342109124E+02  0.19305795415E+02  0.39900373318E-01  0.21901473690E+02  0.00000000000E+00 0.  1.
        -11    1    3    3    0    0  0.26889894209E+02  0.53176442361E+02 -0.21746479729E+02  0.63432718792E+02  0.00000000000E+00 0. -1.
         11    1    3    3    0    0 -0.45402868785E+02  0.75585668079E+01  0.16206577301E+02  0.48797598034E+02  0.00000000000E+00 0.  1.
          4    1    1    2  501    0  0.58971441289E+00 -0.22708610994E+02  0.15949122498E+03  0.16110083681E+03  0.00000000000E+00 0. -1.
<scales pt_clust_5="13000.00000" pt_clust_6="13000.00000" pt_clust_7="13000.00000" pt_clust_8="13000.00000" pt_clust_9="22.71627"></scales>
<clustering>
<clus scale="   22.716">  1  9  2 -1</clus>
<clus scale="   79.885">  5  6 -1 -1</clus>
<clus scale="   92.377">  7  8 -1 -1</clus>
<clus scale="   97.525">  1  5  2 -1</clus>
<clus scale="   22.716">  1  5  2 -1</clus>
</clustering>
</event>
<event>
 9    1  0.4664604E-005  0.1399198E+03  0.7546771E-02  0.1233490E+00
         21   -1    0    0  501  502  0.00000000000E+00  0.00000000000E+00  0.70899637620E+03  0.70899637620E+03  0.00000000000E+00 0. -1.
          1   -1    0    0  502    0 -0.00000000000E+00 -0.00000000000E+00 -0.71902841499E+03  0.71902841499E+03  0.00000000000E+00 0. -1.
         23    2    1    2    0    0 -0.94427481568E+01  0.63208615815E+01  0.55447767727E+02  0.10746697454E+03  0.91354129006E+02 0.  0.
        -24    2    1    2    0    0 -0.98846163318E+02  0.37719074044E+02 -0.68129269254E+03  0.69374722734E+03  0.77020711470E+02 0.  0.
         13    1    4    4    0    0 -0.21362499423E+02 -0.11822013964E+02 -0.48422386813E+02  0.54229548591E+02  0.00000000000E+00 0. -1.
        -14    1    4    4    0    0 -0.77483663895E+02  0.49541088008E+02 -0.63287030572E+03  0.63951767875E+03  0.00000000000E+00 0.  1.
        -11    1    3    3    0    0 -0.46553437851E+02 -0.11270649018E+02  0.43480032448E+02  0.64689746689E+02  0.00000000000E+00 0.  1.
         11    1    3    3    0    0  0.37110689694E+02  0.17591510599E+02  0.11967735279E+02  0.42777227849E+02  0.00000000000E+00 0. -1.
          2    1    1    2  501    0  0.10828891147E+03 -0.44039935626E+02  0.61581288602E+03  0.62681058931E+03  0.00000000000E+00 0. -1.
<scales pt_clust_5="13000.00000" pt_clust_6="13000.00000" pt_clust_7="13000.00000" pt_clust_8="13000.00000" pt_clust_9="116.81339"></scales>
<clustering>
<clus scale="   77.021">  5  6 -1 -1</clus>
<clus scale="   91.354">  7  8 -1 -1</clus>
<clus scale="   92.058">  2  7  1 -1</clus>
<clus scale="  116.813">  1  9  2 -1</clus>
<clus scale="  116.813">  1  5  2 -1</clus>
</clustering>
</event>
<event>
 9    1  0.4664604E-005  0.1269977E+03  0.7546771E-02  0.1234869E+00
          1   -1    0    0  502    0 -0.00000000000E+00  0.00000000000E+00  0.59266365540E+03  0.59266365540E+03  0.00000000000E+00 0. -1.
         21   -1    0    0  501  502  0.00000000000E+00 -0.00000000000E+00 -0.70532801478E+02  0.70532801478E+02  0.00000000000E+00 0. -1.
        -24    2    1    2    0    0  0.88653481332E+02  0.40243424891E+01  0.48544582614E+03  0.50006301007E+03  0.80806737548E+02 0.  0.
         23    2    1    2    0    0 -0.82989850060E+02 -0.29624767679E+02  0.12557008046E+02  0.12750172183E+03  0.91291119750E+02 0.  0.
         11    1    3    3    0    0  0.89722380086E+02  0.24218853990E+02  0.44767263679E+03  0.45721706892E+03  0.00000000000E+00 0. -1.
        -12    1    3    3    0    0 -0.10688987539E+01 -0.20194511501E+02  0.37773189354E+02  0.42845941153E+02  0.00000000000E+00 0.  1.
        -11    1    4    4    0    0 -0.17029941466E+02 -0.42957903816E+02  0.33441474358E+02  0.57041499050E+02  0.00000000000E+00 0.  1.
         11    1    4    4    0    0 -0.65959908593E+02  0.13333136137E+02 -0.20884466312E+02  0.70460222779E+02  0.00000000000E+00 0. -1.
          2    1    1    2  501    0 -0.56636312727E+01  0.25600425190E+02  0.24128019735E+02  0.35631724986E+02  0.00000000000E+00 0. -1.
<scales pt_clust_5="13000.00000" pt_clust_6="13000.00000" pt_clust_7="13000.00000" pt_clust_8="13000.00000" pt_clust_9="26.21943"></scales>
<clustering>
<clus scale="   26.219">  2  9  1 -1</clus>
<clus scale="   80.807">  5  6 -1 -1</clus>
<clus scale="   91.291">  7  8 -1 -1</clus>
<clus scale="  119.683">  1  5  2 -1</clus>
<clus scale="   26.219">  2  5  1 -1</clus>
</clustering>
</event>
<event>
 9    1  0.4664604E-005  0.1048737E+03  0.7546771E-02  0.1272358E+00
         21   -1    0    0  501  502  0.00000000000E+00  0.00000000000E+00  0.58920698995E+03  0.58920698995E+03  0.00000000000E+00 0. -1.
          1   -1    0    0  502    0 -0.00000000000E+00 -0.00000000000E+00 -0.32357275977E+02  0.32357275977E+02  0.00000000000E+00 0. -1.
         23    2    1    2    0    0 -0.43632400617E+02  0.29023559309E+02  0.23415210169E+03  0.25448205779E+03  0.84780644214E+02 0.  0.
        -24    2    1    2    0    0  0.49018716838E+02 -0.57679478208E+02  0.31930462398E+03  0.33772771172E+03  0.79842391991E+02 0.  0.
         11    1    4    4    0    0  0.16804283682E+02 -0.54960526942E+02  0.94454514364E+02  0.11056535965E+03  0.00000000000E+00 0. -1.
        -12    1    4    4    0    0  0.32214433156E+02 -0.27189512664E+01  0.22485010962E+03  0.22716235206E+03  0.00000000000E+00 0.  1.
        -11    1    3    3    0    0  0.25854764588E+02  0.83469465246E+01  0.63100228773E+02  0.68700649483E+02  0.00000000000E+00 0. -1.
         11    1    3    3    0    0 -0.69487165205E+02  0.20676612785E+02  0.17105187292E+03  0.18578140831E+03  0.00000000000E+00 0.  1.
          2    1    1    2  501    0 -0.53863162207E+01  0.28655918899E+02  0.33929882994E+01  0.29354496418E+02  0.00000000000E+00 0. -1.
<scales pt_clust_5="13000.00000" pt_clust_6="13000.00000" pt_clust_7="13000.00000" pt_clust_8="13000.00000" pt_clust_9="29.15776"></scales>
<clustering>
<clus scale="   29.158">  1  9  2 -1</clus>
<clus scale="   79.842">  5  6 -1 -1</clus>
<clus scale="   84.781">  7  8 -1 -1</clus>
<clus scale="  100.923">  1  5  2 -1</clus>
<clus scale="   29.158">  1  5  2 -1</clus>
</clustering>
</event>
<event>
 9    1  0.4664604E-005  0.1047724E+03  0.7546771E-02  0.1277738E+00
          3   -1    0    0  502    0 -0.00000000000E+00  0.00000000000E+00  0.72578640703E+03  0.72578640703E+03  0.00000000000E+00 0. -1.
         21   -1    0    0  501  502  0.00000000000E+00 -0.00000000000E+00 -0.41260749073E+02  0.41260749073E+02  0.00000000000E+00 0. -1.
         23    2    1    2    0    0 -0.46904390323E+02 -0.31899272008E+02  0.43305538755E+03  0.44704770963E+03  0.95378722030E+02 0.  0.
        -24    2    1    2    0    0 -0.37659474628E+02  0.35690908197E+02  0.66214800303E+02  0.11632074615E+03  0.80337035349E+02 0.  0.
         11    1    4    4    0    0 -0.52251718992E+02  0.49864870752E+02  0.62763731629E+02  0.95687164661E+02  0.00000000000E+00 0. -1.
        -12    1    4    4    0    0  0.14592244364E+02 -0.14173962556E+02  0.34510686746E+01  0.20633581490E+02  0.00000000000E+00 0.  1.
        -11    1    3    3    0    0  0.17853097926E+02  0.20844153197E+02  0.10481008639E+03  0.10834374019E+03  0.00000000000E+00 0.  1.
         11    1    3    3    0    0 -0.64757488250E+02 -0.52743425205E+02  0.32824530115E+03  0.33870396944E+03  0.00000000000E+00 0. -1.
          4    1    1    2  501    0  0.84563864952E+02 -0.37916361889E+01  0.18525547011E+03  0.20367870032E+03  0.00000000000E+00 0. -1.
<scales pt_clust_5="13000.00000" pt_clust_6="13000.00000" pt_clust_7="13000.00000" pt_clust_8="13000.00000" pt_clust_9="84.64887"></scales>
<clustering>
<clus scale="   80.337">  5  6 -1 -1</clus>
<clus scale="   84.649">  2  9  1 -1</clus>
<clus scale="   91.292">  2  5  1 -1</clus>
<clus scale="   95.379">  7  8 -1 -1</clus>
<clus scale="   84.649">  2  5  1 -1</clus>
</clustering>
</event>
<event>
 9    1  0.4664604E-005  0.1048250E+03  0.7546771E-02  0.1278555E+00
          1   -1    0    0  502    0 -0.00000000000E+00  0.00000000000E+00  0.19003748105E+03  0.19003748105E+03  0.00000000000E+00 0. -1.
         21   -1    0    0  501  502  0.00000000000E+00 -0.00000000000E+00 -0.35221158245E+03  0.35221158245E+03  0.00000000000E+00 0.  1.
         23    2    1    2    0    0  0.16220829242E+02  0.58262238380E+02 -0.27292340698E+01  0.89785423520E+02  0.66305126767E+02 0.  0.
        -24    2    1    2    0    0  0.64550451035E+02  0.12613538846E+02 -0.27546706986E+03  0.29432279455E+03  0.80112038580E+02 0.  0.
         13    1    4    4    0    0  0.34347604852E+02 -0.20496061218E+02 -0.47989877460E+02  0.62472992750E+02  0.00000000000E+00 0. -1.
        -14    1    4    4    0    0  0.30202846182E+02  0.33109600064E+02 -0.22747719240E+03  0.23184980180E+03  0.00000000000E+00 0.  1.
        -11    1    3    3    0    0  0.30346043469E+02  0.38646159654E+01 -0.11931078417E+02  0.32835472328E+02  0.00000000000E+00 0.  1.
         11    1    3    3    0    0 -0.14125214227E+02  0.54397622415E+02  0.92018443474E+01  0.56949951192E+02  0.00000000000E+00 0. -1.
          2    1    1    2  501    0 -0.80771280276E+02 -0.70875777226E+02  0.11602220253E+03  0.15814084543E+03  0.00000000000E+00 0. -1.
<scales pt_clust_5="13000.00000" pt_clust_6="13000.00000" pt_clust_7="13000.00000" pt_clust_8="13000.00000" pt_clust_9="67.60436"></scales>
<clustering>
<clus scale="   66.305">  7  8 -1 -1</clus>
<clus scale="   80.112">  5  6 -1 -1</clus>
<clus scale="   89.744">  1  7  2 -1</clus>
<clus scale="   67.604">  2  9  1 -1</clus>
<clus scale="   67.604">  2  5  1 -1</clus>
</clustering>
</event>
<event>
 9    1  0.4664604E-005  0.2837990E+03  0.7546771E-02  0.1093632E+00
         21   -1    0    0  501  502  0.00000000000E+00  0.00000000000E+00  0.12037178778E+03  0.12037178778E+03  0.00000000000E+00 0.  1.
          1   -1    0    0  502    0 -0.00000000000E+00 -0.00000000000E+00 -0.69200926888E+03  0.69200926888E+03  0.00000000000E+00 0. -1.
        -24    2    1    2    0    0 -0.10186227535E+03 -0.11673340494E+03 -0.51071874991E+02  0.18200306258E+03  0.80710392190E+02 0.  0.
         23    2    1    2    0    0  0.19730093868E+01 -0.56263753682E+02 -0.50155216683E+02  0.11930870639E+03  0.92463608598E+02 0.  0.
         13    1    3    3    0    0 -0.14975623926E+02 -0.69946350523E+02 -0.41888038727E+02  0.82893721426E+02  0.00000000000E+00 0. -1.
        -14    1    3    3    0    0 -0.86886651422E+02 -0.46787054412E+02 -0.91838362641E+01  0.99109341156E+02  0.00000000000E+00 0.  1.
        -13    1    4    4    0    0  0.46398556553E+02 -0.38888343836E+02 -0.27185600833E+02  0.66364043195E+02  0.00000000000E+00 0.  1.
         13    1    4    4    0    0 -0.44425547166E+02 -0.17375409846E+02 -0.22969615850E+02  0.52944663193E+02  0.00000000000E+00 0. -1.
          2    1    1    2  501    0  0.99889265961E+02  0.17299715862E+03 -0.47041038943E+03  0.51106928769E+03  0.00000000000E+00 0. -1.
<scales pt_clust_5="13000.00000" pt_clust_6="13000.00000" pt_clust_7="13000.00000" pt_clust_8="13000.00000" pt_clust_9="199.76467"></scales>
<clustering>
<clus scale="   80.710">  5  6 -1 -1</clus>
<clus scale="   92.464">  7  8 -1 -1</clus>
<clus scale="  101.505">  5  7 -1 -1</clus>
<clus scale="  199.765">  1  9  2 -1</clus>
<clus scale="  199.765">  1  5  2 -1</clus>
</clustering>
</event>
<event>
 9    1  0.4664604E-005  0.1245291E+03  0.7546771E-02  0.1240227E+00
          1   -1    0    0  502    0 -0.00000000000E+00  0.00000000000E+00  0.26223920587E+03  0.26223920587E+03  0.00000000000E+00 0. -1.
         21   -1    0    0  501  502  0.00000000000E+00 -0.00000000000E+00 -0.22911303214E+03  0.22911303214E+03  0.00000000000E+00 0.  1.
         23    2    1    2    0    0 -0.76883014480E+02 -0.45986195048E+02  0.21969213083E+03  0.25500479644E+03  0.93472379936E+02 0.  0.
        -24    2    1    2    0    0  0.38669617707E+02  0.10985154974E+02 -0.86228158977E+02  0.12341821492E+03  0.78617729616E+02 0.  0.
         11    1    4    4    0    0  0.24141143137E+02 -0.20976776875E+02 -0.18590216460E+01  0.32035541536E+02  0.00000000000E+00 0. -1.
        -12    1    4    4    0    0  0.14528474571E+02  0.31961931849E+02 -0.84369137331E+02  0.91382673384E+02  0.00000000000E+00 0.  1.
        -11    1    3    3    0    0 -0.46067880008E+02  0.16904766785E+02  0.44156432881E+02  0.66013720341E+02  0.00000000000E+00 0.  1.
         11    1    3    3    0    0 -0.30815134472E+02 -0.62890961833E+02  0.17553569795E+03  0.18899107610E+03  0.00000000000E+00 0. -1.
          2    1    1    2  501    0  0.38213396773E+02  0.35001040074E+02 -0.10033779812E+03  0.11292922665E+03  0.00000000000E+00 0. -1.
<scales pt_clust_5="13000.00000" pt_clust_6="13000.00000" pt_clust_7="13000.00000" pt_clust_8="13000.00000" pt_clust_9="51.82023"></scales>
<clustering>
<clus scale="   51.820">  2  9  1 -1</clus>
<clus scale="   78.618">  5  6 -1 -1</clus>
<clus scale="   93.472">  7  8 -1 -1</clus>
<clus scale="  113.803">  2  5  1 -1</clus>
<clus scale="   51.820">  2  5  1 -1</clus>
</clustering>
</event>
<event>
 9    1  0.4664604E-005  0.9433373E+02  0.7546771E-02  0.1301193E+00
         21   -1    0    0  501  502  0.00000000000E+00  0.00000000000E+00  0.19652741146E+03  0.19652741146E+03  0.00000000000E+00 0.  1.
         -2   -1    0    0    0  501 -0.00000000000E+00 -0.00000000000E+00 -0.12062237038E+03  0.12062237038E+03  0.00000000000E+00 0.  1.
         23    2    1    2    0    0  0.13979774786E+02  0.26896906349E+02 -0.35803728792E+02  0.10515551667E+03  0.94111094015E+02 0.  0.
        -24    2    1    2    0    0  0.23461904489E+02  0.20485031496E+02  0.13045794144E+01  0.86153045176E+02  0.80315302328E+02 0.  0.
         11    1    4    4    0    0 -0.10511652145E+02  0.38947942529E+02 -0.16498817273E+02  0.43584951870E+02  0.00000000000E+00 0. -1.
        -12    1    4    4    0    0  0.33973556633E+02 -0.18462911033E+02  0.17803396687E+02  0.42568093307E+02  0.00000000000E+00 0.  1.
        -13    1    3    3    0    0 -0.19345598689E+02 -0.27523921927E+02 -0.40732363023E+01  0.33888194417E+02  0.00000000000E+00 0. -1.
         13    1    3    3    0    0  0.33325373475E+02  0.54420828276E+02 -0.31730492490E+02  0.71267322254E+02  0.00000000000E+00 0.  1.
         -1    1    1    2    0  502 -0.37441679275E+02 -0.47381937845E+02  0.11040419046E+03  0.12584122000E+03  0.00000000000E+00 0.  1.
<scales pt_clust_5="13000.00000" pt_clust_6="13000.00000" pt_clust_7="13000.00000" pt_clust_8="13000.00000" pt_clust_9="60.38980"></scales>
<clustering>
<clus scale="   60.390">  1  9  2 -1</clus>
<clus scale="   80.315">  5  6 -1 -1</clus>
<clus scale="   80.576">  1  5  2 -1</clus>
<clus scale="   94.111">  7  8 -1 -1</clus>
<clus scale="   60.390">  1  5  2 -1</clus>
</clustering>
</event>
<event>
 9    1  0.4664604E-005  0.9500296E+02  0.7546771E-02  0.1298751E+00
          1   -1    0    0  502    0 -0.00000000000E+00  0.00000000000E+00  0.24765793729E+03  0.24765793729E+03  0.00000000000E+00 0. -1.
         21   -1    0    0  501  502  0.00000000000E+00 -0.00000000000E+00 -0.23980474636E+03  0.23980474636E+03  0.00000000000E+00 0.  1.
         23    2    1    2    0    0 -0.54768385750E+01 -0.12667468521E+02  0.21439041386E+03  0.23450617070E+03  0.94018264318E+02 0.  0.
        -24    2    1    2    0    0 -0.43509428960E+02  0.24757327962E+02 -0.13220618829E+03  0.16311820365E+03  0.81382285804E+02 0.  0.
         11    1    4    4    0    0  0.23617864238E+02  0.75359857170E+01 -0.23235145977E+02  0.33977442524E+02  0.00000000000E+00 0. -1.
        -12    1    4    4    0    0 -0.67127293198E+02  0.17221342245E+02 -0.10897104231E+03  0.12914076112E+03  0.00000000000E+00 0.  1.
        -11    1    3    3    0    0 -0.48006901587E+01 -0.44151548129E+02  0.18872686185E+03  0.19388201106E+03  0.00000000000E+00 0. -1.
         11    1    3    3    0    0 -0.67614841635E+00  0.31484079608E+02  0.25663552008E+02  0.40624159648E+02  0.00000000000E+00 0.  1.
          2    1    1    2  501    0  0.48986267535E+02 -0.12089859440E+02 -0.74331034635E+02  0.89838309302E+02  0.00000000000E+00 0. -1.
<scales pt_clust_5="13000.00000" pt_clust_6="13000.00000" pt_clust_7="13000.00000" pt_clust_8="13000.00000" pt_clust_9="50.45611"></scales>
<clustering>
<clus scale="   50.456">  2  9  1 -1</clus>
<clus scale="   81.382">  5  6 -1 -1</clus>
<clus scale="   82.518">  2  5  1 -1</clus>
<clus scale="   94.018">  7  8 -1 -1</clus>
<clus scale="   50.456">  2  5  1 -1</clus>
</clustering>
</event>
<event>
 9    1  0.4664604E-005  0.1005995E+03  0.7546771E-02  0.1285586E+00
         21   -1    0    0  501  502  0.00000000000E+00  0.00000000000E+00  0.14979816041E+03  0.14979816041E+03  0.00000000000E+00 0. -1.
         -4   -1    0    0    0  501 -0.00000000000E+00 -0.00000000000E+00 -0.12407692074E+03  0.12407692074E+03  0.00000000000E+00 0.  1.
        -24    2    1    2    0    0  0.31452886689E+02 -0.21766906328E+02 -0.30153463655E+02  0.92946034240E+02  0.79162185534E+02 0.  0.
         23    2    1    2    0    0 -0.60719802256E+02 -0.28200454373E+02  0.41865127875E+02  0.12135088240E+03  0.92147640850E+02 0.  0.
         11    1    3    3    0    0  0.48528003514E+02 -0.26348608844E+02  0.30770577363E+01  0.55305375845E+02  0.00000000000E+00 0. -1.
        -12    1    3    3    0    0 -0.17075116824E+02  0.45817025160E+01 -0.33230521391E+02  0.37640658395E+02  0.00000000000E+00 0.  1.
        -11    1    4    4    0    0 -0.54343024944E+02 -0.85034327099E+01 -0.18105167908E+02  0.57907424678E+02  0.00000000000E+00 0.  1.
         11    1    4    4    0    0 -0.63767773119E+01 -0.19697021663E+02  0.59970295783E+02  0.63443457721E+02  0.00000000000E+00 0. -1.
         -3    1    1    2    0  502  0.29266915566E+02  0.49967360701E+02  0.14009575455E+02  0.59578164512E+02  0.00000000000E+00 0.  1.
<scales pt_clust_5="13000.00000" pt_clust_6="13000.00000" pt_clust_7="13000.00000" pt_clust_8="13000.00000" pt_clust_9="57.90759"></scales>
<clustering>
<clus scale="   57.908">  1  9  2 -1</clus>
<clus scale="   79.162">  5  6 -1 -1</clus>
<clus scale="   88.858">  2  5  1 -1</clus>
<clus scale="   92.148">  7  8 -1 -1</clus>
<clus scale="   57.908">  1  5  2 -1</clus>
</clustering>
</event>
<event>
 9    1  0.4664604E-005  0.9658102E+02  0.7546771E-02  0.1291579E+00
         -2   -1    0    0    0  501 -0.00000000000E+00  0.00000000000E+00  0.58410833498E+02  0.58410833498E+02  0.00000000000E+00 0.  1.
         21   -1    0    0  501  502  0.00000000000E+00 -0.00000000000E+00 -0.26804987573E+03  0.26804987573E+03  0.00000000000E+00 0.  1.
         23    2    1    2    0    0  0.67592622219E+01  0.49198147015E+02 -0.48864938561E+02  0.11430696307E+03  0.90620937369E+02 0.  0.
        -24    2    1    2    0    0 -0.98903408357E+00 -0.17944049346E+02 -0.54287658994E+02  0.10102554518E+03  0.83282913997E+02 0.  0.
         13    1    4    4    0    0 -0.39491656192E+01 -0.21581503845E+02 -0.75849868477E+02  0.78959228499E+02  0.00000000000E+00 0. -1.
        -14    1    4    4    0    0  0.29601315356E+01  0.36374544988E+01  0.21562209482E+02  0.22066316677E+02  0.00000000000E+00 0.  1.
        -11    1    3    3    0    0  0.43945113455E+02  0.47507571585E+02 -0.39869206204E+02  0.76011156798E+02  0.00000000000E+00 0.  1.
         11    1    3    3    0    0 -0.37185851233E+02  0.16905754291E+01 -0.89957323575E+01  0.38295806270E+02  0.00000000000E+00 0. -1.
         -1    1    1    2    0  502 -0.57702281383E+01 -0.31254097668E+02 -0.10648644467E+03  0.11112820098E+03  0.00000000000E+00 0.  1.
<scales pt_clust_5="13000.00000" pt_clust_6="13000.00000" pt_clust_7="13000.00000" pt_clust_8="13000.00000" pt_clust_9="31.78229"></scales>
<clustering>
<clus scale="   31.782">  2  9  1 -1</clus>
<clus scale="   83.283">  5  6 -1 -1</clus>
<clus scale="   89.732">  2  5  1 -1</clus>
<clus scale="   90.621">  7  8 -1 -1</clus>
<clus scale="   31.782">  2  5  1 -1</clus>
</clustering>
</event>
<event>
 9    1  0.4664604E-005  0.1074471E+03  0.7546771E-02  0.1270447E+00
         21   -1    0    0  501  502  0.00000000000E+00  0.00000000000E+00  0.14020977906E+03  0.14020977906E+03  0.00000000000E+00 0. -1.
          1   -1    0    0  502    0 -0.00000000000E+00 -0.00000000000E+00 -0.22574965328E+03  0.22574965328E+03  0.00000000000E+00 0. -1.
        -24    2    1    2    0    0  0.50185036539E+02  0.25356904021E+02 -0.15241774795E+03  0.18106684215E+03  0.79953242358E+02 0.  0.
         23    2    1    2    0    0 -0.24377188748E+02 -0.61470686903E+02  0.11393516926E+02  0.11383793397E+03  0.91958524903E+02 0.  0.
         13    1    3    3    0    0  0.23514265258E+02  0.36852402587E+02 -0.24953641422E+02  0.50335916275E+02  0.00000000000E+00 0. -1.
        -14    1    3    3    0    0  0.26670771281E+02 -0.11495498566E+02 -0.12746410653E+03  0.13073092588E+03  0.00000000000E+00 0.  1.
        -11    1    4    4    0    0 -0.32574796470E+02 -0.32987719797E+02 -0.35480361687E+02  0.58379474885E+02  0.00000000000E+00 0.  1.
         11    1    4    4    0    0  0.81976077218E+01 -0.28482967106E+02  0.46873878612E+02  0.55458459081E+02  0.00000000000E+00 0. -1.
          2    1    1    2  501    0 -0.25807847791E+02  0.36113782881E+02  0.55484356799E+02  0.71054656223E+02  0.00000000000E+00 0. -1.
<scales pt_clust_5="13000.00000" pt_clust_6="13000.00000" pt_clust_7="13000.00000" pt_clust_8="13000.00000" pt_clust_9="44.38750"></scales>
<clustering>
<clus scale="   44.388">  1  9  2 -1</clus>
<clus scale="   79.953">  5  6 -1 -1</clus>
<clus scale="   91.959">  7  8 -1 -1</clus>
<clus scale="   97.371">  2  5  1 -1</clus>
<clus scale="   44.388">  1  5  2 -1</clus>
</clustering>
</event>
<event>
 9    1  0.4664604E-005  0.1286541E+03  0.7546771E-02  0.1233583E+00
         21   -1    0    0  501  502  0.00000000000E+00  0.00000000000E+00  0.60342020695E+03  0.60342020695E+03  0.00000000000E+00 0.  1.
          3   -1    0    0  502    0 -0.00000000000E+00 -0.00000000000E+00 -0.58725941298E+02  0.58725941298E+02  0.00000000000E+00 0. -1.
         23    2    1    2    0    0  0.95481902018E+02 -0.15296435975E+02  0.24914814242E+03  0.28351692705E+03  0.94637606103E+02 0.  0.
        -24    2    1    2    0    0 -0.76828873347E+02 -0.30533487895E+02  0.30702718389E+03  0.32783421992E+03  0.79841182628E+02 0.  0.
         11    1    4    4    0    0 -0.23209189674E+02 -0.46192608545E+02  0.90563499012E+02  0.10427929288E+03  0.00000000000E+00 0. -1.
        -12    1    4    4    0    0 -0.53619683673E+02  0.15659120650E+02  0.21646368488E+03  0.22355492705E+03  0.00000000000E+00 0.  1.
        -13    1    3    3    0    0  0.87623887824E+02  0.16349513720E+02  0.11520547577E+03  0.14566246587E+03  0.00000000000E+00 0.  1.
         13    1    3    3    0    0  0.78580141939E+01 -0.31645949696E+02  0.13394266664E+03  0.13785446118E+03  0.00000000000E+00 0. -1.
          4    1    1    2  501    0 -0.18653028672E+02  0.45829923870E+02 -0.11481060653E+02  0.50795001273E+02  0.00000000000E+00 0. -1.
<scales pt_clust_5="13000.00000" pt_clust_6="13000.00000" pt_clust_7="13000.00000" pt_clust_8="13000.00000" pt_clust_9="49.48050"></scales>
<clustering>
<clus scale="   49.480">  1  9  2 -1</clus>
<clus scale="   79.841">  5  6 -1 -1</clus>
<clus scale="   94.638">  7  8 -1 -1</clus>
<clus scale="  118.196">  1  5  2 -1</clus>
<clus scale="   49.480">  1  5  2 -1</clus>
</clustering>
</event>
<event>
 9    1  0.4664604E-005  0.9209862E+02  0.7546771E-02  0.1309240E+00
         21   -1    0    0  501  502  0.00000000000E+00  0.00000000000E+00  0.34169851384E+03  0.34169851384E+03  0.00000000000E+00 0.  1.
          1   -1    0    0  502    0 -0.00000000000E+00 -0.00000000000E+00 -0.46759462454E+02  0.46759462454E+02  0.00000000000E+00 0. -1.
         23    2    1    2    0    0  0.15099128053E+02  0.14684723847E+02  0.33607478005E+02  0.99763999947E+02  0.91541074524E+02 0.  0.
        -24    2    1    2    0    0  0.25013498986E+02  0.40722811060E+01  0.16046351837E+03  0.17853403533E+03  0.74051350018E+02 0.  0.
         13    1    4    4    0    0  0.34596539595E+02  0.25271677789E+02  0.14345187444E+03  0.14971312077E+03  0.00000000000E+00 0. -1.
        -14    1    4    4    0    0 -0.95830406088E+01 -0.21199396683E+02  0.17011643930E+02  0.28820914563E+02  0.00000000000E+00 0.  1.
        -11    1    3    3    0    0  0.34443241861E+02  0.44206526585E+02  0.31773771660E+02  0.64421475209E+02  0.00000000000E+00 0.  1.
         11    1    3    3    0    0 -0.19344113807E+02 -0.29521802738E+02  0.18337063445E+01  0.35342524738E+02  0.00000000000E+00 0. -1.
          2    1    1    2  501    0 -0.40112627040E+02 -0.18757004953E+02  0.10086805501E+03  0.11015994101E+03  0.00000000000E+00 0. -1.
<scales pt_clust_5="13000.00000" pt_clust_6="13000.00000" pt_clust_7="13000.00000" pt_clust_8="13000.00000" pt_clust_9="44.28146"></scales>
<clustering>
<clus scale="   44.281">  1  9  2 -1</clus>
<clus scale="   74.051">  5  6 -1 -1</clus>
<clus scale="   74.739">  1  5  2 -1</clus>
<clus scale="   91.541">  7  8 -1 -1</clus>
<clus scale="   44.281">  1  5  2 -1</clus>
</clustering>
</event>
<event>
 9    1  0.4664604E-005  0.9401918E+02  0.7546771E-02  0.1294348E+00
          1   -1    0    0  502    0 -0.00000000000E+00  0.00000000000E+00  0.51160911254E+03  0.51160911254E+03  0.00000000000E+00 0. -1.
         21   -1    0    0  501  502  0.00000000000E+00 -0.00000000000E+00 -0.95850825255E+02  0.95850825255E+02  0.00000000000E+00 0. -1.
         23    2    1    2    0    0 -0.30875887860E+02 -0.35921524397E+01  0.38518940165E+03  0.39722836786E+03  0.91941704784E+02 0.  0.
        -24    2    1    2    0    0 -0.56073125878E+02  0.34786082000E+02  0.48025192037E+02  0.11622138504E+03  0.82744935336E+02 0.  0.
         11    1    4    4    0    0 -0.59205085014E+02  0.52112423485E+02  0.56161833430E+02  0.96825091310E+02  0.00000000000E+00 0. -1.
        -12    1    4    4    0    0  0.31319591354E+01 -0.17326341485E+02 -0.81366413936E+01  0.19396293730E+02  0.00000000000E+00 0.  1.
        -13    1    3    3    0    0  0.17983483177E+02  0.26026746001E+02  0.68845166450E+02  0.75765784613E+02  0.00000000000E+00 0.  1.
         13    1    3    3    0    0 -0.48859371036E+02 -0.29618898441E+02  0.31634423520E+03  0.32146258325E+03  0.00000000000E+00 0. -1.
          2    1    1    2  501    0  0.86949013738E+02 -0.31193929560E+02 -0.17456306401E+02  0.94010184898E+02  0.00000000000E+00 0. -1.
<scales pt_clust_5="13000.00000" pt_clust_6="13000.00000" pt_clust_7="13000.00000" pt_clust_8="13000.00000" pt_clust_9="92.37528"></scales>
<clustering>
<clus scale="   82.745">  5  6 -1 -1</clus>
<clus scale="   91.942">  7  8 -1 -1</clus>
<clus scale="   92.375">  2  9  1 -1</clus>
<clus scale="   92.375">  2  5  1 -1</clus>
<clus scale="   92.375">  2  5  1 -1</clus>
</clustering>
</event>
<event>
 9    1  0.4664604E-005  0.1210711E+03  0.7546771E-02  0.1242355E+00
         -2   -1    0    0    0  501 -0.00000000000E+00  0.00000000000E+00  0.87722626789E+03  0.87722626789E+03  0.00000000000E+00 0.  1.
         21   -1    0    0  501  502  0.00000000000E+00 -0.00000000000E+00 -0.21434673016E+02  0.21434673016E+02  0.00000000000E+00 0. -1.
         23    2    1    2    0    0  0.81933989308E+02 -0.18825252926E+02  0.50047608199E+03  0.51534736817E+03  0.89660651789E+02 0.  0.
        -24    2    1    2    0    0 -0.66530335179E+02  0.55674240087E+01  0.23582123050E+03  0.26210331694E+03  0.92893564303E+02 0.  0.
         13    1    4    4    0    0 -0.55705184309E+02 -0.38110035311E+02  0.16405228549E+03  0.17739389709E+03  0.00000000000E+00 0. -1.
        -14    1    4    4    0    0 -0.10825150870E+02  0.43677459320E+02  0.71768945010E+02  0.84709419853E+02  0.00000000000E+00 0.  1.
        -11    1    3    3    0    0  0.14760363588E+02  0.33640654897E+02  0.12305900661E+03  0.12842539120E+03  0.00000000000E+00 0. -1.
         11    1    3    3    0    0  0.67173625720E+02 -0.52465907823E+02  0.37741707538E+03  0.38692197697E+03  0.00000000000E+00 0.  1.
         -1    1    1    2    0  502 -0.15403654129E+02  0.13257828917E+02  0.11949428238E+03  0.12121025580E+03  0.00000000000E+00 0.  1.
<scales pt_clust_5="13000.00000" pt_clust_6="13000.00000" pt_clust_7="13000.00000" pt_clust_8="13000.00000" pt_clust_9="20.32346"></scales>
<clustering>
<clus scale="   20.323">  2  9  1 -1</clus>
<clus scale="   89.661">  7  8 -1 -1</clus>
<clus scale="   92.894">  5  6 -1 -1</clus>
<clus scale="  118.609">  1  7  2 -1</clus>
<clus scale="   20.323">  2  5  1 -1</clus>
</clustering>
</event>
<event>
 9    1  0.4664604E-005  0.1125412E+03  0.7546771E-02  0.1259484E+00
          1   -1    0    0  502    0 -0.00000000000E+00  0.00000000000E+00  0.13696955227E+03  0.13696955227E+03  0.00000000000E+00 0. -1.
         21   -1    0    0  501  502  0.00000000000E+00 -0.00000000000E+00 -0.13043897945E+03  0.13043897945E+03  0.00000000000E+00 0. -1.
         23    2    1    2    0    0 -0.43362462979E+02  0.57288531135E+02  0.56482376543E+02  0.12884394184E+03  0.90819730752E+02 0.  0.
        -24    2    1    2    0    0  0.16122497036E+02 -0.56992514209E+02 -0.30298923454E+02  0.10497383113E+03  0.81199746750E+02 0.  0.
         13    1    4    4    0    0  0.36895047461E+01 -0.75499102038E+02 -0.12875141112E+02  0.76677872378E+02  0.00000000000E+00 0. -1.
        -14    1    4    4    0    0  0.12432992290E+02  0.18506587829E+02 -0.17423782342E+02  0.28295958748E+02  0.00000000000E+00 0.  1.
        -13    1    3    3    0    0  0.20224265669E+02 -0.65356922327E+01 -0.21333551670E+01  0.21360884792E+02  0.00000000000E+00 0.  1.
         13    1    3    3    0    0 -0.63586728648E+02  0.63824223368E+02  0.58615731710E+02  0.10748305705E+03  0.00000000000E+00 0. -1.
          2    1    1    2  501    0  0.27239965943E+02 -0.29601692670E+00 -0.19652880271E+02  0.33590758753E+02  0.00000000000E+00 0. -1.
<scales pt_clust_5="13000.00000" pt_clust_6="13000.00000" pt_clust_7="13000.00000" pt_clust_8="13000.00000" pt_clust_9="27.24157"></scales>
<clustering>
<clus scale="   27.242">  2  9  1 -1</clus>
<clus scale="   81.200">  5  6 -1 -1</clus>
<clus scale="   90.820">  7  8 -1 -1</clus>
<clus scale="  104.932">  2  5  1 -1</clus>
<clus scale="   27.242">  2  5  1 -1</clus>
</clustering>
</event>
<event>
 9    1  0.4664604E-005  0.1234687E+03  0.7546771E-02  0.1240167E+00
         21   -1    0    0  501  502  0.00000000000E+00  0.00000000000E+00  0.24704502852E+03  0.24704502852E+03  0.00000000000E+00 0.  1.
          3   -1    0    0  502    0 -0.00000000000E+00 -0.00000000000E+00 -0.13834869018E+03  0.13834869018E+03  0.00000000000E+00 0. -1.
        -24    2    1    2    0    0 -0.23776204846E+02  0.82289627752E+02 -0.21334786032E+02  0.12255383706E+03  0.85013993739E+02 0.  0.
         23    2    1    2    0    0  0.41308376945E+01 -0.75299095324E+02 -0.10434220860E+02  0.12083522958E+03  0.93836358450E+02 0.  0.
         13    1    3    3    0    0 -0.26985592803E+02  0.63976296929E+00 -0.30031146369E+02  0.40379465918E+02  0.00000000000E+00 0. -1.
        -14    1    3    3    0    0  0.32093879570E+01  0.81649864783E+02  0.86963603371E+01  0.82174371146E+02  0.00000000000E+00 0.  1.
        -11    1    4    4    0    0  0.33895183205E+02 -0.53951178189E+02  0.26327683661E+02  0.68940263993E+02  0.00000000000E+00 0.  1.
         11    1    4    4    0    0 -0.29764345510E+02 -0.21347917135E+02 -0.36761904522E+02  0.51894965591E+02  0.00000000000E+00 0. -1.
          4    1    1    2  501    0  0.19645367151E+02 -0.69905324279E+01  0.14046534523E+03  0.14200465205E+03  0.00000000000E+00 0. -1.
<scales pt_clust_5="13000.00000" pt_clust_6="13000.00000" pt_clust_7="13000.00000" pt_clust_8="13000.00000" pt_clust_9="20.85205"></scales>
<clustering>
<clus scale="   20.852">  1  9  2 -1</clus>
<clus scale="   85.014">  5  6 -1 -1</clus>
<clus scale="   93.836">  7  8 -1 -1</clus>
<clus scale="  116.904">  2  5  1 -1</clus>
<clus scale="   20.852">  1  5  2 -1</clus>
</clustering>
</event>
<event>
 9    1  0.4664604E-005  0.1493665E+03  0.7546771E-02  0.1204290E+00
          1   -1    0    0  502    0 -0.00000000000E+00  0.00000000000E+00  0.24457023420E+03  0.24457023420E+03  0.00000000000E+00 0. -1.
         21   -1    0    0  501  502  0.00000000000E+00 -0.00000000000E+00 -0.13081545338E+03  0.13081545338E+03  0.00000000000E+00 0. -1.
        -24    2    1    2    0    0 -0.83511241922E+02 -0.98455417701E+02  0.11701326846E+03  0.19180508229E+03  0.80184086920E+02 0.  0.
         23    2    1    2    0    0  0.35804282377E+02  0.85642337575E+02  0.51060671322E+01  0.13347975912E+03  0.95782135866E+02 0.  0.
         13    1    3    3    0    0 -0.47024288760E+02 -0.95182077637E+02  0.11284508286E+03  0.15493522635E+03  0.00000000000E+00 0. -1.
        -14    1    3    3    0    0 -0.36486953162E+02 -0.32733400633E+01  0.41681855965E+01  0.36869855944E+02  0.00000000000E+00 0.  1.
        -13    1    4    4    0    0  0.20985230402E+02  0.64898336974E+01  0.40064774998E+02  0.45691181120E+02  0.00000000000E+00 0.  1.
         13    1    4    4    0    0  0.14819051975E+02  0.79152503878E+02 -0.34958707866E+02  0.87788578000E+02  0.00000000000E+00 0. -1.
          2    1    1    2  501    0  0.47706959545E+02  0.12813080125E+02 -0.83645547714E+01  0.50100846179E+02  0.00000000000E+00 0. -1.
<scales pt_clust_5="13000.00000" pt_clust_6="13000.00000" pt_clust_7="13000.00000" pt_clust_8="13000.00000" pt_clust_9="49.39766"></scales>
<clustering>
<clus scale="   49.398">  2  9  1 -1</clus>
<clus scale="   80.184">  5  6 -1 -1</clus>
<clus scale="   95.782">  7  8 -1 -1</clus>
<clus scale="  139.877">  1  5  2 -1</clus>
<clus scale="   49.398">  2  5  1 -1</clus>
</clustering>
</event>
<event>
 9    1  0.4664604E-005  0.9128010E+02  0.7546771E-02  0.1305555E+00
          3   -1    0    0  502    0 -0.00000000000E+00  0.00000000000E+00  0.43360852449E+02  0.43360852449E+02  0.00000000000E+00 0. -1.
         21   -1    0    0  501  502  0.00000000000E+00 -0.00000000000E+00 -0.26245628836E+03  0.26245628836E+03  0.00000000000E+00 0. -1.
        -24    2    1    2    0    0 -0.26049158274E+02  0.40924498498E+01 -0.43805756955E+02  0.94961275726E+02  0.80021201895E+02 0.  0.
         23    2    1    2    0    0  0.81090897285E+00 -0.85652571698E+01 -0.11984689992E+03  0.14977495988E+03  0.89416094654E+02 0.  0.
         13    1    3    3    0    0 -0.19969838656E+02  0.44387669076E+01  0.21322463918E+02  0.29549019867E+02  0.00000000000E+00 0. -1.
        -14    1    3    3    0    0 -0.60793196177E+01 -0.34631705781E+00 -0.65128220873E+02  0.65412255859E+02  0.00000000000E+00 0.  1.
        -13    1    4    4    0    0  0.15499655583E+02  0.28903303547E+02 -0.12441991481E+02  0.35077677105E+02  0.00000000000E+00 0.  1.
         13    1    4    4    0    0 -0.14688746610E+02 -0.37468560716E+02 -0.10740490844E+03  0.11469728278E+03  0.00000000000E+00 0. -1.
          4    1    1    2  501    0  0.25238249301E+02  0.44728073199E+01 -0.55442779036E+02  0.61080905202E+02  0.00000000000E+00 0. -1.
<scales pt_clust_5="13000.00000" pt_clust_6="13000.00000" pt_clust_7="13000.00000" pt_clust_8="13000.00000" pt_clust_9="25.63153"></scales>
<clustering>
<clus scale="   25.632">  2  9  1 -1</clus>
<clus scale="   80.021">  5  6 -1 -1</clus>
<clus scale="   82.099">  1  5  2 -1</clus>
<clus scale="   89.416">  7  8 -1 -1</clus>
<clus scale="   25.632">  2  5  1 -1</clus>
</clustering>
</event>
<event>
 9    1  0.4664604E-005  0.1289662E+03  0.7546771E-02  0.1232384E+00
         21   -1    0    0  501  502  0.00000000000E+00  0.00000000000E+00  0.68633901154E+02  0.68633901154E+02  0.00000000000E+00 0. -1.
          3   -1    0    0  502    0 -0.00000000000E+00 -0.00000000000E+00 -0.43236029942E+03  0.43236029942E+03  0.00000000000E+00 0. -1.
        -24    2    1    2    0    0 -0.10035339346E+03 -0.11256356739E+02 -0.14412554889E+03  0.19288774137E+03  0.78968334052E+02 0.  0.
         23    2    1    2    0    0  0.56300889798E+02  0.78796853925E+02 -0.11542788930E+03  0.17637055882E+03  0.91674653033E+02 0.  0.
         11    1    3    3    0    0 -0.90063015842E+02 -0.22627012866E+02 -0.67652290354E+02  0.11489195326E+03  0.00000000000E+00 0. -1.
        -12    1    3    3    0    0 -0.10290377619E+02  0.11370656127E+02 -0.76473258534E+02  0.77995788112E+02  0.00000000000E+00 0.  1.
        -13    1    4    4    0    0  0.35110845863E+02 -0.12446597059E+02 -0.18558110192E+02  0.41618418152E+02  0.00000000000E+00 0.  1.
         13    1    4    4    0    0  0.21190043935E+02  0.91243450984E+02 -0.96869779111E+02  0.13475214067E+03  0.00000000000E+00 0. -1.
          4    1    1    2  501    0  0.44052503663E+02 -0.67540497186E+02 -0.10417296007E+03  0.13173590038E+03  0.00000000000E+00 0. -1.
<scales pt_clust_5="13000.00000" pt_clust_6="13000.00000" pt_clust_7="13000.00000" pt_clust_8="13000.00000" pt_clust_9="80.63714"></scales>
<clustering>
<clus scale="   78.968">  5  6 -1 -1</clus>
<clus scale="   80.637">  1  9  2 -1</clus>
<clus scale="   91.675">  7  8 -1 -1</clus>
<clus scale="  120.266">  2  5  1 -1</clus>
<clus scale="   80.637">  1  5  2 -1</clus>
</clustering>
</event>
<event>
 9    1  0.4664604E-005  0.1478538E+03  0.7546771E-02  0.1209325E+00
          1   -1    0    0  502    0 -0.00000000000E+00  0.00000000000E+00  0.15372562645E+03  0.15372562645E+03  0.00000000000E+00 0. -1.
         21   -1    0    0  501  502  0.00000000000E+00 -0.00000000000E+00 -0.39721712104E+03  0.39721712104E+03  0.00000000000E+00 0.  1.
         23    2    1    2    0    0  0.95623271266E+02  0.62008031839E+00  0.40175684088E+02  0.13552904305E+03  0.87234404973E+02 0.  0.
        -24    2    1    2    0    0 -0.42795183841E+02  0.12195125454E+03 -0.21802486914E+03  0.26667416110E+03  0.82926041687E+02 0.  0.
         13    1    4    4    0    0  0.24125108388E+02  0.19156756160E+02 -0.40096072956E+02  0.50563793645E+02  0.00000000000E+00 0. -1.
        -14    1    4    4    0    0 -0.66920292228E+02  0.10279449838E+03 -0.17792879619E+03  0.21611036745E+03  0.00000000000E+00 0.  1.
        -13    1    3    3    0    0  0.34886677282E+02  0.31348948177E+02  0.47882384368E+02  0.67026558440E+02  0.00000000000E+00 0.  1.
         13    1    3    3    0    0  0.60736593984E+02 -0.30728867858E+02 -0.77067002797E+01  0.68502484611E+02  0.00000000000E+00 0. -1.
          2    1    1    2  501    0 -0.52828087425E+02 -0.12257133486E+03 -0.65642309541E+02  0.14873954334E+03  0.00000000000E+00 0. -1.
<scales pt_clust_5="13000.00000" pt_clust_6="13000.00000" pt_clust_7="13000.00000" pt_clust_8="13000.00000" pt_clust_9="122.40934"></scales>
<clustering>
<clus scale="   82.926">  5  6 -1 -1</clus>
<clus scale="   87.234">  7  8 -1 -1</clus>
<clus scale="  129.437">  1  7  2 -1</clus>
<clus scale="  122.409">  2  9  1 -1</clus>
<clus scale="  122.409">  2  5  1 -1</clus>
</clustering>
</event>
<event>
 9    1  0.4664604E-005  0.1905284E+03  0.7546771E-02  0.1158560E+00
          1   -1    0    0  502    0 -0.00000000000E+00  0.00000000000E+00  0.66176181713E+03  0.66176181713E+03  0.00000000000E+00 0. -1.
         21   -1    0    0  501  502  0.00000000000E+00 -0.00000000000E+00 -0.89922253488E+02  0.89922253488E+02  0.00000000000E+00 0.  1.
        -24    2    1    2    0    0  0.83237638245E+02 -0.15468966957E+03  0.45818268290E+03  0.49649616964E+03  0.75628547961E+02 0.  0.
         23    2    1    2    0    0 -0.95408436149E+02  0.12945377273E+03  0.52433635158E+02  0.18785837840E+03  0.81733929768E+02 0.  0.
         11    1    3    3    0    0  0.62128567989E+02 -0.15092785901E+03  0.43643618945E+03  0.46595678453E+03  0.00000000000E+00 0. -1.
        -12    1    3    3    0    0  0.21109070256E+02 -0.37618105660E+01  0.21746493447E+02  0.30539385112E+02  0.00000000000E+00 0.  1.
        -11    1    4    4    0    0 -0.10240698460E+03  0.90115886538E+02  0.23247152902E+02  0.13837808215E+03  0.00000000000E+00 0.  1.
         11    1    4    4    0    0  0.69985484471E+01  0.39337886192E+02  0.29186482257E+02  0.49480296250E+02  0.00000000000E+00 0. -1.
          2    1    1    2  501    0  0.12170797904E+02  0.25235896841E+02  0.61223245582E+02  0.67329522578E+02  0.00000000000E+00 0. -1.
<scales pt_clust_5="13000.00000" pt_clust_6="13000.00000" pt_clust_7="13000.00000" pt_clust_8="13000.00000" pt_clust_9="28.01749"></scales>
<clustering>
<clus scale="   28.017">  2  9  1 -1</clus>
<clus scale="   75.629">  5  6 -1 -1</clus>
<clus scale="   81.734">  7  8 -1 -1</clus>
<clus scale="  187.990">  1  5  2 -1</clus>
<clus scale="   28.017">  2  5  1 -1</clus>
</clustering>
</event>
<event>
 9    1  0.4664604E-005  0.9265988E+02  0.7546771E-02  0.1305930E+00
          1   -1    0    0  502    0 -0.00000000000E+00  0.00000000000E+00  0.69489858253E+03  0.69489858253E+03  0.00000000000E+00 0. -1.
         21   -1    0    0  501  502  0.00000000000E+00 -0.00000000000E+00 -0.32497349202E+02  0.32497349202E+02  0.00000000000E+00 0.  1.
        -24    2    1    2    0    0  0.33654203442E+00  0.21337453115E+02  0.50785965329E+03  0.51400412872E+03  0.76311314636E+02 0.  0.
         23    2    1    2    0    0  0.20645994533E+02  0.23216026639E+02  0.87525094137E+02  0.13022637280E+03  0.91285404559E+02 0.  0.
         13    1    3    3    0    0 -0.14322118490E+02  0.45725664103E+02  0.24761662650E+03  0.25221013690E+03  0.00000000000E+00 0. -1.
        -14    1    3    3    0    0  0.14658660525E+02 -0.24388210988E+02  0.26024302679E+03  0.26179399182E+03  0.00000000000E+00 0.  1.
        -13    1    4    4    0    0  0.34907932695E+02  0.38570214827E+02  0.14141524965E+02  0.53909256767E+02  0.00000000000E+00 0.  1.
         13    1    4    4    0    0 -0.14261938162E+02 -0.15354188188E+02  0.73383569172E+02  0.76317116032E+02  0.00000000000E+00 0. -1.
          2    1    1    2  501    0 -0.20982536568E+02 -0.44553479754E+02  0.67016485899E+02  0.83165430206E+02  0.00000000000E+00 0. -1.
<scales pt_clust_5="13000.00000" pt_clust_6="13000.00000" pt_clust_7="13000.00000" pt_clust_8="13000.00000" pt_clust_9="49.24713"></scales>
<clustering>
<clus scale="   49.247">  2  9  1 -1</clus>
<clus scale="   76.311">  5  6 -1 -1</clus>
<clus scale="   77.950">  1  5  2 -1</clus>
<clus scale="   91.285">  7  8 -1 -1</clus>
<clus scale="   49.247">  2  5  1 -1</clus>
</clustering>
</event>
<event>
 9    1  0.4664604E-005  0.2138925E+03  0.7546771E-02  0.1168381E+00
          1   -1    0    0  502    0 -0.00000000000E+00  0.00000000000E+00  0.28187120786E+03  0.28187120786E+03  0.00000000000E+00 0. -1.
         21   -1    0    0  501  502  0.00000000000E+00 -0.00000000000E+00 -0.34952939377E+03  0.34952939377E+03  0.00000000000E+00 0.  1.
         23    2    1    2    0    0 -0.15072445644E+02  0.16351877386E+02  0.58239531737E+01  0.10602250667E+03  0.10350019796E+03 0.  0.
        -24    2    1    2    0    0  0.14998616387E+02 -0.20054058002E+03 -0.20530072898E+03  0.29887947627E+03  0.82091834469E+02 0.  0.
         11    1    4    4    0    0  0.25598462285E+02 -0.51064620823E+02 -0.19893937324E+02  0.60486738327E+02  0.00000000000E+00 0. -1.
        -12    1    4    4    0    0 -0.10599845898E+02 -0.14947595919E+03 -0.18540679166E+03  0.23839273794E+03  0.00000000000E+00 0.  1.
        -11    1    3    3    0    0  0.31480607880E+02 -0.26321942414E+02  0.11498377993E+02  0.42615560789E+02  0.00000000000E+00 0.  1.
         11    1    3    3    0    0 -0.46553053524E+02  0.42673819800E+02 -0.56744248193E+01  0.63406945879E+02  0.00000000000E+00 0. -1.
          2    1    1    2  501    0  0.73829257709E-01  0.18418870263E+03  0.13181858989E+03  0.22649861869E+03  0.00000000000E+00 0. -1.
<scales pt_clust_5="13000.00000" pt_clust_6="13000.00000" pt_clust_7="13000.00000" pt_clust_8="13000.00000" pt_clust_9="197.51198"></scales>
<clustering>
<clus scale="   82.092">  5  6 -1 -1</clus>
<clus scale="  103.500">  7  8 -1 -1</clus>
<clus scale="  105.862">  1  7  2 -1</clus>
<clus scale="  197.512">  2  9  1 -1</clus>
<clus scale="  197.512">  2  5  1 -1</clus>
</clustering>
</event>
<event>
 9    1  0.4664604E-005  0.1434352E+03  0.7546771E-02  0.1210561E+00
          1   -1    0    0  502    0 -0.00000000000E+00  0.00000000000E+00  0.77838002442E+03  0.77838002442E+03  0.00000000000E+00 0. -1.
         21   -1    0    0  501  502  0.00000000000E+00 -0.00000000000E+00 -0.52056354643E+02  0.52056354643E+02  0.00000000000E+00 0. -1.
         23    2    1    2    0    0 -0.70486764825E+02 -0.87424088702E+02  0.52088121893E+03  0.54002324091E+03  0.87729705324E+02 0.  0.
        -24    2    1    2    0    0  0.37523196603E+02  0.11902995780E+03  0.10811185303E+03  0.18290140361E+03  0.78667843120E+02 0.  0.
         13    1    4    4    0    0 -0.18311756927E+02  0.72256900576E+02  0.50550709241E+02  0.90065278145E+02  0.00000000000E+00 0. -1.
        -14    1    4    4    0    0  0.55834953529E+02  0.46773057220E+02  0.57561143787E+02  0.92836125465E+02  0.00000000000E+00 0.  1.
        -11    1    3    3    0    0 -0.16855179479E+02 -0.74865094266E+02  0.19566565088E+03  0.21017594141E+03  0.00000000000E+00 0.  1.
         11    1    3    3    0    0 -0.53631585346E+02 -0.12558994435E+02  0.32521556805E+03  0.32984729950E+03  0.00000000000E+00 0. -1.
          2    1    1    2  501    0  0.32963568223E+02 -0.31605869095E+02  0.97330597823E+02  0.10751173454E+03  0.00000000000E+00 0. -1.
<scales pt_clust_5="13000.00000" pt_clust_6="13000.00000" pt_clust_7="13000.00000" pt_clust_8="13000.00000" pt_clust_9="45.66760"></scales>
<clustering>
<clus scale="   45.668">  2  9  1 -1</clus>
<clus scale="   78.668">  5  6 -1 -1</clus>
<clus scale="   87.730">  7  8 -1 -1</clus>
<clus scale="  138.079">  2  5  1 -1</clus>
<clus scale="   45.668">  2  5  1 -1</clus>
</clustering>
</event>
<event>
 9    1  0.4664604E-005  0.1320784E+03  0.7546771E-02  0.1245101E+00
         21   -1    0    0  501  502  0.00000000000E+00  0.00000000000E+00  0.36222494538E+03  0.36222494538E+03  0.00000000000E+00 0.  1.
         -2   -1    0    0    0  501 -0.00000000000E+00 -0.00000000000E+00 -0.11556981507E+03  0.11556981507E+03  0.00000000000E+00 0.  1.
        -24    2    1    2    0    0  0.50887139669E+01  0.30712251104E+02  0.17397074912E+02  0.88165520361E+02  0.80631032408E+02 0.  0.
         23    2    1    2    0    0  0.79300798983E+02  0.21451849544E+02 -0.18130310844E+02  0.12308902353E+03  0.89852106121E+02 0.  0.
         13    1    3    3    0    0 -0.28189081170E+02  0.30225610189E+02  0.31553592299E+02  0.51998471088E+02  0.00000000000E+00 0. -1.
        -14    1    3    3    0    0  0.33277795137E+02  0.48664091541E+00 -0.14156517387E+02  0.36167049273E+02  0.00000000000E+00 0.  1.
        -11    1    4    4    0    0  0.50045033384E+02  0.22572284630E+02 -0.53851754441E+02  0.76902697327E+02  0.00000000000E+00 0.  1.
         11    1    4    4    0    0  0.29255765598E+02 -0.11204350858E+01  0.35721443597E+02  0.46186326204E+02  0.00000000000E+00 0. -1.
         -1    1    1    2    0  502 -0.84389512950E+02 -0.52164100649E+02  0.24738836624E+03  0.26654021656E+03  0.00000000000E+00 0.  1.
<scales pt_clust_5="13000.00000" pt_clust_6="13000.00000" pt_clust_7="13000.00000" pt_clust_8="13000.00000" pt_clust_9="96.80543"></scales>
<clustering>
<clus scale="   80.631">  5  6 -1 -1</clus>
<clus scale="   86.432">  2  5  1 -1</clus>
<clus scale="   89.852">  7  8 -1 -1</clus>
<clus scale="   96.805">  1  9  2 -1</clus>
<clus scale="   96.805">  1  5  2 -1</clus>
</clustering>
</event>
<event>
 9    1  0.4664604E-005  0.4774711E+03  0.7546771E-02  0.1019832E+00
         21   -1    0    0  501  502  0.00000000000E+00  0.00000000000E+00  0.10496223836E+04  0.10496223836E+04  0.00000000000E+00 0.  1.
         -4   -1    0    0    0  501 -0.00000000000E+00 -0.00000000000E+00 -0.24036740580E+03  0.24036740580E+03  0.00000000000E+00 0.  1.
        -24    2    1    2    0    0 -0.78633962678E+02  0.18029389410E+03  0.31890343827E+03  0.38342915850E+03  0.81420687234E+02 0.  0.
         23    2    1    2    0    0 -0.43489938350E+02  0.24738074909E+03  0.35341859777E+03  0.44118929725E+03  0.81576228129E+02 0.  0.
         11    1    3    3    0    0  0.16155326998E+02  0.34604569855E+02  0.44865153478E+02  0.58918187700E+02  0.00000000000E+00 0. -1.
        -12    1    3    3    0    0 -0.94789289676E+02  0.14568932425E+03  0.27403828479E+03  0.32451097080E+03  0.00000000000E+00 0.  1.
        -13    1    4    4    0    0 -0.46453387488E+02  0.17425607382E+03  0.18909041170E+03  0.26130112948E+03  0.00000000000E+00 0.  1.
         13    1    4    4    0    0  0.29634491380E+01  0.73124675276E+02  0.16432818607E+03  0.17988816777E+03  0.00000000000E+00 0. -1.
         -3    1    1    2    0  502  0.12212390103E+03 -0.42767464320E+03  0.13693294175E+03  0.46537133364E+03  0.00000000000E+00 0.  1.
<scales pt_clust_5="13000.00000" pt_clust_6="13000.00000" pt_clust_7="13000.00000" pt_clust_8="13000.00000" pt_clust_9="444.76965"></scales>
<clustering>
<clus scale="   81.421">  5  6 -1 -1</clus>
<clus scale="   81.576">  7  8 -1 -1</clus>
<clus scale="   96.349">  5  7 -1 -1</clus>
<clus scale="  444.770">  1  9  2 -1</clus>
<clus scale="  444.770">  1  5  2 -1</clus>
</clustering>
</event>
<event>
 9    1  0.4664604E-005  0.1058351E+03  0.7546771E-02  0.1273290E+00
          1   -1    0    0  502    0 -0.00000000000E+00  0.00000000000E+00  0.21805948359E+03  0.21805948359E+03  0.00000000000E+00 0. -1.
         21   -1    0    0  501  502  0.00000000000E+00 -0.00000000000E+00 -0.16425241777E+03  0.16425241777E+03  0.00000000000E+00 0. -1.
         23    2    1    2    0    0 -0.46286665240E+02  0.37573608275E+02  0.17437307216E+03  0.20571055896E+03  0.91414628776E+02 0.  0.
        -24    2    1    2    0    0  0.21945824345E+02  0.74303842052E+00 -0.71871148356E+02  0.11002934270E+03  0.80366802707E+02 0.  0.
         13    1    4    4    0    0 -0.23074607098E+02  0.12286797246E+02 -0.21408239431E+01  0.26229487346E+02  0.00000000000E+00 0. -1.
        -14    1    4    4    0    0  0.45020431443E+02 -0.11543758825E+02 -0.69730324413E+02  0.83799855357E+02  0.00000000000E+00 0.  1.
        -11    1    3    3    0    0 -0.51246581176E+02  0.34233182147E+01  0.35057942243E+02  0.62185130893E+02  0.00000000000E+00 0.  1.
         11    1    3    3    0    0  0.49599159357E+01  0.34150290061E+02  0.13931512992E+03  0.14352542807E+03  0.00000000000E+00 0. -1.
          2    1    1    2  501    0  0.24340840895E+02 -0.38316646696E+02 -0.48694857984E+02  0.66571999697E+02  0.00000000000E+00 0. -1.
<scales pt_clust_5="13000.00000" pt_clust_6="13000.00000" pt_clust_7="13000.00000" pt_clust_8="13000.00000" pt_clust_9="45.39429"></scales>
<clustering>
<clus scale="   45.394">  2  9  1 -1</clus>
<clus scale="   80.367">  5  6 -1 -1</clus>
<clus scale="   91.415">  7  8 -1 -1</clus>
<clus scale="   96.453">  2  5  1 -1</clus>
<clus scale="   45.394">  2  5  1 -1</clus>
</clustering>
</event>
<event>
 9    1  0.4664604E-005  0.9368484E+02  0.7546771E-02  0.1300168E+00
         21   -1    0    0  501  502  0.00000000000E+00  0.00000000000E+00  0.22010897001E+03  0.22010897001E+03  0.00000000000E+00 0. -1.
         -2   -1    0    0    0  501 -0.00000000000E+00 -0.00000000000E+00 -0.78295171986E+02  0.78295171986E+02  0.00000000000E+00 0.  1.
        -24    2    1    2    0    0  0.36688853462E+02 -0.25501264548E+02  0.35899934094E+02  0.98223784992E+02  0.79766661007E+02 0.  0.
         23    2    1    2    0    0 -0.30570875822E+01 -0.25312095323E+02  0.10299327430E+03  0.13917525016E+03  0.90067129140E+02 0.  0.
         11    1    3    3    0    0  0.13170499235E+02 -0.40204347273E+02 -0.11020587419E+02  0.43718473633E+02  0.00000000000E+00 0. -1.
        -12    1    3    3    0    0  0.23518354227E+02  0.14703082725E+02  0.46920521514E+02  0.54505311359E+02  0.00000000000E+00 0.  1.
        -13    1    4    4    0    0  0.32232257591E+02 -0.23279029527E+01  0.89178125645E+02  0.94852915902E+02  0.00000000000E+00 0. -1.
         13    1    4    4    0    0 -0.35289345173E+02 -0.22984192370E+02  0.13815148657E+02  0.44322334258E+02  0.00000000000E+00 0.  1.
         -1    1    1    2    0  502 -0.33631765880E+02  0.50813359871E+02  0.29205896306E+01  0.61005106847E+02  0.00000000000E+00 0.  1.
<scales pt_clust_5="13000.00000" pt_clust_6="13000.00000" pt_clust_7="13000.00000" pt_clust_8="13000.00000" pt_clust_9="60.93519"></scales>
<clustering>
<clus scale="   60.935">  1  9  2 -1</clus>
<clus scale="   79.767">  5  6 -1 -1</clus>
<clus scale="   83.830">  2  5  1 -1</clus>
<clus scale="   90.067">  7  8 -1 -1</clus>
<clus scale="   60.935">  1  5  2 -1</clus>
</clustering>
</event>
<event>
 9    1  0.4664604E-005  0.1046756E+03  0.7546771E-02  0.1275649E+00
          3   -1    0    0  502    0 -0.00000000000E+00  0.00000000000E+00  0.97834323347E+02  0.97834323347E+02  0.00000000000E+00 0. -1.
         21   -1    0    0  501  502  0.00000000000E+00 -0.00000000000E+00 -0.58174232886E+03  0.58174232886E+03  0.00000000000E+00 0.  1.
         23    2    1    2    0    0  0.80812144868E+01 -0.49724055859E+02  0.59018707732E+02  0.11995421523E+03  0.91476872106E+02 0.  0.
        -24    2    1    2    0    0 -0.36836850807E+02  0.50982092361E+02 -0.35194782522E+03  0.36648672058E+03  0.80555057980E+02 0.  0.
         13    1    4    4    0    0 -0.38192412100E+02 -0.43437673520E+01 -0.22110125439E+03  0.22441767611E+03  0.00000000000E+00 0. -1.
        -14    1    4    4    0    0  0.13555612930E+01  0.55325859713E+02 -0.13084657082E+03  0.14206904447E+03  0.00000000000E+00 0.  1.
        -13    1    3    3    0    0  0.28197175733E+02 -0.70206375124E+02  0.40875381131E+02  0.85993096293E+02  0.00000000000E+00 0.  1.
         13    1    3    3    0    0 -0.20115961246E+02  0.20482319265E+02  0.18143326601E+02  0.33961118937E+02  0.00000000000E+00 0. -1.
          4    1    1    2  501    0  0.28755636320E+02 -0.12580365018E+01 -0.19097888803E+03  0.19313571640E+03  0.00000000000E+00 0. -1.
<scales pt_clust_5="13000.00000" pt_clust_6="13000.00000" pt_clust_7="13000.00000" pt_clust_8="13000.00000" pt_clust_9="28.78314"></scales>
<clustering>
<clus scale="   28.783">  2  9  1 -1</clus>
<clus scale="   80.555">  5  6 -1 -1</clus>
<clus scale="   91.477">  7  8 -1 -1</clus>
<clus scale="   95.279">  2  5  1 -1</clus>
<clus scale="   28.783">  2  5  1 -1</clus>
</clustering>
</event>
<event>
 9    1  0.4664604E-005  0.1030600E+03  0.7546771E-02  0.1283791E+00
          1   -1    0    0  502    0 -0.00000000000E+00  0.00000000000E+00  0.51189585817E+03  0.51189585817E+03  0.00000000000E+00 0. -1.
         21   -1    0    0  501  502  0.00000000000E+00 -0.00000000000E+00 -0.27930530865E+02  0.27930530865E+02  0.00000000000E+00 0.  1.
         23    2    1    2    0    0  0.26691883003E+02 -0.34788209043E+02  0.33837454454E+03  0.35415027843E+03  0.94881037164E+02 0.  0.
        -24    2    1    2    0    0 -0.36206458742E+02  0.13288682487E+02  0.13611341904E+03  0.16032700378E+03  0.75434664186E+02 0.  0.
         13    1    4    4    0    0  0.21966778687E+02  0.10995776525E+02  0.25993339448E+02  0.35764509824E+02  0.00000000000E+00 0. -1.
        -14    1    4    4    0    0 -0.58173237429E+02  0.22929059621E+01  0.11012007959E+03  0.12456249395E+03  0.00000000000E+00 0.  1.
        -13    1    3    3    0    0 -0.29689086464E+02 -0.32857252211E+00  0.48719851909E+02  0.57054130307E+02  0.00000000000E+00 0.  1.
         13    1    3    3    0    0  0.56380969468E+02 -0.34459636521E+02  0.28965469263E+03  0.29709614813E+03  0.00000000000E+00 0. -1.
          2    1    1    2  501    0  0.95145757383E+01  0.21499526555E+02  0.94773637213E+01  0.25349106822E+02  0.00000000000E+00 0. -1.
<scales pt_clust_5="13000.00000" pt_clust_6="13000.00000" pt_clust_7="13000.00000" pt_clust_8="13000.00000" pt_clust_9="23.51078"></scales>
<clustering>
<clus scale="   23.511">  2  9  1 -1</clus>
<clus scale="   75.435">  5  6 -1 -1</clus>
<clus scale="   85.495">  2  5  1 -1</clus>
<clus scale="   94.881">  7  8 -1 -1</clus>
<clus scale="   23.511">  2  5  1 -1</clus>
</clustering>
</event>
<event>
 9    1  0.4664604E-005  0.1145167E+03  0.7546771E-02  0.1256388E+00
         -4   -1    0    0    0  501 -0.00000000000E+00  0.00000000000E+00  0.58231759887E+02  0.58231759887E+02  0.00000000000E+00 0.  1.
         21   -1    0    0  501  502  0.00000000000E+00 -0.00000000000E+00 -0.77367371574E+03  0.77367371574E+03  0.00000000000E+00 0. -1.
         23    2    1    2    0    0 -0.60672559981E+02 -0.35774304350E+01 -0.59326481851E+02  0.12508604093E+03  0.91830978676E+02 0.  0.
        -24    2    1    2    0    0  0.11376291262E+03 -0.62754764824E+02 -0.54999830845E+03  0.57088048334E+03  0.80785061472E+02 0.  0.
         13    1    4    4    0    0  0.68300816452E+02 -0.63953793629E+02 -0.46658986133E+03  0.47587938382E+03  0.00000000000E+00 0. -1.
        -14    1    4    4    0    0  0.45462096170E+02  0.11990288049E+01 -0.83408447127E+02  0.95001099521E+02  0.00000000000E+00 0.  1.
        -11    1    3    3    0    0  0.12856665556E+02  0.17728375669E+02 -0.40825621486E+02  0.46328398664E+02  0.00000000000E+00 0. -1.
         11    1    3    3    0    0 -0.73529225536E+02 -0.21305806104E+02 -0.18500860365E+02  0.78757642270E+02  0.00000000000E+00 0.  1.
         -3    1    1    2    0  502 -0.53090352641E+02  0.66332195259E+02 -0.10611716554E+03  0.13593895135E+03  0.00000000000E+00 0.  1.
<scales pt_clust_5="13000.00000" pt_clust_6="13000.00000" pt_clust_7="13000.00000" pt_clust_8="13000.00000" pt_clust_9="84.96207"></scales>
<clustering>
<clus scale="   80.785">  5  6 -1 -1</clus>
<clus scale="   84.962">  2  9  1 -1</clus>
<clus scale="   91.831">  7  8 -1 -1</clus>
<clus scale="  105.865">  2  5  1 -1</clus>
<clus scale="   84.962">  2  5  1 -1</clus>
</clustering>
</event>
<event>
 9    1  0.4664604E-005  0.1361456E+03  0.7546771E-02  0.1220525E+00
          1   -1    0    0  502    0 -0.00000000000E+00  0.00000000000E+00  0.23406120177E+03  0.23406120177E+03  0.00000000000E+00 0. -1.
         21   -1    0    0  501  502  0.00000000000E+00 -0.00000000000E+00 -0.43979667966E+03  0.43979667966E+03  0.00000000000E+00 0. -1.
        -24    2    1    2    0    0  0.88317666366E+02 -0.39410069191E+02  0.82084432476E+01  0.12682253000E+03  0.81629723932E+02 0.  0.
         23    2    1    2    0    0 -0.13960807064E+03  0.20379957401E+02 -0.35678464802E+03  0.39407678194E+03  0.89974823965E+02 0.  0.
         13    1    3    3    0    0  0.94477673101E+02 -0.53212852202E+02  0.16343480017E+02  0.10965741057E+03  0.00000000000E+00 0. -1.
        -14    1    3    3    0    0 -0.61600067348E+01  0.13802783011E+02 -0.81350367689E+01  0.17165119430E+02  0.00000000000E+00 0.  1.
        -11    1    4    4    0    0 -0.77084921943E+02 -0.75799677219E+01 -0.28297918395E+03  0.29338841090E+03  0.00000000000E+00 0.  1.
         11    1    4    4    0    0 -0.62523148692E+02  0.27959925123E+02 -0.73805464075E+02  0.10068837104E+03  0.00000000000E+00 0. -1.
          2    1    1    2  501    0  0.51290404269E+02  0.19030111790E+02  0.14284072688E+03  0.15295856949E+03  0.00000000000E+00 0. -1.
<scales pt_clust_5="13000.00000" pt_clust_6="13000.00000" pt_clust_7="13000.00000" pt_clust_8="13000.00000" pt_clust_9="54.70698"></scales>
<clustering>
<clus scale="   54.707">  2  9  1 -1</clus>
<clus scale="   81.630">  5  6 -1 -1</clus>
<clus scale="   89.975">  7  8 -1 -1</clus>
<clus scale="  130.781">  1  5  2 -1</clus>
<clus scale="   54.707">  2  5  1 -1</clus>
</clustering>
</event>
<event>
 9    1  0.4664604E-005  0.1492891E+03  0.7546771E-02  0.1209346E+00
         21   -1    0    0  501  502  0.00000000000E+00  0.00000000000E+00  0.12212056589E+03  0.12212056589E+03  0.00000000000E+00 0.  1.
         -2   -1    0    0    0  501 -0.00000000000E+00 -0.00000000000E+00 -0.44148460290E+03  0.44148460290E+03  0.00000000000E+00 0.  1.
         23    2    1    2    0    0  0.80354933974E+02 -0.24523740043E+02  0.94961985722E+01  0.12604194202E+03  0.93477612945E+02 0.  0.
        -24    2    1    2    0    0  0.56859003019E+02  0.89358008071E+02 -0.19297784945E+03  0.23385959480E+03  0.78943396603E+02 0.  0.
         13    1    4    4    0    0  0.35075732560E+02 -0.40173396910E+01 -0.64723719478E+02  0.73726561671E+02  0.00000000000E+00 0. -1.
        -14    1    4    4    0    0  0.21783270459E+02  0.93375347762E+02 -0.12825412998E+03  0.16013303312E+03  0.00000000000E+00 0.  1.
        -13    1    3    3    0    0  0.63495338043E+01 -0.47348556935E+02 -0.16374632502E+01  0.47800457208E+02  0.00000000000E+00 0. -1.
         13    1    3    3    0    0  0.74005400170E+02  0.22824816893E+02  0.11133661822E+02  0.78241484815E+02  0.00000000000E+00 0.  1.
         -1    1    1    2    0  502 -0.13721393699E+03 -0.64834268028E+02 -0.13588238613E+03  0.20370363197E+03  0.00000000000E+00 0.  1.
<scales pt_clust_5="13000.00000" pt_clust_6="13000.00000" pt_clust_7="13000.00000" pt_clust_8="13000.00000" pt_clust_9="126.70907"></scales>
<clustering>
<clus scale="   78.943">  5  6 -1 -1</clus>
<clus scale="   93.478">  7  8 -1 -1</clus>
<clus scale="  125.684">  2  7  1 -1</clus>
<clus scale="  126.709">  1  9  2 -1</clus>
<clus scale="  126.709">  1  5  2 -1</clus>
</clustering>
</event>
<event>
 9    1  0.4664604E-005  0.1561519E+03  0.7546771E-02  0.1214815E+00
          1   -1    0    0  502    0 -0.00000000000E+00  0.00000000000E+00  0.14944149682E+04  0.14944149682E+04  0.00000000000E+00 0. -1.
         21   -1    0    0  501  502  0.00000000000E+00 -0.00000000000E+00 -0.28076244404E+02  0.28076244404E+02  0.00000000000E+00 0.  1.
        -24    2    1    2    0    0 -0.39935231415E+02 -0.29676430773E+02  0.65127169229E+03  0.65856887400E+03  0.84158370785E+02 0.  0.
         23    2    1    2    0    0  0.54204488033E+02 -0.10286458706E+03  0.49703576026E+03  0.51908234298E+03  0.94247981523E+02 0.  0.
         11    1    3    3    0    0  0.69785814338E+01 -0.21968528091E+02  0.46187484768E+02  0.51619769221E+02  0.00000000000E+00 0. -1.
        -12    1    3    3    0    0 -0.46913812849E+02 -0.77079026820E+01  0.60508420752E+03  0.60694910478E+03  0.00000000000E+00 0.  1.
        -11    1    4    4    0    0 -0.19700754582E+02 -0.61401785936E+02  0.23482555133E+03  0.24351866171E+03  0.00000000000E+00 0. -1.
         11    1    4    4    0    0  0.73905242616E+02 -0.41462801120E+02  0.26221020893E+03  0.27556368127E+03  0.00000000000E+00 0.  1.
          2    1    1    2  501    0 -0.14269256618E+02  0.13254101783E+03  0.31803127123E+03  0.34483999561E+03  0.00000000000E+00 0. -1.
<scales pt_clust_5="13000.00000" pt_clust_6="13000.00000" pt_clust_7="13000.00000" pt_clust_8="13000.00000" pt_clust_9="124.50200"></scales>
<clustering>
<clus scale="   84.158">  5  6 -1 -1</clus>
<clus scale="   94.248">  7  8 -1 -1</clus>
<clus scale="   97.766">  1  5  2 -1</clus>
<clus scale="  124.502">  2  9  1 -1</clus>
<clus scale="  124.502">  2  5  1 -1</clus>
</clustering>
</event>
<event>
 9    1  0.4664604E-005  0.1121024E+03  0.7546771E-02  0.1265812E+00
         21   -1    0    0  501  502  0.00000000000E+00  0.00000000000E+00  0.55520924911E+03  0.55520924911E+03  0.00000000000E+00 0.  1.
          3   -1    0    0  502    0 -0.00000000000E+00 -0.00000000000E+00 -0.31030458766E+02  0.31030458766E+02  0.00000000000E+00 0. -1.
         23    2    1    2    0    0 -0.58795713818E+02  0.26604192303E+02  0.15630825968E+03  0.19481955628E+03  0.96735042535E+02 0.  0.
        -24    2    1    2    0    0  0.46249126246E+02  0.49890069187E+01  0.32495043731E+03  0.33666906476E+03  0.74762293866E+02 0.  0.
         11    1    4    4    0    0 -0.20201904106E+01 -0.26698525680E+02  0.63418533053E+02  0.68838962640E+02  0.00000000000E+00 0. -1.
        -12    1    4    4    0    0  0.48269316657E+02  0.31687532598E+02  0.26153190426E+03  0.26783010212E+03  0.00000000000E+00 0.  1.
        -11    1    3    3    0    0 -0.85113550944E+02  0.11663856713E+02  0.11930101448E+03  0.14701392507E+03  0.00000000000E+00 0.  1.
         11    1    3    3    0    0  0.26317837126E+02  0.14940335590E+02  0.37007245195E+02  0.47805631211E+02  0.00000000000E+00 0. -1.
          4    1    1    2  501    0  0.12546587571E+02 -0.31593199222E+02  0.42920093353E+02  0.54751086840E+02  0.00000000000E+00 0. -1.
<scales pt_clust_5="13000.00000" pt_clust_6="13000.00000" pt_clust_7="13000.00000" pt_clust_8="13000.00000" pt_clust_9="33.99336"></scales>
<clustering>
<clus scale="   33.993">  1  9  2 -1</clus>
<clus scale="   74.762">  5  6 -1 -1</clus>
<clus scale="   93.801">  1  5  2 -1</clus>
<clus scale="   96.735">  7  8 -1 -1</clus>
<clus scale="   33.993">  1  5  2 -1</clus>
</clustering>
</event>
<event>
 9    1  0.4664604E-005  0.1198760E+03  0.7546771E-02  0.1246586E+00
         -2   -1    0    0    0  501 -0.00000000000E+00  0.00000000000E+00  0.57348317269E+02  0.57348317269E+02  0.00000000000E+00 0.  1.
         21   -1    0    0  501  502  0.00000000000E+00 -0.00000000000E+00 -0.38653417712E+03  0.38653417712E+03  0.00000000000E+00 0. -1.
         23    2    1    2    0    0 -0.68234326003E+01  0.73840197229E+02 -0.69032455785E+02  0.13652217993E+03  0.91508970609E+02 0.  0.
        -24    2    1    2    0    0  0.29530918112E+02 -0.78581137467E+02 -0.12835603079E+03  0.17353709519E+03  0.81195951109E+02 0.  0.
         13    1    4    4    0    0  0.49065669971E+02 -0.34760175272E+02 -0.10300905492E+03  0.11927520761E+03  0.00000000000E+00 0. -1.
        -14    1    4    4    0    0 -0.19534751859E+02 -0.43820962196E+02 -0.25346975865E+02  0.54261887577E+02  0.00000000000E+00 0.  1.
        -11    1    3    3    0    0 -0.39153767605E+02  0.63455177497E+02 -0.20571783513E+02  0.77348402348E+02  0.00000000000E+00 0.  1.
         11    1    3    3    0    0  0.32330335004E+02  0.10385019731E+02 -0.48460672272E+02  0.59173777582E+02  0.00000000000E+00 0. -1.
         -1    1    1    2    0  502 -0.22707485512E+02  0.47409402388E+01 -0.13179737328E+03  0.13382321927E+03  0.00000000000E+00 0.  1.
<scales pt_clust_5="13000.00000" pt_clust_6="13000.00000" pt_clust_7="13000.00000" pt_clust_8="13000.00000" pt_clust_9="23.19712"></scales>
<clustering>
<clus scale="   23.197">  2  9  1 -1</clus>
<clus scale="   81.196">  5  6 -1 -1</clus>
<clus scale="   91.509">  7  8 -1 -1</clus>
<clus scale="  112.201">  2  5  1 -1</clus>
<clus scale="   23.197">  2  5  1 -1</clus>
</clustering>
</event>
<event>
 9    1  0.4664604E-005  0.1094249E+03  0.7546771E-02  0.1266516E+00
         21   -1    0    0  501  502  0.00000000000E+00  0.00000000000E+00  0.13386488227E+03  0.13386488227E+03  0.00000000000E+00 0. -1.
          1   -1    0    0  502    0 -0.00000000000E+00 -0.00000000000E+00 -0.55268001195E+03  0.55268001195E+03  0.00000000000E+00 0. -1.
         23    2    1    2    0    0 -0.12854357473E+02 -0.67682919962E+02 -0.45030432639E+03  0.46468908512E+03  0.91737382241E+02 0.  0.
        -24    2    1    2    0    0  0.27502038349E+02  0.26332959460E+02 -0.69118931995E+02  0.11209985550E+03  0.79618866956E+02 0.  0.
         13    1    4    4    0    0  0.29116166342E+02 -0.22518684917E+02 -0.16672697493E+02  0.40408181777E+02  0.00000000000E+00 0. -1.
        -14    1    4    4    0    0 -0.16141279928E+01  0.48851644377E+02 -0.52446234502E+02  0.71691673721E+02  0.00000000000E+00 0.  1.
        -13    1    3    3    0    0 -0.40713725916E+02 -0.47303793256E+01 -0.10767643072E+03  0.11521370448E+03  0.00000000000E+00 0.  1.
         13    1    3    3    0    0  0.27859368443E+02 -0.62952540636E+02 -0.34262789567E+03  0.34947538064E+03  0.00000000000E+00 0. -1.
          2    1    1    2  501    0 -0.14647680876E+02  0.41349960501E+02  0.10060812871E+03  0.10975595360E+03  0.00000000000E+00 0. -1.
<scales pt_clust_5="13000.00000" pt_clust_6="13000.00000" pt_clust_7="13000.00000" pt_clust_8="13000.00000" pt_clust_9="43.86769"></scales>
<clustering>
<clus scale="   43.868">  1  9  2 -1</clus>
<clus scale="   79.619">  5  6 -1 -1</clus>
<clus scale="   91.737">  7  8 -1 -1</clus>
<clus scale="   99.485">  1  5  2 -1</clus>
<clus scale="   43.868">  1  5  2 -1</clus>
</clustering>
</event>
<event>
 9    1  0.4664604E-005  0.9062313E+02  0.7546771E-02  0.1302113E+00
          1   -1    0    0  502    0 -0.00000000000E+00  0.00000000000E+00  0.56968603376E+03  0.56968603376E+03  0.00000000000E+00 0. -1.
         21   -1    0    0  501  502  0.00000000000E+00 -0.00000000000E+00 -0.37736730869E+02  0.37736730869E+02  0.00000000000E+00 0. -1.
         23    2    1    2    0    0 -0.42651489225E+02  0.17262363241E+02  0.42746195174E+03  0.43755141692E+03  0.81304265234E+02 0.  0.
        -24    2    1    2    0    0  0.13802723169E+02 -0.24553712892E+02  0.11077920758E+03  0.13945749330E+03  0.79893426653E+02 0.  0.
         11    1    4    4    0    0 -0.24379046066E+02 -0.35965978316E+02  0.70373398726E+02  0.82706134788E+02  0.00000000000E+00 0. -1.
        -12    1    4    4    0    0  0.38181769235E+02  0.11412265424E+02  0.40405808858E+02  0.56751358517E+02  0.00000000000E+00 0.  1.
        -11    1    3    3    0    0  0.15254025348E+02 -0.17641265380E+02  0.70942276235E+02  0.74677346572E+02  0.00000000000E+00 0.  1.
         11    1    3    3    0    0 -0.57905514574E+02  0.34903628621E+02  0.35651967550E+03  0.36287407035E+03  0.00000000000E+00 0. -1.
          2    1    1    2  501    0  0.28848766057E+02  0.72913496510E+01 -0.62918564284E+01  0.30413854409E+02  0.00000000000E+00 0. -1.
<scales pt_clust_5="13000.00000" pt_clust_6="13000.00000" pt_clust_7="13000.00000" pt_clust_8="13000.00000" pt_clust_9="29.75593"></scales>
<clustering>
<clus scale="   29.756">  2  9  1 -1</clus>
<clus scale="   79.893">  5  6 -1 -1</clus>
<clus scale="   81.304">  7  8 -1 -1</clus>
<clus scale="   89.360">  2  5  1 -1</clus>
<clus scale="   29.756">  2  5  1 -1</clus>
</clustering>
</event>
<event>
 9    1  0.4664604E-005  0.1112990E+03  0.7546771E-02  0.1263133E+00
          1   -1    0    0  502    0 -0.00000000000E+00  0.00000000000E+00  0.60965267446E+03  0.60965267446E+03  0.00000000000E+00 0. -1.
         21   -1    0    0  501  502  0.00000000000E+00 -0.00000000000E+00 -0.29149634061E+03  0.29149634061E+03  0.00000000000E+00 0. -1.
        -24    2    1    2    0    0  0.46073788941E+02 -0.43130049974E+02  0.56098839532E+03  0.57020145888E+03  0.80241689820E+02 0.  0.
         23    2    1    2    0    0  0.54426232113E+00  0.50859372039E+02 -0.26020965697E+02  0.10904659546E+03  0.92882169335E+02 0.  0.
         11    1    3    3    0    0  0.56606517733E+02  0.55662339124E+00  0.34146200026E+03  0.34612267378E+03  0.00000000000E+00 0. -1.
        -12    1    3    3    0    0 -0.10532728792E+02 -0.43686673365E+02  0.21952639506E+03  0.22407878511E+03  0.00000000000E+00 0.  1.
        -11    1    4    4    0    0 -0.34656515803E+02  0.21158504122E+02  0.18830771514E+02  0.44758846501E+02  0.00000000000E+00 0. -1.
         11    1    4    4    0    0  0.35200778124E+02  0.29700867917E+02 -0.44851737211E+02  0.64287748961E+02  0.00000000000E+00 0.  1.
          2    1    1    2  501    0 -0.46618051262E+02 -0.77293220653E+01 -0.21681109577E+03  0.22190096073E+03  0.00000000000E+00 0. -1.
<scales pt_clust_5="13000.00000" pt_clust_6="13000.00000" pt_clust_7="13000.00000" pt_clust_8="13000.00000" pt_clust_9="47.25447"></scales>
<clustering>
<clus scale="   47.254">  2  9  1 -1</clus>
<clus scale="   80.242">  5  6 -1 -1</clus>
<clus scale="   92.882">  7  8 -1 -1</clus>
<clus scale="  100.991">  1  5  2 -1</clus>
<clus scale="   47.254">  2  5  1 -1</clus>
</clustering>
</event>
<event>
 9    1  0.4664604E-005  0.1219329E+03  0.7546771E-02  0.1243006E+00
         21   -1    0    0  501  502  0.00000000000E+00  0.00000000000E+00  0.16797249589E+03  0.16797249589E+03  0.00000000000E+00 0. -1.
          1   -1    0    0  502    0 -0.00000000000E+00 -0.00000000000E+00 -0.14146524080E+03  0.14146524080E+03  0.00000000000E+00 0. -1.
        -24    2    1    2    0    0 -0.12937507355E+02  0.77360611412E+02 -0.67736767601E+02  0.13133989878E+03  0.80683678852E+02 0.  0.
         23    2    1    2    0    0 -0.84067356317E+00 -0.93013333781E+02  0.77380035184E+02  0.15127918652E+03  0.90804930688E+02 0.  0.
         11    1    3    3    0    0 -0.41353901427E+02  0.22669447063E+02 -0.46290659638E+02  0.66082328675E+02  0.00000000000E+00 0. -1.
        -12    1    3    3    0    0  0.28416394071E+02  0.54691164349E+02 -0.21446107963E+02  0.65257570110E+02  0.00000000000E+00 0.  1.
        -11    1    4    4    0    0 -0.12875607870E+02 -0.76620226103E+02  0.96141174411E+02  0.12361054058E+03  0.00000000000E+00 0. -1.
         11    1    4    4    0    0  0.12034934307E+02 -0.16393107678E+02 -0.18761139227E+02  0.27668645941E+02  0.00000000000E+00 0.  1.
          2    1    1    2  501    0  0.13778180919E+02  0.15652722369E+02  0.16863987515E+02  0.26818651381E+02  0.00000000000E+00 0. -1.
<scales pt_clust_5="13000.00000" pt_clust_6="13000.00000" pt_clust_7="13000.00000" pt_clust_8="13000.00000" pt_clust_9="20.85296"></scales>
<clustering>
<clus scale="   20.853">  1  9  2 -1</clus>
<clus scale="   80.684">  5  6 -1 -1</clus>
<clus scale="   90.805">  7  8 -1 -1</clus>
<clus scale="  114.595">  2  5  1 -1</clus>
<clus scale="   20.853">  1  5  2 -1</clus>
</clustering>
</event>
<event>
 9    1  0.4664604E-005  0.1807718E+03  0.7546771E-02  0.1168294E+00
         21   -1    0    0  501  502  0.00000000000E+00  0.00000000000E+00  0.46122052707E+02  0.46122052707E+02  0.00000000000E+00 0. -1.
         -2   -1    0    0    0  501 -0.00000000000E+00 -0.00000000000E+00 -0.90488772009E+03  0.90488772009E+03  0.00000000000E+00 0.  1.
         23    2    1    2    0    0  0.71450685630E+02 -0.14550457078E+03 -0.61879738996E+03  0.64618509525E+03  0.91477794649E+02 0.  0.
        -24    2    1    2    0    0 -0.51561737014E+02  0.13363968555E+03 -0.20500433968E+03  0.26288635710E+03  0.81020239374E+02 0.  0.
         13    1    4    4    0    0 -0.53178666527E+02  0.12898508993E+03 -0.21232547027E+03  0.25406146761E+03  0.00000000000E+00 0. -1.
        -14    1    4    4    0    0  0.16169295128E+01  0.46545956205E+01  0.73211305948E+01  0.88248894965E+01  0.00000000000E+00 0.  1.
        -13    1    3    3    0    0  0.90623198731E+02 -0.13558558244E+03 -0.56901558152E+03  0.59192461202E+03  0.00000000000E+00 0.  1.
         13    1    3    3    0    0 -0.19172513101E+02 -0.99189883400E+01 -0.49781808440E+02  0.54260483225E+02  0.00000000000E+00 0. -1.
         -1    1    1    2    0  502 -0.19888948616E+02  0.11864885230E+02 -0.34963937745E+02  0.41938320439E+02  0.00000000000E+00 0.  1.
<scales pt_clust_5="13000.00000" pt_clust_6="13000.00000" pt_clust_7="13000.00000" pt_clust_8="13000.00000" pt_clust_9="23.15914"></scales>
<clustering>
<clus scale="   23.159">  1  9  2 -1</clus>
<clus scale="   81.020">  5  6 -1 -1</clus>
<clus scale="   91.478">  7  8 -1 -1</clus>
<clus scale="  175.711">  1  5  2 -1</clus>
<clus scale="   23.159">  1  5  2 -1</clus>
</clustering>
</event>
<event>
 9    1  0.4664604E-005  0.2435302E+03  0.7546771E-02  0.1118190E+00
         21   -1    0    0  501  502  0.00000000000E+00  0.00000000000E+00  0.12840415952E+03  0.12840415952E+03  0.00000000000E+00 0. -1.
          1   -1    0    0  502    0 -0.00000000000E+00 -0.00000000000E+00 -0.17542822187E+04  0.17542822187E+04  0.00000000000E+00 0. -1.
        -24    2    1    2    0    0 -0.23145688126E+03 -0.21668844001E+02 -0.13876767479E+04  0.14092214487E+04  0.78844836696E+02 0.  0.
         23    2    1    2    0    0  0.15387247434E+03  0.27302314931E+02  0.39336394870E+02  0.18523194295E+03  0.91331078858E+02 0.  0.
         13    1    3    3    0    0 -0.22855107332E+03 -0.34715109786E+02 -0.13354909748E+04  0.13553512001E+04  0.00000000000E+00 0. -1.
        -14    1    3    3    0    0 -0.29058079363E+01  0.13046265784E+02 -0.52185773093E+02  0.53870248598E+02  0.00000000000E+00 0.  1.
        -13    1    4    4    0    0  0.10742488363E+03  0.56314826602E+02  0.46708989534E+02  0.12997382437E+03  0.00000000000E+00 0. -1.
         13    1    4    4    0    0  0.46447590709E+02 -0.29012511671E+02 -0.73725946633E+01  0.55258118573E+02  0.00000000000E+00 0.  1.
          2    1    1    2  501    0  0.77584406914E+02 -0.56334709298E+01 -0.27753770620E+03  0.28823298658E+03  0.00000000000E+00 0. -1.
<scales pt_clust_5="13000.00000" pt_clust_6="13000.00000" pt_clust_7="13000.00000" pt_clust_8="13000.00000" pt_clust_9="77.78870"></scales>
<clustering>
<clus scale="   77.789">  1  9  2 -1</clus>
<clus scale="   78.845">  5  6 -1 -1</clus>
<clus scale="   91.331">  7  8 -1 -1</clus>
<clus scale="  239.128">  2  5  1 -1</clus>
<clus scale="   77.789">  1  5  2 -1</clus>
</clustering>
</event>
<event>
 9    1  0.4664604E-005  0.9291424E+02  0.7546771E-02  0.1303710E+00
         21   -1    0    0  501  502  0.00000000000E+00  0.00000000000E+00  0.61924554538E+02  0.61924554538E+02  0.00000000000E+00 0.  1.
          1   -1    0    0  502    0 -0.00000000000E+00 -0.00000000000E+00 -0.19047943954E+03  0.19047943954E+03  0.00000000000E+00 0. -1.
        -24    2    1    2    0    0 -0.65438586973E+01 -0.84104063855E+01 -0.10272184431E+03  0.12993263393E+03  0.78848938096E+02 0.  0.
         23    2    1    2    0    0  0.22699271170E+02  0.21423316625E+02 -0.30224355483E+02  0.10126719003E+03  0.91473038135E+02 0.  0.
         13    1    3    3    0    0  0.29109527380E+02 -0.25513129960E+02 -0.39069191839E+02  0.54997146614E+02  0.00000000000E+00 0. -1.
        -14    1    3    3    0    0 -0.35653386078E+02  0.17102723575E+02 -0.63652652468E+02  0.74935487312E+02  0.00000000000E+00 0.  1.
        -11    1    4    4    0    0  0.11921873418E+02  0.56517630279E+02 -0.78964302025E+01  0.58298603827E+02  0.00000000000E+00 0.  1.
         11    1    4    4    0    0  0.10777397752E+02 -0.35094313654E+02 -0.22327925281E+02  0.42968586205E+02  0.00000000000E+00 0. -1.
          2    1    1    2  501    0 -0.16155412473E+02 -0.13012910240E+02  0.43913147850E+01  0.21204170123E+02  0.00000000000E+00 0. -1.
<scales pt_clust_5="13000.00000" pt_clust_6="13000.00000" pt_clust_7="13000.00000" pt_clust_8="13000.00000" pt_clust_9="20.74447"></scales>
<clustering>
<clus scale="   20.744">  1  9  2 -1</clus>
<clus scale="   78.849">  5  6 -1 -1</clus>
<clus scale="   80.516">  2  5  1 -1</clus>
<clus scale="   91.473">  7  8 -1 -1</clus>
<clus scale="   20.744">  1  5  2 -1</clus>
</clustering>
</event>
<event>
 9    1  0.4664604E-005  0.1161323E+03  0.7546771E-02  0.1252703E+00
          1   -1    0    0  502    0 -0.00000000000E+00  0.00000000000E+00  0.88041323930E+03  0.88041323930E+03  0.00000000000E+00 0. -1.
         21   -1    0    0  501  502  0.00000000000E+00 -0.00000000000E+00 -0.31954281689E+02  0.31954281689E+02  0.00000000000E+00 0.  1.
        -24    2    1    2    0    0 -0.35160803483E+02  0.32678171435E+02  0.24178249550E+03  0.25990620501E+03  0.82391233055E+02 0.  0.
         23    2    1    2    0    0  0.12219588086E+02 -0.11902721390E+03  0.39361107641E+03  0.42142167634E+03  0.91376987450E+02 0.  0.
         11    1    3    3    0    0  0.61420192292E+01  0.48333944332E+02  0.97211366197E+02  0.10873796160E+03  0.00000000000E+00 0. -1.
        -12    1    3    3    0    0 -0.41302822712E+02 -0.15655772897E+02  0.14457112930E+03  0.15116824341E+03  0.00000000000E+00 0.  1.
        -13    1    4    4    0    0  0.17275274706E+02 -0.65988153548E+02  0.88724340804E+02  0.11191461109E+03  0.00000000000E+00 0.  1.
         13    1    4    4    0    0 -0.50556866194E+01 -0.53039060353E+02  0.30488673561E+03  0.30950706525E+03  0.00000000000E+00 0. -1.
          2    1    1    2  501    0  0.22941215396E+02  0.86349042466E+02  0.21306538571E+03  0.23103963964E+03  0.00000000000E+00 0. -1.
<scales pt_clust_5="13000.00000" pt_clust_6="13000.00000" pt_clust_7="13000.00000" pt_clust_8="13000.00000" pt_clust_9="89.34459"></scales>
<clustering>
<clus scale="   82.391">  5  6 -1 -1</clus>
<clus scale="   89.345">  2  9  1 -1</clus>
<clus scale="   91.377">  7  8 -1 -1</clus>
<clus scale="  109.203">  1  5  2 -1</clus>
<clus scale="   89.345">  2  5  1 -1</clus>
</clustering>
</event>
<event>
 9    1  0.4664604E-005  0.1020445E+03  0.7546771E-02  0.1281214E+00
         21   -1    0    0  501  502  0.00000000000E+00  0.00000000000E+00  0.69590040733E+02  0.69590040733E+02  0.00000000000E+00 0. -1.
         -4   -1    0    0    0  501 -0.00000000000E+00 -0.00000000000E+00 -0.30589789452E+03  0.30589789452E+03  0.00000000000E+00 0.  1.
         23    2    1    2    0    0 -0.36814469936E+02 -0.32919095042E+02 -0.19669710341E+03  0.22216656575E+03  0.90715271219E+02 0.  0.
        -24    2    1    2    0    0  0.24055942978E+00  0.49956142024E+02  0.35757458128E+01  0.94219885996E+02  0.79805557226E+02 0.  0.
         11    1    4    4    0    0  0.26105062315E+02  0.59217371249E+02 -0.63095555444E+01  0.65022933087E+02  0.00000000000E+00 0. -1.
        -12    1    4    4    0    0 -0.25864502885E+02 -0.92612292245E+01  0.98853013572E+01  0.29196952909E+02  0.00000000000E+00 0.  1.
        -11    1    3    3    0    0 -0.22697645636E+02  0.23184348144E+02 -0.24925262616E+02  0.40914127545E+02  0.00000000000E+00 0. -1.
         11    1    3    3    0    0 -0.14116824301E+02 -0.56103443186E+02 -0.17177184079E+03  0.18125243820E+03  0.00000000000E+00 0.  1.
         -3    1    1    2    0  502  0.36573910507E+02 -0.17037046982E+02 -0.43186496193E+02  0.59101483510E+02  0.00000000000E+00 0.  1.
<scales pt_clust_5="13000.00000" pt_clust_6="13000.00000" pt_clust_7="13000.00000" pt_clust_8="13000.00000" pt_clust_9="40.34741"></scales>
<clustering>
<clus scale="   40.347">  1  9  2 -1</clus>
<clus scale="   79.806">  5  6 -1 -1</clus>
<clus scale="   90.715">  7  8 -1 -1</clus>
<clus scale="   92.481">  1  5  2 -1</clus>
<clus scale="   40.347">  1  5  2 -1</clus>
</clustering>
</event>
<event>
 9    1  0.4664604E-005  0.9513592E+02  0.7546771E-02  0.1297683E+00
          1   -1    0    0  502    0 -0.00000000000E+00  0.00000000000E+00  0.16524857666E+03  0.16524857666E+03  0.00000000000E+00 0. -1.
         21   -1    0    0  501  502  0.00000000000E+00 -0.00000000000E+00 -0.13281808200E+03  0.13281808200E+03  0.00000000000E+00 0. -1.
         23    2    1    2    0    0 -0.34540741323E+02  0.28820343326E+02  0.11728431907E+03  0.14352392673E+03  0.69425003012E+02 0.  0.
        -24    2    1    2    0    0  0.55667887733E+02 -0.25568940170E+02 -0.51978218578E+02  0.11532878803E+03  0.82742429961E+02 0.  0.
         13    1    4    4    0    0  0.50023795218E+02  0.25564368924E+01 -0.66438215446E+02  0.83204278311E+02  0.00000000000E+00 0. -1.
        -14    1    4    4    0    0  0.56440925151E+01 -0.28125377063E+02  0.14459996869E+02  0.32124509719E+02  0.00000000000E+00 0.  1.
        -13    1    3    3    0    0 -0.52951678758E+02  0.11382630544E+02  0.96815275990E+02  0.11093530649E+03  0.00000000000E+00 0.  1.
         13    1    3    3    0    0  0.18410937435E+02  0.17437712782E+02  0.20469043082E+02  0.32588620238E+02  0.00000000000E+00 0. -1.
          2    1    1    2  501    0 -0.21127146410E+02 -0.32514031558E+01 -0.32875605825E+02  0.39213943901E+02  0.00000000000E+00 0. -1.
<scales pt_clust_5="13000.00000" pt_clust_6="13000.00000" pt_clust_7="13000.00000" pt_clust_8="13000.00000" pt_clust_9="21.37587"></scales>
<clustering>
<clus scale="   21.376">  2  9  1 -1</clus>
<clus scale="   69.425">  7  8 -1 -1</clus>
<clus scale="   82.742">  5  6 -1 -1</clus>
<clus scale="   83.811">  1  7  2 -1</clus>
<clus scale="   21.376">  2  5  1 -1</clus>
</clustering>
</event>
<event>
 9    1  0.4664604E-005  0.1165321E+03  0.7546771E-02  0.1251161E+00
          1   -1    0    0  502    0 -0.00000000000E+00  0.00000000000E+00  0.13364540521E+03  0.13364540521E+03  0.00000000000E+00 0. -1.
         21   -1    0    0  501  502  0.00000000000E+00 -0.00000000000E+00 -0.24400854489E+03  0.24400854489E+03  0.00000000000E+00 0.  1.
        -24    2    1    2    0    0 -0.74124152459E+02  0.49230622840E-01  0.14191105289E+02  0.11145673225E+03  0.82017213401E+02 0.  0.
         23    2    1    2    0    0  0.65175096732E+02  0.64088138967E+02 -0.18453500903E+01  0.12744866594E+03  0.88795688760E+02 0.  0.
         13    1    3    3    0    0 -0.70366526076E+02 -0.32601005735E+02  0.74690729695E+01  0.77910593747E+02  0.00000000000E+00 0. -1.
        -14    1    3    3    0    0 -0.37576263832E+01  0.32650236358E+02  0.67220323199E+01  0.33546138508E+02  0.00000000000E+00 0.  1.
        -13    1    4    4    0    0  0.36581878199E+02 -0.17690077320E+02 -0.36391708962E+01  0.40797257420E+02  0.00000000000E+00 0. -1.
         13    1    4    4    0    0  0.28593218533E+02  0.81778216287E+02  0.17938208059E+01  0.86651408519E+02  0.00000000000E+00 0.  1.
          2    1    1    2  501    0  0.89490557271E+01 -0.64137369590E+02 -0.12270889487E+03  0.13874855191E+03  0.00000000000E+00 0. -1.
<scales pt_clust_5="13000.00000" pt_clust_6="13000.00000" pt_clust_7="13000.00000" pt_clust_8="13000.00000" pt_clust_9="64.75869"></scales>
<clustering>
<clus scale="   64.759">  2  9  1 -1</clus>
<clus scale="   82.017">  5  6 -1 -1</clus>
<clus scale="   88.796">  7  8 -1 -1</clus>
<clus scale="  111.454">  1  5  2 -1</clus>
<clus scale="   64.759">  2  5  1 -1</clus>
</clustering>
</event>
<event>
 9    1  0.4664604E-005  0.9479527E+02  0.7546771E-02  0.1297730E+00
          1   -1    0    0  502    0 -0.00000000000E+00  0.00000000000E+00  0.50101979827E+03  0.50101979827E+03  0.00000000000E+00 0. -1.
         21   -1    0    0  501  502  0.00000000000E+00 -0.00000000000E+00 -0.74022960071E+02  0.74022960071E+02  0.00000000000E+00 0. -1.
         23    2    1    2    0    0 -0.56235142478E+01 -0.10775953185E+02  0.26612495242E+03  0.28156875133E+03  0.91163185241E+02 0.  0.
        -24    2    1    2    0    0 -0.62791824347E+02  0.31692362739E+02  0.18854911928E+03  0.21676557203E+03  0.80556339119E+02 0.  0.
         11    1    4    4    0    0 -0.53625887886E+02  0.28992215213E+02  0.52705542491E+02  0.80586342539E+02  0.00000000000E+00 0. -1.
        -12    1    4    4    0    0 -0.91659364609E+01  0.27001475254E+01  0.13584357679E+03  0.13617922949E+03  0.00000000000E+00 0.  1.
        -11    1    3    3    0    0  0.26515698121E+02  0.18223795917E+02  0.39982992872E+02  0.51320840830E+02  0.00000000000E+00 0.  1.
         11    1    3    3    0    0 -0.32139212369E+02 -0.28999749103E+02  0.22614195955E+03  0.23024791050E+03  0.00000000000E+00 0. -1.
          2    1    1    2  501    0  0.68415338594E+02 -0.20916409553E+02 -0.27677233507E+02  0.76708434987E+02  0.00000000000E+00 0. -1.
<scales pt_clust_5="13000.00000" pt_clust_6="13000.00000" pt_clust_7="13000.00000" pt_clust_8="13000.00000" pt_clust_9="71.54128"></scales>
<clustering>
<clus scale="   71.541">  2  9  1 -1</clus>
<clus scale="   80.556">  5  6 -1 -1</clus>
<clus scale="   84.645">  2  5  1 -1</clus>
<clus scale="   91.163">  7  8 -1 -1</clus>
<clus scale="   71.541">  2  5  1 -1</clus>
</clustering>
</event>
<event>
 9    1  0.4664604E-005  0.8750981E+02  0.7546771E-02  0.1313001E+00
         -2   -1    0    0    0  501 -0.00000000000E+00  0.00000000000E+00  0.47425705235E+03  0.47425705235E+03  0.00000000000E+00 0.  1.
         21   -1    0    0  501  502  0.00000000000E+00 -0.00000000000E+00 -0.27383694087E+02  0.27383694087E+02  0.00000000000E+00 0. -1.
        -24    2    1    2    0    0  0.57626896397E+01 -0.12615433027E+02  0.19280973655E+03  0.20961663042E+03  0.81062812046E+02 0.  0.
         23    2    1    2    0    0  0.29356094495E+02 -0.16998026801E+02  0.13371133852E+03  0.16320269672E+03  0.87210578297E+02 0.  0.
         11    1    3    3    0    0  0.17613929389E+02  0.31729518620E+02  0.81560971650E+02  0.89270403589E+02  0.00000000000E+00 0. -1.
        -12    1    3    3    0    0 -0.11851239749E+02 -0.44344951647E+02  0.11124876490E+03  0.12034622683E+03  0.00000000000E+00 0.  1.
        -11    1    4    4    0    0  0.45782692374E+02  0.20585098858E+02  0.91379922745E+02  0.10425973095E+03  0.00000000000E+00 0. -1.
         11    1    4    4    0    0 -0.16426597879E+02 -0.37583125658E+02  0.42331415780E+02  0.58942965773E+02  0.00000000000E+00 0.  1.
         -1    1    1    2    0  502 -0.35118784134E+02  0.29613459828E+02  0.12035228319E+03  0.12882141931E+03  0.00000000000E+00 0.  1.
<scales pt_clust_5="13000.00000" pt_clust_6="13000.00000" pt_clust_7="13000.00000" pt_clust_8="13000.00000" pt_clust_9="45.93787"></scales>
<clustering>
<clus scale="   45.938">  2  9  1 -1</clus>
<clus scale="   81.063">  5  6 -1 -1</clus>
<clus scale="   81.385">  1  5  2 -1</clus>
<clus scale="   87.211">  7  8 -1 -1</clus>
<clus scale="   45.938">  2  5  1 -1</clus>
</clustering>
</event>
<event>
 9    1  0.4664604E-005  0.9843120E+02  0.7546771E-02  0.1287817E+00
         21   -1    0    0  501  502  0.00000000000E+00  0.00000000000E+00  0.10407863716E+03  0.10407863716E+03  0.00000000000E+00 0. -1.
          3   -1    0    0  502    0 -0.00000000000E+00 -0.00000000000E+00 -0.24781249138E+03  0.24781249138E+03  0.00000000000E+00 0. -1.
         23    2    1    2    0    0 -0.15173392889E+02  0.27224829226E+02 -0.10113782965E+03  0.14109200303E+03  0.93309536255E+02 0.  0.
        -24    2    1    2    0    0 -0.75726511272E+02 -0.30497181781E+02 -0.32807621904E+02  0.11931517230E+03  0.80592727214E+02 0.  0.
         13    1    4    4    0    0 -0.36057581082E+02 -0.19995197241E+02  0.25153984225E+02  0.48297825920E+02  0.00000000000E+00 0. -1.
        -14    1    4    4    0    0 -0.39668930189E+02 -0.10501984540E+02 -0.57961606129E+02  0.71017346379E+02  0.00000000000E+00 0.  1.
        -13    1    3    3    0    0 -0.49944054071E+02  0.27405941298E+02 -0.86025223711E+02  0.10317864735E+03  0.00000000000E+00 0. -1.
         13    1    3    3    0    0  0.34770661182E+02 -0.18111207208E+00 -0.15112605937E+02  0.37913355679E+02  0.00000000000E+00 0.  1.
          4    1    1    2  501    0  0.90899904160E+02  0.32723525553E+01 -0.97884026740E+01  0.91483953208E+02  0.00000000000E+00 0. -1.
<scales pt_clust_5="13000.00000" pt_clust_6="13000.00000" pt_clust_7="13000.00000" pt_clust_8="13000.00000" pt_clust_9="90.95879"></scales>
<clustering>
<clus scale="   80.593">  5  6 -1 -1</clus>
<clus scale="   90.959">  1  9  2 -1</clus>
<clus scale="   90.959">  1  5  2 -1</clus>
<clus scale="   93.310">  7  8 -1 -1</clus>
<clus scale="   90.959">  1  5  2 -1</clus>
</clustering>
</event>
<event>
 9    1  0.4664604E-005  0.1167917E+03  0.7546771E-02  0.1254245E+00
          1   -1    0    0  502    0 -0.00000000000E+00  0.00000000000E+00  0.35136011680E+03  0.35136011680E+03  0.00000000000E+00 0. -1.
         21   -1    0    0  501  502  0.00000000000E+00 -0.00000000000E+00 -0.66559353207E+02  0.66559353207E+02  0.00000000000E+00 0. -1.
         23    2    1    2    0    0 -0.38533594568E+02 -0.29097024682E+01  0.77426064165E+02  0.13023318565E+03  0.97327195341E+02 0.  0.
        -24    2    1    2    0    0  0.94268910211E+02 -0.26092912602E+02  0.95056869040E+02  0.15898946189E+03  0.81696836659E+02 0.  0.
         13    1    4    4    0    0  0.84725835173E+02 -0.48256366225E+02  0.54246599788E+02  0.11157884036E+03  0.00000000000E+00 0. -1.
        -14    1    4    4    0    0  0.95430750381E+01  0.22163453624E+02  0.40810269251E+02  0.47410621532E+02  0.00000000000E+00 0.  1.
        -11    1    3    3    0    0 -0.66028785776E+02 -0.97222089514E+01  0.77006485089E+02  0.10190348691E+03  0.00000000000E+00 0. -1.
         11    1    3    3    0    0  0.27495191208E+02  0.68125064831E+01  0.41957907652E+00  0.28329698741E+02  0.00000000000E+00 0.  1.
          2    1    1    2  501    0 -0.55735315643E+02  0.29002615070E+02  0.11231783039E+03  0.12869682247E+03  0.00000000000E+00 0. -1.
<scales pt_clust_5="13000.00000" pt_clust_6="13000.00000" pt_clust_7="13000.00000" pt_clust_8="13000.00000" pt_clust_9="62.82978"></scales>
<clustering>
<clus scale="   62.830">  2  9  1 -1</clus>
<clus scale="   81.697">  5  6 -1 -1</clus>
<clus scale="   97.327">  7  8 -1 -1</clus>
<clus scale="  104.125">  2  5  1 -1</clus>
<clus scale="   62.830">  2  5  1 -1</clus>
</clustering>
</event>
<event>
 9    1  0.4664604E-005  0.9764891E+02  0.7546771E-02  0.1292317E+00
         21   -1    0    0  501  502  0.00000000000E+00  0.00000000000E+00  0.40240106240E+02  0.40240106240E+02  0.00000000000E+00 0. -1.
          1   -1    0    0  502    0 -0.00000000000E+00 -0.00000000000E+00 -0.44814827587E+03  0.44814827587E+03  0.00000000000E+00 0. -1.
         23    2    1    2    0    0 -0.22567786351E+02  0.38984609658E+02 -0.20146334575E+03  0.22535592387E+03  0.90380904896E+02 0.  0.
        -24    2    1    2    0    0 -0.44606048519E+02 -0.32955030319E+02 -0.13040511081E+03  0.16139231912E+03  0.77241531293E+02 0.  0.
         11    1    4    4    0    0 -0.29988057317E+02 -0.58263709351E+02 -0.83758837362E+02  0.10634606831E+03  0.00000000000E+00 0. -1.
        -12    1    4    4    0    0 -0.14617991201E+02  0.25308679032E+02 -0.46646273448E+02  0.55046250805E+02  0.00000000000E+00 0.  1.
        -11    1    3    3    0    0 -0.24182511737E+02  0.63085681060E+02 -0.97482052410E+02  0.11860584965E+03  0.00000000000E+00 0. -1.
         11    1    3    3    0    0  0.16147253858E+01 -0.24101071402E+02 -0.10398129334E+03  0.10675007422E+03  0.00000000000E+00 0.  1.
          2    1    1    2  501    0  0.67173834869E+02 -0.60295793394E+01 -0.76039713070E+02  0.10164013913E+03  0.00000000000E+00 0. -1.
<scales pt_clust_5="13000.00000" pt_clust_6="13000.00000" pt_clust_7="13000.00000" pt_clust_8="13000.00000" pt_clust_9="67.44390"></scales>
<clustering>
<clus scale="   67.444">  1  9  2 -1</clus>
<clus scale="   77.242">  5  6 -1 -1</clus>
<clus scale="   85.632">  1  5  2 -1</clus>
<clus scale="   90.381">  7  8 -1 -1</clus>
<clus scale="   67.444">  1  5  2 -1</clus>
</clustering>
</event>
<event>
 9    1  0.4664604E-005  0.1325695E+03  0.7546771E-02  0.1226555E+00
         21   -1    0    0  501  502  0.00000000000E+00  0.00000000000E+00  0.22631476934E+02  0.22631476934E+02  0.00000000000E+00 0. -1.
         -2   -1    0    0    0  501 -0.00000000000E+00 -0.00000000000E+00 -0.10021974532E+04  0.10021974532E+04  0.00000000000E+00 0.  1.
        -24    2    1    2    0    0 -0.52136106456E+02 -0.69946761149E+02 -0.42927444105E+03  0.44532823785E+03  0.80187098034E+02 0.  0.
         23    2    1    2    0    0  0.72073856133E+02  0.77170613050E+02 -0.53596895199E+03  0.55391096213E+03  0.91677108470E+02 0.  0.
         11    1    3    3    0    0 -0.59119304722E+02 -0.54066650063E+02 -0.20073770672E+03  0.21613403651E+03  0.00000000000E+00 0. -1.
        -12    1    3    3    0    0  0.69831982655E+01 -0.15880111086E+02 -0.22853673433E+03  0.22919420133E+03  0.00000000000E+00 0.  1.
        -11    1    4    4    0    0  0.30304610090E+02  0.56310914027E+01 -0.37206220931E+02  0.48315437068E+02  0.00000000000E+00 0. -1.
         11    1    4    4    0    0  0.41769246043E+02  0.71539521647E+02 -0.49876273106E+03  0.50559552506E+03  0.00000000000E+00 0.  1.
         -1    1    1    2    0  502 -0.19937749677E+02 -0.72238519011E+01 -0.14322583195E+02  0.25589730125E+02  0.00000000000E+00 0.  1.
<scales pt_clust_5="13000.00000" pt_clust_6="13000.00000" pt_clust_7="13000.00000" pt_clust_8="13000.00000" pt_clust_9="21.20608"></scales>
<clustering>
<clus scale="   21.206">  1  9  2 -1</clus>
<clus scale="   80.187">  5  6 -1 -1</clus>
<clus scale="   91.677">  7  8 -1 -1</clus>
<clus scale="  124.900">  2  5  1 -1</clus>
<clus scale="   21.206">  1  5  2 -1</clus>
</clustering>
</event>
<event>
 9    1  0.4664604E-005  0.1263822E+03  0.7546771E-02  0.1249900E+00
          1   -1    0    0  502    0 -0.00000000000E+00  0.00000000000E+00  0.27069600814E+03  0.27069600814E+03  0.00000000000E+00 0. -1.
         21   -1    0    0  501  502  0.00000000000E+00 -0.00000000000E+00 -0.11960076712E+03  0.11960076712E+03  0.00000000000E+00 0. -1.
        -24    2    1    2    0    0 -0.37462314898E+02 -0.22450341303E+01  0.24292975863E+02  0.92834236524E+02  0.81360811076E+02 0.  0.
         23    2    1    2    0    0 -0.22467526678E+01 -0.82741547559E+02 -0.16148576092E+02  0.12648162714E+03  0.94263534335E+02 0.  0.
         13    1    3    3    0    0 -0.25402725554E+02  0.38423799907E+02  0.19939151559E+02  0.50192196901E+02  0.00000000000E+00 0. -1.
        -14    1    3    3    0    0 -0.12059589344E+02 -0.40668834038E+02  0.43538243042E+01  0.42642039623E+02  0.00000000000E+00 0.  1.
        -11    1    4    4    0    0 -0.37829943455E+00  0.20506478028E+02  0.49142944865E+01  0.21090496483E+02  0.00000000000E+00 0.  1.
         11    1    4    4    0    0 -0.18684532333E+01 -0.10324802559E+03 -0.21062870579E+02  0.10539113066E+03  0.00000000000E+00 0. -1.
          2    1    1    2  501    0  0.39709067566E+02  0.84986581689E+02  0.14295084125E+03  0.17098091159E+03  0.00000000000E+00 0. -1.
<scales pt_clust_5="13000.00000" pt_clust_6="13000.00000" pt_clust_7="13000.00000" pt_clust_8="13000.00000" pt_clust_9="84.18352"></scales>
<clustering>
<clus scale="   81.361">  5  6 -1 -1</clus>
<clus scale="   89.599">  1  5  2 -1</clus>
<clus scale="   84.184">  2  9  1 -1</clus>
<clus scale="   94.264">  7  8 -1 -1</clus>
<clus scale="   84.184">  2  5  1 -1</clus>
</clustering>
</event>
<event>
 9    1  0.4664604E-005  0.1005146E+03  0.7546771E-02  0.1288221E+00
         -2   -1    0    0    0  501 -0.00000000000E+00  0.00000000000E+00  0.15583042335E+03  0.15583042335E+03  0.00000000000E+00 0.  1.
         21   -1    0    0  501  502  0.00000000000E+00 -0.00000000000E+00 -0.83526281351E+02  0.83526281351E+02  0.00000000000E+00 0.  1.
         23    2    1    2    0    0  0.18034708007E+02  0.21721650686E+02  0.57131781775E+02  0.11695044962E+03  0.98062665555E+02 0.  0.
        -24    2    1    2    0    0  0.14085867166E+02 -0.22097092444E+02  0.23737979701E+02  0.89161072827E+02  0.81850547213E+02 0.  0.
         11    1    4    4    0    0  0.18809809242E+02  0.28531774680E+02  0.32084501920E+01  0.34324411761E+02  0.00000000000E+00 0. -1.
        -12    1    4    4    0    0 -0.47239420764E+01 -0.50628867124E+02  0.20529529509E+02  0.54836661066E+02  0.00000000000E+00 0.  1.
        -11    1    3    3    0    0  0.18627147415E+02  0.60441413847E+02  0.37601109260E+02  0.73579742771E+02  0.00000000000E+00 0.  1.
         11    1    3    3    0    0 -0.59243940879E+00 -0.38719763160E+02  0.19530672514E+02  0.43370706848E+02  0.00000000000E+00 0. -1.
         -1    1    1    2    0  502 -0.32120575172E+02  0.37544175735E+00 -0.85656194805E+01  0.33245182253E+02  0.00000000000E+00 0.  1.
<scales pt_clust_5="13000.00000" pt_clust_6="13000.00000" pt_clust_7="13000.00000" pt_clust_8="13000.00000" pt_clust_9="32.12277"></scales>
<clustering>
<clus scale="   32.123">  2  9  1 -1</clus>
<clus scale="   81.851">  5  6 -1 -1</clus>
<clus scale="   84.773">  2  5  1 -1</clus>
<clus scale="   98.063">  7  8 -1 -1</clus>
<clus scale="   32.123">  2  5  1 -1</clus>
</clustering>
</event>
<event>
 9    1  0.4664604E-005  0.9506119E+02  0.7546771E-02  0.1297246E+00
         21   -1    0    0  501  502  0.00000000000E+00  0.00000000000E+00  0.22838722193E+03  0.22838722193E+03  0.00000000000E+00 0. -1.
          1   -1    0    0  502    0 -0.00000000000E+00 -0.00000000000E+00 -0.15627956183E+03  0.15627956183E+03  0.00000000000E+00 0. -1.
        -24    2    1    2    0    0 -0.32713738490E+02 -0.69026906877E+01 -0.10715148238E+03  0.13797283630E+03  0.80232334841E+02 0.  0.
         23    2    1    2    0    0 -0.87550565984E+01 -0.39655834702E+02  0.73432045474E+02  0.12386588995E+03  0.91111235031E+02 0.  0.
         11    1    3    3    0    0 -0.42648472556E+02  0.25361130631E+01 -0.11465002582E+03  0.12235175724E+03  0.00000000000E+00 0. -1.
        -12    1    3    3    0    0  0.99347340663E+01 -0.94388037508E+01  0.74985434317E+01  0.15621079054E+02  0.00000000000E+00 0.  1.
        -11    1    4    4    0    0 -0.42334627142E+02 -0.28226201246E+02  0.72257891689E+02  0.88375007799E+02  0.00000000000E+00 0. -1.
         11    1    4    4    0    0  0.33579570543E+02 -0.11429633455E+02  0.11741537847E+01  0.35490882152E+02  0.00000000000E+00 0.  1.
          2    1    1    2  501    0  0.41468795088E+02  0.46558525389E+02  0.10582709701E+03  0.12282805752E+03  0.00000000000E+00 0. -1.
<scales pt_clust_5="13000.00000" pt_clust_6="13000.00000" pt_clust_7="13000.00000" pt_clust_8="13000.00000" pt_clust_9="62.34867"></scales>
<clustering>
<clus scale="   62.349">  1  9  2 -1</clus>
<clus scale="   80.232">  5  6 -1 -1</clus>
<clus scale="   84.691">  2  5  1 -1</clus>
<clus scale="   91.111">  7  8 -1 -1</clus>
<clus scale="   62.349">  1  5  2 -1</clus>
</clustering>
</event>
<event>
 9    1  0.4664604E-005  0.1804142E+03  0.7546771E-02  0.1185232E+00
          1   -1    0    0  502    0 -0.00000000000E+00  0.00000000000E+00  0.58394821916E+03  0.58394821916E+03  0.00000000000E+00 0. -1.
         21   -1    0    0  501  502  0.00000000000E+00 -0.00000000000E+00 -0.22473503156E+03  0.22473503156E+03  0.00000000000E+00 0. -1.
        -24    2    1    2    0    0  0.44508286146E+02 -0.72553213502E+02 -0.84832213848E+02  0.14738896927E+03  0.85334913321E+02 0.  0.
         23    2    1    2    0    0  0.42047169770E+02 -0.68210578220E+02  0.47727711164E+03  0.49273972479E+03  0.92619369591E+02 0.  0.
         11    1    3    3    0    0  0.45447651889E+02 -0.80086444431E+02 -0.37458100073E+02  0.99410446658E+02  0.00000000000E+00 0. -1.
        -12    1    3    3    0    0 -0.93936574328E+00  0.75332309282E+01 -0.47374113775E+02  0.47978522613E+02  0.00000000000E+00 0.  1.
        -13    1    4    4    0    0  0.28569076370E+01  0.21971373616E+02  0.12720775397E+03  0.12912287113E+03  0.00000000000E+00 0.  1.
         13    1    4    4    0    0  0.39190262133E+02 -0.90181951835E+02  0.35006935767E+03  0.36361685366E+03  0.00000000000E+00 0. -1.
          2    1    1    2  501    0 -0.86555455916E+02  0.14076379172E+03 -0.33231710185E+02  0.16855455666E+03  0.00000000000E+00 0. -1.
<scales pt_clust_5="13000.00000" pt_clust_6="13000.00000" pt_clust_7="13000.00000" pt_clust_8="13000.00000" pt_clust_9="154.82555"></scales>
<clustering>
<clus scale="   85.335">  5  6 -1 -1</clus>
<clus scale="   92.619">  7  8 -1 -1</clus>
<clus scale="  120.528">  1  5  2 -1</clus>
<clus scale="  154.826">  2  9  1 -1</clus>
<clus scale="  154.826">  2  5  1 -1</clus>
</clustering>
</event>
<event>
 9    1  0.4664604E-005  0.1356260E+03  0.7546771E-02  0.1223358E+00
         -4   -1    0    0    0  501 -0.00000000000E+00  0.00000000000E+00  0.79868855683E+03  0.79868855683E+03  0.00000000000E+00 0.  1.
         21   -1    0    0  501  502  0.00000000000E+00 -0.00000000000E+00 -0.69122761957E+02  0.69122761957E+02  0.00000000000E+00 0. -1.
        -24    2    1    2    0    0 -0.17346683445E+02  0.98790962716E+02  0.66057707344E+03  0.67270507474E+03  0.78163200352E+02 0.  0.
         23    2    1    2    0    0  0.73534049435E+01 -0.65880544343E+02 -0.26989969772E+01  0.11559467115E+03  0.94660048210E+02 0.  0.
         11    1    3    3    0    0 -0.41500967367E+02  0.34626799084E+02  0.20534126903E+03  0.21233554171E+03  0.00000000000E+00 0. -1.
        -12    1    3    3    0    0  0.24154283921E+02  0.64164163632E+02  0.45523580441E+03  0.46036953303E+03  0.00000000000E+00 0.  1.
        -13    1    4    4    0    0  0.44192215843E+02 -0.52594381141E+01  0.15473976020E+01  0.44530978765E+02  0.00000000000E+00 0.  1.
         13    1    4    4    0    0 -0.36838810900E+02 -0.60621106229E+02 -0.42463945791E+01  0.71063692389E+02  0.00000000000E+00 0. -1.
         -3    1    1    2    0  502  0.99932785019E+01 -0.32910418373E+02  0.71687718418E+02  0.79511572898E+02  0.00000000000E+00 0.  1.
<scales pt_clust_5="13000.00000" pt_clust_6="13000.00000" pt_clust_7="13000.00000" pt_clust_8="13000.00000" pt_clust_9="34.39422"></scales>
<clustering>
<clus scale="   34.394">  2  9  1 -1</clus>
<clus scale="   78.163">  5  6 -1 -1</clus>
<clus scale="   94.660">  7  8 -1 -1</clus>
<clus scale="  124.673">  1  5  2 -1</clus>
<clus scale="   34.394">  2  5  1 -1</clus>
</clustering>
</event>
<event>
 9    1  0.4664604E-005  0.1506376E+03  0.7546771E-02  0.1201674E+00
          3   -1    0    0  502    0 -0.00000000000E+00  0.00000000000E+00  0.38934132992E+03  0.38934132992E+03  0.00000000000E+00 0. -1.
         21   -1    0    0  501  502  0.00000000000E+00 -0.00000000000E+00 -0.11073422666E+03  0.11073422666E+03  0.00000000000E+00 0.  1.
        -24    2    1    2    0    0 -0.12099729176E+03  0.12097099662E+02  0.26634606346E+03  0.30539250993E+03  0.86819785572E+02 0.  0.
         23    2    1    2    0    0  0.10007302332E+03  0.81970621266E+01  0.48848313728E+02  0.14790370692E+03  0.96992509726E+02 0.  0.
         11    1    3    3    0    0 -0.11725105293E+03 -0.13807870744E+02  0.24365691411E+03  0.27075294735E+03  0.00000000000E+00 0. -1.
        -12    1    3    3    0    0 -0.37462388263E+01  0.25904970406E+02  0.22689149354E+02  0.34639562577E+02  0.00000000000E+00 0.  1.
        -11    1    4    4    0    0  0.31072552540E+02 -0.23186316048E+02  0.59847085403E+02  0.71307660209E+02  0.00000000000E+00 0. -1.
         11    1    4    4    0    0  0.69000470779E+02  0.31383378175E+02 -0.10998771676E+02  0.76596046711E+02  0.00000000000E+00 0.  1.
          4    1    1    2  501    0  0.20924268441E+02 -0.20294161788E+02 -0.36587273931E+02  0.46779339736E+02  0.00000000000E+00 0. -1.
<scales pt_clust_5="13000.00000" pt_clust_6="13000.00000" pt_clust_7="13000.00000" pt_clust_8="13000.00000" pt_clust_9="29.14924"></scales>
<clustering>
<clus scale="   29.149">  2  9  1 -1</clus>
<clus scale="   86.820">  5  6 -1 -1</clus>
<clus scale="   96.993">  7  8 -1 -1</clus>
<clus scale="  144.298">  1  5  2 -1</clus>
<clus scale="   29.149">  2  5  1 -1</clus>
</clustering>
</event>
<event>
 9    1  0.4664604E-005  0.2432659E+03  0.7546771E-02  0.1118517E+00
         21   -1    0    0  501  502  0.00000000000E+00  0.00000000000E+00  0.91490231540E+02  0.91490231540E+02  0.00000000000E+00 0. -1.
          1   -1    0    0  502    0 -0.00000000000E+00 -0.00000000000E+00 -0.17035356183E+04  0.17035356183E+04  0.00000000000E+00 0. -1.
        -24    2    1    2    0    0 -0.40757032205E+02  0.24265059987E+03 -0.13548022179E+04  0.13793246031E+04  0.80665121868E+02 0.  0.
         23    2    1    2    0    0  0.34270726849E+01 -0.16875263946E+03 -0.26956957663E+03  0.33199715624E+03  0.95211117812E+02 0.  0.
         13    1    3    3    0    0 -0.31740090006E+02  0.23284041577E+03 -0.13345544336E+04  0.13550858381E+04  0.00000000000E+00 0. -1.
        -14    1    3    3    0    0 -0.90169421997E+01  0.98101840987E+01 -0.20247784329E+02  0.24238765004E+02  0.00000000000E+00 0.  1.
        -11    1    4    4    0    0  0.11118543880E+01 -0.14771023218E+03 -0.27314479706E+03  0.31052798436E+03  0.00000000000E+00 0.  1.
         11    1    4    4    0    0  0.23152182969E+01 -0.21042407287E+02  0.35752204296E+01  0.21469171882E+02  0.00000000000E+00 0. -1.
          2    1    1    2  501    0  0.37329959520E+02 -0.73897960407E+02  0.12326407781E+02  0.83704090455E+02  0.00000000000E+00 0. -1.
<scales pt_clust_5="13000.00000" pt_clust_6="13000.00000" pt_clust_7="13000.00000" pt_clust_8="13000.00000" pt_clust_9="82.79151"></scales>
<clustering>
<clus scale="   80.665">  5  6 -1 -1</clus>
<clus scale="   82.792">  1  9  2 -1</clus>
<clus scale="   95.211">  7  8 -1 -1</clus>
<clus scale="  237.950">  2  5  1 -1</clus>
<clus scale="   82.792">  1  5  2 -1</clus>
</clustering>
</event>
<event>
 9    1  0.4664604E-005  0.1274322E+03  0.7546771E-02  0.1234999E+00
          3   -1    0    0  502    0 -0.00000000000E+00  0.00000000000E+00  0.29010067191E+02  0.29010067191E+02  0.00000000000E+00 0. -1.
         21   -1    0    0  501  502  0.00000000000E+00 -0.00000000000E+00 -0.97523743789E+03  0.97523743789E+03  0.00000000000E+00 0.  1.
         23    2    1    2    0    0 -0.71552801890E+02 -0.27479811863E+01 -0.26107052359E+03  0.28405183006E+03  0.86024816289E+02 0.  0.
        -24    2    1    2    0    0  0.12023480379E+03 -0.31079030268E+02 -0.32511895539E+03  0.35531009365E+03  0.71558460947E+02 0.  0.
         11    1    4    4    0    0  0.23195696924E+02 -0.31023594080E+02 -0.15190560081E+03  0.15676675445E+03  0.00000000000E+00 0. -1.
        -12    1    4    4    0    0  0.97039106864E+02 -0.55436187401E-01 -0.17321335458E+03  0.19854333919E+03  0.00000000000E+00 0.  1.
        -11    1    3    3    0    0 -0.49206396005E+02 -0.43159446642E+02 -0.14278430861E+03  0.15707121323E+03  0.00000000000E+00 0.  1.
         11    1    3    3    0    0 -0.22346405886E+02  0.40411465456E+02 -0.11828621498E+03  0.12698061683E+03  0.00000000000E+00 0. -1.
          4    1    1    2  501    0 -0.48682001898E+02  0.33827011454E+02 -0.36003789173E+03  0.36488558137E+03  0.00000000000E+00 0. -1.
<scales pt_clust_5="13000.00000" pt_clust_6="13000.00000" pt_clust_7="13000.00000" pt_clust_8="13000.00000" pt_clust_9="59.28072"></scales>
<clustering>
<clus scale="   59.281">  2  9  1 -1</clus>
<clus scale="   71.558">  5  6 -1 -1</clus>
<clus scale="   86.025">  7  8 -1 -1</clus>
<clus scale="  118.149">  2  5  1 -1</clus>
<clus scale="   59.281">  2  5  1 -1</clus>
</clustering>
</event>
<event>
 9    1  0.4664604E-005  0.2240875E+03  0.7546771E-02  0.1131506E+00
          1   -1    0    0  502    0 -0.00000000000E+00  0.00000000000E+00  0.69330934057E+03  0.69330934057E+03  0.00000000000E+00 0. -1.
         21   -1    0    0  501  502  0.00000000000E+00 -0.00000000000E+00 -0.46805911996E+03  0.46805911996E+03  0.00000000000E+00 0. -1.
        -24    2    1    2    0    0 -0.22198335157E+02  0.20278798467E+03  0.60282695972E+03  0.64162233601E+03  0.81628094952E+02 0.  0.
         23    2    1    2    0    0  0.82197952359E+02 -0.20746042387E+03 -0.14856861215E+03  0.28296245118E+03  0.90547144726E+02 0.  0.
         13    1    3    3    0    0 -0.42714598260E+02  0.13590042167E+03  0.32010268334E+03  0.35037007492E+03  0.00000000000E+00 0. -1.
        -14    1    3    3    0    0  0.20516263102E+02  0.66887563000E+02  0.28272427638E+03  0.29125226109E+03  0.00000000000E+00 0.  1.
        -11    1    4    4    0    0  0.60392732178E+02 -0.10463059889E+03 -0.29942353996E+02  0.12446440812E+03  0.00000000000E+00 0. -1.
         11    1    4    4    0    0  0.21805220181E+02 -0.10282982498E+03 -0.11862625816E+03  0.15849804307E+03  0.00000000000E+00 0.  1.
          2    1    1    2  501    0 -0.59999617201E+02  0.46724391999E+01 -0.22900812696E+03  0.23678367335E+03  0.00000000000E+00 0. -1.
<scales pt_clust_5="13000.00000" pt_clust_6="13000.00000" pt_clust_7="13000.00000" pt_clust_8="13000.00000" pt_clust_9="60.18127"></scales>
<clustering>
<clus scale="   60.181">  2  9  1 -1</clus>
<clus scale="   81.628">  5  6 -1 -1</clus>
<clus scale="   90.547">  7  8 -1 -1</clus>
<clus scale="  220.634">  1  5  2 -1</clus>
<clus scale="   60.181">  2  5  1 -1</clus>
</clustering>
</event>
<event>
 9    1  0.4664604E-005  0.9971382E+02  0.7546771E-02  0.1286684E+00
         21   -1    0    0  501  502  0.00000000000E+00  0.00000000000E+00  0.38654501696E+02  0.38654501696E+02  0.00000000000E+00 0.  1.
          1   -1    0    0  502    0 -0.00000000000E+00 -0.00000000000E+00 -0.38668365897E+03  0.38668365897E+03  0.00000000000E+00 0. -1.
         23    2    1    2    0    0  0.11876957725E+02  0.41083348136E+02 -0.23267513322E+03  0.25367196410E+03  0.91557873153E+02 0.  0.
        -24    2    1    2    0    0  0.10248566404E+02 -0.37051393162E+02 -0.11934304601E+03  0.14882527331E+03  0.80177057167E+02 0.  0.
         13    1    4    4    0    0 -0.22452942891E+02 -0.49142227048E+02 -0.74183255687E+02  0.91772809416E+02  0.00000000000E+00 0. -1.
        -14    1    4    4    0    0  0.32701509295E+02  0.12090833886E+02 -0.45159790323E+02  0.57052463893E+02  0.00000000000E+00 0.  1.
        -13    1    3    3    0    0  0.47315246982E+02  0.10256765741E+02 -0.15978907891E+03  0.16696252148E+03  0.00000000000E+00 0.  1.
         13    1    3    3    0    0 -0.35438289257E+02  0.30826582395E+02 -0.72886054306E+02  0.86709442622E+02  0.00000000000E+00 0. -1.
          2    1    1    2  501    0 -0.22125524129E+02 -0.40319549745E+01  0.39890219524E+01  0.22840923253E+02  0.00000000000E+00 0. -1.
<scales pt_clust_5="13000.00000" pt_clust_6="13000.00000" pt_clust_7="13000.00000" pt_clust_8="13000.00000" pt_clust_9="22.48990"></scales>
<clustering>
<clus scale="   22.490">  1  9  2 -1</clus>
<clus scale="   80.177">  5  6 -1 -1</clus>
<clus scale="   89.378">  1  5  2 -1</clus>
<clus scale="   91.558">  7  8 -1 -1</clus>
<clus scale="   22.490">  1  5  2 -1</clus>
</clustering>
</event>
<event>
 9    1  0.4664604E-005  0.1356140E+03  0.7546771E-02  0.1244267E+00
          1   -1    0    0  502    0 -0.00000000000E+00  0.00000000000E+00  0.28547415617E+03  0.28547415617E+03  0.00000000000E+00 0. -1.
         21   -1    0    0  501  502  0.00000000000E+00 -0.00000000000E+00 -0.10707518356E+03  0.10707518356E+03  0.00000000000E+00 0. -1.
        -24    2    1    2    0    0  0.19633531482E+02 -0.24607774068E+01 -0.18610801772E+02  0.83304723630E+02  0.78751406671E+02 0.  0.
         23    2    1    2    0    0  0.33994290957E+02 -0.90000931432E+02  0.10939067528E+03  0.17103384420E+03  0.89612926226E+02 0.  0.
         13    1    3    3    0    0 -0.76610298574E+01  0.31496412344E+02 -0.22660150696E+02  0.39549940564E+02  0.00000000000E+00 0. -1.
        -14    1    3    3    0    0  0.27294561339E+02 -0.33957189751E+02  0.40493489244E+01  0.43754783066E+02  0.00000000000E+00 0.  1.
        -11    1    4    4    0    0  0.14783679154E+02  0.15725789353E+02  0.72263087364E+01  0.22761308356E+02  0.00000000000E+00 0.  1.
         11    1    4    4    0    0  0.19210611804E+02 -0.10572672079E+03  0.10216436655E+03  0.14827253585E+03  0.00000000000E+00 0. -1.
          2    1    1    2  501    0 -0.53627822439E+02  0.92461708838E+02  0.87619099098E+02  0.13821077189E+03  0.00000000000E+00 0. -1.
<scales pt_clust_5="13000.00000" pt_clust_6="13000.00000" pt_clust_7="13000.00000" pt_clust_8="13000.00000" pt_clust_9="101.78743"></scales>
<clustering>
<clus scale="   78.751">  5  6 -1 -1</clus>
<clus scale="   81.199">  1  5  2 -1</clus>
<clus scale="   89.613">  7  8 -1 -1</clus>
<clus scale="  101.787">  2  9  1 -1</clus>
<clus scale="  101.787">  2  5  1 -1</clus>
</clustering>
</event>
<event>
 9    1  0.4664604E-005  0.9238906E+02  0.7546771E-02  0.1301400E+00
         21   -1    0    0  501  502  0.00000000000E+00  0.00000000000E+00  0.13115324045E+03  0.13115324045E+03  0.00000000000E+00 0.  1.
          1   -1    0    0  502    0 -0.00000000000E+00 -0.00000000000E+00 -0.16913630824E+03  0.16913630824E+03  0.00000000000E+00 0. -1.
         23    2    1    2    0    0  0.12891248747E+02 -0.24472110191E+02 -0.12103905522E+03  0.15166200615E+03  0.87096743611E+02 0.  0.
        -24    2    1    2    0    0 -0.37068108856E+02  0.36878317126E+02  0.71231937614E+02  0.11899238286E+03  0.79694060469E+02 0.  0.
         13    1    4    4    0    0  0.86379688719E+01  0.40858549322E+02  0.10831977101E+02  0.43143565995E+02  0.00000000000E+00 0. -1.
        -14    1    4    4    0    0 -0.45706077728E+02 -0.39802321953E+01  0.60399960513E+02  0.75848816864E+02  0.00000000000E+00 0.  1.
        -11    1    3    3    0    0 -0.44003208863E+01  0.21493960139E+02 -0.99693879321E+00  0.21962400445E+02  0.00000000000E+00 0.  1.
         11    1    3    3    0    0  0.17291569633E+02 -0.45966070330E+02 -0.12004211643E+03  0.12969960570E+03  0.00000000000E+00 0. -1.
          2    1    1    2  501    0  0.24176860109E+02 -0.12406206935E+02  0.11824049821E+02  0.29635159683E+02  0.00000000000E+00 0. -1.
<scales pt_clust_5="13000.00000" pt_clust_6="13000.00000" pt_clust_7="13000.00000" pt_clust_8="13000.00000" pt_clust_9="27.17415"></scales>
<clustering>
<clus scale="   27.174">  1  9  2 -1</clus>
<clus scale="   79.694">  5  6 -1 -1</clus>
<clus scale="   85.446">  1  5  2 -1</clus>
<clus scale="   87.097">  7  8 -1 -1</clus>
<clus scale="   27.174">  1  5  2 -1</clus>
</clustering>
</event>
<event>
 9    1  0.4664604E-005  0.1002587E+03  0.7546771E-02  0.1285123E+00
          1   -1    0    0  502    0 -0.00000000000E+00  0.00000000000E+00  0.12934867548E+03  0.12934867548E+03  0.00000000000E+00 0. -1.
         21   -1    0    0  501  502  0.00000000000E+00 -0.00000000000E+00 -0.19921425641E+03  0.19921425641E+03  0.00000000000E+00 0. -1.
         23    2    1    2    0    0 -0.27037253305E+02 -0.13731105296E+02  0.34349423249E+02  0.10188935320E+03  0.91005500376E+02 0.  0.
        -24    2    1    2    0    0  0.54524165082E+02  0.14949335806E+02  0.19416100447E+02  0.10001788621E+03  0.80188686154E+02 0.  0.
         11    1    4    4    0    0  0.48186427596E+02 -0.26478569214E+02  0.31839296092E+01  0.55074348292E+02  0.00000000000E+00 0. -1.
        -12    1    4    4    0    0  0.63377374859E+01  0.41427905019E+02  0.16232170838E+02  0.44943537921E+02  0.00000000000E+00 0.  1.
        -13    1    3    3    0    0  0.22182104934E+02  0.24036596427E+02  0.44123225506E+01  0.33004126066E+02  0.00000000000E+00 0.  1.
         13    1    3    3    0    0 -0.49219358239E+02 -0.37767701722E+02  0.29937100698E+02  0.68885227132E+02  0.00000000000E+00 0. -1.
          2    1    1    2  501    0 -0.27486911777E+02 -0.12182305102E+01 -0.12363110462E+03  0.12665569247E+03  0.00000000000E+00 0. -1.
<scales pt_clust_5="13000.00000" pt_clust_6="13000.00000" pt_clust_7="13000.00000" pt_clust_8="13000.00000" pt_clust_9="27.51389"></scales>
<clustering>
<clus scale="   27.514">  2  9  1 -1</clus>
<clus scale="   80.189">  5  6 -1 -1</clus>
<clus scale="   90.554">  2  5  1 -1</clus>
<clus scale="   91.006">  7  8 -1 -1</clus>
<clus scale="   27.514">  2  5  1 -1</clus>
</clustering>
</event>
<event>
 9    1  0.4664604E-005  0.1801900E+03  0.7546771E-02  0.1186715E+00
         21   -1    0    0  501  502  0.00000000000E+00  0.00000000000E+00  0.66279478370E+03  0.66279478370E+03  0.00000000000E+00 0.  1.
          1   -1    0    0  502    0 -0.00000000000E+00 -0.00000000000E+00 -0.91714262093E+02  0.91714262093E+02  0.00000000000E+00 0. -1.
         23    2    1    2    0    0  0.50700622190E+02 -0.45968717278E+02  0.54157238959E+02  0.12897398336E+03  0.94961075145E+02 0.  0.
        -24    2    1    2    0    0  0.13748684365E+03 -0.42049482379E+01  0.21454720678E+03  0.26586408743E+03  0.75715885251E+02 0.  0.
         11    1    4    4    0    0  0.42412515664E+02 -0.28275422551E+02  0.36848765420E+02  0.62897953212E+02  0.00000000000E+00 0. -1.
        -12    1    4    4    0    0  0.95074327984E+02  0.24070474313E+02  0.17769844136E+03  0.20296613421E+03  0.00000000000E+00 0.  1.
        -13    1    3    3    0    0  0.24155328256E+02 -0.72125172269E+02  0.20545147223E+02  0.78788472712E+02  0.00000000000E+00 0. -1.
         13    1    3    3    0    0  0.26545293934E+02  0.26156454991E+02  0.33612091736E+02  0.50185510644E+02  0.00000000000E+00 0.  1.
          2    1    1    2  501    0 -0.18818746584E+03  0.50173665516E+02  0.30237607587E+03  0.35967097502E+03  0.00000000000E+00 0. -1.
<scales pt_clust_5="13000.00000" pt_clust_6="13000.00000" pt_clust_7="13000.00000" pt_clust_8="13000.00000" pt_clust_9="163.51015"></scales>
<clustering>
<clus scale="   75.716">  5  6 -1 -1</clus>
<clus scale="   94.961">  7  8 -1 -1</clus>
<clus scale="  117.052">  2  7  1 -1</clus>
<clus scale="  163.510">  1  9  2 -1</clus>
<clus scale="  163.510">  1  5  2 -1</clus>
</clustering>
</event>
<event>
 9    1  0.4664604E-005  0.1502206E+03  0.7546771E-02  0.1202638E+00
         21   -1    0    0  501  502  0.00000000000E+00  0.00000000000E+00  0.16066221617E+03  0.16066221617E+03  0.00000000000E+00 0.  1.
          3   -1    0    0  502    0 -0.00000000000E+00 -0.00000000000E+00 -0.17845302735E+03  0.17845302735E+03  0.00000000000E+00 0. -1.
        -24    2    1    2    0    0  0.11718640588E+03  0.44131396051E+02  0.12602353503E+01  0.14783962039E+03  0.78579458664E+02 0.  0.
         23    2    1    2    0    0 -0.93005592732E+02 -0.66302574920E+02  0.10745252326E+02  0.14695754192E+03  0.91842185069E+02 0.  0.
         11    1    3    3    0    0  0.81259691446E+02  0.99817056716E+01 -0.32265389021E+02  0.87999018351E+02  0.00000000000E+00 0. -1.
        -12    1    3    3    0    0  0.35926714432E+02  0.34149690380E+02  0.33525624372E+02  0.59840602039E+02  0.00000000000E+00 0.  1.
        -11    1    4    4    0    0 -0.47773727066E+02 -0.72185890050E+02 -0.23758933161E+02  0.89764239122E+02  0.00000000000E+00 0.  1.
         11    1    4    4    0    0 -0.45231865665E+02  0.58833151300E+01  0.34504185487E+02  0.57193302795E+02  0.00000000000E+00 0. -1.
          4    1    1    2  501    0 -0.24180813147E+02  0.22171178869E+02 -0.29796298862E+02  0.44318081217E+02  0.00000000000E+00 0. -1.
<scales pt_clust_5="13000.00000" pt_clust_6="13000.00000" pt_clust_7="13000.00000" pt_clust_8="13000.00000" pt_clust_9="32.80661"></scales>
<clustering>
<clus scale="   32.807">  1  9  2 -1</clus>
<clus scale="   78.579">  5  6 -1 -1</clus>
<clus scale="   91.842">  7  8 -1 -1</clus>
<clus scale="  142.499">  2  5  1 -1</clus>
<clus scale="   32.807">  1  5  2 -1</clus>
</clustering>
</event>
<event>
 9    1  0.4664604E-005  0.9637200E+02  0.7546771E-02  0.1292938E+00
         21   -1    0    0  501  502  0.00000000000E+00  0.00000000000E+00  0.13378913719E+03  0.13378913719E+03  0.00000000000E+00 0. -1.
          3   -1    0    0  502    0 -0.00000000000E+00 -0.00000000000E+00 -0.22433537246E+03  0.22433537246E+03  0.00000000000E+00 0. -1.
        -24    2    1    2    0    0  0.27702746086E+02 -0.22463534200E+02 -0.16414709495E+03  0.18622485576E+03  0.80395121819E+02 0.  0.
         23    2    1    2    0    0 -0.52513836869E+02 -0.68073654340E+01  0.82282795793E+02  0.13255817697E+03  0.89426889202E+02 0.  0.
         13    1    3    3    0    0  0.92414437007E+01  0.29972408165E+02 -0.46292285243E+02  0.55917128019E+02  0.00000000000E+00 0. -1.
        -14    1    3    3    0    0  0.18461302385E+02 -0.52435942366E+02 -0.11785480971E+03  0.13030772774E+03  0.00000000000E+00 0.  1.
        -11    1    4    4    0    0 -0.47656872467E+02 -0.33323767318E+02  0.87538097890E+02  0.10509314699E+03  0.00000000000E+00 0. -1.
         11    1    4    4    0    0 -0.48569644019E+01  0.26516401884E+02 -0.52553020962E+01  0.27465029987E+02  0.00000000000E+00 0.  1.
          4    1    1    2  501    0  0.24811090783E+02  0.29270899634E+02 -0.86819361009E+01  0.39341476913E+02  0.00000000000E+00 0. -1.
<scales pt_clust_5="13000.00000" pt_clust_6="13000.00000" pt_clust_7="13000.00000" pt_clust_8="13000.00000" pt_clust_9="38.37155"></scales>
<clustering>
<clus scale="   38.372">  1  9  2 -1</clus>
<clus scale="   80.395">  5  6 -1 -1</clus>
<clus scale="   88.055">  2  5  1 -1</clus>
<clus scale="   89.427">  7  8 -1 -1</clus>
<clus scale="   38.372">  1  5  2 -1</clus>
</clustering>
</event>
<event>
 9    1  0.4664604E-005  0.1900259E+03  0.7546771E-02  0.1159770E+00
          1   -1    0    0  502    0 -0.00000000000E+00  0.00000000000E+00  0.31828095041E+03  0.31828095041E+03  0.00000000000E+00 0. -1.
         21   -1    0    0  501  502  0.00000000000E+00 -0.00000000000E+00 -0.21032696827E+03  0.21032696827E+03  0.00000000000E+00 0. -1.
         23    2    1    2    0    0  0.71891128198E+02 -0.10347179444E+03  0.13001303737E+02  0.15707154644E+03  0.92885360769E+02 0.  0.
        -24    2    1    2    0    0 -0.66129791891E+02  0.21755566052E+03  0.38821548415E+02  0.24426098086E+03  0.80328695681E+02 0.  0.
         13    1    4    4    0    0 -0.79273995679E+02  0.21249944116E+03  0.39227062275E+02  0.23017198200E+03  0.00000000000E+00 0. -1.
        -14    1    4    4    0    0  0.13144203788E+02  0.50562193658E+01 -0.40551385990E+00  0.14088998864E+02  0.00000000000E+00 0.  1.
        -11    1    3    3    0    0  0.24209134588E+02  0.12228242904E+02  0.16745878385E+02  0.31875328467E+02  0.00000000000E+00 0.  1.
         11    1    3    3    0    0  0.47681993610E+02 -0.11570003735E+03 -0.37445746482E+01  0.12519621798E+03  0.00000000000E+00 0. -1.
          2    1    1    2  501    0 -0.57613363070E+01 -0.11408386608E+03  0.56131129985E+02  0.12727539137E+03  0.00000000000E+00 0. -1.
<scales pt_clust_5="13000.00000" pt_clust_6="13000.00000" pt_clust_7="13000.00000" pt_clust_8="13000.00000" pt_clust_9="114.22931"></scales>
<clustering>
<clus scale="   80.329">  5  6 -1 -1</clus>
<clus scale="   92.885">  7  8 -1 -1</clus>
<clus scale="  114.229">  2  9  1 -1</clus>
<clus scale="  184.214">  2  5  1 -1</clus>
<clus scale="  114.229">  2  5  1 -1</clus>
</clustering>
</event>
<event>
 9    1  0.6417454E-005  0.4105018E+03  0.7546771E-02  0.1074131E+00
          3   -1    0    0  502    0 -0.00000000000E+00  0.00000000000E+00  0.15155352724E+04  0.15155352724E+04  0.00000000000E+00 0. -1.
         21   -1    0    0  501  502  0.00000000000E+00 -0.00000000000E+00 -0.40387785432E+03  0.40387785432E+03  0.00000000000E+00 0.  1.
        -24    2    1    2    0    0 -0.12637577653E+03 -0.48774470324E+02 -0.23595937231E+02  0.15972749460E+03  0.81279261975E+02 0.  0.
         23    2    1    2    0    0  0.30711435210E+03  0.27619816385E+03 -0.14451294338E+03  0.44736335907E+03  0.92980284256E+02 0.  0.
         11    1    3    3    0    0 -0.72646220743E+02  0.29950788066E+01  0.17166172622E+02  0.74706903080E+02  0.00000000000E+00 0. -1.
        -12    1    3    3    0    0 -0.53729555789E+02 -0.51769549130E+02 -0.40762109852E+02  0.85020591518E+02  0.00000000000E+00 0.  1.
        -11    1    4    4    0    0  0.29526685084E+03  0.24968850461E+03 -0.10953050759E+03  0.40190022970E+03  0.00000000000E+00 0.  1.
         11    1    4    4    0    0  0.11847501257E+02  0.26509659241E+02 -0.34982435784E+02  0.45463129374E+02  0.00000000000E+00 0. -1.
          4    1    1    2  501    0 -0.18073857557E+03 -0.22742369352E+03  0.12797662987E+04  0.13123222731E+04  0.00000000000E+00 0. -1.
<scales pt_clust_5="13000.00000" pt_clust_6="13000.00000" pt_clust_7="13000.00000" pt_clust_8="13000.00000" pt_clust_9="399.83314"></scales>
<clustering>
<clus scale="   81.279">  5  6 -1 -1</clus>
<clus scale="   92.980">  7  8 -1 -1</clus>
<clus scale="  157.975">  1  5  2 -1</clus>
<clus scale="  399.833">  2  9  1 -1</clus>
<clus scale="  399.833">  2  5  1 -1</clus>
</clustering>
</event>
<event>
 9    1  0.4664604E-005  0.1231273E+03  0.7546771E-02  0.1240118E+00
          3   -1    0    0  502    0 -0.00000000000E+00  0.00000000000E+00  0.21197309203E+03  0.21197309203E+03  0.00000000000E+00 0. -1.
         21   -1    0    0  501  502  0.00000000000E+00 -0.00000000000E+00 -0.10272977723E+03  0.10272977723E+03  0.00000000000E+00 0. -1.
         23    2    1    2    0    0 -0.99275333579E+02 -0.60473178499E+01  0.49107805407E+02  0.14323457014E+03  0.90622313046E+02 0.  0.
        -24    2    1    2    0    0  0.64320447662E+02  0.22285746198E+02  0.99674533894E+01  0.10820405607E+03  0.83516424444E+02 0.  0.
         11    1    4    4    0    0  0.63972032828E+02  0.24888460177E+02 -0.25062958258E+02  0.73075360490E+02  0.00000000000E+00 0. -1.
        -12    1    4    4    0    0  0.34841483427E+00 -0.26027139791E+01  0.35030411647E+02  0.35128695580E+02  0.00000000000E+00 0.  1.
        -13    1    3    3    0    0 -0.30996905956E+02  0.41049107979E+02  0.15316290503E+02  0.53669602192E+02  0.00000000000E+00 0.  1.
         13    1    3    3    0    0 -0.68278427623E+02 -0.47096425829E+02  0.33791514903E+02  0.89564967951E+02  0.00000000000E+00 0. -1.
          4    1    1    2  501    0  0.34954885917E+02 -0.16238428348E+02  0.50168056004E+02  0.63264243043E+02  0.00000000000E+00 0. -1.
<scales pt_clust_5="13000.00000" pt_clust_6="13000.00000" pt_clust_7="13000.00000" pt_clust_8="13000.00000" pt_clust_9="38.54260"></scales>
<clustering>
<clus scale="   38.543">  2  9  1 -1</clus>
<clus scale="   83.516">  5  6 -1 -1</clus>
<clus scale="   90.622">  7  8 -1 -1</clus>
<clus scale="  117.995">  2  5  1 -1</clus>
<clus scale="   38.543">  2  5  1 -1</clus>
</clustering>
</event>
<event>
 9    1  0.4664604E-005  0.1176027E+03  0.7546771E-02  0.1249566E+00
          1   -1    0    0  502    0 -0.00000000000E+00  0.00000000000E+00  0.13033267352E+03  0.13033267352E+03  0.00000000000E+00 0. -1.
         21   -1    0    0  501  502  0.00000000000E+00 -0.00000000000E+00 -0.19658909369E+03  0.19658909369E+03  0.00000000000E+00 0. -1.
        -24    2    1    2    0    0 -0.88657832485E+02 -0.10547420144E+02  0.48675797132E+02  0.13189477711E+03  0.83996664628E+02 0.  0.
         23    2    1    2    0    0  0.31638225070E+02  0.13531688917E+02 -0.89690734335E+02  0.13259883978E+03  0.91399893852E+02 0.  0.
         11    1    3    3    0    0 -0.51498900975E+02 -0.13482656003E+02  0.70775484543E+02  0.88561210622E+02  0.00000000000E+00 0. -1.
        -12    1    3    3    0    0 -0.37158931510E+02  0.29352358588E+01 -0.22099687411E+02  0.43333566483E+02  0.00000000000E+00 0.  1.
        -11    1    4    4    0    0  0.53007909529E+02  0.21803513485E+02 -0.22443046803E+02  0.61554220186E+02  0.00000000000E+00 0.  1.
         11    1    4    4    0    0 -0.21369684459E+02 -0.82718245685E+01 -0.67247687531E+02  0.71044619598E+02  0.00000000000E+00 0. -1.
          2    1    1    2  501    0  0.57019607415E+02 -0.29842687728E+01 -0.25241482963E+02  0.62428150318E+02  0.00000000000E+00 0. -1.
<scales pt_clust_5="13000.00000" pt_clust_6="13000.00000" pt_clust_7="13000.00000" pt_clust_8="13000.00000" pt_clust_9="57.09765"></scales>
<clustering>
<clus scale="   57.098">  2  9  1 -1</clus>
<clus scale="   83.997">  5  6 -1 -1</clus>
<clus scale="   91.400">  7  8 -1 -1</clus>
<clus scale="  111.946">  1  5  2 -1</clus>
<clus scale="   57.098">  2  5  1 -1</clus>
</clustering>
</event>
<event>
 9    1  0.4664604E-005  0.1203687E+03  0.7546771E-02  0.1246635E+00
          1   -1    0    0  502    0 -0.00000000000E+00  0.00000000000E+00  0.53002052836E+03  0.53002052836E+03  0.00000000000E+00 0. -1.
         21   -1    0    0  501  502  0.00000000000E+00 -0.00000000000E+00 -0.40300234456E+02  0.40300234456E+02  0.00000000000E+00 0. -1.
        -24    2    1    2    0    0 -0.22494237023E+02  0.82313263920E+02  0.29041980529E+03  0.31295847836E+03  0.79485104005E+02 0.  0.
         23    2    1    2    0    0  0.13521923760E+02 -0.55427738735E+02  0.80465406490E+02  0.13519391451E+03  0.92453427393E+02 0.  0.
         13    1    3    3    0    0 -0.27350416368E+02  0.89919731409E+02  0.28890386589E+03  0.30380758235E+03  0.00000000000E+00 0. -1.
        -14    1    3    3    0    0  0.48561793451E+01 -0.76064674884E+01  0.15159394029E+01  0.91508960085E+01  0.00000000000E+00 0.  1.
        -13    1    4    4    0    0  0.48279153558E+02 -0.21160808946E+02  0.65634731362E+02  0.84181794139E+02  0.00000000000E+00 0.  1.
         13    1    4    4    0    0 -0.34757229798E+02 -0.34266929789E+02  0.14830675128E+02  0.51012120375E+02  0.00000000000E+00 0. -1.
          2    1    1    2  501    0  0.89723132632E+01 -0.26885525186E+02  0.11883508213E+03  0.12216836994E+03  0.00000000000E+00 0. -1.
<scales pt_clust_5="13000.00000" pt_clust_6="13000.00000" pt_clust_7="13000.00000" pt_clust_8="13000.00000" pt_clust_9="28.34316"></scales>
<clustering>
<clus scale="   28.343">  2  9  1 -1</clus>
<clus scale="   79.485">  5  6 -1 -1</clus>
<clus scale="   92.453">  7  8 -1 -1</clus>
<clus scale="  110.720">  1  5  2 -1</clus>
<clus scale="   28.343">  2  5  1 -1</clus>
</clustering>
</event>
<event>
 9    1  0.4664604E-005  0.2162220E+03  0.7546771E-02  0.1170823E+00
         -2   -1    0    0    0  501 -0.00000000000E+00  0.00000000000E+00  0.22951782808E+03  0.22951782808E+03  0.00000000000E+00 0.  1.
         21   -1    0    0  501  502  0.00000000000E+00 -0.00000000000E+00 -0.32872141607E+03  0.32872141607E+03  0.00000000000E+00 0.  1.
        -24    2    1    2    0    0 -0.29793716300E+02  0.43244472664E+02  0.48943054715E+01  0.97029863349E+02  0.81443785573E+02 0.  0.
         23    2    1    2    0    0  0.18985478686E+03 -0.92575112799E+02 -0.16505293222E+03  0.28297196858E+03  0.90640349536E+02 0.  0.
         13    1    3    3    0    0  0.53603274001E+01  0.51687389194E+02 -0.17106862948E+02  0.54707989101E+02  0.00000000000E+00 0. -1.
        -14    1    3    3    0    0 -0.35154043700E+02 -0.84429165296E+01  0.22001168420E+02  0.42321874248E+02  0.00000000000E+00 0.  1.
        -13    1    4    4    0    0  0.15758947178E+03 -0.88045537803E+02 -0.91190954064E+02  0.20224304301E+03  0.00000000000E+00 0.  1.
         13    1    4    4    0    0  0.32265315082E+02 -0.45295749963E+01 -0.73861978152E+02  0.80728925569E+02  0.00000000000E+00 0. -1.
         -1    1    1    2    0  502 -0.16006107056E+03  0.49330640135E+02  0.60955038757E+02  0.17823741222E+03  0.00000000000E+00 0.  1.
<scales pt_clust_5="13000.00000" pt_clust_6="13000.00000" pt_clust_7="13000.00000" pt_clust_8="13000.00000" pt_clust_9="196.30668"></scales>
<clustering>
<clus scale="   81.444">  5  6 -1 -1</clus>
<clus scale="   90.640">  7  8 -1 -1</clus>
<clus scale="   96.906">  1  5  2 -1</clus>
<clus scale="  196.307">  2  9  1 -1</clus>
<clus scale="  196.307">  2  5  1 -1</clus>
</clustering>
</event>
<event>
 9    1  0.4664604E-005  0.1272569E+03  0.7546771E-02  0.1234598E+00
         21   -1    0    0  501  502  0.00000000000E+00  0.00000000000E+00  0.11428402692E+03  0.11428402692E+03  0.00000000000E+00 0. -1.
          3   -1    0    0  502    0 -0.00000000000E+00 -0.00000000000E+00 -0.28739580810E+03  0.28739580810E+03  0.00000000000E+00 0. -1.
        -24    2    1    2    0    0 -0.63874823733E+02  0.63788313299E+02 -0.12044604163E+03  0.17036789475E+03  0.79806193975E+02 0.  0.
         23    2    1    2    0    0  0.84080291113E+02 -0.35659635594E+02 -0.10660124513E+03  0.16721418536E+03  0.90860626004E+02 0.  0.
         11    1    3    3    0    0 -0.57020585895E+02  0.22099713231E+01 -0.71054064472E+02  0.91131285885E+02  0.00000000000E+00 0. -1.
        -12    1    3    3    0    0 -0.68542378383E+01  0.61578341976E+02 -0.49391977159E+02  0.79236608866E+02  0.00000000000E+00 0.  1.
        -11    1    4    4    0    0  0.41296353737E+02  0.20767497522E+02 -0.78359008143E+02  0.90976985785E+02  0.00000000000E+00 0. -1.
         11    1    4    4    0    0  0.42783937376E+02 -0.56427133116E+02 -0.28242236990E+02  0.76237199577E+02  0.00000000000E+00 0.  1.
          4    1    1    2  501    0 -0.20205467380E+02 -0.28128677705E+02  0.53935505583E+02  0.64097754905E+02  0.00000000000E+00 0. -1.
<scales pt_clust_5="13000.00000" pt_clust_6="13000.00000" pt_clust_7="13000.00000" pt_clust_8="13000.00000" pt_clust_9="34.63356"></scales>
<clustering>
<clus scale="   34.634">  1  9  2 -1</clus>
<clus scale="   79.806">  5  6 -1 -1</clus>
<clus scale="   90.861">  7  8 -1 -1</clus>
<clus scale="  119.615">  2  5  1 -1</clus>
<clus scale="   34.634">  1  5  2 -1</clus>
</clustering>
</event>
<event>
 9    1  0.4664604E-005  0.2483242E+03  0.7546771E-02  0.1140808E+00
         -4   -1    0    0    0  501 -0.00000000000E+00  0.00000000000E+00  0.57914384993E+03  0.57914384993E+03  0.00000000000E+00 0.  1.
         21   -1    0    0  501  502  0.00000000000E+00 -0.00000000000E+00 -0.18069396708E+03  0.18069396708E+03  0.00000000000E+00 0.  1.
         23    2    1    2    0    0 -0.86955204508E+02 -0.35996091885E+02  0.74643267500E+02  0.14933553981E+03  0.88727446966E+02 0.  0.
        -24    2    1    2    0    0 -0.26523906039E+02  0.24064387066E+03  0.68374607732E+02  0.26408672847E+03  0.80335067648E+02 0.  0.
         11    1    4    4    0    0 -0.48655756454E+02  0.21098966595E+03  0.47769662164E+02  0.22173399017E+03  0.00000000000E+00 0. -1.
        -12    1    4    4    0    0  0.22131850415E+02  0.29654204717E+02  0.20604945568E+02  0.42352738307E+02  0.00000000000E+00 0.  1.
        -11    1    3    3    0    0 -0.68871822490E+02 -0.12209982866E+02  0.91388438518E+02  0.11508370132E+03  0.00000000000E+00 0.  1.
         11    1    3    3    0    0 -0.18083382018E+02 -0.23786109019E+02 -0.16745171019E+02  0.34251838490E+02  0.00000000000E+00 0. -1.
         -3    1    1    2    0  502  0.11347911055E+03 -0.20464777878E+03  0.25543200762E+03  0.34641554873E+03  0.00000000000E+00 0.  1.
<scales pt_clust_5="13000.00000" pt_clust_6="13000.00000" pt_clust_7="13000.00000" pt_clust_8="13000.00000" pt_clust_9="234.97068"></scales>
<clustering>
<clus scale="   80.335">  5  6 -1 -1</clus>
<clus scale="   88.727">  7  8 -1 -1</clus>
<clus scale="  129.343">  1  7  2 -1</clus>
<clus scale="  234.971">  2  9  1 -1</clus>
<clus scale="  234.971">  2  5  1 -1</clus>
</clustering>
</event>
<event>
 9    1  0.4664604E-005  0.9952162E+02  0.7546771E-02  0.1294440E+00
         21   -1    0    0  501  502  0.00000000000E+00  0.00000000000E+00  0.11262047379E+03  0.11262047379E+03  0.00000000000E+00 0. -1.
          1   -1    0    0  502    0 -0.00000000000E+00 -0.00000000000E+00 -0.36818646988E+03  0.36818646988E+03  0.00000000000E+00 0. -1.
         23    2    1    2    0    0 -0.27979991576E+02 -0.24486174194E+02 -0.33427055371E+03  0.34867956188E+03  0.91968370305E+02 0.  0.
        -24    2    1    2    0    0  0.47998020613E+02  0.17723233903E+02  0.64563041090E+02  0.10670217111E+03  0.67816252057E+02 0.  0.
         11    1    4    4    0    0  0.45222393979E+02 -0.80604766790E+01  0.11063328963E+02  0.47248634364E+02  0.00000000000E+00 0. -1.
        -12    1    4    4    0    0  0.27756266342E+01  0.25783710582E+02  0.53499712127E+02  0.59453536751E+02  0.00000000000E+00 0.  1.
        -13    1    3    3    0    0  0.23411510458E+02 -0.37931843626E+02 -0.18308255071E+03  0.18843074048E+03  0.00000000000E+00 0.  1.
         13    1    3    3    0    0 -0.51391502035E+02  0.13445669432E+02 -0.15118800300E+03  0.16024882139E+03  0.00000000000E+00 0. -1.
          2    1    1    2  501    0 -0.20018029037E+02  0.67629402919E+01  0.14141516535E+02  0.25425210674E+02  0.00000000000E+00 0. -1.
<scales pt_clust_5="13000.00000" pt_clust_6="13000.00000" pt_clust_7="13000.00000" pt_clust_8="13000.00000" pt_clust_9="21.12957"></scales>
<clustering>
<clus scale="   21.130">  1  9  2 -1</clus>
<clus scale="   67.816">  5  6 -1 -1</clus>
<clus scale="   77.752">  1  5  2 -1</clus>
<clus scale="   91.968">  7  8 -1 -1</clus>
<clus scale="   21.130">  1  5  2 -1</clus>
</clustering>
</event>
<event>
 9    1  0.4664604E-005  0.9243068E+02  0.7546771E-02  0.1301655E+00
          1   -1    0    0  502    0 -0.00000000000E+00  0.00000000000E+00  0.47564549285E+03  0.47564549285E+03  0.00000000000E+00 0. -1.
         21   -1    0    0  501  502  0.00000000000E+00 -0.00000000000E+00 -0.87535692484E+02  0.87535692484E+02  0.00000000000E+00 0. -1.
         23    2    1    2    0    0 -0.11255841659E+02 -0.21666769502E+02  0.39025611628E+03  0.40137714535E+03  0.90595991324E+02 0.  0.
        -24    2    1    2    0    0 -0.31620237870E+02 -0.29417812399E+02 -0.12417468167E+02  0.94324492921E+02  0.82931714801E+02 0.  0.
         13    1    4    4    0    0 -0.59813063212E+02 -0.25470342032E+02 -0.76225347180E+01  0.65455663541E+02  0.00000000000E+00 0. -1.
        -14    1    4    4    0    0  0.28192825341E+02 -0.39474703671E+01 -0.47949334492E+01  0.28868829381E+02  0.00000000000E+00 0.  1.
        -13    1    3    3    0    0  0.37515998904E+02  0.33064893591E+01  0.12638592871E+03  0.13187792090E+03  0.00000000000E+00 0.  1.
         13    1    3    3    0    0 -0.48771840563E+02 -0.24973258861E+02  0.26387018757E+03  0.26949922445E+03  0.00000000000E+00 0. -1.
          2    1    1    2  501    0  0.42876079529E+02  0.51084581901E+02  0.10271152260E+02  0.67479547068E+02  0.00000000000E+00 0. -1.
<scales pt_clust_5="13000.00000" pt_clust_6="13000.00000" pt_clust_7="13000.00000" pt_clust_8="13000.00000" pt_clust_9="66.69327"></scales>
<clustering>
<clus scale="   66.693">  2  9  1 -1</clus>
<clus scale="   82.932">  5  6 -1 -1</clus>
<clus scale="   84.932">  2  5  1 -1</clus>
<clus scale="   90.596">  7  8 -1 -1</clus>
<clus scale="   66.693">  2  5  1 -1</clus>
</clustering>
</event>
<event>
 9    1  0.4664604E-005  0.2711994E+03  0.7546771E-02  0.1100595E+00
         21   -1    0    0  501  502  0.00000000000E+00  0.00000000000E+00  0.78687161206E+03  0.78687161206E+03  0.00000000000E+00 0.  1.
         -2   -1    0    0    0  501 -0.00000000000E+00 -0.00000000000E+00 -0.85457484541E+02  0.85457484541E+02  0.00000000000E+00 0.  1.
        -24    2    1    2    0    0  0.58361588904E+01 -0.14822529761E+03  0.92390719803E+02  0.19254540855E+03  0.80826293033E+02 0.  0.
         23    2    1    2    0    0  0.24017148563E+02 -0.37989395550E+02  0.10863347442E+03  0.14503401086E+03  0.84933002674E+02 0.  0.
         13    1    3    3    0    0  0.42896108218E+02 -0.65677978132E+02  0.42595780545E+02  0.89264065738E+02  0.00000000000E+00 0. -1.
        -14    1    3    3    0    0 -0.37059949328E+02 -0.82547319473E+02  0.49794939257E+02  0.10328134281E+03  0.00000000000E+00 0.  1.
        -11    1    4    4    0    0  0.24029406264E+02 -0.15543403398E+01 -0.59444432786E+01  0.24802514897E+02  0.00000000000E+00 0. -1.
         11    1    4    4    0    0 -0.12257701157E-01 -0.36435055210E+02  0.11457791770E+03  0.12023149596E+03  0.00000000000E+00 0.  1.
         -1    1    1    2    0  502 -0.29853307454E+02  0.18621469316E+03  0.50038993330E+03  0.53474967719E+03  0.00000000000E+00 0.  1.
<scales pt_clust_5="13000.00000" pt_clust_6="13000.00000" pt_clust_7="13000.00000" pt_clust_8="13000.00000" pt_clust_9="188.59250"></scales>
<clustering>
<clus scale="   80.826">  5  6 -1 -1</clus>
<clus scale="   84.933">  7  8 -1 -1</clus>
<clus scale="   89.599">  5  7 -1 -1</clus>
<clus scale="  188.593">  1  9  2 -1</clus>
<clus scale="  188.593">  1  5  2 -1</clus>
</clustering>
</event>
<event>
 9    1  0.4664604E-005  0.1188904E+03  0.7546771E-02  0.1249139E+00
         21   -1    0    0  501  502  0.00000000000E+00  0.00000000000E+00  0.38599879586E+02  0.38599879586E+02  0.00000000000E+00 0. -1.
          1   -1    0    0  502    0 -0.00000000000E+00 -0.00000000000E+00 -0.12384894900E+04  0.12384894900E+04  0.00000000000E+00 0. -1.
        -24    2    1    2    0    0  0.68184496570E+02 -0.86555153568E+01 -0.39514683152E+03  0.40997841181E+03  0.84954318145E+02 0.  0.
         23    2    1    2    0    0  0.70316049401E+02 -0.11089871462E+02 -0.10467610454E+03  0.15320225908E+03  0.86293182076E+02 0.  0.
         11    1    3    3    0    0 -0.10881752989E+02 -0.24291508989E+02 -0.13627156154E+03  0.13884678045E+03  0.00000000000E+00 0. -1.
        -12    1    3    3    0    0  0.79066249560E+02  0.15635993633E+02 -0.25887526999E+03  0.27113163137E+03  0.00000000000E+00 0.  1.
        -11    1    4    4    0    0  0.46195003937E+01 -0.31393006666E+02 -0.68526926855E+02  0.75516887883E+02  0.00000000000E+00 0.  1.
         11    1    4    4    0    0  0.65696549007E+02  0.20303135205E+02 -0.36149177690E+02  0.77685371198E+02  0.00000000000E+00 0. -1.
          2    1    1    2  501    0 -0.13850054597E+03  0.19745386818E+02 -0.70006667435E+03  0.71390869869E+03  0.00000000000E+00 0. -1.
<scales pt_clust_5="13000.00000" pt_clust_6="13000.00000" pt_clust_7="13000.00000" pt_clust_8="13000.00000" pt_clust_9="81.78269"></scales>
<clustering>
<clus scale="   84.954">  5  6 -1 -1</clus>
<clus scale="   86.293">  7  8 -1 -1</clus>
<clus scale="  109.276">  2  5  1 -1</clus>
<clus scale="   81.783">  1  9  2 -1</clus>
<clus scale="   81.783">  1  5  2 -1</clus>
</clustering>
</event>
<event>
 9    1  0.4664604E-005  0.1087339E+03  0.7546771E-02  0.1267381E+00
         21   -1    0    0  501  502  0.00000000000E+00  0.00000000000E+00  0.12099594607E+03  0.12099594607E+03  0.00000000000E+00 0.  1.
         -2   -1    0    0    0  501 -0.00000000000E+00 -0.00000000000E+00 -0.17850193434E+03  0.17850193434E+03  0.00000000000E+00 0.  1.
         23    2    1    2    0    0 -0.42216374780E+02  0.45578408537E+02 -0.11945735511E+03  0.16304382770E+03  0.91943550270E+02 0.  0.
        -24    2    1    2    0    0  0.43082205565E+02 -0.17932006942E+02  0.52257072849E+02  0.10714445497E+03  0.81064784330E+02 0.  0.
         11    1    4    4    0    0  0.24475225352E+02 -0.12246385499E+02 -0.18975307195E+02  0.33302746087E+02  0.00000000000E+00 0. -1.
        -12    1    4    4    0    0  0.18606980213E+02 -0.56856214431E+01  0.71232380044E+02  0.73841708881E+02  0.00000000000E+00 0.  1.
        -13    1    3    3    0    0 -0.19386268436E+02  0.72442518666E+02 -0.72330504828E+02  0.10418948048E+03  0.00000000000E+00 0. -1.
         13    1    3    3    0    0 -0.22830106344E+02 -0.26864110129E+02 -0.47126850283E+02  0.58854347216E+02  0.00000000000E+00 0.  1.
         -1    1    1    2    0  502 -0.86583078521E+00 -0.27646401594E+02  0.96942939880E+01  0.29309597745E+02  0.00000000000E+00 0.  1.
<scales pt_clust_5="13000.00000" pt_clust_6="13000.00000" pt_clust_7="13000.00000" pt_clust_8="13000.00000" pt_clust_9="27.65996"></scales>
<clustering>
<clus scale="   27.660">  1  9  2 -1</clus>
<clus scale="   81.065">  5  6 -1 -1</clus>
<clus scale="   91.944">  7  8 -1 -1</clus>
<clus scale="   99.704">  1  5  2 -1</clus>
<clus scale="   27.660">  1  5  2 -1</clus>
</clustering>
</event>
<event>
 9    1  0.4664604E-005  0.1370257E+03  0.7546771E-02  0.1233199E+00
         21   -1    0    0  501  502  0.00000000000E+00  0.00000000000E+00  0.26975969973E+02  0.26975969973E+02  0.00000000000E+00 0. -1.
          1   -1    0    0  502    0 -0.00000000000E+00 -0.00000000000E+00 -0.14445139131E+04  0.14445139131E+04  0.00000000000E+00 0. -1.
         23    2    1    2    0    0 -0.36276506522E+02 -0.89246416440E+01 -0.26297443971E+03  0.28085255398E+03  0.91252216313E+02 0.  0.
        -24    2    1    2    0    0  0.12585063757E+03  0.59970163128E+02 -0.92546317676E+03  0.93940809136E+03  0.81059651714E+02 0.  0.
         13    1    4    4    0    0  0.10324600111E+03  0.14178059659E+02 -0.48993866859E+03  0.50089984338E+03  0.00000000000E+00 0. -1.
        -14    1    4    4    0    0  0.22604636460E+02  0.45792103469E+02 -0.43552450817E+03  0.43850824798E+03  0.00000000000E+00 0.  1.
        -13    1    3    3    0    0 -0.13739943436E+02  0.41127292733E+02 -0.12790467990E+03  0.13505497915E+03  0.00000000000E+00 0. -1.
         13    1    3    3    0    0 -0.22536563087E+02 -0.50051934377E+02 -0.13506975982E+03  0.14579757483E+03  0.00000000000E+00 0.  1.
          2    1    1    2  501    0 -0.89574131048E+02 -0.51045521484E+02 -0.22910032666E+03  0.25122923773E+03  0.00000000000E+00 0. -1.
<scales pt_clust_5="13000.00000" pt_clust_6="13000.00000" pt_clust_7="13000.00000" pt_clust_8="13000.00000" pt_clust_9="110.47799"></scales>
<clustering>
<clus scale="   81.060">  5  6 -1 -1</clus>
<clus scale="   91.252">  7  8 -1 -1</clus>
<clus scale="   98.603">  2  7  1 -1</clus>
<clus scale="  110.478">  1  9  2 -1</clus>
<clus scale="  110.478">  1  5  2 -1</clus>
</clustering>
</event>
<event>
 9    1  0.4664604E-005  0.9516630E+02  0.7546771E-02  0.1297820E+00
         -2   -1    0    0    0  501 -0.00000000000E+00  0.00000000000E+00  0.17613977263E+03  0.17613977263E+03  0.00000000000E+00 0.  1.
         21   -1    0    0  501  502  0.00000000000E+00 -0.00000000000E+00 -0.75958719466E+02  0.75958719466E+02  0.00000000000E+00 0.  1.
         23    2    1    2    0    0  0.31134943015E+02  0.34293588218E+01  0.10791276275E+03  0.14485288396E+03  0.91411424058E+02 0.  0.
        -24    2    1    2    0    0 -0.14735780891E+02  0.15182867807E+02 -0.84788829657E+01  0.82428159301E+02  0.79213933598E+02 0.  0.
         13    1    4    4    0    0 -0.22579748175E+02 -0.27402177558E+02 -0.15172271710E+02  0.38612461608E+02  0.00000000000E+00 0. -1.
        -14    1    4    4    0    0  0.78439672844E+01  0.42585045365E+02  0.66933887440E+01  0.43815697693E+02  0.00000000000E+00 0.  1.
        -13    1    3    3    0    0 -0.57374159021E+01  0.42109333425E+02  0.56487186291E+02  0.70688868415E+02  0.00000000000E+00 0.  1.
         13    1    3    3    0    0  0.36872358917E+02 -0.38679974603E+02  0.51425576459E+02  0.74164015544E+02  0.00000000000E+00 0. -1.
         -1    1    1    2    0  502 -0.16399162124E+02 -0.18612226628E+02  0.74717337464E+00  0.24817448831E+02  0.00000000000E+00 0.  1.
<scales pt_clust_5="13000.00000" pt_clust_6="13000.00000" pt_clust_7="13000.00000" pt_clust_8="13000.00000" pt_clust_9="24.80620"></scales>
<clustering>
<clus scale="   24.806">  2  9  1 -1</clus>
<clus scale="   79.214">  5  6 -1 -1</clus>
<clus scale="   83.519">  2  5  1 -1</clus>
<clus scale="   91.411">  7  8 -1 -1</clus>
<clus scale="   24.806">  2  5  1 -1</clus>
</clustering>
</event>
<event>
 9    1  0.4664604E-005  0.1024788E+03  0.7546771E-02  0.1280111E+00
         21   -1    0    0  501  502  0.00000000000E+00  0.00000000000E+00  0.14296750021E+03  0.14296750021E+03  0.00000000000E+00 0. -1.
          1   -1    0    0  502    0 -0.00000000000E+00 -0.00000000000E+00 -0.22411475333E+03  0.22411475333E+03  0.00000000000E+00 0. -1.
        -24    2    1    2    0    0  0.55687295334E+01  0.52731379294E+02 -0.16025791342E+03  0.18733447421E+03  0.81240367453E+02 0.  0.
         23    2    1    2    0    0 -0.26652966211E+02 -0.13162616930E+02  0.93775646937E+01  0.96844603182E+02  0.91691348303E+02 0.  0.
         11    1    3    3    0    0  0.35831011995E+02  0.13372816788E+02 -0.32221381636E+02  0.50009110009E+02  0.00000000000E+00 0. -1.
        -12    1    3    3    0    0 -0.30262282461E+02  0.39358562506E+02 -0.12803653178E+03  0.13732536420E+03  0.00000000000E+00 0.  1.
        -13    1    4    4    0    0 -0.18543524796E+02  0.31047720308E+02 -0.21722423208E+02  0.42186335681E+02  0.00000000000E+00 0. -1.
         13    1    4    4    0    0 -0.81094414146E+01 -0.44210337238E+02  0.31099987902E+02  0.54658267501E+02  0.00000000000E+00 0.  1.
          2    1    1    2  501    0  0.21084236677E+02 -0.39568762364E+02  0.69733095607E+02  0.82903176141E+02  0.00000000000E+00 0. -1.
<scales pt_clust_5="13000.00000" pt_clust_6="13000.00000" pt_clust_7="13000.00000" pt_clust_8="13000.00000" pt_clust_9="44.83561"></scales>
<clustering>
<clus scale="   44.836">  1  9  2 -1</clus>
<clus scale="   81.240">  5  6 -1 -1</clus>
<clus scale="   91.691">  7  8 -1 -1</clus>
<clus scale="   93.245">  2  5  1 -1</clus>
<clus scale="   44.836">  1  5  2 -1</clus>
</clustering>
</event>
<event>
 9    1  0.4664604E-005  0.1870467E+03  0.7546771E-02  0.1162818E+00
         21   -1    0    0  501  502  0.00000000000E+00  0.00000000000E+00  0.95941841082E+03  0.95941841082E+03  0.00000000000E+00 0.  1.
          1   -1    0    0  502    0 -0.00000000000E+00 -0.00000000000E+00 -0.64635089756E+02  0.64635089756E+02  0.00000000000E+00 0. -1.
         23    2    1    2    0    0  0.70372783857E+02 -0.10707149237E+03  0.45236317197E+03  0.47919427195E+03  0.92617912598E+02 0.  0.
        -24    2    1    2    0    0 -0.93387285738E+02  0.17219804507E+03  0.42392729296E+03  0.47335313874E+03  0.77301309023E+02 0.  0.
         13    1    4    4    0    0 -0.92468825158E+01  0.86470164494E+02  0.13666247800E+03  0.16198526809E+03  0.00000000000E+00 0. -1.
        -14    1    4    4    0    0 -0.84140403222E+02  0.85727880572E+02  0.28726481495E+03  0.31136787065E+03  0.00000000000E+00 0.  1.
        -11    1    3    3    0    0  0.78204044324E+02 -0.68588056637E+02  0.21778481128E+03  0.24135123386E+03  0.00000000000E+00 0.  1.
         11    1    3    3    0    0 -0.78312604673E+01 -0.38483435736E+02  0.23457836068E+03  0.23784303809E+03  0.00000000000E+00 0. -1.
          2    1    1    2  501    0  0.23014501881E+02 -0.65126552692E+02  0.18492856139E+02  0.71506089884E+02  0.00000000000E+00 0. -1.
<scales pt_clust_5="13000.00000" pt_clust_6="13000.00000" pt_clust_7="13000.00000" pt_clust_8="13000.00000" pt_clust_9="69.07344"></scales>
<clustering>
<clus scale="   69.073">  1  9  2 -1</clus>
<clus scale="   77.301">  5  6 -1 -1</clus>
<clus scale="   92.618">  7  8 -1 -1</clus>
<clus scale="  179.955">  1  5  2 -1</clus>
<clus scale="   69.073">  1  5  2 -1</clus>
</clustering>
</event>
<event>
 9    1  0.4664604E-005  0.9439628E+02  0.7546771E-02  0.1297725E+00
          1   -1    0    0  502    0 -0.00000000000E+00  0.00000000000E+00  0.19418667526E+03  0.19418667526E+03  0.00000000000E+00 0. -1.
         21   -1    0    0  501  502  0.00000000000E+00 -0.00000000000E+00 -0.77635801672E+02  0.77635801672E+02  0.00000000000E+00 0.  1.
         23    2    1    2    0    0  0.10984100718E+02  0.54248593753E+01  0.31600179982E+02  0.95295775323E+02  0.89065334736E+02 0.  0.
        -24    2    1    2    0    0 -0.53712401482E+02 -0.11932618836E+02  0.20767486802E+02  0.99147488283E+02  0.79821841996E+02 0.  0.
         13    1    4    4    0    0 -0.16071409576E+02  0.11918403334E+02  0.44405235177E+02  0.48704860691E+02  0.00000000000E+00 0. -1.
        -14    1    4    4    0    0 -0.37640991906E+02 -0.23851022170E+02 -0.23637748375E+02  0.50442627592E+02  0.00000000000E+00 0.  1.
        -13    1    3    3    0    0  0.27750407300E+02 -0.35753860777E+02  0.18980439330E+02  0.49078312347E+02  0.00000000000E+00 0.  1.
         13    1    3    3    0    0 -0.16766306582E+02  0.41178720152E+02  0.12619740652E+02  0.46217462975E+02  0.00000000000E+00 0. -1.
          2    1    1    2  501    0  0.42728300764E+02  0.65077594609E+01  0.64183206800E+02  0.77379213323E+02  0.00000000000E+00 0. -1.
<scales pt_clust_5="13000.00000" pt_clust_6="13000.00000" pt_clust_7="13000.00000" pt_clust_8="13000.00000" pt_clust_9="43.22107"></scales>
<clustering>
<clus scale="   43.221">  2  9  1 -1</clus>
<clus scale="   79.822">  5  6 -1 -1</clus>
<clus scale="   85.730">  2  5  1 -1</clus>
<clus scale="   89.065">  7  8 -1 -1</clus>
<clus scale="   43.221">  2  5  1 -1</clus>
</clustering>
</event>
<event>
 9    1  0.4664604E-005  0.9903346E+02  0.7546771E-02  0.1289525E+00
          1   -1    0    0  502    0 -0.00000000000E+00  0.00000000000E+00  0.59044934132E+03  0.59044934132E+03  0.00000000000E+00 0. -1.
         21   -1    0    0  501  502  0.00000000000E+00 -0.00000000000E+00 -0.35257971105E+02  0.35257971105E+02  0.00000000000E+00 0. -1.
         23    2    1    2    0    0 -0.71973444580E+01  0.39375930009E+02  0.42733965027E+03  0.43914606959E+03  0.92886102897E+02 0.  0.
        -24    2    1    2    0    0 -0.75138521796E+01 -0.10075297544E+02  0.34208895972E+02  0.87344687510E+02  0.79378059168E+02 0.  0.
         11    1    4    4    0    0 -0.25856557224E+02  0.76266747732E+01  0.50392389756E+02  0.57149983945E+02  0.00000000000E+00 0. -1.
        -12    1    4    4    0    0  0.18342705044E+02 -0.17701972318E+02 -0.16183493784E+02  0.30194703564E+02  0.00000000000E+00 0.  1.
        -11    1    3    3    0    0  0.37486160010E+02  0.39448481648E+02  0.19012945374E+03  0.19776401108E+03  0.00000000000E+00 0.  1.
         11    1    3    3    0    0 -0.44683504468E+02 -0.72551638542E-01  0.23721019653E+03  0.24138205851E+03  0.00000000000E+00 0. -1.
          2    1    1    2  501    0  0.14711196638E+02 -0.29300632465E+02  0.93642823975E+02  0.99216555329E+02  0.00000000000E+00 0. -1.
<scales pt_clust_5="13000.00000" pt_clust_6="13000.00000" pt_clust_7="13000.00000" pt_clust_8="13000.00000" pt_clust_9="32.78639"></scales>
<clustering>
<clus scale="   32.786">  2  9  1 -1</clus>
<clus scale="   79.378">  5  6 -1 -1</clus>
<clus scale="   86.491">  2  5  1 -1</clus>
<clus scale="   92.886">  7  8 -1 -1</clus>
<clus scale="   32.786">  2  5  1 -1</clus>
</clustering>
</event>
<event>
 9    1  0.4664604E-005  0.1687061E+03  0.7546771E-02  0.1180928E+00
          1   -1    0    0  502    0 -0.00000000000E+00  0.00000000000E+00  0.17135232206E+03  0.17135232206E+03  0.00000000000E+00 0. -1.
         21   -1    0    0  501  502  0.00000000000E+00 -0.00000000000E+00 -0.28146135259E+03  0.28146135259E+03  0.00000000000E+00 0.  1.
        -24    2    1    2    0    0 -0.30306448405E+02 -0.12947081408E+03  0.32654579821E+01  0.15494528088E+03  0.79474551509E+02 0.  0.
         23    2    1    2    0    0  0.22374578222E+02  0.14976130568E+03  0.53221600475E+01  0.17718901279E+03  0.91861583034E+02 0.  0.
         13    1    3    3    0    0 -0.41780512815E+02 -0.61795556682E+02  0.31175603868E+02  0.80846894518E+02  0.00000000000E+00 0. -1.
        -14    1    3    3    0    0  0.11474064410E+02 -0.67675257398E+02 -0.27910145886E+02  0.74098386361E+02  0.00000000000E+00 0.  1.
        -13    1    4    4    0    0  0.19000799820E+02 -0.68246836180E+01 -0.26581351015E+01  0.20363506144E+02  0.00000000000E+00 0.  1.
         13    1    4    4    0    0  0.33737784025E+01  0.15658598930E+03  0.79802951490E+01  0.15682550665E+03  0.00000000000E+00 0. -1.
          2    1    1    2  501    0  0.79318701824E+01 -0.20290491599E+02 -0.11869664856E+03  0.12067938098E+03  0.00000000000E+00 0. -1.
<scales pt_clust_5="13000.00000" pt_clust_6="13000.00000" pt_clust_7="13000.00000" pt_clust_8="13000.00000" pt_clust_9="21.78574"></scales>
<clustering>
<clus scale="   21.786">  2  9  1 -1</clus>
<clus scale="   79.475">  5  6 -1 -1</clus>
<clus scale="   91.862">  7  8 -1 -1</clus>
<clus scale="  162.294">  1  5  2 -1</clus>
<clus scale="   21.786">  2  5  1 -1</clus>
</clustering>
</event>
<event>
 9    1  0.4664604E-005  0.1270413E+03  0.7546771E-02  0.1234667E+00
         21   -1    0    0  501  502  0.00000000000E+00  0.00000000000E+00  0.55257105205E+03  0.55257105205E+03  0.00000000000E+00 0.  1.
          1   -1    0    0  502    0 -0.00000000000E+00 -0.00000000000E+00 -0.14487485180E+03  0.14487485180E+03  0.00000000000E+00 0. -1.
         23    2    1    2    0    0 -0.41952797913E+02 -0.81486177475E+02 -0.10027546767E+03  0.16426922773E+03  0.92353534813E+02 0.  0.
        -24    2    1    2    0    0  0.44252884750E+02  0.18410201274E+02  0.35737013853E+03  0.36988341285E+03  0.82480724218E+02 0.  0.
         11    1    4    4    0    0  0.40895867400E+02 -0.12768782229E+02  0.80031647090E+02  0.90777631088E+02  0.00000000000E+00 0. -1.
        -12    1    4    4    0    0  0.33570173500E+01  0.31178983502E+02  0.27733849144E+03  0.27910578176E+03  0.00000000000E+00 0.  1.
        -13    1    3    3    0    0 -0.88570152367E+01 -0.52629624755E+02  0.15369495756E+01  0.53391818987E+02  0.00000000000E+00 0.  1.
         13    1    3    3    0    0 -0.33095782676E+02 -0.28856552720E+02 -0.10181241724E+03  0.11087740875E+03  0.00000000000E+00 0. -1.
          2    1    1    2  501    0 -0.23000868365E+01  0.63075976201E+02  0.15060152939E+03  0.16329326327E+03  0.00000000000E+00 0. -1.
<scales pt_clust_5="13000.00000" pt_clust_6="13000.00000" pt_clust_7="13000.00000" pt_clust_8="13000.00000" pt_clust_9="63.11790"></scales>
<clustering>
<clus scale="   63.118">  1  9  2 -1</clus>
<clus scale="   82.481">  5  6 -1 -1</clus>
<clus scale="   92.354">  7  8 -1 -1</clus>
<clus scale="  120.056">  1  5  2 -1</clus>
<clus scale="   63.118">  1  5  2 -1</clus>
</clustering>
</event>
<event>
 9    1  0.4664604E-005  0.1450230E+03  0.7546771E-02  0.1211389E+00
         21   -1    0    0  501  502  0.00000000000E+00  0.00000000000E+00  0.88719243845E+02  0.88719243845E+02  0.00000000000E+00 0.  1.
         -2   -1    0    0    0  501 -0.00000000000E+00 -0.00000000000E+00 -0.10665141856E+04  0.10665141856E+04  0.00000000000E+00 0.  1.
        -24    2    1    2    0    0 -0.29033588235E+02  0.10457153438E+03 -0.69255636581E+03  0.70556990873E+03  0.80102566901E+02 0.  0.
         23    2    1    2    0    0  0.24504040033E+02 -0.43523247237E+02  0.39293832162E+02  0.11940802254E+03  0.10109178786E+03 0.  0.
         13    1    3    3    0    0 -0.23182540332E+02  0.60285520147E+02 -0.18308674058E+03  0.19414563784E+03  0.00000000000E+00 0. -1.
        -14    1    3    3    0    0 -0.58510479029E+01  0.44286014230E+02 -0.50946962523E+03  0.51142427089E+03  0.00000000000E+00 0.  1.
        -13    1    4    4    0    0  0.15310500149E+02  0.23235309573E+02  0.43775156738E+02  0.51870563649E+02  0.00000000000E+00 0.  1.
         13    1    4    4    0    0  0.91935398840E+01 -0.66758556810E+02 -0.44813245759E+01  0.67537458887E+02  0.00000000000E+00 0. -1.
         -1    1    1    2    0  502  0.45295482016E+01 -0.61048287140E+02 -0.32453240806E+03  0.33025549814E+03  0.00000000000E+00 0.  1.
<scales pt_clust_5="13000.00000" pt_clust_6="13000.00000" pt_clust_7="13000.00000" pt_clust_8="13000.00000" pt_clust_9="61.21612"></scales>
<clustering>
<clus scale="   61.216">  1  9  2 -1</clus>
<clus scale="   80.103">  5  6 -1 -1</clus>
<clus scale="  101.092">  7  8 -1 -1</clus>
<clus scale="  131.258">  2  5  1 -1</clus>
<clus scale="   61.216">  1  5  2 -1</clus>
</clustering>
</event>
<event>
 9    1  0.4664604E-005  0.1276026E+03  0.7546771E-02  0.1237572E+00
          3   -1    0    0  502    0 -0.00000000000E+00  0.00000000000E+00  0.11009882703E+03  0.11009882703E+03  0.00000000000E+00 0. -1.
         21   -1    0    0  501  502  0.00000000000E+00 -0.00000000000E+00 -0.33854124312E+03  0.33854124312E+03  0.00000000000E+00 0. -1.
         23    2    1    2    0    0 -0.65690903940E+02  0.15393018236E+02  0.22608985271E+02  0.12360505017E+03  0.10106830533E+03 0.  0.
        -24    2    1    2    0    0  0.98342790692E+02 -0.31430978961E+02 -0.86830132714E+02  0.15683279953E+03  0.79986524742E+02 0.  0.
         11    1    4    4    0    0  0.50085340197E+02 -0.56733430600E+02 -0.44120025993E+02  0.87600229132E+02  0.00000000000E+00 0. -1.
        -12    1    4    4    0    0  0.48257450494E+02  0.25302451639E+02 -0.42710106720E+02  0.69232570393E+02  0.00000000000E+00 0.  1.
        -13    1    3    3    0    0 -0.10267768531E+02  0.44107117005E+02 -0.18440562814E+02  0.48897026473E+02  0.00000000000E+00 0.  1.
         13    1    3    3    0    0 -0.55423135409E+02 -0.28714098768E+02  0.41049548084E+02  0.74708023696E+02  0.00000000000E+00 0. -1.
          4    1    1    2  501    0 -0.32651886752E+02  0.16037960724E+02 -0.16422126865E+03  0.16820222046E+03  0.00000000000E+00 0. -1.
<scales pt_clust_5="13000.00000" pt_clust_6="13000.00000" pt_clust_7="13000.00000" pt_clust_8="13000.00000" pt_clust_9="36.37804"></scales>
<clustering>
<clus scale="   36.378">  2  9  1 -1</clus>
<clus scale="   79.987">  5  6 -1 -1</clus>
<clus scale="  101.068">  7  8 -1 -1</clus>
<clus scale="  111.649">  2  5  1 -1</clus>
<clus scale="   36.378">  2  5  1 -1</clus>
</clustering>
</event>
<event>
 9    1  0.4664604E-005  0.1185996E+03  0.7546771E-02  0.1249464E+00
          1   -1    0    0  502    0 -0.00000000000E+00  0.00000000000E+00  0.83108074937E+02  0.83108074937E+02  0.00000000000E+00 0. -1.
         21   -1    0    0  501  502  0.00000000000E+00 -0.00000000000E+00 -0.31091425251E+03  0.31091425251E+03  0.00000000000E+00 0. -1.
        -24    2    1    2    0    0  0.62315672591E+02 -0.69661909241E+02 -0.52209448602E+02  0.13268149062E+03  0.78374273723E+02 0.  0.
         23    2    1    2    0    0  0.23296299512E+01  0.55530634448E+02 -0.16189160463E+03  0.19376466868E+03  0.90811764883E+02 0.  0.
         13    1    3    3    0    0  0.69483846332E+02 -0.69948559391E+02 -0.21192939281E+02  0.10084615281E+03  0.00000000000E+00 0. -1.
        -14    1    3    3    0    0 -0.71681737417E+01  0.28665014953E+00 -0.31016509321E+02  0.31835337811E+02  0.00000000000E+00 0.  1.
        -13    1    4    4    0    0  0.33371543047E+02  0.28456135281E+02 -0.14083261702E+03  0.14750334755E+03  0.00000000000E+00 0. -1.
         13    1    4    4    0    0 -0.31041913096E+02  0.27074499166E+02 -0.21058987607E+02  0.46261321131E+02  0.00000000000E+00 0.  1.
          2    1    1    2  501    0 -0.64645302542E+02  0.14131274794E+02 -0.13705124345E+02  0.67576168146E+02  0.00000000000E+00 0. -1.
<scales pt_clust_5="13000.00000" pt_clust_6="13000.00000" pt_clust_7="13000.00000" pt_clust_8="13000.00000" pt_clust_9="66.17184"></scales>
<clustering>
<clus scale="   66.172">  2  9  1 -1</clus>
<clus scale="   78.374">  5  6 -1 -1</clus>
<clus scale="   90.812">  7  8 -1 -1</clus>
<clus scale="  109.369">  1  5  2 -1</clus>
<clus scale="   66.172">  2  5  1 -1</clus>
</clustering>
</event>
<event>
 9    1  0.4664604E-005  0.1688157E+03  0.7546771E-02  0.1198092E+00
         21   -1    0    0  501  502  0.00000000000E+00  0.00000000000E+00  0.33622116653E+02  0.33622116653E+02  0.00000000000E+00 0.  1.
          1   -1    0    0  502    0 -0.00000000000E+00 -0.00000000000E+00 -0.15985709549E+04  0.15985709549E+04  0.00000000000E+00 0. -1.
         23    2    1    2    0    0 -0.35729598012E+02  0.59103555140E+02 -0.41216217977E+03  0.42680041705E+03  0.86666597701E+02 0.  0.
        -24    2    1    2    0    0  0.15459639158E+03  0.23693360318E+02 -0.37106062802E+03  0.41035791909E+03  0.79032983483E+02 0.  0.
         13    1    4    4    0    0  0.55547400456E+02  0.17795518858E+02 -0.23394096071E+03  0.24110281476E+03  0.00000000000E+00 0. -1.
        -14    1    4    4    0    0  0.99048991125E+02  0.58978414600E+01 -0.13711966731E+03  0.16925510433E+03  0.00000000000E+00 0.  1.
        -13    1    3    3    0    0  0.17426291456E+02  0.48400107312E+02 -0.26545784225E+03  0.27039621305E+03  0.00000000000E+00 0. -1.
         13    1    3    3    0    0 -0.53155889468E+02  0.10703447828E+02 -0.14670433752E+03  0.15640420400E+03  0.00000000000E+00 0.  1.
          2    1    1    2  501    0 -0.11886679357E+03 -0.82796915458E+02 -0.78172603043E+03  0.79503473539E+03  0.00000000000E+00 0. -1.
<scales pt_clust_5="13000.00000" pt_clust_6="13000.00000" pt_clust_7="13000.00000" pt_clust_8="13000.00000" pt_clust_9="149.17287"></scales>
<clustering>
<clus scale="   79.033">  5  6 -1 -1</clus>
<clus scale="   86.667">  7  8 -1 -1</clus>
<clus scale="  110.819">  2  7  1 -1</clus>
<clus scale="  149.173">  1  9  2 -1</clus>
<clus scale="  149.173">  1  5  2 -1</clus>
</clustering>
</event>
<event>
 9    1  0.4664604E-005  0.1180942E+03  0.7546771E-02  0.1249641E+00
         -4   -1    0    0    0  501 -0.00000000000E+00  0.00000000000E+00  0.75225557482E+03  0.75225557482E+03  0.00000000000E+00 0.  1.
         21   -1    0    0  501  502  0.00000000000E+00 -0.00000000000E+00 -0.31065755057E+02  0.31065755057E+02  0.00000000000E+00 0.  1.
        -24    2    1    2    0    0 -0.75324219305E+02  0.24178895164E+02  0.55353176414E+03  0.56495582810E+03  0.80742286382E+02 0.  0.
         23    2    1    2    0    0  0.64255253464E+02  0.17842130852E+01  0.12806341859E+03  0.16974101950E+03  0.90993700363E+02 0.  0.
         13    1    3    3    0    0 -0.19778649361E+02  0.47016481748E+02  0.30738469371E+03  0.31158802040E+03  0.00000000000E+00 0. -1.
        -14    1    3    3    0    0 -0.55545569943E+02 -0.22837586584E+02  0.24614707043E+03  0.25336780770E+03  0.00000000000E+00 0.  1.
        -11    1    4    4    0    0  0.49916567606E+02 -0.29951470096E+02  0.12090357198E+03  0.13418803225E+03  0.00000000000E+00 0. -1.
         11    1    4    4    0    0  0.14338685857E+02  0.31735683181E+02  0.71598466193E+01  0.35552987254E+02  0.00000000000E+00 0.  1.
         -3    1    1    2    0  502  0.11068965841E+02 -0.25963108249E+02  0.39594637033E+02  0.48624482275E+02  0.00000000000E+00 0.  1.
<scales pt_clust_5="13000.00000" pt_clust_6="13000.00000" pt_clust_7="13000.00000" pt_clust_8="13000.00000" pt_clust_9="28.22419"></scales>
<clustering>
<clus scale="   28.224">  2  9  1 -1</clus>
<clus scale="   80.742">  5  6 -1 -1</clus>
<clus scale="   90.994">  7  8 -1 -1</clus>
<clus scale="  110.389">  1  5  2 -1</clus>
<clus scale="   28.224">  2  5  1 -1</clus>
</clustering>
</event>
<event>
 9    1  0.4664604E-005  0.2254243E+03  0.7546771E-02  0.1130689E+00
          1   -1    0    0  502    0 -0.00000000000E+00  0.00000000000E+00  0.95307637070E+03  0.95307637070E+03  0.00000000000E+00 0. -1.
         21   -1    0    0  501  502  0.00000000000E+00 -0.00000000000E+00 -0.15512831818E+03  0.15512831818E+03  0.00000000000E+00 0. -1.
         23    2    1    2    0    0  0.98101148469E+02  0.18619660584E+03  0.76902580762E+03  0.80257938362E+03  0.91869270550E+02 0.  0.
        -24    2    1    2    0    0 -0.12582054523E+02 -0.19652200115E+03  0.46167894053E+02  0.21777576551E+03  0.80719294910E+02 0.  0.
         13    1    4    4    0    0 -0.36210070483E+01 -0.10236962362E+03  0.65034055245E+02  0.12133457822E+03  0.00000000000E+00 0. -1.
        -14    1    4    4    0    0 -0.89610474748E+01 -0.94152377533E+02 -0.18866161192E+02  0.96441187285E+02  0.00000000000E+00 0.  1.
        -11    1    3    3    0    0  0.24817289146E+02 -0.10035502911E+01  0.14073593862E+03  0.14291084414E+03  0.00000000000E+00 0.  1.
         11    1    3    3    0    0  0.73283859322E+02  0.18720015613E+03  0.62828986900E+03  0.65966853948E+03  0.00000000000E+00 0. -1.
          2    1    1    2  501    0 -0.85519093945E+02  0.10325395311E+02 -0.17245649158E+02  0.87849539740E+02  0.00000000000E+00 0. -1.
<scales pt_clust_5="13000.00000" pt_clust_6="13000.00000" pt_clust_7="13000.00000" pt_clust_8="13000.00000" pt_clust_9="86.14017"></scales>
<clustering>
<clus scale="   80.719">  5  6 -1 -1</clus>
<clus scale="   86.140">  2  9  1 -1</clus>
<clus scale="   91.869">  7  8 -1 -1</clus>
<clus scale="  221.115">  2  5  1 -1</clus>
<clus scale="   86.140">  2  5  1 -1</clus>
</clustering>
</event>
<event>
 9    1  0.4664604E-005  0.9423071E+02  0.7546771E-02  0.1298563E+00
         21   -1    0    0  501  502  0.00000000000E+00  0.00000000000E+00  0.27248521173E+03  0.27248521173E+03  0.00000000000E+00 0. -1.
          1   -1    0    0  502    0 -0.00000000000E+00 -0.00000000000E+00 -0.19221964123E+03  0.19221964123E+03  0.00000000000E+00 0. -1.
        -24    2    1    2    0    0 -0.26784507817E+02  0.36057680988E+01 -0.15419511619E+03  0.17576984578E+03  0.79928051444E+02 0.  0.
         23    2    1    2    0    0  0.42534746711E+02  0.95908564481E+01  0.67047101265E+02  0.12026512395E+03  0.89817576488E+02 0.  0.
         11    1    3    3    0    0 -0.52958126982E+02 -0.93393270959E+01 -0.83938180336E+02  0.99686530495E+02  0.00000000000E+00 0. -1.
        -12    1    3    3    0    0  0.26173619165E+02  0.12945095195E+02 -0.70256935853E+02  0.76083315288E+02  0.00000000000E+00 0.  1.
        -13    1    4    4    0    0  0.94108946520E+01 -0.39383421455E+02  0.31249159735E+02  0.51148106590E+02  0.00000000000E+00 0. -1.
         13    1    4    4    0    0  0.33123852059E+02  0.48974277903E+02  0.35797941529E+02  0.69117017362E+02  0.00000000000E+00 0.  1.
          2    1    1    2  501    0 -0.15750238894E+02 -0.13196624547E+02  0.16741358542E+03  0.16866988323E+03  0.00000000000E+00 0. -1.
<scales pt_clust_5="13000.00000" pt_clust_6="13000.00000" pt_clust_7="13000.00000" pt_clust_8="13000.00000" pt_clust_9="20.54802"></scales>
<clustering>
<clus scale="   20.548">  1  9  2 -1</clus>
<clus scale="   79.928">  5  6 -1 -1</clus>
<clus scale="   84.857">  2  5  1 -1</clus>
<clus scale="   89.818">  7  8 -1 -1</clus>
<clus scale="   20.548">  1  5  2 -1</clus>
</clustering>
</event>
<event>
 9    1  0.4664604E-005  0.9476847E+02  0.7546771E-02  0.1297662E+00
          1   -1    0    0  502    0 -0.00000000000E+00  0.00000000000E+00  0.39173007828E+03  0.39173007828E+03  0.00000000000E+00 0. -1.
         21   -1    0    0  501  502  0.00000000000E+00 -0.00000000000E+00 -0.70184957700E+02  0.70184957700E+02  0.00000000000E+00 0. -1.
        -24    2    1    2    0    0  0.93079720198E+01  0.22890974720E+02  0.29225704559E+03  0.30423723440E+03  0.80842309656E+02 0.  0.
         23    2    1    2    0    0  0.10749338219E+02 -0.34735253947E+02  0.63020634233E+02  0.11668428749E+03  0.91222455942E+02 0.  0.
         11    1    3    3    0    0 -0.97612759177E+01 -0.27093803800E+02  0.71312151238E+02  0.76907604475E+02  0.00000000000E+00 0. -1.
        -12    1    3    3    0    0  0.19069247937E+02  0.49984778521E+02  0.22094489436E+03  0.22732962993E+03  0.00000000000E+00 0.  1.
        -11    1    4    4    0    0 -0.32109653551E+02  0.11843617688E+02  0.28797287712E+02  0.44727898572E+02  0.00000000000E+00 0.  1.
         11    1    4    4    0    0  0.42858991770E+02 -0.46578871635E+02  0.34223346521E+02  0.71956388914E+02  0.00000000000E+00 0. -1.
          2    1    1    2  501    0 -0.20057310239E+02  0.11844279227E+02 -0.33732559247E+02  0.40993514094E+02  0.00000000000E+00 0. -1.
<scales pt_clust_5="13000.00000" pt_clust_6="13000.00000" pt_clust_7="13000.00000" pt_clust_8="13000.00000" pt_clust_9="23.29340"></scales>
<clustering>
<clus scale="   23.293">  2  9  1 -1</clus>
<clus scale="   80.842">  5  6 -1 -1</clus>
<clus scale="   84.823">  1  5  2 -1</clus>
<clus scale="   91.222">  7  8 -1 -1</clus>
<clus scale="   23.293">  2  5  1 -1</clus>
</clustering>
</event>
<event>
 9    1  0.4664604E-005  0.1010056E+03  0.7546771E-02  0.1284058E+00
         21   -1    0    0  501  502  0.00000000000E+00  0.00000000000E+00  0.15204519113E+03  0.15204519113E+03  0.00000000000E+00 0.  1.
          1   -1    0    0  502    0 -0.00000000000E+00 -0.00000000000E+00 -0.12276061836E+03  0.12276061836E+03  0.00000000000E+00 0. -1.
        -24    2    1    2    0    0  0.52026000642E+02  0.48866462607E+01 -0.50102472258E+02  0.10800329420E+03  0.80149047261E+02 0.  0.
         23    2    1    2    0    0 -0.13091671246E+02 -0.25832138254E+02  0.31081944375E+02  0.10131985812E+03  0.91983341761E+02 0.  0.
         13    1    3    3    0    0  0.72341152008E+02  0.89269741135E+01 -0.29037914046E+02  0.78461032320E+02  0.00000000000E+00 0. -1.
        -14    1    3    3    0    0 -0.20315151366E+02 -0.40403278528E+01 -0.21064558212E+02  0.29542261878E+02  0.00000000000E+00 0.  1.
        -13    1    4    4    0    0  0.55856717514E+01 -0.51164124408E+02 -0.69708056498E+01  0.51938035068E+02  0.00000000000E+00 0.  1.
         13    1    4    4    0    0 -0.18677342997E+02  0.25331986154E+02  0.38052750025E+02  0.49381823057E+02  0.00000000000E+00 0. -1.
          2    1    1    2  501    0 -0.38934329396E+02  0.20945491994E+02  0.48305100652E+02  0.65482657165E+02  0.00000000000E+00 0. -1.
<scales pt_clust_5="13000.00000" pt_clust_6="13000.00000" pt_clust_7="13000.00000" pt_clust_8="13000.00000" pt_clust_9="44.21081"></scales>
<clustering>
<clus scale="   44.211">  1  9  2 -1</clus>
<clus scale="   80.149">  5  6 -1 -1</clus>
<clus scale="   90.361">  2  5  1 -1</clus>
<clus scale="   91.983">  7  8 -1 -1</clus>
<clus scale="   44.211">  1  5  2 -1</clus>
</clustering>
</event>
<event>
 9    1  0.4664604E-005  0.1307236E+03  0.7546771E-02  0.1228734E+00
         21   -1    0    0  501  502  0.00000000000E+00  0.00000000000E+00  0.42675650921E+02  0.42675650921E+02  0.00000000000E+00 0. -1.
         -2   -1    0    0    0  501 -0.00000000000E+00 -0.00000000000E+00 -0.89829105941E+03  0.89829105941E+03  0.00000000000E+00 0.  1.
         23    2    1    2    0    0 -0.40830066213E+02  0.68295847453E+02 -0.26017923320E+03  0.28713112733E+03  0.91758562565E+02 0.  0.
        -24    2    1    2    0    0  0.42069714267E+01 -0.12820892218E+03 -0.19667221990E+03  0.24893618845E+03  0.82668237571E+02 0.  0.
         13    1    4    4    0    0 -0.12045769951E+02 -0.11625917598E+03 -0.11195176149E+03  0.16184712995E+03  0.00000000000E+00 0. -1.
        -14    1    4    4    0    0  0.16252741378E+02 -0.11949746208E+02 -0.84720458419E+02  0.87089058506E+02  0.00000000000E+00 0.  1.
        -11    1    3    3    0    0 -0.62289129640E+02  0.22335405551E+02 -0.18466134299E+03  0.19615967376E+03  0.00000000000E+00 0.  1.
         11    1    3    3    0    0  0.21459063427E+02  0.45960441902E+02 -0.75517890209E+02  0.90971453570E+02  0.00000000000E+00 0. -1.
         -1    1    1    2    0  502  0.36623094786E+02  0.59913074731E+02 -0.39876395539E+03  0.40489939456E+03  0.00000000000E+00 0.  1.
<scales pt_clust_5="13000.00000" pt_clust_6="13000.00000" pt_clust_7="13000.00000" pt_clust_8="13000.00000" pt_clust_9="70.21989"></scales>
<clustering>
<clus scale="   70.220">  1  9  2 -1</clus>
<clus scale="   82.668">  5  6 -1 -1</clus>
<clus scale="   91.759">  7  8 -1 -1</clus>
<clus scale="  124.511">  1  5  2 -1</clus>
<clus scale="   70.220">  1  5  2 -1</clus>
</clustering>
</event>
<event>
 9    1  0.4664604E-005  0.1147563E+03  0.7546771E-02  0.1256924E+00
         21   -1    0    0  501  502  0.00000000000E+00  0.00000000000E+00  0.68342360435E+02  0.68342360435E+02  0.00000000000E+00 0. -1.
          1   -1    0    0  502    0 -0.00000000000E+00 -0.00000000000E+00 -0.22769115133E+03  0.22769115133E+03  0.00000000000E+00 0. -1.
         23    2    1    2    0    0 -0.58761909954E+02  0.35606612129E+01 -0.72738776603E+02  0.13008744046E+03  0.90366875430E+02 0.  0.
        -24    2    1    2    0    0  0.82870974903E+02 -0.16798239447E+02 -0.67176786450E+02  0.13226921226E+03  0.76371752270E+02 0.  0.
         13    1    4    4    0    0  0.65849460968E+02 -0.29833158541E+02 -0.79569686313E+02  0.10750583165E+03  0.00000000000E+00 0. -1.
        -14    1    4    4    0    0  0.17021513935E+02  0.13034919094E+02  0.12392899863E+02  0.24763380614E+02  0.00000000000E+00 0.  1.
        -11    1    3    3    0    0  0.22613604061E+02  0.11692564541E+02 -0.23386915834E+02  0.34569335926E+02  0.00000000000E+00 0.  1.
         11    1    3    3    0    0 -0.81375514015E+02 -0.81319033285E+01 -0.49351860770E+02  0.95518104537E+02  0.00000000000E+00 0. -1.
          2    1    1    2  501    0 -0.24109064949E+02  0.13237578234E+02 -0.19433227837E+02  0.33676859034E+02  0.00000000000E+00 0. -1.
<scales pt_clust_5="13000.00000" pt_clust_6="13000.00000" pt_clust_7="13000.00000" pt_clust_8="13000.00000" pt_clust_9="27.50420"></scales>
<clustering>
<clus scale="   27.504">  1  9  2 -1</clus>
<clus scale="   76.372">  5  6 -1 -1</clus>
<clus scale="   90.367">  7  8 -1 -1</clus>
<clus scale="  104.094">  1  5  2 -1</clus>
<clus scale="   27.504">  1  5  2 -1</clus>
</clustering>
</event>
<event>
 9    1  0.4664604E-005  0.1558287E+03  0.7546771E-02  0.1193573E+00
         21   -1    0    0  501  502  0.00000000000E+00  0.00000000000E+00  0.14673332782E+03  0.14673332782E+03  0.00000000000E+00 0. -1.
         -2   -1    0    0    0  501 -0.00000000000E+00 -0.00000000000E+00 -0.25126113791E+03  0.25126113791E+03  0.00000000000E+00 0.  1.
         23    2    1    2    0    0 -0.11150782429E+03 -0.19126344313E+02 -0.73322081156E+02  0.15879010505E+03  0.83894922097E+02 0.  0.
        -24    2    1    2    0    0  0.15960966765E+03  0.38798861600E+02 -0.33345694561E+02  0.18719114385E+03  0.83354611877E+02 0.  0.
         13    1    4    4    0    0  0.15953644891E+03  0.43918315075E+02 -0.47488024986E+02  0.17215054297E+03  0.00000000000E+00 0. -1.
        -14    1    4    4    0    0  0.73218743125E-01 -0.51194534755E+01  0.14142330425E+02  0.15040600876E+02  0.00000000000E+00 0.  1.
        -11    1    3    3    0    0 -0.83288109073E+02 -0.91385661005E+01 -0.46962545817E+01  0.83919469198E+02  0.00000000000E+00 0. -1.
         11    1    3    3    0    0 -0.28219715214E+02 -0.99877782123E+01 -0.68625826575E+02  0.74870635856E+02  0.00000000000E+00 0.  1.
         -1    1    1    2    0  502 -0.48101843363E+02 -0.19672517287E+02  0.21399656262E+01  0.52013216822E+02  0.00000000000E+00 0.  1.
<scales pt_clust_5="13000.00000" pt_clust_6="13000.00000" pt_clust_7="13000.00000" pt_clust_8="13000.00000" pt_clust_9="51.96918"></scales>
<clustering>
<clus scale="   51.969">  1  9  2 -1</clus>
<clus scale="   83.355">  5  6 -1 -1</clus>
<clus scale="   83.895">  7  8 -1 -1</clus>
<clus scale="  155.539">  1  5  2 -1</clus>
<clus scale="   51.969">  1  5  2 -1</clus>
</clustering>
</event>
<event>
 9    1  0.4664604E-005  0.9369201E+02  0.7546771E-02  0.1299898E+00
         21   -1    0    0  501  502  0.00000000000E+00  0.00000000000E+00  0.25645625173E+03  0.25645625173E+03  0.00000000000E+00 0. -1.
         -2   -1    0    0    0  501 -0.00000000000E+00 -0.00000000000E+00 -0.92983884199E+02  0.92983884199E+02  0.00000000000E+00 0.  1.
         23    2    1    2    0    0 -0.21691981582E+02  0.81141672646E+01 -0.36522476997E+02  0.10101811329E+03  0.91292859040E+02 0.  0.
        -24    2    1    2    0    0  0.48124995715E+01 -0.24042686521E+02  0.54538700055E+02  0.10112597855E+03  0.81552331706E+02 0.  0.
         13    1    4    4    0    0  0.37146032228E+02 -0.21336690400E+02  0.53667237026E+02  0.68667710006E+02  0.00000000000E+00 0. -1.
        -14    1    4    4    0    0 -0.32333532656E+02 -0.27059961214E+01  0.87146302880E+00  0.32458268544E+02  0.00000000000E+00 0.  1.
        -13    1    3    3    0    0  0.22780828089E+01  0.28978786655E+02 -0.56459502106E+02  0.63503032332E+02  0.00000000000E+00 0.  1.
         13    1    3    3    0    0 -0.23970064391E+02 -0.20864619391E+02  0.19937025109E+02  0.37515080960E+02  0.00000000000E+00 0. -1.
         -1    1    1    2    0  502  0.16879482011E+02  0.15928519256E+02  0.14545614447E+03  0.14729604409E+03  0.00000000000E+00 0.  1.
<scales pt_clust_5="13000.00000" pt_clust_6="13000.00000" pt_clust_7="13000.00000" pt_clust_8="13000.00000" pt_clust_9="23.20850"></scales>
<clustering>
<clus scale="   23.209">  1  9  2 -1</clus>
<clus scale="   81.552">  5  6 -1 -1</clus>
<clus scale="   84.229">  1  5  2 -1</clus>
<clus scale="   91.293">  7  8 -1 -1</clus>
<clus scale="   23.209">  1  5  2 -1</clus>
</clustering>
</event>
<event>
 9    1  0.4664604E-005  0.1311269E+03  0.7546771E-02  0.1228565E+00
         21   -1    0    0  501  502  0.00000000000E+00  0.00000000000E+00  0.12635019923E+03  0.12635019923E+03  0.00000000000E+00 0.  1.
         -2   -1    0    0    0  501 -0.00000000000E+00 -0.00000000000E+00 -0.62624985362E+03  0.62624985362E+03  0.00000000000E+00 0.  1.
        -24    2    1    2    0    0 -0.22882354403E+02 -0.89850631247E+02 -0.40721109325E+03  0.42544100415E+03  0.81132209790E+02 0.  0.
         23    2    1    2    0    0 -0.94143764051E+01  0.99054322906E+02 -0.18479062210E+03  0.22912550141E+03  0.91926775266E+02 0.  0.
         13    1    3    3    0    0  0.30359564121E+02 -0.36289453275E+02 -0.17312478089E+03  0.17947372318E+03  0.00000000000E+00 0. -1.
        -14    1    3    3    0    0 -0.53241918523E+02 -0.53561177972E+02 -0.23408631236E+03  0.24596728097E+03  0.00000000000E+00 0.  1.
        -13    1    4    4    0    0 -0.47596488434E+02  0.66334088135E+02 -0.87919839269E+02  0.11998139480E+03  0.00000000000E+00 0.  1.
         13    1    4    4    0    0  0.38182112029E+02  0.32720234771E+02 -0.96870782832E+02  0.10914410662E+03  0.00000000000E+00 0. -1.
         -1    1    1    2    0  502  0.32296730808E+02 -0.92036916588E+01  0.92102060965E+02  0.98033547294E+02  0.00000000000E+00 0.  1.
<scales pt_clust_5="13000.00000" pt_clust_6="13000.00000" pt_clust_7="13000.00000" pt_clust_8="13000.00000" pt_clust_9="33.58254"></scales>
<clustering>
<clus scale="   33.583">  1  9  2 -1</clus>
<clus scale="   81.132">  5  6 -1 -1</clus>
<clus scale="   91.927">  7  8 -1 -1</clus>
<clus scale="  123.799">  2  5  1 -1</clus>
<clus scale="   33.583">  1  5  2 -1</clus>
</clustering>
</event>
<event>
 9    1  0.4664604E-005  0.1194393E+03  0.7546771E-02  0.1248942E+00
          1   -1    0    0  502    0 -0.00000000000E+00  0.00000000000E+00  0.67272149805E+02  0.67272149805E+02  0.00000000000E+00 0. -1.
         21   -1    0    0  501  502  0.00000000000E+00 -0.00000000000E+00 -0.47152613179E+03  0.47152613179E+03  0.00000000000E+00 0.  1.
         23    2    1    2    0    0 -0.57294500746E+01  0.73304531788E+02 -0.86924712486E+01  0.12063197627E+03  0.95237249348E+02 0.  0.
        -24    2    1    2    0    0 -0.13430081056E+02 -0.66952482268E+02 -0.25321026631E+03  0.27439108856E+03  0.80697140946E+02 0.  0.
         11    1    4    4    0    0 -0.43199326586E+01 -0.30502910384E+02 -0.16950401027E+02  0.35162557572E+02  0.00000000000E+00 0. -1.
        -12    1    4    4    0    0 -0.91101483975E+01 -0.36449571884E+02 -0.23625986529E+03  0.23922853099E+03  0.00000000000E+00 0.  1.
        -13    1    3    3    0    0  0.37637932300E+02  0.34435829154E+02  0.21113892447E+02  0.55210838896E+02  0.00000000000E+00 0.  1.
         13    1    3    3    0    0 -0.43367382375E+02  0.38868702634E+02 -0.29806363695E+02  0.65421137373E+02  0.00000000000E+00 0. -1.
          2    1    1    2  501    0  0.19159531131E+02 -0.63520495203E+01 -0.14235124443E+03  0.14377521677E+03  0.00000000000E+00 0. -1.
<scales pt_clust_5="13000.00000" pt_clust_6="13000.00000" pt_clust_7="13000.00000" pt_clust_8="13000.00000" pt_clust_9="20.18505"></scales>
<clustering>
<clus scale="   20.185">  2  9  1 -1</clus>
<clus scale="   80.697">  5  6 -1 -1</clus>
<clus scale="   95.237">  7  8 -1 -1</clus>
<clus scale="  108.202">  2  5  1 -1</clus>
<clus scale="   20.185">  2  5  1 -1</clus>
</clustering>
</event>
<event>
 9    1  0.4664604E-005  0.1857192E+03  0.7546771E-02  0.1194800E+00
         -2   -1    0    0    0  501 -0.00000000000E+00  0.00000000000E+00  0.14488095966E+04  0.14488095966E+04  0.00000000000E+00 0.  1.
         21   -1    0    0  501  502  0.00000000000E+00 -0.00000000000E+00 -0.34480419459E+02  0.34480419459E+02  0.00000000000E+00 0.  1.
        -24    2    1    2    0    0  0.14871549074E+02  0.38871860748E+02  0.36512982257E+03  0.37592415428E+03  0.79164372700E+02 0.  0.
         23    2    1    2    0    0  0.14631189012E+03  0.30524806399E+02  0.46452201507E+03  0.49692045898E+03  0.93863235990E+02 0.  0.
         11    1    3    3    0    0  0.11313866785E+02 -0.23844361270E+02  0.12067298720E+03  0.12352541029E+03  0.00000000000E+00 0. -1.
        -12    1    3    3    0    0  0.35576822889E+01  0.62716222018E+02  0.24445683537E+03  0.25239874399E+03  0.00000000000E+00 0.  1.
        -11    1    4    4    0    0  0.90370442773E+01  0.33549781619E+02  0.55625622071E+02  0.65585561267E+02  0.00000000000E+00 0. -1.
         11    1    4    4    0    0  0.13727484584E+03 -0.30249752201E+01  0.40889639300E+03  0.43133489771E+03  0.00000000000E+00 0.  1.
         -1    1    1    2    0  502 -0.16118343920E+03 -0.69396667146E+02  0.58467733948E+03  0.61044540279E+03  0.00000000000E+00 0.  1.
<scales pt_clust_5="13000.00000" pt_clust_6="13000.00000" pt_clust_7="13000.00000" pt_clust_8="13000.00000" pt_clust_9="160.25397"></scales>
<clustering>
<clus scale="   79.164">  5  6 -1 -1</clus>
<clus scale="   89.438">  1  5  2 -1</clus>
<clus scale="   93.863">  7  8 -1 -1</clus>
<clus scale="  160.254">  2  9  1 -1</clus>
<clus scale="  160.254">  2  5  1 -1</clus>
</clustering>
</event>
<event>
 9    1  0.4664604E-005  0.1338686E+03  0.7546771E-02  0.1243961E+00
         21   -1    0    0  501  502  0.00000000000E+00  0.00000000000E+00  0.12003948137E+03  0.12003948137E+03  0.00000000000E+00 0. -1.
          1   -1    0    0  502    0 -0.00000000000E+00 -0.00000000000E+00 -0.25417278120E+03  0.25417278120E+03  0.00000000000E+00 0. -1.
        -24    2    1    2    0    0  0.15473057509E+02 -0.25771596366E+02 -0.11204673860E+03  0.14060381249E+03  0.79444129850E+02 0.  0.
         23    2    1    2    0    0 -0.89084571683E+02  0.69938088402E+02 -0.10008996361E+02  0.14691818759E+03  0.93045025199E+02 0.  0.
         13    1    3    3    0    0 -0.30074269918E+02 -0.15142753868E+02 -0.70145895337E+02  0.77808812730E+02  0.00000000000E+00 0. -1.
        -14    1    3    3    0    0  0.45547327427E+02 -0.10628842498E+02 -0.41900843263E+02  0.62794999759E+02  0.00000000000E+00 0.  1.
        -13    1    4    4    0    0  0.11492757011E+02  0.34273184650E+02  0.11746831786E+02  0.38009508110E+02  0.00000000000E+00 0.  1.
         13    1    4    4    0    0 -0.10057732869E+03  0.35664903752E+02 -0.21755828147E+02  0.10890867948E+03  0.00000000000E+00 0. -1.
          2    1    1    2  501    0  0.73611514174E+02 -0.44166492035E+02 -0.12077564865E+02  0.86690262491E+02  0.00000000000E+00 0. -1.
<scales pt_clust_5="13000.00000" pt_clust_6="13000.00000" pt_clust_7="13000.00000" pt_clust_8="13000.00000" pt_clust_9="96.24666"></scales>
<clustering>
<clus scale="   79.444">  5  6 -1 -1</clus>
<clus scale="   84.941">  2  5  1 -1</clus>
<clus scale="   93.045">  7  8 -1 -1</clus>
<clus scale="   96.247">  1  9  2 -1</clus>
<clus scale="   96.247">  1  5  2 -1</clus>
</clustering>
</event>
<event>
 9    1  0.4664604E-005  0.9978251E+02  0.7546771E-02  0.1284929E+00
          3   -1    0    0  502    0 -0.00000000000E+00  0.00000000000E+00  0.27294017467E+03  0.27294017467E+03  0.00000000000E+00 0. -1.
         21   -1    0    0  501  502  0.00000000000E+00 -0.00000000000E+00 -0.24072799086E+03  0.24072799086E+03  0.00000000000E+00 0. -1.
         23    2    1    2    0    0 -0.19600928876E+02  0.38896759468E+02  0.13160484059E+03  0.16571332491E+03  0.90796022359E+02 0.  0.
        -24    2    1    2    0    0 -0.65557053956E+02 -0.39965766803E+02  0.87473802063E+02  0.14259637778E+03  0.82383682053E+02 0.  0.
         11    1    4    4    0    0 -0.57680380417E+02  0.11136199058E+02  0.32536872119E+02  0.67154219985E+02  0.00000000000E+00 0. -1.
        -12    1    4    4    0    0 -0.78766735386E+01 -0.51101965860E+02  0.54936929944E+02  0.75442157793E+02  0.00000000000E+00 0.  1.
        -11    1    3    3    0    0  0.81030875353E+01 -0.27369935591E+02  0.31527603889E+02  0.42529556885E+02  0.00000000000E+00 0.  1.
         11    1    3    3    0    0 -0.27704016411E+02  0.66266695059E+02  0.10007723670E+03  0.12318376803E+03  0.00000000000E+00 0. -1.
          4    1    1    2  501    0  0.85157982832E+02  0.10690073349E+01 -0.18686645885E+03  0.20535846284E+03  0.00000000000E+00 0. -1.
<scales pt_clust_5="13000.00000" pt_clust_6="13000.00000" pt_clust_7="13000.00000" pt_clust_8="13000.00000" pt_clust_9="85.16469"></scales>
<clustering>
<clus scale="   82.384">  5  6 -1 -1</clus>
<clus scale="   85.165">  2  9  1 -1</clus>
<clus scale="   90.796">  7  8 -1 -1</clus>
<clus scale="   92.194">  2  5  1 -1</clus>
<clus scale="   85.165">  2  5  1 -1</clus>
</clustering>
</event>
<event>
 9    1  0.4664604E-005  0.1130440E+03  0.7546771E-02  0.1258243E+00
          1   -1    0    0  502    0 -0.00000000000E+00  0.00000000000E+00  0.50198665506E+03  0.50198665506E+03  0.00000000000E+00 0. -1.
         21   -1    0    0  501  502  0.00000000000E+00 -0.00000000000E+00 -0.56922767801E+02  0.56922767801E+02  0.00000000000E+00 0.  1.
         23    2    1    2    0    0  0.89209265258E+02 -0.53599426719E+01  0.35029837946E+03  0.37247780151E+03  0.89686877388E+02 0.  0.
        -24    2    1    2    0    0 -0.16045131316E+02 -0.86934130050E+01  0.31130406624E+02  0.88452473553E+02  0.80757143290E+02 0.  0.
         11    1    4    4    0    0  0.20765560871E+02 -0.11032520169E+02  0.43583388670E+02  0.49522083837E+02  0.00000000000E+00 0. -1.
        -12    1    4    4    0    0 -0.36810692187E+02  0.23391071639E+01 -0.12452982046E+02  0.38930389716E+02  0.00000000000E+00 0.  1.
        -13    1    3    3    0    0 -0.27086726437E+01 -0.30587613732E+02  0.70765398426E+02  0.77140654883E+02  0.00000000000E+00 0.  1.
         13    1    3    3    0    0  0.91917937901E+02  0.25227671060E+02  0.27953298103E+03  0.29533714663E+03  0.00000000000E+00 0. -1.
          2    1    1    2  501    0 -0.73164133942E+02  0.14053355677E+02  0.63635101181E+02  0.97979147800E+02  0.00000000000E+00 0. -1.
<scales pt_clust_5="13000.00000" pt_clust_6="13000.00000" pt_clust_7="13000.00000" pt_clust_8="13000.00000" pt_clust_9="74.50159"></scales>
<clustering>
<clus scale="   74.502">  2  9  1 -1</clus>
<clus scale="   80.757">  5  6 -1 -1</clus>
<clus scale="   89.687">  7  8 -1 -1</clus>
<clus scale="  106.099">  2  5  1 -1</clus>
<clus scale="   74.502">  2  5  1 -1</clus>
</clustering>
</event>
<event>
 9    1  0.4664604E-005  0.9342261E+02  0.7546771E-02  0.1302842E+00
          1   -1    0    0  502    0 -0.00000000000E+00  0.00000000000E+00  0.44467626047E+03  0.44467626047E+03  0.00000000000E+00 0. -1.
         21   -1    0    0  501  502  0.00000000000E+00 -0.00000000000E+00 -0.11882213151E+03  0.11882213151E+03  0.00000000000E+00 0. -1.
         23    2    1    2    0    0  0.13938249407E+00 -0.38895406909E+02  0.35929279800E+03  0.37228257668E+03  0.89387527664E+02 0.  0.
        -24    2    1    2    0    0 -0.16633978445E+01 -0.90784072011E+01  0.52602906918E+02  0.92691898121E+02  0.75759737271E+02 0.  0.
         13    1    4    4    0    0 -0.27429678861E+02 -0.23136487032E+02  0.42603767770E+01  0.36136340778E+02  0.00000000000E+00 0. -1.
        -14    1    4    4    0    0  0.25766281016E+02  0.14058079831E+02  0.48342530141E+02  0.56555557343E+02  0.00000000000E+00 0.  1.
        -13    1    3    3    0    0 -0.35283311449E+02  0.98075231953E+01  0.11577920935E+03  0.12143279992E+03  0.00000000000E+00 0. -1.
         13    1    3    3    0    0  0.35422693943E+02 -0.48702930104E+02  0.24351358865E+03  0.25084977677E+03  0.00000000000E+00 0.  1.
          2    1    1    2  501    0  0.15240153504E+01  0.47973814110E+02 -0.86041575954E+02  0.98523917176E+02  0.00000000000E+00 0. -1.
<scales pt_clust_5="13000.00000" pt_clust_6="13000.00000" pt_clust_7="13000.00000" pt_clust_8="13000.00000" pt_clust_9="47.99802"></scales>
<clustering>
<clus scale="   47.998">  2  9  1 -1</clus>
<clus scale="   75.760">  5  6 -1 -1</clus>
<clus scale="   80.481">  2  5  1 -1</clus>
<clus scale="   89.388">  7  8 -1 -1</clus>
<clus scale="   47.998">  2  5  1 -1</clus>
</clustering>
</event>
<event>
 9    1  0.4664604E-005  0.1035957E+03  0.7546771E-02  0.1277062E+00
          1   -1    0    0  502    0 -0.00000000000E+00  0.00000000000E+00  0.13277522964E+03  0.13277522964E+03  0.00000000000E+00 0. -1.
         21   -1    0    0  501  502  0.00000000000E+00 -0.00000000000E+00 -0.61556575801E+03  0.61556575801E+03  0.00000000000E+00 0.  1.
         23    2    1    2    0    0 -0.29291793696E+02 -0.44155804600E+02  0.10252375600E+03  0.14638883984E+03  0.90060133392E+02 0.  0.
        -24    2    1    2    0    0 -0.21773108715E+01  0.14089269641E+02 -0.49431425587E+03  0.50107942477E+03  0.80813106428E+02 0.  0.
         13    1    4    4    0    0  0.12421064544E+02 -0.31538568193E+02 -0.18552133809E+03  0.18859249989E+03  0.00000000000E+00 0. -1.
        -14    1    4    4    0    0 -0.14598375415E+02  0.45627837835E+02 -0.30879291778E+03  0.31248692488E+03  0.00000000000E+00 0.  1.
        -11    1    3    3    0    0 -0.53349298071E+02 -0.47929320846E+02  0.98288432455E+02  0.12167162100E+03  0.00000000000E+00 0. -1.
         11    1    3    3    0    0  0.24057504375E+02  0.37735162464E+01  0.42353235437E+01  0.24717218839E+02  0.00000000000E+00 0.  1.
          2    1    1    2  501    0  0.31469104567E+02  0.30066534958E+02 -0.91000028499E+02  0.10087272304E+03  0.00000000000E+00 0. -1.
<scales pt_clust_5="13000.00000" pt_clust_6="13000.00000" pt_clust_7="13000.00000" pt_clust_8="13000.00000" pt_clust_9="43.52357"></scales>
<clustering>
<clus scale="   43.524">  2  9  1 -1</clus>
<clus scale="   80.813">  5  6 -1 -1</clus>
<clus scale="   90.060">  7  8 -1 -1</clus>
<clus scale="   95.666">  2  5  1 -1</clus>
<clus scale="   43.524">  2  5  1 -1</clus>
</clustering>
</event>
<event>
 9    1  0.4664604E-005  0.1055637E+03  0.7546771E-02  0.1277611E+00
         21   -1    0    0  501  502  0.00000000000E+00  0.00000000000E+00  0.44372302695E+03  0.44372302695E+03  0.00000000000E+00 0. -1.
          1   -1    0    0  502    0 -0.00000000000E+00 -0.00000000000E+00 -0.32735683709E+02  0.32735683709E+02  0.00000000000E+00 0. -1.
        -24    2    1    2    0    0  0.17573982541E+02 -0.47264733671E+02  0.17428459065E+03  0.19823215345E+03  0.79862808683E+02 0.  0.
         23    2    1    2    0    0 -0.31433790309E+02  0.14904758196E+02  0.20962055881E+03  0.23381138521E+03  0.97553832249E+02 0.  0.
         11    1    3    3    0    0  0.77783372537E+01 -0.43861418864E+02  0.18065214025E+03  0.18606322144E+03  0.00000000000E+00 0. -1.
        -12    1    3    3    0    0  0.97956452871E+01 -0.34033148077E+01 -0.63675496010E+01  0.12168932007E+02  0.00000000000E+00 0.  1.
        -13    1    4    4    0    0  0.16774477748E+02  0.27460489762E+02  0.20300864019E+02  0.38047163910E+02  0.00000000000E+00 0.  1.
         13    1    4    4    0    0 -0.48208268057E+02 -0.12555731565E+02  0.18931969479E+03  0.19576422130E+03  0.00000000000E+00 0. -1.
          2    1    1    2  501    0  0.13859807768E+02  0.32359975475E+02  0.27082193773E+02  0.44415171999E+02  0.00000000000E+00 0. -1.
<scales pt_clust_5="13000.00000" pt_clust_6="13000.00000" pt_clust_7="13000.00000" pt_clust_8="13000.00000" pt_clust_9="35.20317"></scales>
<clustering>
<clus scale="   35.203">  1  9  2 -1</clus>
<clus scale="   79.863">  5  6 -1 -1</clus>
<clus scale="   89.471">  2  5  1 -1</clus>
<clus scale="   97.554">  7  8 -1 -1</clus>
<clus scale="   35.203">  1  5  2 -1</clus>
</clustering>
</event>
<event>
 9    1  0.4664604E-005  0.9937406E+02  0.7546771E-02  0.1286303E+00
         21   -1    0    0  501  502  0.00000000000E+00  0.00000000000E+00  0.59925777499E+03  0.59925777499E+03  0.00000000000E+00 0.  1.
          3   -1    0    0  502    0 -0.00000000000E+00 -0.00000000000E+00 -0.22887879774E+02  0.22887879774E+02  0.00000000000E+00 0. -1.
         23    2    1    2    0    0  0.30054592261E+02  0.26652161035E+02  0.17595674844E+03  0.20239987112E+03  0.91604117296E+02 0.  0.
        -24    2    1    2    0    0 -0.43159248349E+02  0.13357728290E+01  0.32979739294E+03  0.34266374201E+03  0.82386981292E+02 0.  0.
         11    1    4    4    0    0 -0.14283583926E+02  0.17908202580E+02  0.18103905907E+02  0.29197189908E+02  0.00000000000E+00 0. -1.
        -12    1    4    4    0    0 -0.28875664424E+02 -0.16572429751E+02  0.31169348704E+03  0.31346655210E+03  0.00000000000E+00 0.  1.
        -13    1    3    3    0    0 -0.31158224030E+02  0.21499129220E+02  0.79335762553E+02  0.87904554500E+02  0.00000000000E+00 0.  1.
         13    1    3    3    0    0  0.61212816291E+02  0.51530318147E+01  0.96620985887E+02  0.11449531662E+03  0.00000000000E+00 0. -1.
          4    1    1    2  501    0  0.13104656089E+02 -0.27987933864E+02  0.70615753828E+02  0.77082041630E+02  0.00000000000E+00 0. -1.
<scales pt_clust_5="13000.00000" pt_clust_6="13000.00000" pt_clust_7="13000.00000" pt_clust_8="13000.00000" pt_clust_9="30.90400"></scales>
<clustering>
<clus scale="   30.904">  1  9  2 -1</clus>
<clus scale="   82.387">  5  6 -1 -1</clus>
<clus scale="   90.948">  1  5  2 -1</clus>
<clus scale="   91.604">  7  8 -1 -1</clus>
<clus scale="   30.904">  1  5  2 -1</clus>
</clustering>
</event>
<event>
 9    1  0.4664604E-005  0.1505952E+03  0.7546771E-02  0.1201874E+00
         21   -1    0    0  501  502  0.00000000000E+00  0.00000000000E+00  0.63464719084E+03  0.63464719084E+03  0.00000000000E+00 0. -1.
          1   -1    0    0  502    0 -0.00000000000E+00 -0.00000000000E+00 -0.22631849695E+03  0.22631849695E+03  0.00000000000E+00 0. -1.
         23    2    1    2    0    0  0.41573496352E+01 -0.12551805507E+03 -0.95324995901E+02  0.18223692566E+03  0.91385866124E+02 0.  0.
        -24    2    1    2    0    0  0.57952720192E+02  0.44733973351E+02  0.55442092595E+03  0.56488219477E+03  0.79684908830E+02 0.  0.
         11    1    4    4    0    0  0.62312986099E+02  0.63430718323E+02  0.46463893760E+03  0.47307050911E+03  0.00000000000E+00 0. -1.
        -12    1    4    4    0    0 -0.43602659075E+01 -0.18696744972E+02  0.89781988350E+02  0.91811685659E+02  0.00000000000E+00 0.  1.
        -11    1    3    3    0    0  0.37207370540E+02 -0.42965321167E+02 -0.76304105037E+01  0.57346581502E+02  0.00000000000E+00 0.  1.
         11    1    3    3    0    0 -0.33050020905E+02 -0.82552733901E+02 -0.87694585397E+02  0.12489034416E+03  0.00000000000E+00 0. -1.
          2    1    1    2  501    0 -0.62110069827E+02  0.80784081717E+02 -0.50767236152E+02  0.11384656736E+03  0.00000000000E+00 0. -1.
<scales pt_clust_5="13000.00000" pt_clust_6="13000.00000" pt_clust_7="13000.00000" pt_clust_8="13000.00000" pt_clust_9="101.90063"></scales>
<clustering>
<clus scale="   79.685">  5  6 -1 -1</clus>
<clus scale="   91.386">  7  8 -1 -1</clus>
<clus scale="  101.901">  1  9  2 -1</clus>
<clus scale="  143.796">  1  5  2 -1</clus>
<clus scale="  101.901">  1  5  2 -1</clus>
</clustering>
</event>
<event>
 9    1  0.4664604E-005  0.1029683E+03  0.7546771E-02  0.1277177E+00
          3   -1    0    0  502    0 -0.00000000000E+00  0.00000000000E+00  0.58861572040E+03  0.58861572040E+03  0.00000000000E+00 0. -1.
         21   -1    0    0  501  502  0.00000000000E+00 -0.00000000000E+00 -0.78286610825E+02  0.78286610825E+02  0.00000000000E+00 0.  1.
         23    2    1    2    0    0  0.48700188972E+02 -0.15393935355E+02  0.41617182499E+03  0.42911842041E+03  0.91295942793E+02 0.  0.
        -24    2    1    2    0    0  0.14210791529E+02  0.89504863742E+02  0.40706938358E+02  0.12684626758E+03  0.78866048072E+02 0.  0.
         11    1    4    4    0    0 -0.23683369723E+02  0.33325179724E+01  0.18207265431E+02  0.30058479535E+02  0.00000000000E+00 0. -1.
        -12    1    4    4    0    0  0.37894161252E+02  0.86172345769E+02  0.22499672927E+02  0.96787788043E+02  0.00000000000E+00 0.  1.
        -13    1    3    3    0    0 -0.17282090076E+02  0.21653377496E+02  0.84578199295E+02  0.89000062867E+02  0.00000000000E+00 0.  1.
         13    1    3    3    0    0  0.65982279049E+02 -0.37047312851E+02  0.33159362570E+03  0.34011835755E+03  0.00000000000E+00 0. -1.
          4    1    1    2  501    0 -0.62910980501E+02 -0.74110928387E+02  0.53450346221E+02  0.11093764323E+03  0.00000000000E+00 0. -1.
<scales pt_clust_5="13000.00000" pt_clust_6="13000.00000" pt_clust_7="13000.00000" pt_clust_8="13000.00000" pt_clust_9="97.21225"></scales>
<clustering>
<clus scale="   78.866">  5  6 -1 -1</clus>
<clus scale="   91.296">  7  8 -1 -1</clus>
<clus scale="   97.212">  2  9  1 -1</clus>
<clus scale="   97.212">  2  5  1 -1</clus>
<clus scale="   97.212">  2  5  1 -1</clus>
</clustering>
</event>
<event>
 9    1  0.4664604E-005  0.9911329E+02  0.7546771E-02  0.1291021E+00
         21   -1    0    0  501  502  0.00000000000E+00  0.00000000000E+00  0.50379313472E+02  0.50379313472E+02  0.00000000000E+00 0.  1.
          1   -1    0    0  502    0 -0.00000000000E+00 -0.00000000000E+00 -0.24571852901E+03  0.24571852901E+03  0.00000000000E+00 0. -1.
         23    2    1    2    0    0 -0.18787366358E+02 -0.65733569492E+01 -0.12689534394E+03  0.16058750496E+03  0.96383319507E+02 0.  0.
        -24    2    1    2    0    0  0.13803065376E+02  0.27515831180E+02 -0.73518854055E+02  0.11339278951E+03  0.80655174866E+02 0.  0.
         13    1    4    4    0    0  0.31536436117E+02  0.49117601499E+02 -0.50582061895E+02  0.77237494557E+02  0.00000000000E+00 0. -1.
        -14    1    4    4    0    0 -0.17733370741E+02 -0.21601770319E+02 -0.22936792161E+02  0.36155294956E+02  0.00000000000E+00 0.  1.
        -11    1    3    3    0    0 -0.46114052822E+02  0.10373123638E+02 -0.24452576254E+02  0.53216877466E+02  0.00000000000E+00 0.  1.
         11    1    3    3    0    0  0.27326686464E+02 -0.16946480588E+02 -0.10244276768E+03  0.10737062749E+03  0.00000000000E+00 0. -1.
          2    1    1    2  501    0  0.49843009829E+01 -0.20942474231E+02  0.50749824535E+01  0.22117548013E+02  0.00000000000E+00 0. -1.
<scales pt_clust_5="13000.00000" pt_clust_6="13000.00000" pt_clust_7="13000.00000" pt_clust_8="13000.00000" pt_clust_9="21.52744"></scales>
<clustering>
<clus scale="   21.527">  1  9  2 -1</clus>
<clus scale="   80.655">  5  6 -1 -1</clus>
<clus scale="   83.898">  1  5  2 -1</clus>
<clus scale="   96.383">  7  8 -1 -1</clus>
<clus scale="   21.527">  1  5  2 -1</clus>
</clustering>
</event>
<event>
 9    1  0.4664604E-005  0.2097676E+03  0.7546771E-02  0.1143549E+00
         21   -1    0    0  501  502  0.00000000000E+00  0.00000000000E+00  0.50870515226E+03  0.50870515226E+03  0.00000000000E+00 0.  1.
         -2   -1    0    0    0  501 -0.00000000000E+00 -0.00000000000E+00 -0.24537188831E+03  0.24537188831E+03  0.00000000000E+00 0.  1.
         23    2    1    2    0    0  0.42923148643E+02 -0.18793552626E+03 -0.11681031096E+03  0.24603101988E+03  0.98612652709E+02 0.  0.
        -24    2    1    2    0    0 -0.14492341780E+03  0.11149914686E+03  0.29133549883E+03  0.35269657788E+03  0.77997733275E+02 0.  0.
         11    1    4    4    0    0 -0.11647361922E+02  0.29726797107E+02  0.10341448880E+03  0.10823077196E+03  0.00000000000E+00 0. -1.
        -12    1    4    4    0    0 -0.13327605587E+03  0.81772349757E+02  0.18792101003E+03  0.24446580592E+03  0.00000000000E+00 0.  1.
        -11    1    3    3    0    0  0.23242342786E+02 -0.18509560936E+00  0.14169419199E+01  0.23286229471E+02  0.00000000000E+00 0. -1.
         11    1    3    3    0    0  0.19680805856E+02 -0.18775043065E+03 -0.11822725288E+03  0.22274479040E+03  0.00000000000E+00 0.  1.
         -1    1    1    2    0  502  0.10200026915E+03  0.76436379394E+02  0.88808076096E+02  0.15534944281E+03  0.00000000000E+00 0.  1.
<scales pt_clust_5="13000.00000" pt_clust_6="13000.00000" pt_clust_7="13000.00000" pt_clust_8="13000.00000" pt_clust_9="127.46205"></scales>
<clustering>
<clus scale="   77.998">  5  6 -1 -1</clus>
<clus scale="   98.613">  7  8 -1 -1</clus>
<clus scale="  127.462">  1  9  2 -1</clus>
<clus scale="  200.902">  1  5  2 -1</clus>
<clus scale="  127.462">  1  5  2 -1</clus>
</clustering>
</event>
<event>
 9    1  0.4664604E-005  0.9868403E+02  0.7546771E-02  0.1287401E+00
          1   -1    0    0  502    0 -0.00000000000E+00  0.00000000000E+00  0.14307854300E+03  0.14307854300E+03  0.00000000000E+00 0. -1.
         21   -1    0    0  501  502  0.00000000000E+00 -0.00000000000E+00 -0.14441955868E+03  0.14441955868E+03  0.00000000000E+00 0. -1.
         23    2    1    2    0    0  0.40080703642E+02  0.45130475019E+02  0.23851591887E+02  0.11198989050E+03  0.91266722076E+02 0.  0.
        -24    2    1    2    0    0 -0.25219901374E+02  0.29744896107E+02 -0.36014688832E+02  0.98409040704E+02  0.82864221537E+02 0.  0.
         11    1    4    4    0    0 -0.31827866198E+02 -0.35209784126E+01  0.16400814081E+02  0.35977730031E+02  0.00000000000E+00 0. -1.
        -12    1    4    4    0    0  0.66079648242E+01  0.33265874520E+02 -0.52415502913E+02  0.62431310673E+02  0.00000000000E+00 0.  1.
        -11    1    3    3    0    0  0.59538020350E+02  0.14659718181E+02  0.39132943991E+02  0.72739745048E+02  0.00000000000E+00 0.  1.
         11    1    3    3    0    0 -0.19457316708E+02  0.30470756838E+02 -0.15281352104E+02  0.39250145450E+02  0.00000000000E+00 0. -1.
          2    1    1    2  501    0 -0.14860802268E+02 -0.74875371126E+02  0.10822081262E+02  0.77099170476E+02  0.00000000000E+00 0. -1.
<scales pt_clust_5="13000.00000" pt_clust_6="13000.00000" pt_clust_7="13000.00000" pt_clust_8="13000.00000" pt_clust_9="76.33591"></scales>
<clustering>
<clus scale="   76.336">  2  9  1 -1</clus>
<clus scale="   82.864">  5  6 -1 -1</clus>
<clus scale="   90.969">  2  5  1 -1</clus>
<clus scale="   91.267">  7  8 -1 -1</clus>
<clus scale="   76.336">  2  5  1 -1</clus>
</clustering>
</event>
<event>
 9    1  0.4664604E-005  0.1182411E+03  0.7546771E-02  0.1247842E+00
         21   -1    0    0  501  502  0.00000000000E+00  0.00000000000E+00  0.60472032319E+02  0.60472032319E+02  0.00000000000E+00 0. -1.
          1   -1    0    0  502    0 -0.00000000000E+00 -0.00000000000E+00 -0.31638023322E+03  0.31638023322E+03  0.00000000000E+00 0. -1.
        -24    2    1    2    0    0  0.54197575294E+02  0.68345339890E+02 -0.16836808197E+03  0.20757871275E+03  0.84455007582E+02 0.  0.
         23    2    1    2    0    0 -0.68765612205E+02 -0.39920640687E+02 -0.76948269176E+02  0.13562272063E+03  0.78422695996E+02 0.  0.
         11    1    3    3    0    0  0.33044402861E+02  0.60506166202E+02 -0.17146719572E+03  0.18480781347E+03  0.00000000000E+00 0. -1.
        -12    1    3    3    0    0  0.21153172433E+02  0.78391736875E+01  0.30991137481E+01  0.22770899282E+02  0.00000000000E+00 0.  1.
        -13    1    4    4    0    0 -0.51313894719E+02 -0.10834620372E+02 -0.85806978019E+02  0.10056511456E+03  0.00000000000E+00 0.  1.
         13    1    4    4    0    0 -0.17451717486E+02 -0.29086020315E+02  0.88587088434E+01  0.35057606070E+02  0.00000000000E+00 0. -1.
          2    1    1    2  501    0  0.14568036911E+02 -0.28424699203E+02 -0.10591849754E+02  0.33650832165E+02  0.00000000000E+00 0. -1.
<scales pt_clust_5="13000.00000" pt_clust_6="13000.00000" pt_clust_7="13000.00000" pt_clust_8="13000.00000" pt_clust_9="31.94043"></scales>
<clustering>
<clus scale="   31.940">  1  9  2 -1</clus>
<clus scale="   78.423">  7  8 -1 -1</clus>
<clus scale="   84.455">  5  6 -1 -1</clus>
<clus scale="  114.011">  1  7  2 -1</clus>
<clus scale="   31.940">  1  5  2 -1</clus>
</clustering>
</event>
<event>
 9    1  0.4664604E-005  0.9807210E+02  0.7546771E-02  0.1289573E+00
         21   -1    0    0  501  502  0.00000000000E+00  0.00000000000E+00  0.55154797181E+02  0.55154797181E+02  0.00000000000E+00 0.  1.
          1   -1    0    0  502    0 -0.00000000000E+00 -0.00000000000E+00 -0.49674860900E+03  0.49674860900E+03  0.00000000000E+00 0. -1.
         23    2    1    2    0    0  0.13892278951E+02 -0.41166401026E+02 -0.40925775813E+03  0.42126551987E+03  0.89916948675E+02 0.  0.
        -24    2    1    2    0    0 -0.27364019275E+02  0.11218510147E+02 -0.43872082562E+02  0.95832083378E+02  0.79902340739E+02 0.  0.
         13    1    4    4    0    0 -0.47122595169E+02  0.46854285073E+01 -0.54718585549E+02  0.72364465176E+02  0.00000000000E+00 0. -1.
        -14    1    4    4    0    0  0.19758575894E+02  0.65330816395E+01  0.10846502987E+02  0.23467618203E+02  0.00000000000E+00 0.  1.
        -13    1    3    3    0    0  0.44367981156E+02 -0.25625448151E+01 -0.12232488171E+03  0.13014784313E+03  0.00000000000E+00 0. -1.
         13    1    3    3    0    0 -0.30475702205E+02 -0.38603856211E+02 -0.28693287642E+03  0.29111767674E+03  0.00000000000E+00 0.  1.
          2    1    1    2  501    0  0.13471740324E+02  0.29947890879E+02  0.11536028870E+02  0.34805802929E+02  0.00000000000E+00 0. -1.
<scales pt_clust_5="13000.00000" pt_clust_6="13000.00000" pt_clust_7="13000.00000" pt_clust_8="13000.00000" pt_clust_9="32.83845"></scales>
<clustering>
<clus scale="   32.838">  1  9  2 -1</clus>
<clus scale="   79.902">  5  6 -1 -1</clus>
<clus scale="   88.980">  1  5  2 -1</clus>
<clus scale="   89.917">  7  8 -1 -1</clus>
<clus scale="   32.838">  1  5  2 -1</clus>
</clustering>
</event>
<event>
 9    1  0.4664604E-005  0.9802979E+02  0.7546771E-02  0.1301214E+00
         -2   -1    0    0    0  501 -0.00000000000E+00  0.00000000000E+00  0.21394987173E+03  0.21394987173E+03  0.00000000000E+00 0.  1.
         21   -1    0    0  501  502  0.00000000000E+00 -0.00000000000E+00 -0.86634733587E+02  0.86634733587E+02  0.00000000000E+00 0.  1.
        -24    2    1    2    0    0  0.40728689041E+02  0.25758920013E+02  0.96975598600E+02  0.12622084085E+03  0.64846633457E+02 0.  0.
         23    2    1    2    0    0 -0.78884215923E+01  0.15303561312E+02  0.61843809060E+02  0.11306833612E+03  0.93077203060E+02 0.  0.
         11    1    3    3    0    0  0.31375440758E+02  0.14909874425E+02  0.74130980782E+01  0.35520088137E+02  0.00000000000E+00 0. -1.
        -12    1    3    3    0    0  0.93532482826E+01  0.10849045588E+02  0.89562500522E+02  0.90700752717E+02  0.00000000000E+00 0.  1.
        -11    1    4    4    0    0  0.59844604092E+01  0.47961590593E+02  0.86121132246E+01  0.49094769913E+02  0.00000000000E+00 0.  1.
         11    1    4    4    0    0 -0.13872882001E+02 -0.32658029281E+02  0.53231695835E+02  0.63973566206E+02  0.00000000000E+00 0. -1.
         -1    1    1    2    0  502 -0.32840267448E+02 -0.41062481325E+02 -0.31504269515E+02  0.61295428348E+02  0.00000000000E+00 0.  1.
<scales pt_clust_5="13000.00000" pt_clust_6="13000.00000" pt_clust_7="13000.00000" pt_clust_8="13000.00000" pt_clust_9="52.57956"></scales>
<clustering>
<clus scale="   52.580">  2  9  1 -1</clus>
<clus scale="   64.847">  5  6 -1 -1</clus>
<clus scale="   71.774">  1  5  2 -1</clus>
<clus scale="   93.077">  7  8 -1 -1</clus>
<clus scale="   52.580">  2  5  1 -1</clus>
</clustering>
</event>
<event>
 9    1  0.4664604E-005  0.1180909E+03  0.7546771E-02  0.1249825E+00
         21   -1    0    0  501  502  0.00000000000E+00  0.00000000000E+00  0.67058647047E+03  0.67058647047E+03  0.00000000000E+00 0. -1.
          1   -1    0    0  502    0 -0.00000000000E+00 -0.00000000000E+00 -0.55676253720E+02  0.55676253720E+02  0.00000000000E+00 0. -1.
         23    2    1    2    0    0  0.96865861500E+02  0.27947198024E+02  0.74936333601E+02  0.15535937037E+03  0.91416841269E+02 0.  0.
        -24    2    1    2    0    0 -0.37510103366E+02 -0.13714760917E+02  0.14102144126E+03  0.16730860759E+03  0.80684699655E+02 0.  0.
         11    1    4    4    0    0  0.24109226187E+02  0.68004396879E+01  0.41330948609E+02  0.48329577696E+02  0.00000000000E+00 0. -1.
        -12    1    4    4    0    0 -0.61619329554E+02 -0.20515200605E+02  0.99690492650E+02  0.11897902990E+03  0.00000000000E+00 0.  1.
        -13    1    3    3    0    0  0.19717385018E+02 -0.15406558729E+02  0.60792407669E+02  0.65740810415E+02  0.00000000000E+00 0.  1.
         13    1    3    3    0    0  0.77148476482E+02  0.43353756753E+02  0.14143925932E+02  0.89618559958E+02  0.00000000000E+00 0. -1.
          2    1    1    2  501    0 -0.59355758134E+02 -0.14232437107E+02  0.39895244189E+03  0.40359474623E+03  0.00000000000E+00 0. -1.
<scales pt_clust_5="13000.00000" pt_clust_6="13000.00000" pt_clust_7="13000.00000" pt_clust_8="13000.00000" pt_clust_9="61.03825"></scales>
<clustering>
<clus scale="   61.038">  1  9  2 -1</clus>
<clus scale="   80.685">  5  6 -1 -1</clus>
<clus scale="   91.417">  7  8 -1 -1</clus>
<clus scale="  109.993">  1  5  2 -1</clus>
<clus scale="   61.038">  1  5  2 -1</clus>
</clustering>
</event>
<event>
 9    1  0.4664604E-005  0.1159855E+03  0.7546771E-02  0.1254347E+00
         21   -1    0    0  501  502  0.00000000000E+00  0.00000000000E+00  0.27853563810E+03  0.27853563810E+03  0.00000000000E+00 0. -1.
          3   -1    0    0  502    0 -0.00000000000E+00 -0.00000000000E+00 -0.16353873532E+03  0.16353873532E+03  0.00000000000E+00 0. -1.
         23    2    1    2    0    0  0.10062939880E+02 -0.65351633125E+02 -0.11086652023E+03  0.15930094338E+03  0.93345093825E+02 0.  0.
        -24    2    1    2    0    0  0.34500491237E+01  0.83923907967E+02  0.96182130770E+02  0.15107389390E+03  0.80729139544E+02 0.  0.
         11    1    4    4    0    0  0.35414979810E+02  0.23264297836E+02  0.15325453060E+02  0.45059048595E+02  0.00000000000E+00 0. -1.
        -12    1    4    4    0    0 -0.31964930687E+02  0.60659610131E+02  0.80856677710E+02  0.10601484531E+03  0.00000000000E+00 0.  1.
        -11    1    3    3    0    0  0.46991554205E+02 -0.17256847492E+02 -0.30479844845E+02  0.58609093951E+02  0.00000000000E+00 0. -1.
         11    1    3    3    0    0 -0.36928614325E+02 -0.48094785634E+02 -0.80386675388E+02  0.10069184943E+03  0.00000000000E+00 0.  1.
          4    1    1    2  501    0 -0.13512989003E+02 -0.18572274842E+02  0.12968129224E+03  0.13169953615E+03  0.00000000000E+00 0. -1.
<scales pt_clust_5="13000.00000" pt_clust_6="13000.00000" pt_clust_7="13000.00000" pt_clust_8="13000.00000" pt_clust_9="22.96803"></scales>
<clustering>
<clus scale="   22.968">  1  9  2 -1</clus>
<clus scale="   80.729">  5  6 -1 -1</clus>
<clus scale="   93.345">  7  8 -1 -1</clus>
<clus scale="  106.097">  1  5  2 -1</clus>
<clus scale="   22.968">  1  5  2 -1</clus>
</clustering>
</event>
<event>
 9    1  0.4664604E-005  0.1181921E+03  0.7546771E-02  0.1249651E+00
          3   -1    0    0  502    0 -0.00000000000E+00  0.00000000000E+00  0.49821321091E+03  0.49821321091E+03  0.00000000000E+00 0. -1.
         21   -1    0    0  501  502  0.00000000000E+00 -0.00000000000E+00 -0.48209397947E+02  0.48209397947E+02  0.00000000000E+00 0. -1.
         23    2    1    2    0    0 -0.51358182771E+02 -0.92055365859E+02  0.29621495772E+03  0.32673663911E+03  0.88891376629E+02 0.  0.
        -24    2    1    2    0    0  0.24249790019E+02  0.30870471913E+02  0.66079592161E+02  0.10936203293E+03  0.77797836693E+02 0.  0.
         13    1    4    4    0    0  0.36654556848E+02 -0.14918184012E+02  0.33008312967E+02  0.51533071681E+02  0.00000000000E+00 0. -1.
        -14    1    4    4    0    0 -0.12404766829E+02  0.45788655925E+02  0.33071279195E+02  0.57828961249E+02  0.00000000000E+00 0.  1.
        -11    1    3    3    0    0 -0.42922825503E+02 -0.50461872766E+02  0.26728866470E+03  0.27537610613E+03  0.00000000000E+00 0. -1.
         11    1    3    3    0    0 -0.84353572675E+01 -0.41593493093E+02  0.28926293023E+02  0.51360532979E+02  0.00000000000E+00 0.  1.
          4    1    1    2  501    0  0.27108392752E+02  0.61184893946E+02  0.87709263087E+02  0.11032393682E+03  0.00000000000E+00 0. -1.
<scales pt_clust_5="13000.00000" pt_clust_6="13000.00000" pt_clust_7="13000.00000" pt_clust_8="13000.00000" pt_clust_9="66.92127"></scales>
<clustering>
<clus scale="   66.921">  2  9  1 -1</clus>
<clus scale="   77.798">  5  6 -1 -1</clus>
<clus scale="   88.891">  7  8 -1 -1</clus>
<clus scale="  110.092">  2  5  1 -1</clus>
<clus scale="   66.921">  2  5  1 -1</clus>
</clustering>
</event>
<event>
 9    1  0.4664604E-005  0.9521033E+02  0.7546771E-02  0.1295597E+00
          1   -1    0    0  502    0 -0.00000000000E+00  0.00000000000E+00  0.26076296190E+03  0.26076296190E+03  0.00000000000E+00 0. -1.
         21   -1    0    0  501  502  0.00000000000E+00 -0.00000000000E+00 -0.95557377901E+02  0.95557377901E+02  0.00000000000E+00 0.  1.
         23    2    1    2    0    0 -0.35647442706E+02 -0.65890533730E+01  0.19402049842E+03  0.21698063075E+03  0.90124827434E+02 0.  0.
        -24    2    1    2    0    0  0.30435561880E+01  0.29174125339E+02  0.58909749278E+01  0.86636790283E+02  0.81307053946E+02 0.  0.
         11    1    4    4    0    0  0.11841676508E+02  0.23281361752E+02 -0.35409220601E+02  0.44000681940E+02  0.00000000000E+00 0. -1.
        -12    1    4    4    0    0 -0.87981203204E+01  0.58927635867E+01  0.41300195529E+02  0.42636108343E+02  0.00000000000E+00 0.  1.
        -13    1    3    3    0    0 -0.52918565253E+02  0.26672552453E+02  0.12829996626E+03  0.14132473578E+03  0.00000000000E+00 0.  1.
         13    1    3    3    0    0  0.17271122547E+02 -0.33261605826E+02  0.65720532158E+02  0.75655894967E+02  0.00000000000E+00 0. -1.
          2    1    1    2  501    0  0.32603886518E+02 -0.22585071966E+02 -0.34705889341E+02  0.52702918769E+02  0.00000000000E+00 0. -1.
<scales pt_clust_5="13000.00000" pt_clust_6="13000.00000" pt_clust_7="13000.00000" pt_clust_8="13000.00000" pt_clust_9="39.66231"></scales>
<clustering>
<clus scale="   39.662">  2  9  1 -1</clus>
<clus scale="   81.307">  5  6 -1 -1</clus>
<clus scale="   86.910">  2  5  1 -1</clus>
<clus scale="   90.125">  7  8 -1 -1</clus>
<clus scale="   39.662">  2  5  1 -1</clus>
</clustering>
</event>
<event>
 9    1  0.4664604E-005  0.9512170E+02  0.7546771E-02  0.1295429E+00
         21   -1    0    0  501  502  0.00000000000E+00  0.00000000000E+00  0.65167512584E+02  0.65167512584E+02  0.00000000000E+00 0. -1.
          1   -1    0    0  502    0 -0.00000000000E+00 -0.00000000000E+00 -0.36286155742E+03  0.36286155742E+03  0.00000000000E+00 0. -1.
         23    2    1    2    0    0 -0.19290628271E+02 -0.32944287842E+02 -0.24253515485E+03  0.26177590266E+03  0.90806758765E+02 0.  0.
        -24    2    1    2    0    0  0.25376199125E+02 -0.10201183174E+02 -0.78109896594E+02  0.11700568472E+03  0.82711297230E+02 0.  0.
         11    1    4    4    0    0  0.31880628321E+01 -0.27862409206E+02  0.56215922065E+01  0.28602095908E+02  0.00000000000E+00 0. -1.
        -12    1    4    4    0    0  0.22188136293E+02  0.17661226033E+02 -0.83731488801E+02  0.88403588807E+02  0.00000000000E+00 0.  1.
        -11    1    3    3    0    0 -0.49798904045E+02 -0.41455460588E+02 -0.18613601340E+03  0.19709160698E+03  0.00000000000E+00 0. -1.
         11    1    3    3    0    0  0.30508275774E+02  0.85111727458E+01 -0.56399141446E+02  0.64684295683E+02  0.00000000000E+00 0.  1.
          2    1    1    2  501    0 -0.60855708539E+01  0.43145471015E+02  0.22951006600E+02  0.49247482633E+02  0.00000000000E+00 0. -1.
<scales pt_clust_5="13000.00000" pt_clust_6="13000.00000" pt_clust_7="13000.00000" pt_clust_8="13000.00000" pt_clust_9="43.57254"></scales>
<clustering>
<clus scale="   43.573">  1  9  2 -1</clus>
<clus scale="   82.711">  5  6 -1 -1</clus>
<clus scale="   87.427">  1  5  2 -1</clus>
<clus scale="   90.807">  7  8 -1 -1</clus>
<clus scale="   43.573">  1  5  2 -1</clus>
</clustering>
</event>
<event>
 9    1  0.4664604E-005  0.1503899E+03  0.7546771E-02  0.1214047E+00
          1   -1    0    0  502    0 -0.00000000000E+00  0.00000000000E+00  0.72296360825E+03  0.72296360825E+03  0.00000000000E+00 0. -1.
         21   -1    0    0  501  502  0.00000000000E+00 -0.00000000000E+00 -0.13881833630E+03  0.13881833630E+03  0.00000000000E+00 0. -1.
        -24    2    1    2    0    0  0.36758265282E+02 -0.65712034114E+02  0.18374243412E+03  0.21478938329E+03  0.81877686735E+02 0.  0.
         23    2    1    2    0    0  0.28978475509E+02  0.16269254273E+03  0.47288824769E+03  0.50922219876E+03  0.91516869533E+02 0.  0.
         13    1    3    3    0    0  0.47112582150E+02 -0.37627911369E+02  0.17263736462E+03  0.18286365077E+03  0.00000000000E+00 0. -1.
        -14    1    3    3    0    0 -0.10354316869E+02 -0.28084122745E+02  0.11105069494E+02  0.31925732516E+02  0.00000000000E+00 0.  1.
        -13    1    4    4    0    0  0.61340250400E+02  0.86879497895E+02  0.25739809566E+03  0.27850395531E+03  0.00000000000E+00 0.  1.
         13    1    4    4    0    0 -0.32361774892E+02  0.75813044836E+02  0.21549015203E+03  0.23071824346E+03  0.00000000000E+00 0. -1.
          2    1    1    2  501    0 -0.65736740791E+02 -0.96980508617E+02 -0.72485409857E+02  0.13777036250E+03  0.00000000000E+00 0. -1.
<scales pt_clust_5="13000.00000" pt_clust_6="13000.00000" pt_clust_7="13000.00000" pt_clust_8="13000.00000" pt_clust_9="119.33892"></scales>
<clustering>
<clus scale="   81.878">  5  6 -1 -1</clus>
<clus scale="   91.517">  7  8 -1 -1</clus>
<clus scale="  111.235">  1  5  2 -1</clus>
<clus scale="  119.339">  2  9  1 -1</clus>
<clus scale="  119.339">  2  5  1 -1</clus>
</clustering>
</event>
<event>
 9    1  0.4664604E-005  0.1008464E+03  0.7546771E-02  0.1284190E+00
          1   -1    0    0  502    0 -0.00000000000E+00  0.00000000000E+00  0.58231163839E+02  0.58231163839E+02  0.00000000000E+00 0. -1.
         21   -1    0    0  501  502  0.00000000000E+00 -0.00000000000E+00 -0.23731341034E+03  0.23731341034E+03  0.00000000000E+00 0. -1.
        -24    2    1    2    0    0  0.39415063143E+02  0.17322487961E+02 -0.58865551023E+02  0.10936003608E+03  0.81491402013E+02 0.  0.
         23    2    1    2    0    0 -0.39617952584E+02  0.21540977067E+02 -0.83549975728E+02  0.13275366299E+03  0.92786533141E+02 0.  0.
         11    1    3    3    0    0  0.20497849629E+02 -0.88525022112E+01 -0.71329936218E+02  0.74742815278E+02  0.00000000000E+00 0. -1.
        -12    1    3    3    0    0  0.18917213515E+02  0.26174990172E+02  0.12464385195E+02  0.34617220801E+02  0.00000000000E+00 0.  1.
        -11    1    4    4    0    0 -0.23329528661E+02  0.56965253441E+02 -0.65179269282E+02  0.89652909330E+02  0.00000000000E+00 0. -1.
         11    1    4    4    0    0 -0.16288423924E+02 -0.35424276374E+02 -0.18370706446E+02  0.43100753658E+02  0.00000000000E+00 0.  1.
          2    1    1    2  501    0  0.20288944115E+00 -0.38863465028E+02 -0.36666719749E+02  0.53430875112E+02  0.00000000000E+00 0. -1.
<scales pt_clust_5="13000.00000" pt_clust_6="13000.00000" pt_clust_7="13000.00000" pt_clust_8="13000.00000" pt_clust_9="38.86399"></scales>
<clustering>
<clus scale="   38.864">  2  9  1 -1</clus>
<clus scale="   81.491">  5  6 -1 -1</clus>
<clus scale="   90.562">  1  5  2 -1</clus>
<clus scale="   92.787">  7  8 -1 -1</clus>
<clus scale="   38.864">  2  5  1 -1</clus>
</clustering>
</event>
<event>
 9    1  0.4664604E-005  0.1076174E+03  0.7546771E-02  0.1270214E+00
         21   -1    0    0  501  502  0.00000000000E+00  0.00000000000E+00  0.63413763509E+03  0.63413763509E+03  0.00000000000E+00 0. -1.
          1   -1    0    0  502    0 -0.00000000000E+00 -0.00000000000E+00 -0.47355238555E+02  0.47355238555E+02  0.00000000000E+00 0. -1.
        -24    2    1    2    0    0 -0.47938205325E+01  0.56162401723E+02  0.27769721895E+02  0.10117294474E+03  0.79294458889E+02 0.  0.
         23    2    1    2    0    0 -0.32846376688E+02 -0.58118361963E+02  0.34886527688E+03  0.36681925206E+03  0.91611974176E+02 0.  0.
         13    1    3    3    0    0  0.92865907055E+01  0.68575218489E+02  0.19210336003E+01  0.69227824810E+02  0.00000000000E+00 0. -1.
        -14    1    3    3    0    0 -0.14080411238E+02 -0.12412816767E+02  0.25848688295E+02  0.31945119929E+02  0.00000000000E+00 0.  1.
        -13    1    4    4    0    0 -0.45979783097E+02  0.18297127744E+01  0.93859260015E+02  0.10453252600E+03  0.00000000000E+00 0. -1.
         13    1    4    4    0    0  0.13133406409E+02 -0.59948074738E+02  0.25500601686E+03  0.26228672605E+03  0.00000000000E+00 0.  1.
          2    1    1    2  501    0  0.37640197221E+02  0.19559602407E+01  0.21014739777E+03  0.21350067685E+03  0.00000000000E+00 0. -1.
<scales pt_clust_5="13000.00000" pt_clust_6="13000.00000" pt_clust_7="13000.00000" pt_clust_8="13000.00000" pt_clust_9="37.69098"></scales>
<clustering>
<clus scale="   37.691">  1  9  2 -1</clus>
<clus scale="   79.294">  5  6 -1 -1</clus>
<clus scale="   91.612">  7  8 -1 -1</clus>
<clus scale="   97.347">  2  5  1 -1</clus>
<clus scale="   37.691">  1  5  2 -1</clus>
</clustering>
</event>
<event>
 9    1  0.4664604E-005  0.1513699E+03  0.7546771E-02  0.1201092E+00
         21   -1    0    0  501  502  0.00000000000E+00  0.00000000000E+00  0.60564137206E+03  0.60564137206E+03  0.00000000000E+00 0. -1.
         -2   -1    0    0    0  501 -0.00000000000E+00 -0.00000000000E+00 -0.12993577307E+03  0.12993577307E+03  0.00000000000E+00 0.  1.
        -24    2    1    2    0    0 -0.10195383772E+03  0.58694264317E+02 -0.38185995141E+02  0.14732377000E+03  0.80040747706E+02 0.  0.
         23    2    1    2    0    0  0.10616878274E+03 -0.95885999220E+02  0.52271642321E+03  0.54979731560E+03  0.92621238757E+02 0.  0.
         11    1    3    3    0    0 -0.10206281680E+02  0.40367255603E+02 -0.33853789453E+02  0.53663419300E+02  0.00000000000E+00 0. -1.
        -12    1    3    3    0    0 -0.91747556039E+02  0.18327008714E+02 -0.43322056882E+01  0.93660350702E+02  0.00000000000E+00 0.  1.
        -11    1    4    4    0    0  0.52039760134E+02 -0.71145657982E+02  0.43470637967E+03  0.44355324124E+03  0.00000000000E+00 0. -1.
         11    1    4    4    0    0  0.54129022607E+02 -0.24740341238E+02  0.88010043537E+02  0.10624407436E+03  0.00000000000E+00 0.  1.
         -1    1    1    2    0  502 -0.42149450215E+01  0.37191734903E+02 -0.88248290850E+01  0.38456059536E+02  0.00000000000E+00 0.  1.
<scales pt_clust_5="13000.00000" pt_clust_6="13000.00000" pt_clust_7="13000.00000" pt_clust_8="13000.00000" pt_clust_9="37.42983"></scales>
<clustering>
<clus scale="   37.430">  1  9  2 -1</clus>
<clus scale="   80.041">  5  6 -1 -1</clus>
<clus scale="   92.621">  7  8 -1 -1</clus>
<clus scale="  144.016">  2  5  1 -1</clus>
<clus scale="   37.430">  1  5  2 -1</clus>
</clustering>
</event>
<event>
 9    1  0.6671005E-005  0.1225662E+03  0.7546771E-02  0.1242206E+00
         21   -1    0    0  501  502  0.00000000000E+00  0.00000000000E+00  0.10438148735E+03  0.10438148735E+03  0.00000000000E+00 0.  1.
         -4   -1    0    0    0  501 -0.00000000000E+00 -0.00000000000E+00 -0.10758710851E+04  0.10758710851E+04  0.00000000000E+00 0.  1.
        -24    2    1    2    0    0  0.82179086489E+02  0.62404422322E+01 -0.91528312473E+03  0.92255288191E+03  0.81044901915E+02 0.  0.
         23    2    1    2    0    0 -0.72431950037E+02  0.56902562726E+02 -0.11291762916E+03  0.17227018177E+03  0.91882182834E+02 0.  0.
         13    1    3    3    0    0  0.14620185032E+02 -0.30410844499E+02 -0.16995810005E+03  0.17327528689E+03  0.00000000000E+00 0. -1.
        -14    1    3    3    0    0  0.67558901458E+02  0.36651286731E+02 -0.74532502468E+03  0.74927759502E+03  0.00000000000E+00 0.  1.
        -13    1    4    4    0    0 -0.45096848778E+02 -0.19359892125E+02 -0.43743563961E+02  0.65742152238E+02  0.00000000000E+00 0. -1.
         13    1    4    4    0    0 -0.27335101258E+02  0.76262454851E+02 -0.69174065199E+02  0.10652802954E+03  0.00000000000E+00 0.  1.
         -3    1    1    2    0  502 -0.97471364527E+01 -0.63143004958E+02  0.56711156117E+02  0.85429508791E+02  0.00000000000E+00 0.  1.
<scales pt_clust_5="13000.00000" pt_clust_6="13000.00000" pt_clust_7="13000.00000" pt_clust_8="13000.00000" pt_clust_9="63.89089"></scales>
<clustering>
<clus scale="   63.891">  1  9  2 -1</clus>
<clus scale="   81.045">  5  6 -1 -1</clus>
<clus scale="   91.882">  7  8 -1 -1</clus>
<clus scale="  114.667">  2  5  1 -1</clus>
<clus scale="   63.891">  1  5  2 -1</clus>
</clustering>
</event>
<event>
 9    1  0.4664604E-005  0.9196563E+02  0.7546771E-02  0.1304725E+00
         21   -1    0    0  501  502  0.00000000000E+00  0.00000000000E+00  0.48493715187E+02  0.48493715187E+02  0.00000000000E+00 0. -1.
         -4   -1    0    0    0  501 -0.00000000000E+00 -0.00000000000E+00 -0.22302423930E+03  0.22302423930E+03  0.00000000000E+00 0.  1.
        -24    2    1    2    0    0 -0.12806510309E+02 -0.31287041231E+01 -0.10684957173E+03  0.13374674652E+03  0.79357203385E+02 0.  0.
         23    2    1    2    0    0  0.29660536857E+02 -0.13718206431E+02 -0.58332308858E+02  0.11217289275E+03  0.90067546751E+02 0.  0.
         11    1    3    3    0    0 -0.13492003105E+02  0.31480935636E+02 -0.18653346960E+02  0.39000394986E+02  0.00000000000E+00 0. -1.
        -12    1    3    3    0    0  0.68549279550E+00 -0.34609639759E+02 -0.88196224771E+02  0.94746351531E+02  0.00000000000E+00 0.  1.
        -11    1    4    4    0    0 -0.31322486191E+02  0.56392741883E+01 -0.19927930646E+02  0.37550259312E+02  0.00000000000E+00 0.  1.
         11    1    4    4    0    0  0.60983023048E+02 -0.19357480619E+02 -0.38404378212E+02  0.74622633442E+02  0.00000000000E+00 0. -1.
         -3    1    1    2    0  502 -0.16854026547E+02  0.16846910554E+02 -0.93486435213E+01  0.25598315213E+02  0.00000000000E+00 0.  1.
<scales pt_clust_5="13000.00000" pt_clust_6="13000.00000" pt_clust_7="13000.00000" pt_clust_8="13000.00000" pt_clust_9="23.83016"></scales>
<clustering>
<clus scale="   23.830">  1  9  2 -1</clus>
<clus scale="   79.357">  5  6 -1 -1</clus>
<clus scale="   81.505">  2  5  1 -1</clus>
<clus scale="   90.068">  7  8 -1 -1</clus>
<clus scale="   23.830">  1  5  2 -1</clus>
</clustering>
</event>
<event>
 9    1  0.4664604E-005  0.2526237E+03  0.7546771E-02  0.1112166E+00
          1   -1    0    0  502    0 -0.00000000000E+00  0.00000000000E+00  0.22584282729E+03  0.22584282729E+03  0.00000000000E+00 0. -1.
         21   -1    0    0  501  502  0.00000000000E+00 -0.00000000000E+00 -0.40495689276E+03  0.40495689276E+03  0.00000000000E+00 0. -1.
         23    2    1    2    0    0 -0.27914719409E+02  0.23844409379E+03  0.75695710699E+02  0.26725826134E+03  0.89790423861E+02 0.  0.
        -24    2    1    2    0    0  0.38648646829E+02 -0.22111989607E+03 -0.24062078227E+03  0.33870856576E+03  0.80233442632E+02 0.  0.
         11    1    4    4    0    0  0.62897176808E+02 -0.13955220922E+03 -0.14772573972E+03  0.21272933066E+03  0.00000000000E+00 0. -1.
        -12    1    4    4    0    0 -0.24248529979E+02 -0.81567686855E+02 -0.92895042552E+02  0.12597923510E+03  0.00000000000E+00 0.  1.
        -11    1    3    3    0    0  0.30142646717E+02  0.12800325326E+03  0.36512576604E+02  0.13647923009E+03  0.00000000000E+00 0.  1.
         11    1    3    3    0    0 -0.58057366127E+02  0.11044084053E+03  0.39183134095E+02  0.13077903125E+03  0.00000000000E+00 0. -1.
          2    1    1    2  501    0 -0.10733927420E+02 -0.17324197716E+02 -0.14188993900E+02  0.24832892949E+02  0.00000000000E+00 0. -1.
<scales pt_clust_5="13000.00000" pt_clust_6="13000.00000" pt_clust_7="13000.00000" pt_clust_8="13000.00000" pt_clust_9="20.38002"></scales>
<clustering>
<clus scale="   20.380">  2  9  1 -1</clus>
<clus scale="   80.233">  5  6 -1 -1</clus>
<clus scale="   89.790">  7  8 -1 -1</clus>
<clus scale="  249.387">  2  5  1 -1</clus>
<clus scale="   20.380">  2  5  1 -1</clus>
</clustering>
</event>
<event>
 9    1  0.4664604E-005  0.5669202E+03  0.7546771E-02  0.9977171E-01
         21   -1    0    0  501  502  0.00000000000E+00  0.00000000000E+00  0.13937178227E+04  0.13937178227E+04  0.00000000000E+00 0. -1.
          3   -1    0    0  502    0 -0.00000000000E+00 -0.00000000000E+00 -0.28961210295E+03  0.28961210295E+03  0.00000000000E+00 0. -1.
         23    2    1    2    0    0  0.58791163412E+03 -0.81711029740E+02  0.40671255411E+03  0.72527505417E+03  0.91060532716E+02 0.  0.
        -24    2    1    2    0    0 -0.52287101018E+03 -0.25636840165E+02  0.58653536442E+03  0.79059353258E+03  0.83444946994E+02 0.  0.
         13    1    4    4    0    0 -0.20536927887E+03  0.38283749668E+01  0.28833304547E+03  0.35401573732E+03  0.00000000000E+00 0. -1.
        -14    1    4    4    0    0 -0.31750173131E+03 -0.29465215132E+02  0.29820231895E+03  0.43657779526E+03  0.00000000000E+00 0.  1.
        -13    1    3    3    0    0  0.28892254058E+02  0.14195920125E+02  0.32620437167E+02  0.45829896506E+02  0.00000000000E+00 0.  1.
         13    1    3    3    0    0  0.55901938006E+03 -0.95906949865E+02  0.37409211694E+03  0.67944515766E+03  0.00000000000E+00 0. -1.
          4    1    1    2  501    0 -0.65040623936E+02  0.10734786991E+03  0.11085780120E+03  0.16746133889E+03  0.00000000000E+00 0. -1.
<scales pt_clust_5="13000.00000" pt_clust_6="13000.00000" pt_clust_7="13000.00000" pt_clust_8="13000.00000" pt_clust_9="125.51433"></scales>
<clustering>
<clus scale="   83.445">  5  6 -1 -1</clus>
<clus scale="   91.061">  7  8 -1 -1</clus>
<clus scale="  125.514">  1  9  2 -1</clus>
<clus scale="  565.747">  1  5  2 -1</clus>
<clus scale="  125.514">  1  5  2 -1</clus>
</clustering>
</event>
<event>
 9    1  0.4664604E-005  0.1452731E+03  0.7546771E-02  0.1213013E+00
         21   -1    0    0  501  502  0.00000000000E+00  0.00000000000E+00  0.30332131025E+03  0.30332131025E+03  0.00000000000E+00 0.  1.
         -2   -1    0    0    0  501 -0.00000000000E+00 -0.00000000000E+00 -0.26536150409E+03  0.26536150409E+03  0.00000000000E+00 0.  1.
        -24    2    1    2    0    0 -0.57453109352E+02  0.78201916238E+02  0.17441359700E+03  0.21524980069E+03  0.80597607919E+02 0.  0.
         23    2    1    2    0    0 -0.74759106979E+02  0.46126542268E+02 -0.19823021430E+01  0.12755646105E+03  0.92466963049E+02 0.  0.
         13    1    3    3    0    0 -0.43345729179E+02  0.41853834264E+02  0.33289811813E+02  0.68838995135E+02  0.00000000000E+00 0. -1.
        -14    1    3    3    0    0 -0.14107380173E+02  0.36348081974E+02  0.14112378519E+03  0.14641080556E+03  0.00000000000E+00 0.  1.
        -11    1    4    4    0    0 -0.37334290923E+02 -0.24638109708E+02  0.11953633732E+02  0.46300918869E+02  0.00000000000E+00 0. -1.
         11    1    4    4    0    0 -0.37424816056E+02  0.70764651976E+02 -0.13935935875E+02  0.81255542179E+02  0.00000000000E+00 0.  1.
         -1    1    1    2    0  502  0.13221221633E+03 -0.12432845851E+03 -0.13447148870E+03  0.22587655260E+03  0.00000000000E+00 0.  1.
<scales pt_clust_5="13000.00000" pt_clust_6="13000.00000" pt_clust_7="13000.00000" pt_clust_8="13000.00000" pt_clust_9="112.04534"></scales>
<clustering>
<clus scale="   80.598">  5  6 -1 -1</clus>
<clus scale="   92.467">  7  8 -1 -1</clus>
<clus scale="  126.144">  2  5  1 -1</clus>
<clus scale="  112.045">  1  9  2 -1</clus>
<clus scale="  112.045">  1  5  2 -1</clus>
</clustering>
</event>
<event>
 9    1  0.4664604E-005  0.1693744E+03  0.7546771E-02  0.1204676E+00
         21   -1    0    0  501  502  0.00000000000E+00  0.00000000000E+00  0.19708410235E+03  0.19708410235E+03  0.00000000000E+00 0. -1.
         -4   -1    0    0    0  501 -0.00000000000E+00 -0.00000000000E+00 -0.27228129022E+03  0.27228129022E+03  0.00000000000E+00 0.  1.
         23    2    1    2    0    0 -0.10100815563E+02 -0.18361723889E+02 -0.50886600603E+02  0.10789179398E+03  0.92800935918E+02 0.  0.
        -24    2    1    2    0    0  0.15755248961E+03  0.25422532852E+02 -0.90932315845E+02  0.19951586979E+03  0.77902529328E+02 0.  0.
         13    1    4    4    0    0  0.14177425735E+03 -0.65064756479E+01 -0.74587308386E+02  0.16032947590E+03  0.00000000000E+00 0. -1.
        -14    1    4    4    0    0  0.15778232261E+02  0.31929008500E+02 -0.16345007459E+02  0.39186393887E+02  0.00000000000E+00 0.  1.
        -13    1    3    3    0    0  0.12536845775E+02 -0.40622906045E+02 -0.61192901440E+02  0.74511503703E+02  0.00000000000E+00 0.  1.
         13    1    3    3    0    0 -0.22637661337E+02  0.22261182156E+02  0.10306300836E+02  0.33380290273E+02  0.00000000000E+00 0. -1.
         -3    1    1    2    0  502 -0.14745167404E+03 -0.70608089624E+01  0.66621728572E+02  0.16195772880E+03  0.00000000000E+00 0.  1.
<scales pt_clust_5="13000.00000" pt_clust_6="13000.00000" pt_clust_7="13000.00000" pt_clust_8="13000.00000" pt_clust_9="150.39571"></scales>
<clustering>
<clus scale="   77.903">  5  6 -1 -1</clus>
<clus scale="   92.801">  7  8 -1 -1</clus>
<clus scale="   95.138">  2  7  1 -1</clus>
<clus scale="  150.396">  1  9  2 -1</clus>
<clus scale="  150.396">  1  5  2 -1</clus>
</clustering>
</event>
<event>
 9    1  0.4664604E-005  0.1338355E+03  0.7546771E-02  0.1224472E+00
         -2   -1    0    0    0  501 -0.00000000000E+00  0.00000000000E+00  0.35076481104E+03  0.35076481104E+03  0.00000000000E+00 0.  1.
         21   -1    0    0  501  502  0.00000000000E+00 -0.00000000000E+00 -0.11517229376E+03  0.11517229376E+03  0.00000000000E+00 0. -1.
        -24    2    1    2    0    0 -0.92191617703E+02  0.39856305224E+02  0.28410177392E+03  0.31177733376E+03  0.80021674924E+02 0.  0.
         23    2    1    2    0    0  0.83759972438E+02 -0.20672414352E+02 -0.39358611345E+02  0.13129388772E+03  0.90806954402E+02 0.  0.
         11    1    3    3    0    0 -0.79651163281E+01  0.33922324173E+02  0.37825785578E+02  0.51429147475E+02  0.00000000000E+00 0. -1.
        -12    1    3    3    0    0 -0.84226501375E+02  0.59339810504E+01  0.24627598834E+03  0.26034818628E+03  0.00000000000E+00 0.  1.
        -11    1    4    4    0    0 -0.16592038974E+02 -0.17533409429E+02 -0.13322684238E+02  0.27571908147E+02  0.00000000000E+00 0.  1.
         11    1    4    4    0    0  0.10035201141E+03 -0.31390049232E+01 -0.26035927106E+02  0.10372197957E+03  0.00000000000E+00 0. -1.
         -1    1    1    2    0  502  0.84316452649E+01 -0.19183890871E+02 -0.91506452926E+01  0.22865883322E+02  0.00000000000E+00 0.  1.
<scales pt_clust_5="13000.00000" pt_clust_6="13000.00000" pt_clust_7="13000.00000" pt_clust_8="13000.00000" pt_clust_9="20.95505"></scales>
<clustering>
<clus scale="   20.955">  2  9  1 -1</clus>
<clus scale="   80.022">  5  6 -1 -1</clus>
<clus scale="   90.807">  7  8 -1 -1</clus>
<clus scale="  126.766">  1  5  2 -1</clus>
<clus scale="   20.955">  2  5  1 -1</clus>
</clustering>
</event>
<event>
 9    1  0.4664604E-005  0.1653046E+03  0.7546771E-02  0.1185455E+00
         21   -1    0    0  501  502  0.00000000000E+00  0.00000000000E+00  0.84689993289E+02  0.84689993289E+02  0.00000000000E+00 0. -1.
          1   -1    0    0  502    0 -0.00000000000E+00 -0.00000000000E+00 -0.64352079212E+03  0.64352079212E+03  0.00000000000E+00 0. -1.
         23    2    1    2    0    0  0.12995051222E+03  0.72027102692E+02 -0.42503861057E+03  0.46076900160E+03  0.97853018426E+02 0.  0.
        -24    2    1    2    0    0 -0.72441009566E+02 -0.89212411718E+02 -0.14968085049E+03  0.20535211213E+03  0.80985052205E+02 0.  0.
         11    1    4    4    0    0 -0.64574747776E+00 -0.24435790113E+02  0.29979726867E+01  0.24627477915E+02  0.00000000000E+00 0. -1.
        -12    1    4    4    0    0 -0.71795262088E+02 -0.64776621606E+02 -0.15267882318E+03  0.18072463421E+03  0.00000000000E+00 0.  1.
        -13    1    3    3    0    0  0.84564435012E+02  0.57126983244E+02 -0.38543913763E+03  0.39872040918E+03  0.00000000000E+00 0. -1.
         13    1    3    3    0    0  0.45386077209E+02  0.14900119449E+02 -0.39599472938E+02  0.62048592417E+02  0.00000000000E+00 0.  1.
          2    1    1    2  501    0 -0.57509502655E+02  0.17185309026E+02  0.15888662227E+02  0.62089671679E+02  0.00000000000E+00 0. -1.
<scales pt_clust_5="13000.00000" pt_clust_6="13000.00000" pt_clust_7="13000.00000" pt_clust_8="13000.00000" pt_clust_9="60.02231"></scales>
<clustering>
<clus scale="   60.022">  1  9  2 -1</clus>
<clus scale="   80.985">  5  6 -1 -1</clus>
<clus scale="   97.853">  7  8 -1 -1</clus>
<clus scale="  155.913">  1  5  2 -1</clus>
<clus scale="   60.022">  1  5  2 -1</clus>
</clustering>
</event>
<event>
 9    1  0.4664604E-005  0.1313320E+03  0.7546771E-02  0.1229725E+00
          1   -1    0    0  502    0 -0.00000000000E+00  0.00000000000E+00  0.31227457116E+03  0.31227457116E+03  0.00000000000E+00 0. -1.
         21   -1    0    0  501  502  0.00000000000E+00 -0.00000000000E+00 -0.38840585496E+03  0.38840585496E+03  0.00000000000E+00 0.  1.
         23    2    1    2    0    0 -0.43770039634E+01  0.94850383205E+02  0.28258106951E+03  0.31209318852E+03  0.92381513937E+02 0.  0.
        -24    2    1    2    0    0  0.21048582187E+02 -0.70160583182E+02 -0.19041427688E+03  0.21767272600E+03  0.75883256121E+02 0.  0.
         13    1    4    4    0    0  0.21837571989E+02 -0.16418952156E+01 -0.88707110440E+01  0.23627629688E+02  0.00000000000E+00 0. -1.
        -14    1    4    4    0    0 -0.78898980166E+00 -0.68518687966E+02 -0.18154356584E+03  0.19404509631E+03  0.00000000000E+00 0.  1.
        -11    1    3    3    0    0  0.10607255572E+02  0.73653200826E+02  0.27523259316E+03  0.28511451770E+03  0.00000000000E+00 0. -1.
         11    1    3    3    0    0 -0.14984259536E+02  0.21197182379E+02  0.73484763451E+01  0.26978670821E+02  0.00000000000E+00 0.  1.
          2    1    1    2  501    0 -0.16671578224E+02 -0.24689800023E+02 -0.16829807643E+03  0.17091451160E+03  0.00000000000E+00 0. -1.
<scales pt_clust_5="13000.00000" pt_clust_6="13000.00000" pt_clust_7="13000.00000" pt_clust_8="13000.00000" pt_clust_9="29.79140"></scales>
<clustering>
<clus scale="   29.791">  2  9  1 -1</clus>
<clus scale="   75.883">  5  6 -1 -1</clus>
<clus scale="   92.382">  7  8 -1 -1</clus>
<clus scale="  120.300">  2  5  1 -1</clus>
<clus scale="   29.791">  2  5  1 -1</clus>
</clustering>
</event>
<event>
 9    1  0.4664604E-005  0.9464052E+02  0.7546771E-02  0.1299324E+00
         21   -1    0    0  501  502  0.00000000000E+00  0.00000000000E+00  0.11089829000E+03  0.11089829000E+03  0.00000000000E+00 0.  1.
         -4   -1    0    0    0  501 -0.00000000000E+00 -0.00000000000E+00 -0.95683421027E+02  0.95683421027E+02  0.00000000000E+00 0.  1.
        -24    2    1    2    0    0  0.21114445297E+02 -0.41158546054E+01 -0.70442518467E+01  0.84173215545E+02  0.81072490228E+02 0.  0.
         23    2    1    2    0    0 -0.64718298219E+01 -0.11816971862E+02  0.30734315988E+02  0.99168657268E+02  0.93318267235E+02 0.  0.
         13    1    3    3    0    0 -0.14016119486E+02 -0.17834903100E+02 -0.31799026398E+02  0.39060382153E+02  0.00000000000E+00 0. -1.
        -14    1    3    3    0    0  0.35130564783E+02  0.13719048494E+02  0.24754774552E+02  0.45112833392E+02  0.00000000000E+00 0.  1.
        -11    1    4    4    0    0  0.28948187081E+02  0.17538566488E+02 -0.12457742496E+02  0.36066524615E+02  0.00000000000E+00 0. -1.
         11    1    4    4    0    0 -0.35420016903E+02 -0.29355538350E+02  0.43192058484E+02  0.63102132653E+02  0.00000000000E+00 0.  1.
         -3    1    1    2    0  502 -0.14642615475E+02  0.15932826467E+02 -0.84751951672E+01  0.23239838216E+02  0.00000000000E+00 0.  1.
<scales pt_clust_5="13000.00000" pt_clust_6="13000.00000" pt_clust_7="13000.00000" pt_clust_8="13000.00000" pt_clust_9="21.63935"></scales>
<clustering>
<clus scale="   21.639">  1  9  2 -1</clus>
<clus scale="   81.072">  5  6 -1 -1</clus>
<clus scale="   82.591">  2  5  1 -1</clus>
<clus scale="   93.318">  7  8 -1 -1</clus>
<clus scale="   21.639">  1  5  2 -1</clus>
</clustering>
</event>
<event>
 9    1  0.4664604E-005  0.9646700E+02  0.7546771E-02  0.1293822E+00
         21   -1    0    0  501  502  0.00000000000E+00  0.00000000000E+00  0.13250937032E+03  0.13250937032E+03  0.00000000000E+00 0. -1.
          1   -1    0    0  502    0 -0.00000000000E+00 -0.00000000000E+00 -0.35391519290E+03  0.35391519290E+03  0.00000000000E+00 0. -1.
        -24    2    1    2    0    0 -0.19557958985E+02  0.27057036764E+02 -0.17166650513E+03  0.19229758774E+03  0.79964843961E+02 0.  0.
         23    2    1    2    0    0 -0.43859403945E+02 -0.42139356928E+02 -0.14322906585E+03  0.18015517477E+03  0.90785180368E+02 0.  0.
         11    1    3    3    0    0  0.13304319918E+02  0.46102666426E+02 -0.83650868278E+02  0.96436137126E+02  0.00000000000E+00 0. -1.
        -12    1    3    3    0    0 -0.32862278902E+02 -0.19045629662E+02 -0.88015636848E+02  0.95861450613E+02  0.00000000000E+00 0.  1.
        -11    1    4    4    0    0 -0.68190033236E+02 -0.47132091875E+02 -0.96334773180E+02  0.12708935141E+03  0.00000000000E+00 0. -1.
         11    1    4    4    0    0  0.24330629291E+02  0.49927349469E+01 -0.46894292669E+02  0.53065823360E+02  0.00000000000E+00 0.  1.
          2    1    1    2  501    0  0.63417362929E+02  0.15082320164E+02  0.93489748394E+02  0.11397180071E+03  0.00000000000E+00 0. -1.
<scales pt_clust_5="13000.00000" pt_clust_6="13000.00000" pt_clust_7="13000.00000" pt_clust_8="13000.00000" pt_clust_9="65.18618"></scales>
<clustering>
<clus scale="   65.186">  1  9  2 -1</clus>
<clus scale="   79.965">  5  6 -1 -1</clus>
<clus scale="   86.362">  2  5  1 -1</clus>
<clus scale="   90.785">  7  8 -1 -1</clus>
<clus scale="   65.186">  1  5  2 -1</clus>
</clustering>
</event>
<event>
 9    1  0.4664604E-005  0.9286785E+02  0.7546771E-02  0.1302707E+00
          3   -1    0    0  502    0 -0.00000000000E+00  0.00000000000E+00  0.20687159754E+03  0.20687159754E+03  0.00000000000E+00 0. -1.
         21   -1    0    0  501  502  0.00000000000E+00 -0.00000000000E+00 -0.62678656697E+02  0.62678656697E+02  0.00000000000E+00 0. -1.
         23    2    1    2    0    0 -0.66386212292E+01 -0.72314106833E+01  0.89921397082E+02  0.12839125903E+03  0.91115822715E+02 0.  0.
        -24    2    1    2    0    0 -0.14826890745E+02  0.29259369305E+02  0.65325180051E+02  0.10847594088E+03  0.80148008212E+02 0.  0.
         11    1    4    4    0    0 -0.89169959578E+01  0.52803378653E+02  0.64975089096E+02  0.84199001284E+02  0.00000000000E+00 0. -1.
        -12    1    4    4    0    0 -0.59098947874E+01 -0.23544009348E+02  0.35009095454E+00  0.24276939598E+02  0.00000000000E+00 0.  1.
        -13    1    3    3    0    0 -0.51555964418E+00  0.26690348770E+02  0.90047365337E+02  0.93921076034E+02  0.00000000000E+00 0.  1.
         13    1    3    3    0    0 -0.61230615850E+01 -0.33921759453E+02 -0.12596825481E+00  0.34470182993E+02  0.00000000000E+00 0. -1.
          4    1    1    2  501    0  0.21465511974E+02 -0.22027958622E+02 -0.11053636285E+02  0.32683054332E+02  0.00000000000E+00 0. -1.
<scales pt_clust_5="13000.00000" pt_clust_6="13000.00000" pt_clust_7="13000.00000" pt_clust_8="13000.00000" pt_clust_9="30.75710"></scales>
<clustering>
<clus scale="   30.757">  2  9  1 -1</clus>
<clus scale="   80.148">  5  6 -1 -1</clus>
<clus scale="   82.134">  2  5  1 -1</clus>
<clus scale="   91.116">  7  8 -1 -1</clus>
<clus scale="   30.757">  2  5  1 -1</clus>
</clustering>
</event>
<event>
 9    1  0.4664604E-005  0.1338404E+03  0.7546771E-02  0.1223111E+00
          3   -1    0    0  502    0 -0.00000000000E+00  0.00000000000E+00  0.32374626896E+03  0.32374626896E+03  0.00000000000E+00 0. -1.
         21   -1    0    0  501  502  0.00000000000E+00 -0.00000000000E+00 -0.11688648815E+03  0.11688648815E+03  0.00000000000E+00 0. -1.
         23    2    1    2    0    0  0.57388427255E+02 -0.82746669425E+02  0.18397158430E+03  0.22680326918E+03  0.86335023003E+02 0.  0.
        -24    2    1    2    0    0 -0.86366366689E+02  0.71748022599E+02 -0.39712731808E+02  0.14397558730E+03  0.80900807351E+02 0.  0.
         13    1    4    4    0    0 -0.25520094660E+02  0.55760474510E+02 -0.51366274888E+02  0.79993749412E+02  0.00000000000E+00 0. -1.
        -14    1    4    4    0    0 -0.60846272029E+02  0.15987548089E+02  0.11653543081E+02  0.63981837892E+02  0.00000000000E+00 0.  1.
        -11    1    3    3    0    0  0.60769160888E+02 -0.59653785406E+02  0.69328139940E+02  0.10980826934E+03  0.00000000000E+00 0. -1.
         11    1    3    3    0    0 -0.33807336323E+01 -0.23092884019E+02  0.11464344436E+03  0.11699499984E+03  0.00000000000E+00 0.  1.
          4    1    1    2  501    0  0.28977939433E+02  0.10998646826E+02  0.62600928318E+02  0.69853900622E+02  0.00000000000E+00 0. -1.
<scales pt_clust_5="13000.00000" pt_clust_6="13000.00000" pt_clust_7="13000.00000" pt_clust_8="13000.00000" pt_clust_9="30.99503"></scales>
<clustering>
<clus scale="   30.995">  2  9  1 -1</clus>
<clus scale="   80.901">  5  6 -1 -1</clus>
<clus scale="   86.335">  7  8 -1 -1</clus>
<clus scale="  130.401">  2  5  1 -1</clus>
<clus scale="   30.995">  2  5  1 -1</clus>
</clustering>
</event>
<event>
 9    1  0.4664604E-005  0.1533262E+03  0.7546771E-02  0.1234240E+00
         21   -1    0    0  501  502  0.00000000000E+00  0.00000000000E+00  0.10080719940E+03  0.10080719940E+03  0.00000000000E+00 0. -1.
          1   -1    0    0  502    0 -0.00000000000E+00 -0.00000000000E+00 -0.50111464079E+03  0.50111464079E+03  0.00000000000E+00 0. -1.
         23    2    1    2    0    0  0.16689420393E+02  0.17489227723E+02 -0.30461274375E+02  0.75326471326E+02  0.64511845474E+02 0.  0.
        -24    2    1    2    0    0 -0.97756048460E+02 -0.92460582419E+02 -0.18694599873E+02  0.15849222391E+03  0.81640018772E+02 0.  0.
         13    1    4    4    0    0 -0.27709264607E+02 -0.63575967052E+02 -0.39640670722E+02  0.79881723235E+02  0.00000000000E+00 0. -1.
        -14    1    4    4    0    0 -0.70046783853E+02 -0.28884615367E+02  0.20946070849E+02  0.78610500679E+02  0.00000000000E+00 0.  1.
        -13    1    3    3    0    0  0.26471662179E+02 -0.38498432536E+01 -0.41509347638E+02  0.49382143867E+02  0.00000000000E+00 0. -1.
         13    1    3    3    0    0 -0.97822417859E+01  0.21339070976E+02  0.11048073262E+02  0.25944327459E+02  0.00000000000E+00 0.  1.
          2    1    1    2  501    0  0.81066628067E+02  0.74971354697E+02 -0.35115156714E+03  0.36810314494E+03  0.00000000000E+00 0. -1.
<scales pt_clust_5="13000.00000" pt_clust_6="13000.00000" pt_clust_7="13000.00000" pt_clust_8="13000.00000" pt_clust_9="129.78390"></scales>
<clustering>
<clus scale="   64.512">  7  8 -1 -1</clus>
<clus scale="   68.893">  2  7  1 -1</clus>
<clus scale="   81.640">  5  6 -1 -1</clus>
<clus scale="  129.784">  1  9  2 -1</clus>
<clus scale="  129.784">  1  5  2 -1</clus>
</clustering>
</event>
<event>
 9    1  0.4664604E-005  0.1079708E+03  0.7546771E-02  0.1268419E+00
          1   -1    0    0  502    0 -0.00000000000E+00  0.00000000000E+00  0.12713829020E+03  0.12713829020E+03  0.00000000000E+00 0. -1.
         21   -1    0    0  501  502  0.00000000000E+00 -0.00000000000E+00 -0.23140099434E+03  0.23140099434E+03  0.00000000000E+00 0. -1.
        -24    2    1    2    0    0  0.81693572858E+02  0.22301434112E+02  0.46976505040E+02  0.12621443159E+03  0.80945023974E+02 0.  0.
         23    2    1    2    0    0 -0.97434853866E+01 -0.48041474678E+01 -0.42739451755E+02  0.10096592677E+03  0.90826440490E+02 0.  0.
         11    1    3    3    0    0  0.88446782854E+02 -0.89946334485E+00  0.21348702093E+02  0.90991260638E+02  0.00000000000E+00 0. -1.
        -12    1    3    3    0    0 -0.67532099959E+01  0.23200897457E+02  0.25627802946E+02  0.35223170952E+02  0.00000000000E+00 0.  1.
        -13    1    4    4    0    0 -0.18195444433E+02 -0.45922137152E+02 -0.25460200900E+02  0.55571024002E+02  0.00000000000E+00 0.  1.
         13    1    4    4    0    0  0.84519590459E+01  0.41117989684E+02 -0.17279250855E+02  0.45394902770E+02  0.00000000000E+00 0. -1.
          2    1    1    2  501    0 -0.71950087471E+02 -0.17497286644E+02 -0.10849975742E+03  0.13135892618E+03  0.00000000000E+00 0. -1.
<scales pt_clust_5="13000.00000" pt_clust_6="13000.00000" pt_clust_7="13000.00000" pt_clust_8="13000.00000" pt_clust_9="74.04708"></scales>
<clustering>
<clus scale="   74.047">  2  9  1 -1</clus>
<clus scale="   80.945">  5  6 -1 -1</clus>
<clus scale="   90.826">  7  8 -1 -1</clus>
<clus scale="   99.802">  1  5  2 -1</clus>
<clus scale="   74.047">  2  5  1 -1</clus>
</clustering>
</event>
<event>
 9    1  0.4664604E-005  0.9277751E+02  0.7546771E-02  0.1303570E+00
         -2   -1    0    0    0  501 -0.00000000000E+00  0.00000000000E+00  0.17394766337E+03  0.17394766337E+03  0.00000000000E+00 0.  1.
         21   -1    0    0  501  502  0.00000000000E+00 -0.00000000000E+00 -0.16440078166E+03  0.16440078166E+03  0.00000000000E+00 0.  1.
        -24    2    1    2    0    0  0.50647374900E+01  0.12571960608E+02  0.70560299763E+02  0.10656908323E+03  0.78705195758E+02 0.  0.
         23    2    1    2    0    0  0.72248893513E+02 -0.73674519545E+01  0.21953098718E+02  0.11825435417E+03  0.90708168185E+02 0.  0.
         11    1    3    3    0    0 -0.33515372186E+02  0.20827086853E+02  0.27084871398E+02  0.47860609881E+02  0.00000000000E+00 0. -1.
        -12    1    3    3    0    0  0.38580109676E+02 -0.82551262456E+01  0.43475428365E+02  0.58708473353E+02  0.00000000000E+00 0.  1.
        -13    1    4    4    0    0  0.43473228581E+02  0.20055786773E+02  0.50292053852E+02  0.69436639226E+02  0.00000000000E+00 0.  1.
         13    1    4    4    0    0  0.28775664932E+02 -0.27423238727E+02 -0.28338955134E+02  0.48817714947E+02  0.00000000000E+00 0. -1.
         -1    1    1    2    0  502 -0.77313631003E+02 -0.52045086533E+01 -0.82966516779E+02  0.11352500762E+03  0.00000000000E+00 0.  1.
<scales pt_clust_5="13000.00000" pt_clust_6="13000.00000" pt_clust_7="13000.00000" pt_clust_8="13000.00000" pt_clust_9="77.48861"></scales>
<clustering>
<clus scale="   77.489">  2  9  1 -1</clus>
<clus scale="   78.705">  5  6 -1 -1</clus>
<clus scale="   81.081">  1  5  2 -1</clus>
<clus scale="   90.708">  7  8 -1 -1</clus>
<clus scale="   77.489">  2  5  1 -1</clus>
</clustering>
</event>
<event>
 9    1  0.4664604E-005  0.9497986E+02  0.7546771E-02  0.1302283E+00
          1   -1    0    0  502    0 -0.00000000000E+00  0.00000000000E+00  0.29859306593E+03  0.29859306593E+03  0.00000000000E+00 0. -1.
         21   -1    0    0  501  502  0.00000000000E+00 -0.00000000000E+00 -0.45993254956E+02  0.45993254956E+02  0.00000000000E+00 0. -1.
        -24    2    1    2    0    0 -0.16145840058E+02 -0.17934061810E+02  0.16332419502E+03  0.18137360114E+03  0.75095084966E+02 0.  0.
         23    2    1    2    0    0  0.12611539398E+02 -0.27833798097E+01  0.10193691779E+03  0.13867678217E+03  0.93130642511E+02 0.  0.
         11    1    3    3    0    0 -0.20360416715E+02  0.26139459802E+02  0.53095507347E+02  0.62585548076E+02  0.00000000000E+00 0. -1.
        -12    1    3    3    0    0  0.42145766567E+01 -0.44073521612E+02  0.11022868767E+03  0.11878805306E+03  0.00000000000E+00 0.  1.
        -13    1    4    4    0    0  0.46566918763E+02  0.22244171218E+02  0.51215119865E+02  0.72706736820E+02  0.00000000000E+00 0.  1.
         13    1    4    4    0    0 -0.33955379365E+02 -0.25027551028E+02  0.50721797927E+02  0.65970045348E+02  0.00000000000E+00 0. -1.
          2    1    1    2  501    0  0.35343006606E+01  0.20717441620E+02 -0.12661301842E+02  0.24535937577E+02  0.00000000000E+00 0. -1.
<scales pt_clust_5="13000.00000" pt_clust_6="13000.00000" pt_clust_7="13000.00000" pt_clust_8="13000.00000" pt_clust_9="21.01675"></scales>
<clustering>
<clus scale="   21.017">  2  9  1 -1</clus>
<clus scale="   75.095">  5  6 -1 -1</clus>
<clus scale="   77.377">  1  5  2 -1</clus>
<clus scale="   93.131">  7  8 -1 -1</clus>
<clus scale="   21.017">  2  5  1 -1</clus>
</clustering>
</event>
<event>
 9    1  0.4664604E-005  0.9954132E+02  0.7546771E-02  0.1290391E+00
         21   -1    0    0  501  502  0.00000000000E+00  0.00000000000E+00  0.91377595659E+02  0.91377595659E+02  0.00000000000E+00 0. -1.
          3   -1    0    0  502    0 -0.00000000000E+00 -0.00000000000E+00 -0.47212574458E+03  0.47212574458E+03  0.00000000000E+00 0. -1.
        -24    2    1    2    0    0  0.41885069772E+02 -0.55710270375E+01 -0.19170642163E+03  0.20999339766E+03  0.74568623130E+02 0.  0.
         23    2    1    2    0    0  0.18236857314E+01  0.29818836396E+02  0.50343377425E+02  0.10896211509E+03  0.91901023072E+02 0.  0.
         13    1    3    3    0    0  0.41927396051E+02 -0.31280288378E+02 -0.81615911246E+02  0.96940806419E+02  0.00000000000E+00 0. -1.
        -14    1    3    3    0    0 -0.42326279300E-01  0.25709261340E+02 -0.11009051039E+03  0.11305259125E+03  0.00000000000E+00 0.  1.
        -13    1    4    4    0    0 -0.22395033196E+02 -0.21219351355E+02 -0.33386532964E+01  0.31031354943E+02  0.00000000000E+00 0.  1.
         13    1    4    4    0    0  0.24218718927E+02  0.51038187751E+02  0.53682030721E+02  0.77930760151E+02  0.00000000000E+00 0. -1.
          4    1    1    2  501    0 -0.43708755503E+02 -0.24247809358E+02 -0.23938510471E+03  0.24454782748E+03  0.00000000000E+00 0. -1.
<scales pt_clust_5="13000.00000" pt_clust_6="13000.00000" pt_clust_7="13000.00000" pt_clust_8="13000.00000" pt_clust_9="49.98414"></scales>
<clustering>
<clus scale="   49.984">  1  9  2 -1</clus>
<clus scale="   74.569">  5  6 -1 -1</clus>
<clus scale="   83.804">  2  5  1 -1</clus>
<clus scale="   91.901">  7  8 -1 -1</clus>
<clus scale="   49.984">  1  5  2 -1</clus>
</clustering>
</event>
<event>
 9    1  0.4664604E-005  0.1205790E+03  0.7546771E-02  0.1254033E+00
         21   -1    0    0  501  502  0.00000000000E+00  0.00000000000E+00  0.58304699825E+03  0.58304699825E+03  0.00000000000E+00 0.  1.
          1   -1    0    0  502    0 -0.00000000000E+00 -0.00000000000E+00 -0.11732190463E+03  0.11732190463E+03  0.00000000000E+00 0. -1.
         23    2    1    2    0    0  0.26454768798E+02  0.28793985207E+01 -0.72505306467E+02  0.11952090839E+03  0.91214485414E+02 0.  0.
        -24    2    1    2    0    0  0.75122220111E+02 -0.18118460105E+02  0.32904524070E+03  0.34780605710E+03  0.82016195823E+02 0.  0.
         13    1    4    4    0    0 -0.19060497582E+01 -0.20764204901E+02  0.18617806171E+02  0.27953674847E+02  0.00000000000E+00 0. -1.
        -14    1    4    4    0    0  0.77028269869E+02  0.26457447961E+01  0.31042743452E+03  0.31985238225E+03  0.00000000000E+00 0.  1.
        -13    1    3    3    0    0  0.36382104253E+02  0.29471925982E+02 -0.77649358366E+02  0.90673451383E+02  0.00000000000E+00 0. -1.
         13    1    3    3    0    0 -0.99273354555E+01 -0.26592527462E+02  0.51440518992E+01  0.28847457011E+02  0.00000000000E+00 0.  1.
          2    1    1    2  501    0 -0.10157698891E+03  0.15239061584E+02  0.20918515939E+03  0.23304193739E+03  0.00000000000E+00 0. -1.
<scales pt_clust_5="13000.00000" pt_clust_6="13000.00000" pt_clust_7="13000.00000" pt_clust_8="13000.00000" pt_clust_9="88.38913"></scales>
<clustering>
<clus scale="   82.016">  5  6 -1 -1</clus>
<clus scale="   91.214">  7  8 -1 -1</clus>
<clus scale="   95.017">  2  7  1 -1</clus>
<clus scale="   88.389">  1  9  2 -1</clus>
<clus scale="   88.389">  1  5  2 -1</clus>
</clustering>
</event>
<event>
 9    1  0.4664604E-005  0.3110390E+03  0.7546771E-02  0.1080021E+00
          1   -1    0    0  502    0 -0.00000000000E+00  0.00000000000E+00  0.75040110651E+03  0.75040110651E+03  0.00000000000E+00 0. -1.
         21   -1    0    0  501  502  0.00000000000E+00 -0.00000000000E+00 -0.14510019814E+03  0.14510019814E+03  0.00000000000E+00 0. -1.
         23    2    1    2    0    0 -0.14136737117E+03 -0.26853591617E+03  0.33763691654E+03  0.46188571101E+03  0.85108464469E+02 0.  0.
        -24    2    1    2    0    0  0.15608039656E+03  0.24921208592E+03  0.20715575704E+03  0.36841490340E+03  0.79676090555E+02 0.  0.
         13    1    4    4    0    0  0.14470721593E+03  0.25017091800E+03  0.20925500778E+03  0.35680992816E+03  0.00000000000E+00 0. -1.
        -14    1    4    4    0    0  0.11373180629E+02 -0.95883207029E+00 -0.20992507355E+01  0.11604975235E+02  0.00000000000E+00 0.  1.
        -13    1    3    3    0    0 -0.58218385517E+02 -0.78053517732E+02  0.16548893417E+03  0.19201124805E+03  0.00000000000E+00 0.  1.
         13    1    3    3    0    0 -0.83148985652E+02 -0.19048239844E+03  0.17214798237E+03  0.26987446297E+03  0.00000000000E+00 0. -1.
          2    1    1    2  501    0 -0.14713025395E+02  0.19323830243E+02  0.60508234784E+02  0.65200690244E+02  0.00000000000E+00 0. -1.
<scales pt_clust_5="13000.00000" pt_clust_6="13000.00000" pt_clust_7="13000.00000" pt_clust_8="13000.00000" pt_clust_9="24.28753"></scales>
<clustering>
<clus scale="   24.288">  2  9  1 -1</clus>
<clus scale="   79.676">  5  6 -1 -1</clus>
<clus scale="   85.108">  7  8 -1 -1</clus>
<clus scale="  309.597">  2  5  1 -1</clus>
<clus scale="   24.288">  2  5  1 -1</clus>
</clustering>
</event>
<event>
 9    1  0.4664604E-005  0.9713740E+02  0.7546771E-02  0.1294215E+00
         21   -1    0    0  501  502  0.00000000000E+00  0.00000000000E+00  0.34493246936E+02  0.34493246936E+02  0.00000000000E+00 0.  1.
          1   -1    0    0  502    0 -0.00000000000E+00 -0.00000000000E+00 -0.40852346287E+03  0.40852346287E+03  0.00000000000E+00 0. -1.
        -24    2    1    2    0    0 -0.25067133073E+02  0.90760829702E+01 -0.25245284514E+03  0.26625188106E+03  0.80292519604E+02 0.  0.
         23    2    1    2    0    0  0.22650082875E+02  0.11473723896E+02 -0.12198829178E+03  0.15606928454E+03  0.93977686992E+02 0.  0.
         13    1    3    3    0    0 -0.30772343888E+00  0.37013411413E+02 -0.18935152356E+03  0.19293544721E+03  0.00000000000E+00 0. -1.
        -14    1    3    3    0    0 -0.24759409634E+02 -0.27937328442E+02 -0.63101321581E+02  0.73316433841E+02  0.00000000000E+00 0.  1.
        -11    1    4    4    0    0 -0.18335599553E+02 -0.10507712239E+02 -0.10412598249E+03  0.10624888920E+03  0.00000000000E+00 0. -1.
         11    1    4    4    0    0  0.40985682428E+02  0.21981436136E+02 -0.17862309289E+02  0.49820395340E+02  0.00000000000E+00 0.  1.
          2    1    1    2  501    0  0.24170501982E+01 -0.20549806867E+02  0.41092098548E+00  0.20695544206E+02  0.00000000000E+00 0. -1.
<scales pt_clust_5="13000.00000" pt_clust_6="13000.00000" pt_clust_7="13000.00000" pt_clust_8="13000.00000" pt_clust_9="20.69146"></scales>
<clustering>
<clus scale="   20.691">  1  9  2 -1</clus>
<clus scale="   80.293">  5  6 -1 -1</clus>
<clus scale="   83.969">  2  5  1 -1</clus>
<clus scale="   93.978">  7  8 -1 -1</clus>
<clus scale="   20.691">  1  5  2 -1</clus>
</clustering>
</event>
<event>
 9    1  0.4664604E-005  0.9925718E+02  0.7546771E-02  0.1287198E+00
         21   -1    0    0  501  502  0.00000000000E+00  0.00000000000E+00  0.24705395660E+02  0.24705395660E+02  0.00000000000E+00 0.  1.
          1   -1    0    0  502    0 -0.00000000000E+00 -0.00000000000E+00 -0.58733661576E+03  0.58733661576E+03  0.00000000000E+00 0. -1.
         23    2    1    2    0    0 -0.43590491697E+02 -0.24158689358E+02 -0.35125748869E+03  0.36609400304E+03  0.90328414461E+02 0.  0.
        -24    2    1    2    0    0  0.32776242078E+02  0.21525674398E+01 -0.20209170343E+03  0.21973020070E+03  0.79758315630E+02 0.  0.
         13    1    4    4    0    0  0.18679215801E+02 -0.38509664928E+02 -0.11159802392E+03  0.11952416634E+03  0.00000000000E+00 0. -1.
        -14    1    4    4    0    0  0.14097026277E+02  0.40662232368E+02 -0.90493679505E+02  0.10020603436E+03  0.00000000000E+00 0.  1.
        -13    1    3    3    0    0 -0.34259157461E+01  0.32493909117E+02 -0.13794497353E+03  0.14176179581E+03  0.00000000000E+00 0.  1.
         13    1    3    3    0    0 -0.40164575951E+02 -0.56652598475E+02 -0.21331251516E+03  0.22433220723E+03  0.00000000000E+00 0. -1.
          2    1    1    2  501    0  0.10814249620E+02  0.22006121918E+02 -0.92820279851E+01  0.26217807693E+02  0.00000000000E+00 0. -1.
<scales pt_clust_5="13000.00000" pt_clust_6="13000.00000" pt_clust_7="13000.00000" pt_clust_8="13000.00000" pt_clust_9="24.51973"></scales>
<clustering>
<clus scale="   24.520">  1  9  2 -1</clus>
<clus scale="   79.758">  5  6 -1 -1</clus>
<clus scale="   89.745">  1  5  2 -1</clus>
<clus scale="   90.328">  7  8 -1 -1</clus>
<clus scale="   24.520">  1  5  2 -1</clus>
</clustering>
</event>
<event>
 9    1  0.4664604E-005  0.1721598E+03  0.7546771E-02  0.1192744E+00
         21   -1    0    0  501  502  0.00000000000E+00  0.00000000000E+00  0.25827456460E+03  0.25827456460E+03  0.00000000000E+00 0. -1.
          1   -1    0    0  502    0 -0.00000000000E+00 -0.00000000000E+00 -0.24847746153E+03  0.24847746153E+03  0.00000000000E+00 0. -1.
         23    2    1    2    0    0  0.55828806379E+02 -0.35946469876E+02 -0.72908407750E+02  0.13825026576E+03  0.96894250314E+02 0.  0.
        -24    2    1    2    0    0  0.43569710070E+01  0.17026155350E+03 -0.17911048929E+02  0.19021389880E+03  0.82780081091E+02 0.  0.
         11    1    4    4    0    0  0.13610167608E+02  0.14999043773E+03 -0.43032388520E+02  0.15663382309E+03  0.00000000000E+00 0. -1.
        -12    1    4    4    0    0 -0.92531966006E+01  0.20271115764E+02  0.25121339590E+02  0.33580075707E+02  0.00000000000E+00 0.  1.
        -11    1    3    3    0    0 -0.18537115294E+02 -0.19458185342E+02  0.70837991161E+01  0.27792549904E+02  0.00000000000E+00 0.  1.
         11    1    3    3    0    0  0.74365921672E+02 -0.16488284534E+02 -0.79992206866E+02  0.11045771586E+03  0.00000000000E+00 0. -1.
          2    1    1    2  501    0 -0.60185777386E+02 -0.13431508362E+03  0.10061655975E+03  0.17828786157E+03  0.00000000000E+00 0. -1.
<scales pt_clust_5="13000.00000" pt_clust_6="13000.00000" pt_clust_7="13000.00000" pt_clust_8="13000.00000" pt_clust_9="150.95187"></scales>
<clustering>
<clus scale="   82.780">  5  6 -1 -1</clus>
<clus scale="   96.894">  7  8 -1 -1</clus>
<clus scale="  117.463">  2  7  1 -1</clus>
<clus scale="  150.952">  1  9  2 -1</clus>
<clus scale="  150.952">  1  5  2 -1</clus>
</clustering>
</event>
<event>
 9    1  0.4664604E-005  0.1018778E+03  0.7546771E-02  0.1283058E+00
          1   -1    0    0  502    0 -0.00000000000E+00  0.00000000000E+00  0.60119161731E+03  0.60119161731E+03  0.00000000000E+00 0. -1.
         21   -1    0    0  501  502  0.00000000000E+00 -0.00000000000E+00 -0.32614929096E+02  0.32614929096E+02  0.00000000000E+00 0.  1.
         23    2    1    2    0    0 -0.23687616805E+00  0.61710871756E+02  0.31096622856E+03  0.33104639103E+03  0.95307029705E+02 0.  0.
        -24    2    1    2    0    0  0.12015478949E+02  0.52791696656E+01  0.93939285446E+02  0.12551835894E+03  0.82207224227E+02 0.  0.
         13    1    4    4    0    0  0.25724150846E+02  0.23669223529E+02  0.96311080391E+02  0.10245871503E+03  0.00000000000E+00 0. -1.
        -14    1    4    4    0    0 -0.13708671897E+02 -0.18390053863E+02 -0.23717949444E+01  0.23059643916E+02  0.00000000000E+00 0.  1.
        -11    1    3    3    0    0 -0.26629756641E+02  0.76321128073E+02  0.19214836654E+03  0.20845875682E+03  0.00000000000E+00 0. -1.
         11    1    3    3    0    0  0.26392880473E+02 -0.14610256316E+02  0.11881786201E+03  0.12258763422E+03  0.00000000000E+00 0.  1.
          2    1    1    2  501    0 -0.11778602781E+02 -0.66990041422E+02  0.16367117421E+03  0.17724179643E+03  0.00000000000E+00 0. -1.
<scales pt_clust_5="13000.00000" pt_clust_6="13000.00000" pt_clust_7="13000.00000" pt_clust_8="13000.00000" pt_clust_9="68.01769"></scales>
<clustering>
<clus scale="   68.018">  2  9  1 -1</clus>
<clus scale="   82.207">  5  6 -1 -1</clus>
<clus scale="   89.742">  2  5  1 -1</clus>
<clus scale="   95.307">  7  8 -1 -1</clus>
<clus scale="   68.018">  2  5  1 -1</clus>
</clustering>
</event>
<event>
 9    1  0.4664604E-005  0.9187093E+02  0.7546771E-02  0.1302872E+00
         21   -1    0    0  501  502  0.00000000000E+00  0.00000000000E+00  0.10133741605E+03  0.10133741605E+03  0.00000000000E+00 0. -1.
          1   -1    0    0  502    0 -0.00000000000E+00 -0.00000000000E+00 -0.22553446661E+03  0.22553446661E+03  0.00000000000E+00 0. -1.
         23    2    1    2    0    0  0.14060222609E+02  0.52195987008E+02 -0.11591928160E+03  0.15560455973E+03  0.88619344628E+02 0.  0.
        -24    2    1    2    0    0  0.53146747768E+01  0.28554998626E+02 -0.17065308991E+02  0.87760860972E+02  0.81037708710E+02 0.  0.
         13    1    4    4    0    0 -0.22857534388E+02 -0.19147721760E+02 -0.11954874928E+02  0.32125086170E+02  0.00000000000E+00 0. -1.
        -14    1    4    4    0    0  0.28172209165E+02  0.47702720386E+02 -0.51104340628E+01  0.55635774802E+02  0.00000000000E+00 0.  1.
        -13    1    3    3    0    0  0.25893987654E+02  0.71301885750E+02 -0.64815002036E+02  0.99776961254E+02  0.00000000000E+00 0. -1.
         13    1    3    3    0    0 -0.11833765045E+02 -0.19105898742E+02 -0.51104279559E+02  0.55827598472E+02  0.00000000000E+00 0.  1.
          2    1    1    2  501    0 -0.19374897386E+02 -0.80750985634E+02  0.87875400202E+01  0.83506461961E+02  0.00000000000E+00 0. -1.
<scales pt_clust_5="13000.00000" pt_clust_6="13000.00000" pt_clust_7="13000.00000" pt_clust_8="13000.00000" pt_clust_9="83.04281"></scales>
<clustering>
<clus scale="   81.038">  5  6 -1 -1</clus>
<clus scale="   83.043">  1  9  2 -1</clus>
<clus scale="   84.581">  1  5  2 -1</clus>
<clus scale="   88.619">  7  8 -1 -1</clus>
<clus scale="   83.043">  1  5  2 -1</clus>
</clustering>
</event>
<event>
 9    1  0.4664604E-005  0.1248295E+03  0.7546771E-02  0.1238576E+00
          1   -1    0    0  502    0 -0.00000000000E+00  0.00000000000E+00  0.10625760491E+03  0.10625760491E+03  0.00000000000E+00 0. -1.
         21   -1    0    0  501  502  0.00000000000E+00 -0.00000000000E+00 -0.45690505534E+03  0.45690505534E+03  0.00000000000E+00 0.  1.
         23    2    1    2    0    0 -0.81340404045E+02 -0.49481783741E+01  0.47565282185E+02  0.13176878164E+03  0.91977225148E+02 0.  0.
        -24    2    1    2    0    0  0.10945400646E+03  0.16732965503E+00 -0.34798652050E+03  0.37363659736E+03  0.80805203448E+02 0.  0.
         13    1    4    4    0    0  0.60714280783E+02 -0.35876048191E+02 -0.13659940020E+03  0.15372934287E+03  0.00000000000E+00 0. -1.
        -14    1    4    4    0    0  0.48739725676E+02  0.36043377846E+02 -0.21138712031E+03  0.21990725449E+03  0.00000000000E+00 0.  1.
        -11    1    3    3    0    0 -0.31797680886E+02 -0.33434941702E+02 -0.13556990314E+02  0.48091369524E+02  0.00000000000E+00 0.  1.
         11    1    3    3    0    0 -0.49542723158E+02  0.28486763328E+02  0.61122272499E+02  0.83677412115E+02  0.00000000000E+00 0. -1.
          2    1    1    2  501    0 -0.28113602415E+02  0.47808487190E+01 -0.50226212116E+02  0.57757281261E+02  0.00000000000E+00 0. -1.
<scales pt_clust_5="13000.00000" pt_clust_6="13000.00000" pt_clust_7="13000.00000" pt_clust_8="13000.00000" pt_clust_9="28.51721"></scales>
<clustering>
<clus scale="   28.517">  2  9  1 -1</clus>
<clus scale="   80.805">  5  6 -1 -1</clus>
<clus scale="   91.977">  7  8 -1 -1</clus>
<clus scale="  116.842">  2  5  1 -1</clus>
<clus scale="   28.517">  2  5  1 -1</clus>
</clustering>
</event>
<event>
 9    1  0.2137003E-004  0.1140613E+03  0.7546771E-02  0.1257484E+00
          1   -1    0    0  502    0 -0.00000000000E+00  0.00000000000E+00  0.46567961337E+03  0.46567961337E+03  0.00000000000E+00 0. -1.
         21   -1    0    0  501  502  0.00000000000E+00 -0.00000000000E+00 -0.43091069240E+03  0.43091069240E+03  0.00000000000E+00 0. -1.
        -24    2    1    2    0    0  0.85189256297E+01  0.67182784767E+02  0.43400554408E+03  0.44654706485E+03  0.80357763614E+02 0.  0.
         23    2    1    2    0    0  0.42969079180E+02 -0.49714721849E+02 -0.37281098279E+03  0.38959109185E+03  0.92061363388E+02 0.  0.
         13    1    3    3    0    0  0.70141672913E+01  0.79661701308E+02  0.25838610687E+03  0.27047840103E+03  0.00000000000E+00 0. -1.
        -14    1    3    3    0    0  0.15047583384E+01 -0.12478916541E+02  0.17561943720E+03  0.17606866382E+03  0.00000000000E+00 0.  1.
        -11    1    4    4    0    0  0.24228277062E+02 -0.66087640147E+02 -0.34568803097E+03  0.35278151928E+03  0.00000000000E+00 0.  1.
         11    1    4    4    0    0  0.18740802118E+02  0.16372918297E+02 -0.27122951817E+02  0.36809572571E+02  0.00000000000E+00 0. -1.
          2    1    1    2  501    0 -0.51488004810E+02 -0.17468062918E+02 -0.26425640319E+02  0.60452149074E+02  0.00000000000E+00 0. -1.
<scales pt_clust_5="13000.00000" pt_clust_6="13000.00000" pt_clust_7="13000.00000" pt_clust_8="13000.00000" pt_clust_9="54.37047"></scales>
<clustering>
<clus scale="   54.370">  2  9  1 -1</clus>
<clus scale="   80.358">  5  6 -1 -1</clus>
<clus scale="   92.061">  7  8 -1 -1</clus>
<clus scale="  104.843">  1  5  2 -1</clus>
<clus scale="   54.370">  2  5  1 -1</clus>
</clustering>
</event>
<event>
 9    1  0.4664604E-005  0.1020222E+03  0.7546771E-02  0.1281997E+00
         21   -1    0    0  501  502  0.00000000000E+00  0.00000000000E+00  0.87397708449E+02  0.87397708449E+02  0.00000000000E+00 0.  1.
          1   -1    0    0  502    0 -0.00000000000E+00 -0.00000000000E+00 -0.37088418734E+03  0.37088418734E+03  0.00000000000E+00 0. -1.
         23    2    1    2    0    0  0.30532482946E+02 -0.18154768881E+02 -0.27922796314E+03  0.29803619506E+03  0.97956572092E+02 0.  0.
        -24    2    1    2    0    0  0.15314228549E+01 -0.31322683657E+02  0.23534816100E+02  0.95064555759E+02  0.86602115594E+02 0.  0.
         13    1    4    4    0    0  0.10732644299E+02  0.19513324563E+02 -0.18112650796E+02  0.28705881070E+02  0.00000000000E+00 0. -1.
        -14    1    4    4    0    0 -0.92012214438E+01 -0.50836008219E+02  0.41647466896E+02  0.66358674690E+02  0.00000000000E+00 0.  1.
        -13    1    3    3    0    0 -0.38579930221E+01  0.31542080856E+02 -0.38918859972E+02  0.50244050756E+02  0.00000000000E+00 0.  1.
         13    1    3    3    0    0  0.34390475968E+02 -0.49696849737E+02 -0.24030910317E+03  0.24779214430E+03  0.00000000000E+00 0. -1.
          2    1    1    2  501    0 -0.32063905801E+02  0.49477452538E+02 -0.27793331852E+02  0.65181144975E+02  0.00000000000E+00 0. -1.
<scales pt_clust_5="13000.00000" pt_clust_6="13000.00000" pt_clust_7="13000.00000" pt_clust_8="13000.00000" pt_clust_9="58.95856"></scales>
<clustering>
<clus scale="   58.959">  1  9  2 -1</clus>
<clus scale="   86.602">  5  6 -1 -1</clus>
<clus scale="   91.176">  1  5  2 -1</clus>
<clus scale="   97.957">  7  8 -1 -1</clus>
<clus scale="   58.959">  1  5  2 -1</clus>
</clustering>
</event>
<event>
 9    1  0.4664604E-005  0.3619514E+03  0.7546771E-02  0.1058111E+00
          1   -1    0    0  502    0 -0.00000000000E+00  0.00000000000E+00  0.62015712649E+03  0.62015712649E+03  0.00000000000E+00 0. -1.
         21   -1    0    0  501  502  0.00000000000E+00 -0.00000000000E+00 -0.24758028937E+03  0.24758028937E+03  0.00000000000E+00 0. -1.
         23    2    1    2    0    0  0.25921102292E+03 -0.26404483382E+03  0.28957189743E+03  0.47886367312E+03  0.92458125581E+02 0.  0.
        -24    2    1    2    0    0 -0.22337898549E+03  0.23121096906E+03  0.70216566349E+02  0.33861899097E+03  0.79848428210E+02 0.  0.
         11    1    4    4    0    0 -0.75413118907E+02  0.38940259719E+02  0.40980476598E+02  0.94249041335E+02  0.00000000000E+00 0. -1.
        -12    1    4    4    0    0 -0.14796586659E+03  0.19227070934E+03  0.29236089751E+02  0.24436994964E+03  0.00000000000E+00 0.  1.
        -13    1    3    3    0    0  0.98681483666E+02 -0.42159540433E+02  0.74382284320E+02  0.13056870333E+03  0.00000000000E+00 0.  1.
         13    1    3    3    0    0  0.16052953925E+03 -0.22188529339E+03  0.21518961311E+03  0.34829496979E+03  0.00000000000E+00 0. -1.
          2    1    1    2  501    0 -0.35832037426E+02  0.32833864766E+02  0.12788373341E+02  0.50254751758E+02  0.00000000000E+00 0. -1.
<scales pt_clust_5="13000.00000" pt_clust_6="13000.00000" pt_clust_7="13000.00000" pt_clust_8="13000.00000" pt_clust_9="48.60039"></scales>
<clustering>
<clus scale="   48.600">  2  9  1 -1</clus>
<clus scale="   79.848">  5  6 -1 -1</clus>
<clus scale="   92.458">  7  8 -1 -1</clus>
<clus scale="  358.937">  2  5  1 -1</clus>
<clus scale="   48.600">  2  5  1 -1</clus>
</clustering>
</event>
<event>
 9    1  0.5205610E-005  0.9536584E+02  0.7546771E-02  0.1296163E+00
         -4   -1    0    0    0  501 -0.00000000000E+00  0.00000000000E+00  0.17999909862E+03  0.17999909862E+03  0.00000000000E+00 0.  1.
         21   -1    0    0  501  502  0.00000000000E+00 -0.00000000000E+00 -0.22015647227E+03  0.22015647227E+03  0.00000000000E+00 0.  1.
        -24    2    1    2    0    0  0.16122623706E+02  0.25604528855E+02  0.14774090156E+03  0.17115077955E+03  0.80930120795E+02 0.  0.
         23    2    1    2    0    0  0.16687514114E+02 -0.93635206034E+01 -0.12085045415E+03  0.15261313079E+03  0.91212865193E+02 0.  0.
         13    1    3    3    0    0 -0.26836954968E+02 -0.52090341806E+01  0.23207387322E+02  0.35859991848E+02  0.00000000000E+00 0. -1.
        -14    1    3    3    0    0  0.42959578674E+02  0.30813563036E+02  0.12453351424E+03  0.13529078770E+03  0.00000000000E+00 0.  1.
        -11    1    4    4    0    0  0.73404564993E+01  0.39280742767E+02 -0.75649403384E+02  0.85555194385E+02  0.00000000000E+00 0.  1.
         11    1    4    4    0    0  0.93470576144E+01 -0.48644263370E+02 -0.45201050763E+02  0.67057936406E+02  0.00000000000E+00 0. -1.
         -3    1    1    2    0  502 -0.32810137820E+02 -0.16241008252E+02 -0.67047821060E+02  0.76391660551E+02  0.00000000000E+00 0.  1.
<scales pt_clust_5="13000.00000" pt_clust_6="13000.00000" pt_clust_7="13000.00000" pt_clust_8="13000.00000" pt_clust_9="36.60977"></scales>
<clustering>
<clus scale="   36.610">  2  9  1 -1</clus>
<clus scale="   80.930">  5  6 -1 -1</clus>
<clus scale="   85.584">  1  5  2 -1</clus>
<clus scale="   91.213">  7  8 -1 -1</clus>
<clus scale="   36.610">  2  5  1 -1</clus>
</clustering>
</event>
<event>
 9    1  0.4664604E-005  0.1041685E+03  0.7546771E-02  0.1276727E+00
          1   -1    0    0  502    0 -0.00000000000E+00  0.00000000000E+00  0.27237440979E+02  0.27237440979E+02  0.00000000000E+00 0. -1.
         21   -1    0    0  501  502  0.00000000000E+00 -0.00000000000E+00 -0.62629241075E+03  0.62629241075E+03  0.00000000000E+00 0.  1.
         23    2    1    2    0    0  0.41545231259E+02 -0.11562311821E+02 -0.12632010566E+03  0.16218452555E+03  0.92126857865E+02 0.  0.
        -24    2    1    2    0    0 -0.62918684394E+02 -0.41230965816E+01 -0.31419519818E+03  0.33060428534E+03  0.81269983104E+02 0.  0.
         13    1    4    4    0    0 -0.64539286159E+01  0.23781632028E+02 -0.26876520663E+02  0.36463222285E+02  0.00000000000E+00 0. -1.
        -14    1    4    4    0    0 -0.56464755778E+02 -0.27904728610E+02 -0.28731867752E+03  0.29414106306E+03  0.00000000000E+00 0.  1.
        -11    1    3    3    0    0  0.48051162437E+02  0.31336936391E+02 -0.82789220195E+02  0.10072225561E+03  0.00000000000E+00 0.  1.
         11    1    3    3    0    0 -0.65059311774E+01 -0.42899248213E+02 -0.43530885462E+02  0.61462269945E+02  0.00000000000E+00 0. -1.
          2    1    1    2  501    0  0.21373453135E+02  0.15685408403E+02 -0.15853966593E+03  0.16074104083E+03  0.00000000000E+00 0. -1.
<scales pt_clust_5="13000.00000" pt_clust_6="13000.00000" pt_clust_7="13000.00000" pt_clust_8="13000.00000" pt_clust_9="26.51144"></scales>
<clustering>
<clus scale="   26.511">  2  9  1 -1</clus>
<clus scale="   81.270">  5  6 -1 -1</clus>
<clus scale="   92.127">  7  8 -1 -1</clus>
<clus scale="   94.702">  2  5  1 -1</clus>
<clus scale="   26.511">  2  5  1 -1</clus>
</clustering>
</event>
<event>
 9    1  0.4664604E-005  0.9272434E+02  0.7546771E-02  0.1303178E+00
         21   -1    0    0  501  502  0.00000000000E+00  0.00000000000E+00  0.42535223293E+02  0.42535223293E+02  0.00000000000E+00 0.  1.
          1   -1    0    0  502    0 -0.00000000000E+00 -0.00000000000E+00 -0.39037877755E+03  0.39037877755E+03  0.00000000000E+00 0. -1.
        -24    2    1    2    0    0 -0.28496990261E+02  0.25834378487E+01 -0.22741638041E+03  0.24268992012E+03  0.79758602301E+02 0.  0.
         23    2    1    2    0    0 -0.12579804944E+02 -0.21854982683E+02 -0.10752213805E+03  0.14305167891E+03  0.90922389466E+02 0.  0.
         11    1    3    3    0    0 -0.49104602739E+02 -0.16082403009E+02 -0.18413164023E+03  0.19124425908E+03  0.00000000000E+00 0. -1.
        -12    1    3    3    0    0  0.20607612478E+02  0.18665840857E+02 -0.43284740183E+02  0.51445661038E+02  0.00000000000E+00 0.  1.
        -11    1    4    4    0    0 -0.45012348773E+02 -0.34795662695E+02 -0.81982322286E+02  0.99789532777E+02  0.00000000000E+00 0.  1.
         11    1    4    4    0    0  0.32432543829E+02  0.12940680012E+02 -0.25539815765E+02  0.43262146129E+02  0.00000000000E+00 0. -1.
          2    1    1    2  501    0  0.41076795205E+02  0.19271544834E+02 -0.12905035791E+02  0.47172401819E+02  0.00000000000E+00 0. -1.
<scales pt_clust_5="13000.00000" pt_clust_6="13000.00000" pt_clust_7="13000.00000" pt_clust_8="13000.00000" pt_clust_9="45.37285"></scales>
<clustering>
<clus scale="   45.373">  1  9  2 -1</clus>
<clus scale="   79.759">  5  6 -1 -1</clus>
<clus scale="   81.807">  2  5  1 -1</clus>
<clus scale="   90.922">  7  8 -1 -1</clus>
<clus scale="   45.373">  1  5  2 -1</clus>
</clustering>
</event>
<event>
 9    1  0.4664604E-005  0.1161157E+03  0.7546771E-02  0.1258195E+00
          1   -1    0    0  502    0 -0.00000000000E+00  0.00000000000E+00  0.61940780264E+03  0.61940780264E+03  0.00000000000E+00 0. -1.
         21   -1    0    0  501  502  0.00000000000E+00 -0.00000000000E+00 -0.37561469086E+02  0.37561469086E+02  0.00000000000E+00 0.  1.
        -24    2    1    2    0    0 -0.70144490934E+02 -0.35856799951E+01  0.18760705317E+03  0.21091858373E+03  0.66008604397E+02 0.  0.
         23    2    1    2    0    0  0.56454830092E+02  0.77186675637E+02  0.22119446595E+03  0.25750620736E+03  0.90760808325E+02 0.  0.
         13    1    3    3    0    0 -0.54426397436E+02 -0.25529447773E+02  0.80543951101E+02  0.10050529091E+03  0.00000000000E+00 0. -1.
        -14    1    3    3    0    0 -0.15718093498E+02  0.21943767778E+02  0.10706310207E+03  0.11041329282E+03  0.00000000000E+00 0.  1.
        -13    1    4    4    0    0  0.27144340759E+02 -0.17754628333E+02  0.57358350493E+02  0.65894024265E+02  0.00000000000E+00 0. -1.
         13    1    4    4    0    0  0.29310489333E+02  0.94941303969E+02  0.16383611545E+03  0.19161218310E+03  0.00000000000E+00 0.  1.
          2    1    1    2  501    0  0.13689660842E+02 -0.73600995642E+02  0.17304481444E+03  0.18854448063E+03  0.00000000000E+00 0. -1.
<scales pt_clust_5="13000.00000" pt_clust_6="13000.00000" pt_clust_7="13000.00000" pt_clust_8="13000.00000" pt_clust_9="74.86334"></scales>
<clustering>
<clus scale="   66.009">  5  6 -1 -1</clus>
<clus scale="   74.863">  2  9  1 -1</clus>
<clus scale="   90.761">  7  8 -1 -1</clus>
<clus scale="   97.992">  1  5  2 -1</clus>
<clus scale="   74.863">  2  5  1 -1</clus>
</clustering>
</event>
<event>
 9    1  0.4664604E-005  0.9346874E+02  0.7546771E-02  0.1302655E+00
         21   -1    0    0  501  502  0.00000000000E+00  0.00000000000E+00  0.14591934939E+03  0.14591934939E+03  0.00000000000E+00 0. -1.
          1   -1    0    0  502    0 -0.00000000000E+00 -0.00000000000E+00 -0.14031251090E+03  0.14031251090E+03  0.00000000000E+00 0. -1.
         23    2    1    2    0    0  0.22359425328E+01  0.18929750949E+02 -0.51730856555E+02  0.10581904001E+03  0.90323046884E+02 0.  0.
        -24    2    1    2    0    0  0.19462479695E+02 -0.26564191339E+02 -0.30890436044E+02  0.89235469360E+02  0.76969510688E+02 0.  0.
         11    1    4    4    0    0 -0.10358919384E+02 -0.38794996464E+02 -0.39023828669E+02  0.55993018900E+02  0.00000000000E+00 0. -1.
        -12    1    4    4    0    0  0.29821399079E+02  0.12230805125E+02  0.81333926255E+01  0.33242450461E+02  0.00000000000E+00 0.  1.
        -13    1    3    3    0    0  0.11586497367E+02 -0.33517415343E+02 -0.67610088804E+01  0.36102289312E+02  0.00000000000E+00 0.  1.
         13    1    3    3    0    0 -0.93505548343E+01  0.52447166292E+02 -0.44969847675E+02  0.69716750697E+02  0.00000000000E+00 0. -1.
          2    1    1    2  501    0 -0.21698422228E+02  0.76344403900E+01  0.88228131082E+02  0.91177350924E+02  0.00000000000E+00 0. -1.
<scales pt_clust_5="13000.00000" pt_clust_6="13000.00000" pt_clust_7="13000.00000" pt_clust_8="13000.00000" pt_clust_9="23.00231"></scales>
<clustering>
<clus scale="   23.002">  1  9  2 -1</clus>
<clus scale="   76.970">  5  6 -1 -1</clus>
<clus scale="   80.638">  1  5  2 -1</clus>
<clus scale="   90.323">  7  8 -1 -1</clus>
<clus scale="   23.002">  1  5  2 -1</clus>
</clustering>
</event>
<event>
 9    1  0.4664604E-005  0.1177990E+03  0.7546771E-02  0.1253696E+00
         21   -1    0    0  501  502  0.00000000000E+00  0.00000000000E+00  0.15126570263E+03  0.15126570263E+03  0.00000000000E+00 0. -1.
          1   -1    0    0  502    0 -0.00000000000E+00 -0.00000000000E+00 -0.19218681399E+03  0.19218681399E+03  0.00000000000E+00 0. -1.
         23    2    1    2    0    0 -0.43253110789E+02  0.57718525061E+02 -0.82512461763E+02  0.14297226786E+03  0.91817772262E+02 0.  0.
        -24    2    1    2    0    0 -0.14403152209E+02 -0.93181978002E+02 -0.50192726697E+01  0.11829477960E+03  0.71260998900E+02 0.  0.
         11    1    4    4    0    0 -0.37678034584E+02 -0.70721873394E+02  0.13137667488E+02  0.81202315075E+02  0.00000000000E+00 0. -1.
        -12    1    4    4    0    0  0.23274882375E+02 -0.22460104608E+02 -0.18156940158E+02  0.37092464524E+02  0.00000000000E+00 0.  1.
        -11    1    3    3    0    0 -0.71702469473E+02  0.38336138222E+02 -0.49009706670E+02  0.94936057271E+02  0.00000000000E+00 0. -1.
         11    1    3    3    0    0  0.28449358684E+02  0.19382386839E+02 -0.33502755094E+02  0.48036210591E+02  0.00000000000E+00 0.  1.
          2    1    1    2  501    0  0.57656262997E+02  0.35463452942E+02  0.46610623070E+02  0.82185469156E+02  0.00000000000E+00 0. -1.
<scales pt_clust_5="13000.00000" pt_clust_6="13000.00000" pt_clust_7="13000.00000" pt_clust_8="13000.00000" pt_clust_9="67.68974"></scales>
<clustering>
<clus scale="   67.690">  1  9  2 -1</clus>
<clus scale="   71.261">  5  6 -1 -1</clus>
<clus scale="   91.818">  7  8 -1 -1</clus>
<clus scale="  102.588">  1  5  2 -1</clus>
<clus scale="   67.690">  1  5  2 -1</clus>
</clustering>
</event>
<event>
 9    1  0.4664604E-005  0.1639041E+03  0.7546771E-02  0.1187420E+00
         21   -1    0    0  501  502  0.00000000000E+00  0.00000000000E+00  0.79350611854E+03  0.79350611854E+03  0.00000000000E+00 0. -1.
          3   -1    0    0  502    0 -0.00000000000E+00 -0.00000000000E+00 -0.49926793643E+02  0.49926793643E+02  0.00000000000E+00 0. -1.
         23    2    1    2    0    0 -0.11795721518E+03 -0.92310176997E+01  0.32863161055E+03  0.36254180838E+03  0.97153029115E+02 0.  0.
        -24    2    1    2    0    0  0.14826160851E+03  0.16836679154E+02  0.41694533110E+03  0.44958307267E+03  0.77566434634E+02 0.  0.
         13    1    4    4    0    0  0.15220306747E+03  0.56637086724E+01  0.35158728393E+03  0.38315984858E+03  0.00000000000E+00 0. -1.
        -14    1    4    4    0    0 -0.39414589654E+01  0.11172970482E+02  0.65358047171E+02  0.66423224087E+02  0.00000000000E+00 0.  1.
        -11    1    3    3    0    0 -0.35086141697E+01  0.31132806225E+02  0.78622262186E+02  0.84634638938E+02  0.00000000000E+00 0.  1.
         11    1    3    3    0    0 -0.11444860101E+03 -0.40363823925E+02  0.25000934836E+03  0.27790716944E+03  0.00000000000E+00 0. -1.
          4    1    1    2  501    0 -0.30304393325E+02 -0.76056614542E+01 -0.19976167535E+01  0.31308031137E+02  0.00000000000E+00 0. -1.
<scales pt_clust_5="13000.00000" pt_clust_6="13000.00000" pt_clust_7="13000.00000" pt_clust_8="13000.00000" pt_clust_9="31.24425"></scales>
<clustering>
<clus scale="   31.244">  1  9  2 -1</clus>
<clus scale="   77.566">  5  6 -1 -1</clus>
<clus scale="   97.153">  7  8 -1 -1</clus>
<clus scale="  153.109">  1  5  2 -1</clus>
<clus scale="   31.244">  1  5  2 -1</clus>
</clustering>
</event>
<event>
 9    1  0.4664604E-005  0.1040054E+03  0.7546771E-02  0.1277171E+00
         -2   -1    0    0    0  501 -0.00000000000E+00  0.00000000000E+00  0.17235901133E+03  0.17235901133E+03  0.00000000000E+00 0.  1.
         21   -1    0    0  501  502  0.00000000000E+00 -0.00000000000E+00 -0.76102630929E+02  0.76102630929E+02  0.00000000000E+00 0.  1.
        -24    2    1    2    0    0  0.35299879038E+02  0.22122648275E+02  0.57147347968E+02  0.10669689358E+03  0.79893145468E+02 0.  0.
         23    2    1    2    0    0 -0.58707770097E+02 -0.25707267274E+02  0.39203857163E+02  0.11808378905E+03  0.91100894395E+02 0.  0.
         11    1    3    3    0    0  0.27857490540E+01  0.40496045445E+02  0.56215613069E+02  0.69338915821E+02  0.00000000000E+00 0. -1.
        -12    1    3    3    0    0  0.32514129984E+02 -0.18373397170E+02  0.93173489883E+00  0.37357977757E+02  0.00000000000E+00 0.  1.
        -13    1    4    4    0    0 -0.12300055218E+02  0.25186235006E+02 -0.13735465207E+02  0.31213791769E+02  0.00000000000E+00 0. -1.
         13    1    4    4    0    0 -0.46407714879E+02 -0.50893502281E+02  0.52939322370E+02  0.86869997281E+02  0.00000000000E+00 0.  1.
         -1    1    1    2    0  502  0.23407891059E+02  0.35846189989E+01 -0.94824730297E-01  0.23680959629E+02  0.00000000000E+00 0.  1.
<scales pt_clust_5="13000.00000" pt_clust_6="13000.00000" pt_clust_7="13000.00000" pt_clust_8="13000.00000" pt_clust_9="23.68077"></scales>
<clustering>
<clus scale="   23.681">  2  9  1 -1</clus>
<clus scale="   79.893">  5  6 -1 -1</clus>
<clus scale="   91.101">  7  8 -1 -1</clus>
<clus scale="   94.343">  1  5  2 -1</clus>
<clus scale="   23.681">  2  5  1 -1</clus>
</clustering>
</event>
<event>
 9    1  0.4664604E-005  0.9511169E+02  0.7546771E-02  0.1297888E+00
          1   -1    0    0  502    0 -0.00000000000E+00  0.00000000000E+00  0.12925334814E+03  0.12925334814E+03  0.00000000000E+00 0. -1.
         21   -1    0    0  501  502  0.00000000000E+00 -0.00000000000E+00 -0.15626077540E+03  0.15626077540E+03  0.00000000000E+00 0. -1.
         23    2    1    2    0    0 -0.20115504395E+02  0.10770008729E+02  0.60388511215E+02  0.11453847382E+03  0.94613228951E+02 0.  0.
        -24    2    1    2    0    0 -0.31392708650E+02  0.11377269212E+02 -0.65105400202E+02  0.11063937516E+03  0.82990443963E+02 0.  0.
         11    1    4    4    0    0 -0.47161806334E+01 -0.25996991230E+02  0.49455132690E+01  0.26880178837E+02  0.00000000000E+00 0. -1.
        -12    1    4    4    0    0 -0.26676528016E+02  0.37374260442E+02 -0.70050913471E+02  0.83759196323E+02  0.00000000000E+00 0.  1.
        -13    1    3    3    0    0 -0.23459892719E+02  0.50577102114E+02  0.24732075493E+02  0.60992502677E+02  0.00000000000E+00 0. -1.
         13    1    3    3    0    0  0.33443883240E+01 -0.39807093384E+02  0.35656435722E+02  0.53545971140E+02  0.00000000000E+00 0.  1.
          2    1    1    2  501    0  0.51508213045E+02 -0.22147277942E+02 -0.22290538269E+02  0.60336274559E+02  0.00000000000E+00 0. -1.
<scales pt_clust_5="13000.00000" pt_clust_6="13000.00000" pt_clust_7="13000.00000" pt_clust_8="13000.00000" pt_clust_9="56.06780"></scales>
<clustering>
<clus scale="   56.068">  2  9  1 -1</clus>
<clus scale="   82.990">  5  6 -1 -1</clus>
<clus scale="   83.558">  2  5  1 -1</clus>
<clus scale="   94.613">  7  8 -1 -1</clus>
<clus scale="   56.068">  2  5  1 -1</clus>
</clustering>
</event>
<event>
 9    1  0.4664604E-005  0.1031536E+03  0.7546771E-02  0.1278684E+00
         21   -1    0    0  501  502  0.00000000000E+00  0.00000000000E+00  0.33200039144E+02  0.33200039144E+02  0.00000000000E+00 0. -1.
          1   -1    0    0  502    0 -0.00000000000E+00 -0.00000000000E+00 -0.63250563142E+03  0.63250563142E+03  0.00000000000E+00 0. -1.
        -24    2    1    2    0    0  0.15692523499E+02 -0.52860337401E+02 -0.34340229696E+03  0.35691265285E+03  0.80131352444E+02 0.  0.
         23    2    1    2    0    0  0.18016140979E+02  0.31984020627E+02 -0.74263502796E+02  0.12287607688E+03  0.90751878822E+02 0.  0.
         11    1    3    3    0    0  0.45302991103E+02 -0.13454339500E+02 -0.14646416753E+03  0.15389974862E+03  0.00000000000E+00 0. -1.
        -12    1    3    3    0    0 -0.29610467604E+02 -0.39405997901E+02 -0.19693812943E+03  0.20301290423E+03  0.00000000000E+00 0.  1.
        -13    1    4    4    0    0 -0.25270419188E+02 -0.15134034433E+02 -0.41779875561E+02  0.51119380728E+02  0.00000000000E+00 0.  1.
         13    1    4    4    0    0  0.43286560167E+02  0.47118055060E+02 -0.32483627235E+02  0.71756696148E+02  0.00000000000E+00 0. -1.
          2    1    1    2  501    0 -0.33708664478E+02  0.20876316774E+02 -0.18163979252E+03  0.18591694084E+03  0.00000000000E+00 0. -1.
<scales pt_clust_5="13000.00000" pt_clust_6="13000.00000" pt_clust_7="13000.00000" pt_clust_8="13000.00000" pt_clust_9="39.64967"></scales>
<clustering>
<clus scale="   39.650">  1  9  2 -1</clus>
<clus scale="   80.131">  5  6 -1 -1</clus>
<clus scale="   90.752">  7  8 -1 -1</clus>
<clus scale="   93.946">  2  5  1 -1</clus>
<clus scale="   39.650">  1  5  2 -1</clus>
</clustering>
</event>
<event>
 9    1  0.4664604E-005  0.9475911E+02  0.7546771E-02  0.1298655E+00
         21   -1    0    0  501  502  0.00000000000E+00  0.00000000000E+00  0.49115594421E+02  0.49115594421E+02  0.00000000000E+00 0.  1.
          1   -1    0    0  502    0 -0.00000000000E+00 -0.00000000000E+00 -0.38709814672E+03  0.38709814672E+03  0.00000000000E+00 0. -1.
        -24    2    1    2    0    0  0.43006975076E+02 -0.15413890715E+02 -0.10957816475E+03  0.14320479898E+03  0.80081535502E+02 0.  0.
         23    2    1    2    0    0  0.15299159108E+02  0.48218473322E+00 -0.52238296727E+02  0.10684489439E+03  0.91938539477E+02 0.  0.
         11    1    3    3    0    0 -0.67201841855E+01 -0.23034702096E+02 -0.15594106260E+01  0.24045584576E+02  0.00000000000E+00 0. -1.
        -12    1    3    3    0    0  0.49727159262E+02  0.76208113809E+01 -0.10801875413E+03  0.11915921441E+03  0.00000000000E+00 0.  1.
        -13    1    4    4    0    0  0.42406537671E+02 -0.14056944445E+02  0.17484565022E+01  0.44709833645E+02  0.00000000000E+00 0.  1.
         13    1    4    4    0    0 -0.27107378563E+02  0.14539129178E+02 -0.53986753230E+02  0.62135060747E+02  0.00000000000E+00 0. -1.
          2    1    1    2  501    0 -0.58306134184E+02  0.14931705981E+02 -0.17616609082E+03  0.18616404777E+03  0.00000000000E+00 0. -1.
<scales pt_clust_5="13000.00000" pt_clust_6="13000.00000" pt_clust_7="13000.00000" pt_clust_8="13000.00000" pt_clust_9="60.18775"></scales>
<clustering>
<clus scale="   60.188">  1  9  2 -1</clus>
<clus scale="   80.082">  5  6 -1 -1</clus>
<clus scale="   83.305">  2  5  1 -1</clus>
<clus scale="   91.939">  7  8 -1 -1</clus>
<clus scale="   60.188">  1  5  2 -1</clus>
</clustering>
</event>
<event>
 9    1  0.4664604E-005  0.1284555E+03  0.7546771E-02  0.1232816E+00
         21   -1    0    0  501  502  0.00000000000E+00  0.00000000000E+00  0.46910968869E+03  0.46910968869E+03  0.00000000000E+00 0. -1.
         -2   -1    0    0    0  501 -0.00000000000E+00 -0.00000000000E+00 -0.82298940190E+02  0.82298940190E+02  0.00000000000E+00 0.  1.
         23    2    1    2    0    0 -0.34333747749E+02 -0.83009859419E+02 -0.35724430392E+01  0.12592728622E+03  0.88178659945E+02 0.  0.
        -24    2    1    2    0    0  0.63814917388E+02  0.94493185164E+02  0.30573962542E+03  0.33511796834E+03  0.76328424775E+02 0.  0.
         13    1    4    4    0    0  0.81432654213E+02  0.79610514279E+02  0.24600489533E+03  0.27108581609E+03  0.00000000000E+00 0. -1.
        -14    1    4    4    0    0 -0.17617736825E+02  0.14882670885E+02  0.59734730086E+02  0.64032152252E+02  0.00000000000E+00 0.  1.
        -13    1    3    3    0    0  0.46829066816E+01 -0.65157069603E+02  0.29574495283E+02  0.71707908249E+02  0.00000000000E+00 0.  1.
         13    1    3    3    0    0 -0.39016654430E+02 -0.17852789816E+02 -0.33146938322E+02  0.54219377969E+02  0.00000000000E+00 0. -1.
         -1    1    1    2    0  502 -0.29481169639E+02 -0.11483325745E+02  0.84643566122E+02  0.90363374325E+02  0.00000000000E+00 0.  1.
<scales pt_clust_5="13000.00000" pt_clust_6="13000.00000" pt_clust_7="13000.00000" pt_clust_8="13000.00000" pt_clust_9="31.63868"></scales>
<clustering>
<clus scale="   31.639">  1  9  2 -1</clus>
<clus scale="   76.328">  5  6 -1 -1</clus>
<clus scale="   88.179">  7  8 -1 -1</clus>
<clus scale="  120.629">  1  5  2 -1</clus>
<clus scale="   31.639">  1  5  2 -1</clus>
</clustering>
</event>
<event>
 9    1  0.4664604E-005  0.2421685E+03  0.7546771E-02  0.1118821E+00
         21   -1    0    0  501  502  0.00000000000E+00  0.00000000000E+00  0.81142292013E+02  0.81142292013E+02  0.00000000000E+00 0.  1.
          3   -1    0    0  502    0 -0.00000000000E+00 -0.00000000000E+00 -0.14838265628E+04  0.14838265628E+04  0.00000000000E+00 0. -1.
        -24    2    1    2    0    0 -0.93361915439E+02 -0.20503826665E+03 -0.61007931263E+03  0.65531292029E+03  0.80505389597E+02 0.  0.
         23    2    1    2    0    0 -0.55037572249E+02  0.25300109364E+03 -0.37761520847E+03  0.46632836594E+03  0.88488482141E+02 0.  0.
         13    1    3    3    0    0 -0.18565108821E+02 -0.56463692704E+02 -0.79449609916E+02  0.99222237301E+02  0.00000000000E+00 0. -1.
        -14    1    3    3    0    0 -0.74796806617E+02 -0.14857457394E+03 -0.53062970272E+03  0.55609068299E+03  0.00000000000E+00 0.  1.
        -13    1    4    4    0    0  0.33396151733E+01  0.11404438075E+03 -0.22250024909E+03  0.25004726484E+03  0.00000000000E+00 0.  1.
         13    1    4    4    0    0 -0.58377187422E+02  0.13895671290E+03 -0.15511495938E+03  0.21628110110E+03  0.00000000000E+00 0. -1.
          4    1    1    2  501    0  0.14839948769E+03 -0.47962826995E+02 -0.41498974967E+03  0.44332756857E+03  0.00000000000E+00 0. -1.
<scales pt_clust_5="13000.00000" pt_clust_6="13000.00000" pt_clust_7="13000.00000" pt_clust_8="13000.00000" pt_clust_9="155.95790"></scales>
<clustering>
<clus scale="   80.505">  5  6 -1 -1</clus>
<clus scale="   88.488">  7  8 -1 -1</clus>
<clus scale="  155.958">  1  9  2 -1</clus>
<clus scale="  239.367">  2  5  1 -1</clus>
<clus scale="  155.958">  1  5  2 -1</clus>
</clustering>
</event>
<event>
 9    1  0.4664604E-005  0.1030311E+03  0.7546771E-02  0.1280193E+00
         21   -1    0    0  501  502  0.00000000000E+00  0.00000000000E+00  0.99885659493E+02  0.99885659493E+02  0.00000000000E+00 0.  1.
          3   -1    0    0  502    0 -0.00000000000E+00 -0.00000000000E+00 -0.15699725264E+03  0.15699725264E+03  0.00000000000E+00 0. -1.
         23    2    1    2    0    0 -0.22709906902E+02 -0.39337343998E+02 -0.49137683729E+02  0.11413406442E+03  0.92460295232E+02 0.  0.
        -24    2    1    2    0    0  0.41832279836E+02  0.24539278125E+02 -0.41030936808E+02  0.10179259105E+03  0.79536645702E+02 0.  0.
         13    1    4    4    0    0  0.10160393877E+02  0.38983429697E+02  0.85781754109E+01  0.41188912198E+02  0.00000000000E+00 0. -1.
        -14    1    4    4    0    0  0.31671885959E+02 -0.14444151572E+02 -0.49609112219E+02  0.60603678849E+02  0.00000000000E+00 0.  1.
        -11    1    3    3    0    0 -0.33825600961E+02 -0.64729255757E+02 -0.24458718274E+02  0.77021274534E+02  0.00000000000E+00 0.  1.
         11    1    3    3    0    0  0.11115694059E+02  0.25391911759E+02 -0.24678965454E+02  0.37112789886E+02  0.00000000000E+00 0. -1.
          4    1    1    2  501    0 -0.19122372934E+02  0.14798065873E+02  0.33057027390E+02  0.40956256666E+02  0.00000000000E+00 0. -1.
<scales pt_clust_5="13000.00000" pt_clust_6="13000.00000" pt_clust_7="13000.00000" pt_clust_8="13000.00000" pt_clust_9="24.17949"></scales>
<clustering>
<clus scale="   24.179">  1  9  2 -1</clus>
<clus scale="   79.537">  5  6 -1 -1</clus>
<clus scale="   91.611">  1  5  2 -1</clus>
<clus scale="   92.460">  7  8 -1 -1</clus>
<clus scale="   24.179">  1  5  2 -1</clus>
</clustering>
</event>
<event>
 9    1  0.4664604E-005  0.1384409E+03  0.7546771E-02  0.1224611E+00
         21   -1    0    0  501  502  0.00000000000E+00  0.00000000000E+00  0.33856601583E+03  0.33856601583E+03  0.00000000000E+00 0.  1.
         -4   -1    0    0    0  501 -0.00000000000E+00 -0.00000000000E+00 -0.10554773454E+03  0.10554773454E+03  0.00000000000E+00 0.  1.
        -24    2    1    2    0    0  0.92326383862E+02 -0.77296683410E+01 -0.23566654643E+02  0.12538222118E+03  0.81125860535E+02 0.  0.
         23    2    1    2    0    0 -0.26776855549E+02  0.15503099301E+02  0.20062868307E+03  0.23219674354E+03  0.11272139620E+03 0.  0.
         11    1    3    3    0    0  0.51803052721E+02  0.77968661536E+01  0.26845558793E+02  0.58864517495E+02  0.00000000000E+00 0. -1.
        -12    1    3    3    0    0  0.40523331142E+02 -0.15526534495E+02 -0.50412213436E+02  0.66517703687E+02  0.00000000000E+00 0.  1.
        -13    1    4    4    0    0  0.30639529832E+02  0.41483279660E+02  0.11348139098E+03  0.12465018804E+03  0.00000000000E+00 0.  1.
         13    1    4    4    0    0 -0.57416385381E+02 -0.25980180359E+02  0.87147292087E+02  0.10754655550E+03  0.00000000000E+00 0. -1.
         -3    1    1    2    0  502 -0.65549528313E+02 -0.77734309600E+01  0.55956252864E+02  0.86534785639E+02  0.00000000000E+00 0.  1.
<scales pt_clust_5="13000.00000" pt_clust_6="13000.00000" pt_clust_7="13000.00000" pt_clust_8="13000.00000" pt_clust_9="66.00884"></scales>
<clustering>
<clus scale="   66.009">  1  9  2 -1</clus>
<clus scale="   81.126">  5  6 -1 -1</clus>
<clus scale="  112.721">  7  8 -1 -1</clus>
<clus scale="  114.198">  2  5  1 -1</clus>
<clus scale="   66.009">  1  5  2 -1</clus>
</clustering>
</event>
<event>
 9    1  0.4664604E-005  0.1122544E+03  0.7546771E-02  0.1260329E+00
         21   -1    0    0  501  502  0.00000000000E+00  0.00000000000E+00  0.25426027184E+03  0.25426027184E+03  0.00000000000E+00 0.  1.
          1   -1    0    0  502    0 -0.00000000000E+00 -0.00000000000E+00 -0.16452749132E+03  0.16452749132E+03  0.00000000000E+00 0. -1.
        -24    2    1    2    0    0 -0.61892401858E+02 -0.48624335116E+02 -0.60634133867E+02  0.12705744890E+03  0.79196601933E+02 0.  0.
         23    2    1    2    0    0 -0.20005614937E+01  0.37171203506E+01  0.18547996853E+03  0.20610382726E+03  0.89767196988E+02 0.  0.
         11    1    3    3    0    0 -0.50179263902E+02 -0.28097881516E+02 -0.78584133645E+02  0.97380262539E+02  0.00000000000E+00 0. -1.
        -12    1    3    3    0    0 -0.11713137956E+02 -0.20526453600E+02  0.17949999779E+02  0.29677186359E+02  0.00000000000E+00 0.  1.
        -13    1    4    4    0    0 -0.22809082890E+02 -0.34035510820E+02  0.12705092723E+03  0.13349385143E+03  0.00000000000E+00 0. -1.
         13    1    4    4    0    0  0.20808521396E+02  0.37752631171E+02  0.58429041301E+02  0.72609975832E+02  0.00000000000E+00 0.  1.
          2    1    1    2  501    0  0.63892963352E+02  0.44907214765E+02 -0.35113054146E+02  0.85626486996E+02  0.00000000000E+00 0. -1.
<scales pt_clust_5="13000.00000" pt_clust_6="13000.00000" pt_clust_7="13000.00000" pt_clust_8="13000.00000" pt_clust_9="78.09593"></scales>
<clustering>
<clus scale="   78.096">  1  9  2 -1</clus>
<clus scale="   79.197">  5  6 -1 -1</clus>
<clus scale="   89.767">  7  8 -1 -1</clus>
<clus scale="  103.995">  2  5  1 -1</clus>
<clus scale="   78.096">  1  5  2 -1</clus>
</clustering>
</event>
<event>
 9    1  0.4664604E-005  0.9286791E+02  0.7546771E-02  0.1296820E+00
         21   -1    0    0  501  502  0.00000000000E+00  0.00000000000E+00  0.16365433380E+03  0.16365433380E+03  0.00000000000E+00 0.  1.
          1   -1    0    0  502    0 -0.00000000000E+00 -0.00000000000E+00 -0.17992786997E+03  0.17992786997E+03  0.00000000000E+00 0. -1.
         23    2    1    2    0    0 -0.11086110652E+02 -0.63345572925E+02  0.34122722930E+02  0.11465960141E+03  0.88582732615E+02 0.  0.
        -24    2    1    2    0    0  0.16026802686E+02 -0.15195150800E+02  0.48768116381E+02  0.10232627900E+03  0.87204284224E+02 0.  0.
         13    1    4    4    0    0  0.92517481821E+01 -0.41689075526E+02 -0.40028945248E+01  0.42890523746E+02  0.00000000000E+00 0. -1.
        -14    1    4    4    0    0  0.67750545038E+01  0.26493924726E+02  0.52771010905E+02  0.59435755256E+02  0.00000000000E+00 0.  1.
        -13    1    3    3    0    0  0.33368366132E+02 -0.80319155436E+01  0.26353874995E+02  0.43272234203E+02  0.00000000000E+00 0. -1.
         13    1    3    3    0    0 -0.44454476784E+02 -0.55313657382E+02  0.77688479351E+01  0.71387367211E+02  0.00000000000E+00 0.  1.
          2    1    1    2  501    0 -0.49406920340E+01  0.78540723726E+02 -0.99164375481E+02  0.12659632335E+03  0.00000000000E+00 0. -1.
<scales pt_clust_5="13000.00000" pt_clust_6="13000.00000" pt_clust_7="13000.00000" pt_clust_8="13000.00000" pt_clust_9="78.69601"></scales>
<clustering>
<clus scale="   78.696">  1  9  2 -1</clus>
<clus scale="   87.204">  5  6 -1 -1</clus>
<clus scale="   88.583">  7  8 -1 -1</clus>
<clus scale="   91.554">  1  5  2 -1</clus>
<clus scale="   78.696">  1  5  2 -1</clus>
</clustering>
</event>
<event>
 9    1  0.4664604E-005  0.1007926E+03  0.7546771E-02  0.1284521E+00
         -2   -1    0    0    0  501 -0.00000000000E+00  0.00000000000E+00  0.28411279551E+02  0.28411279551E+02  0.00000000000E+00 0.  1.
         21   -1    0    0  501  502  0.00000000000E+00 -0.00000000000E+00 -0.66695027910E+03  0.66695027910E+03  0.00000000000E+00 0.  1.
        -24    2    1    2    0    0  0.14532431403E+02 -0.42254010857E+02 -0.16230112466E+03  0.18601610759E+03  0.79143819838E+02 0.  0.
         23    2    1    2    0    0  0.40195755814E+02  0.41458691621E+02 -0.19506388302E+03  0.22289367377E+03  0.91088690049E+02 0.  0.
         11    1    3    3    0    0  0.39912819756E+02 -0.50305825815E+02 -0.11208327736E+03  0.12917573439E+03  0.00000000000E+00 0. -1.
        -12    1    3    3    0    0 -0.25380388354E+02  0.80518149580E+01 -0.50217847307E+02  0.56840373197E+02  0.00000000000E+00 0.  1.
        -13    1    4    4    0    0  0.97855883670E+01  0.63365189424E+02 -0.83980664504E+02  0.10565820830E+03  0.00000000000E+00 0.  1.
         13    1    4    4    0    0  0.30410167447E+02 -0.21906497803E+02 -0.11108321851E+03  0.11723546548E+03  0.00000000000E+00 0. -1.
         -1    1    1    2    0  502 -0.54728187217E+02  0.79531923607E+00 -0.28117399187E+03  0.28645177729E+03  0.00000000000E+00 0.  1.
<scales pt_clust_5="13000.00000" pt_clust_6="13000.00000" pt_clust_7="13000.00000" pt_clust_8="13000.00000" pt_clust_9="54.73397"></scales>
<clustering>
<clus scale="   54.734">  2  9  1 -1</clus>
<clus scale="   79.144">  5  6 -1 -1</clus>
<clus scale="   90.143">  1  5  2 -1</clus>
<clus scale="   91.089">  7  8 -1 -1</clus>
<clus scale="   54.734">  2  5  1 -1</clus>
</clustering>
</event>
<event>
 9    1  0.4664604E-005  0.9211891E+02  0.7546771E-02  0.1299815E+00
         21   -1    0    0  501  502  0.00000000000E+00  0.00000000000E+00  0.44273577094E+02  0.44273577094E+02  0.00000000000E+00 0.  1.
         -2   -1    0    0    0  501 -0.00000000000E+00 -0.00000000000E+00 -0.47925616267E+03  0.47925616267E+03  0.00000000000E+00 0.  1.
        -24    2    1    2    0    0 -0.60121722883E+01  0.17661367194E+02 -0.21629803466E+03  0.23190350167E+03  0.81524991143E+02 0.  0.
         23    2    1    2    0    0 -0.25676168407E+02 -0.64587723495E+02 -0.20615096345E+03  0.23363206023E+03  0.85175584457E+02 0.  0.
         13    1    3    3    0    0  0.78269202774E+01 -0.31207688451E+02 -0.98520628146E+02  0.10364118231E+03  0.00000000000E+00 0. -1.
        -14    1    3    3    0    0 -0.13839092566E+02  0.48869055645E+02 -0.11777740651E+03  0.12826231936E+03  0.00000000000E+00 0.  1.
        -11    1    4    4    0    0 -0.44897911300E+02 -0.72423645306E+02 -0.13613871034E+03  0.16060745715E+03  0.00000000000E+00 0.  1.
         11    1    4    4    0    0  0.19221742893E+02  0.78359218103E+01 -0.70012253104E+02  0.73024603081E+02  0.00000000000E+00 0. -1.
         -1    1    1    2    0  502  0.31688340695E+02  0.46926356301E+02 -0.12533587472E+02  0.57994177869E+02  0.00000000000E+00 0.  1.
<scales pt_clust_5="13000.00000" pt_clust_6="13000.00000" pt_clust_7="13000.00000" pt_clust_8="13000.00000" pt_clust_9="56.62362"></scales>
<clustering>
<clus scale="   56.624">  1  9  2 -1</clus>
<clus scale="   81.525">  5  6 -1 -1</clus>
<clus scale="   85.176">  7  8 -1 -1</clus>
<clus scale="   88.754">  2  5  1 -1</clus>
<clus scale="   56.624">  1  5  2 -1</clus>
</clustering>
</event>
<event>
 9    1  0.4664604E-005  0.9432101E+02  0.7546771E-02  0.1298916E+00
          1   -1    0    0  502    0 -0.00000000000E+00  0.00000000000E+00  0.31446437216E+02  0.31446437216E+02  0.00000000000E+00 0. -1.
         21   -1    0    0  501  502  0.00000000000E+00 -0.00000000000E+00 -0.42345061249E+03  0.42345061249E+03  0.00000000000E+00 0. -1.
        -24    2    1    2    0    0  0.46981522696E+02 -0.45798791686E+02 -0.14434086018E+03  0.17811681359E+03  0.81157393815E+02 0.  0.
         23    2    1    2    0    0 -0.18728499713E+02  0.16586244811E+02 -0.20556978215E+03  0.21826979501E+03  0.68970340458E+02 0.  0.
         11    1    3    3    0    0  0.54783991430E+02 -0.19241926209E+02 -0.40866436845E+02  0.71004247068E+02  0.00000000000E+00 0. -1.
        -12    1    3    3    0    0 -0.78024687339E+01 -0.26556865476E+02 -0.10347442334E+03  0.10711256652E+03  0.00000000000E+00 0.  1.
        -13    1    4    4    0    0 -0.24995657604E+02 -0.22027881686E+02 -0.11203655417E+03  0.11688541372E+03  0.00000000000E+00 0. -1.
         13    1    4    4    0    0  0.62671578913E+01  0.38614126497E+02 -0.93533227974E+02  0.10138438128E+03  0.00000000000E+00 0.  1.
          2    1    1    2  501    0 -0.28253022983E+02  0.29212546875E+02 -0.42093532941E+02  0.58510441103E+02  0.00000000000E+00 0. -1.
<scales pt_clust_5="13000.00000" pt_clust_6="13000.00000" pt_clust_7="13000.00000" pt_clust_8="13000.00000" pt_clust_9="40.63998"></scales>
<clustering>
<clus scale="   40.640">  2  9  1 -1</clus>
<clus scale="   68.970">  7  8 -1 -1</clus>
<clus scale="   81.157">  5  6 -1 -1</clus>
<clus scale="   84.064">  2  7  1 -1</clus>
<clus scale="   40.640">  2  5  1 -1</clus>
</clustering>
</event>
<event>
 9    1  0.4664604E-005  0.3277257E+03  0.7546771E-02  0.1092926E+00
          1   -1    0    0  502    0 -0.00000000000E+00  0.00000000000E+00  0.94377352946E+03  0.94377352946E+03  0.00000000000E+00 0. -1.
         21   -1    0    0  501  502  0.00000000000E+00 -0.00000000000E+00 -0.22472788780E+03  0.22472788780E+03  0.00000000000E+00 0. -1.
         23    2    1    2    0    0  0.14787459632E+03  0.69834772981E+02  0.12417163493E+01  0.18774693192E+03  0.92214840621E+02 0.  0.
        -24    2    1    2    0    0  0.13485030678E+03  0.19410173390E+03  0.43532760675E+03  0.50180905939E+03  0.80262809198E+02 0.  0.
         13    1    4    4    0    0  0.12002875161E+03  0.12252510534E+03  0.34764610008E+03  0.38765592160E+03  0.00000000000E+00 0. -1.
        -14    1    4    4    0    0  0.14821555173E+02  0.71576628567E+02  0.87681506671E+02  0.11415313779E+03  0.00000000000E+00 0.  1.
        -11    1    3    3    0    0  0.81570160904E+02 -0.11914349745E+02 -0.15913228823E+01  0.82451047224E+02  0.00000000000E+00 0.  1.
         11    1    3    3    0    0  0.66304435420E+02  0.81749122726E+02  0.28330392316E+01  0.10529588470E+03  0.00000000000E+00 0. -1.
          2    1    1    2  501    0 -0.28272490310E+03 -0.26393650688E+03  0.28247631856E+03  0.47894542596E+03  0.00000000000E+00 0. -1.
<scales pt_clust_5="13000.00000" pt_clust_6="13000.00000" pt_clust_7="13000.00000" pt_clust_8="13000.00000" pt_clust_9="317.74523"></scales>
<clustering>
<clus scale="   80.263">  5  6 -1 -1</clus>
<clus scale="   92.215">  7  8 -1 -1</clus>
<clus scale="  187.743">  1  7  2 -1</clus>
<clus scale="  317.745">  2  9  1 -1</clus>
<clus scale="  317.745">  2  5  1 -1</clus>
</clustering>
</event>
<event>
 9    1  0.4664604E-005  0.1150610E+03  0.7546771E-02  0.1259267E+00
         -4   -1    0    0    0  501 -0.00000000000E+00  0.00000000000E+00  0.34921182099E+03  0.34921182099E+03  0.00000000000E+00 0.  1.
         21   -1    0    0  501  502  0.00000000000E+00 -0.00000000000E+00 -0.14837776914E+03  0.14837776914E+03  0.00000000000E+00 0.  1.
         23    2    1    2    0    0  0.50369785257E+02 -0.32731555824E+02  0.29532765125E+03  0.31668611014E+03  0.97278984103E+02 0.  0.
        -24    2    1    2    0    0 -0.74670540196E+02  0.13832768179E+02 -0.34718114379E+02  0.11366658926E+03  0.77121404286E+02 0.  0.
         11    1    4    4    0    0 -0.33245908606E+02  0.45152491037E+02 -0.21730283963E+02  0.60135207050E+02  0.00000000000E+00 0. -1.
        -12    1    4    4    0    0 -0.41424631590E+02 -0.31319722858E+02 -0.12987830415E+02  0.53531382209E+02  0.00000000000E+00 0.  1.
        -11    1    3    3    0    0 -0.10727495636E+02  0.23431548829E+02  0.35091054876E+02  0.43537326233E+02  0.00000000000E+00 0. -1.
         11    1    3    3    0    0  0.61097280893E+02 -0.56163104653E+02  0.26023659637E+03  0.27314878390E+03  0.00000000000E+00 0.  1.
         -3    1    1    2    0  502  0.24300754939E+02  0.18898787644E+02 -0.59775485025E+02  0.67236890730E+02  0.00000000000E+00 0.  1.
<scales pt_clust_5="13000.00000" pt_clust_6="13000.00000" pt_clust_7="13000.00000" pt_clust_8="13000.00000" pt_clust_9="30.78459"></scales>
<clustering>
<clus scale="   30.785">  2  9  1 -1</clus>
<clus scale="   77.121">  5  6 -1 -1</clus>
<clus scale="   97.279">  7  8 -1 -1</clus>
<clus scale="   98.608">  2  5  1 -1</clus>
<clus scale="   30.785">  2  5  1 -1</clus>
</clustering>
</event>
<event>
 9    1  0.4664604E-005  0.1018225E+03  0.7546771E-02  0.1281341E+00
         21   -1    0    0  501  502  0.00000000000E+00  0.00000000000E+00  0.78253830681E+02  0.78253830681E+02  0.00000000000E+00 0.  1.
         -2   -1    0    0    0  501 -0.00000000000E+00 -0.00000000000E+00 -0.29118818797E+03  0.29118818797E+03  0.00000000000E+00 0.  1.
         23    2    1    2    0    0 -0.55077825085E+02  0.40255450197E+01 -0.14540493086E+03  0.18075939057E+03  0.92095556529E+02 0.  0.
        -24    2    1    2    0    0  0.80432267978E+01 -0.54044179733E+02 -0.68419499279E+02  0.12001742959E+03  0.82082206745E+02 0.  0.
         13    1    4    4    0    0  0.36115750241E+02 -0.22968978709E+02 -0.37395510481E+01  0.42964004008E+02  0.00000000000E+00 0. -1.
        -14    1    4    4    0    0 -0.28072523443E+02 -0.31075201024E+02 -0.64679948231E+02  0.77053425584E+02  0.00000000000E+00 0.  1.
        -13    1    3    3    0    0 -0.10011018009E+02  0.41488342215E+02 -0.92230456088E+02  0.10162657158E+03  0.00000000000E+00 0.  1.
         13    1    3    3    0    0 -0.45066807076E+02 -0.37462797196E+02 -0.53174474769E+02  0.79132818987E+02  0.00000000000E+00 0. -1.
         -1    1    1    2    0  502  0.47034598288E+02  0.50018634713E+02  0.89007284203E+00  0.68665198495E+02  0.00000000000E+00 0.  1.
<scales pt_clust_5="13000.00000" pt_clust_6="13000.00000" pt_clust_7="13000.00000" pt_clust_8="13000.00000" pt_clust_9="68.65943"></scales>
<clustering>
<clus scale="   68.659">  1  9  2 -1</clus>
<clus scale="   82.082">  5  6 -1 -1</clus>
<clus scale="   92.096">  7  8 -1 -1</clus>
<clus scale="   92.864">  1  5  2 -1</clus>
<clus scale="   68.659">  1  5  2 -1</clus>
</clustering>
</event>
<event>
 9    1  0.4664604E-005  0.9335693E+02  0.7546771E-02  0.1301830E+00
         21   -1    0    0  501  502  0.00000000000E+00  0.00000000000E+00  0.14888165158E+03  0.14888165158E+03  0.00000000000E+00 0.  1.
         -2   -1    0    0    0  501 -0.00000000000E+00 -0.00000000000E+00 -0.42733331730E+03  0.42733331730E+03  0.00000000000E+00 0.  1.
         23    2    1    2    0    0  0.14279044283E+02  0.15278995978E-01 -0.35130640244E+03  0.36336023702E+03  0.91709225898E+02 0.  0.
        -24    2    1    2    0    0 -0.27742830846E+02 -0.41490339670E+02 -0.31589129910E+02  0.99673569639E+02  0.80285953982E+02 0.  0.
         11    1    4    4    0    0 -0.51451961118E+02 -0.72521019747E+01 -0.24428945414E+02  0.57416640967E+02  0.00000000000E+00 0. -1.
        -12    1    4    4    0    0  0.23709130272E+02 -0.34238237695E+02 -0.71601844961E+01  0.42256928671E+02  0.00000000000E+00 0.  1.
        -13    1    3    3    0    0 -0.11753498073E+02 -0.41664729321E+02 -0.18105019686E+03  0.18615388303E+03  0.00000000000E+00 0.  1.
         13    1    3    3    0    0  0.26032542356E+02  0.41680008317E+02 -0.17025620558E+03  0.17720635398E+03  0.00000000000E+00 0. -1.
         -1    1    1    2    0  502  0.13463786563E+02  0.41475060674E+02  0.10444386662E+03  0.11318116222E+03  0.00000000000E+00 0.  1.
<scales pt_clust_5="13000.00000" pt_clust_6="13000.00000" pt_clust_7="13000.00000" pt_clust_8="13000.00000" pt_clust_9="43.60567"></scales>
<clustering>
<clus scale="   43.606">  1  9  2 -1</clus>
<clus scale="   80.286">  5  6 -1 -1</clus>
<clus scale="   82.163">  1  5  2 -1</clus>
<clus scale="   91.709">  7  8 -1 -1</clus>
<clus scale="   43.606">  1  5  2 -1</clus>
</clustering>
</event>
<event>
 9    1  0.4664604E-005  0.8921520E+02  0.7546771E-02  0.1305574E+00
         21   -1    0    0  501  502  0.00000000000E+00  0.00000000000E+00  0.16070416952E+03  0.16070416952E+03  0.00000000000E+00 0.  1.
         -2   -1    0    0    0  501 -0.00000000000E+00 -0.00000000000E+00 -0.16026350437E+03  0.16026350437E+03  0.00000000000E+00 0.  1.
        -24    2    1    2    0    0 -0.88025737744E+01 -0.16269867405E+00 -0.89561731302E+02  0.12658253280E+03  0.89018661646E+02 0.  0.
         23    2    1    2    0    0 -0.26925728399E+02  0.19562990050E+02 -0.19705772541E+01  0.93827144010E+02  0.87703730529E+02 0.  0.
         13    1    3    3    0    0  0.86703486901E+01 -0.28840274055E+02  0.85863942547E+00  0.30127622137E+02  0.00000000000E+00 0. -1.
        -14    1    3    3    0    0 -0.17472922464E+02  0.28677575381E+02 -0.90420370728E+02  0.96454910667E+02  0.00000000000E+00 0.  1.
        -11    1    4    4    0    0 -0.70225211165E+01  0.27946458123E+02  0.38420013719E+02  0.48025178590E+02  0.00000000000E+00 0.  1.
         11    1    4    4    0    0 -0.19903207283E+02 -0.83834680728E+01 -0.40390590974E+02  0.45801965419E+02  0.00000000000E+00 0. -1.
         -1    1    1    2    0  502  0.35728302174E+02 -0.19400291376E+02  0.91972973709E+02  0.10055799707E+03  0.00000000000E+00 0.  1.
<scales pt_clust_5="13000.00000" pt_clust_6="13000.00000" pt_clust_7="13000.00000" pt_clust_8="13000.00000" pt_clust_9="40.65566"></scales>
<clustering>
<clus scale="   40.656">  1  9  2 -1</clus>
<clus scale="   87.704">  7  8 -1 -1</clus>
<clus scale="   87.903">  1  7  2 -1</clus>
<clus scale="   89.019">  5  6 -1 -1</clus>
<clus scale="   40.656">  1  5  2 -1</clus>
</clustering>
</event>
<event>
 9    1  0.4664604E-005  0.9251302E+02  0.7546771E-02  0.1300601E+00
         21   -1    0    0  501  502  0.00000000000E+00  0.00000000000E+00  0.76613481471E+03  0.76613481471E+03  0.00000000000E+00 0.  1.
          1   -1    0    0  502    0 -0.00000000000E+00 -0.00000000000E+00 -0.30841420731E+03  0.30841420731E+03  0.00000000000E+00 0. -1.
         23    2    1    2    0    0  0.83690784986E+01 -0.30834912705E+02 -0.29624783063E+03  0.31036642190E+03  0.86854506927E+02 0.  0.
        -24    2    1    2    0    0 -0.38592693835E+02  0.14786433129E+02  0.55257602139E+03  0.55990356032E+03  0.80272677907E+02 0.  0.
         11    1    4    4    0    0  0.21379165786E+02  0.20890653447E+02  0.17016518654E+03  0.17277059599E+03  0.00000000000E+00 0. -1.
        -12    1    4    4    0    0 -0.59971859621E+02 -0.61042203176E+01  0.38241083485E+03  0.38713296432E+03  0.00000000000E+00 0.  1.
        -13    1    3    3    0    0  0.19093668571E+02 -0.59001595252E+02 -0.18554268098E+03  0.19563190662E+03  0.00000000000E+00 0. -1.
         13    1    3    3    0    0 -0.10724590072E+02  0.28166682547E+02 -0.11070514965E+03  0.11473451528E+03  0.00000000000E+00 0.  1.
          2    1    1    2  501    0  0.30223615336E+02  0.16048479576E+02  0.20139241664E+03  0.20427903980E+03  0.00000000000E+00 0. -1.
<scales pt_clust_5="13000.00000" pt_clust_6="13000.00000" pt_clust_7="13000.00000" pt_clust_8="13000.00000" pt_clust_9="34.22018"></scales>
<clustering>
<clus scale="   34.220">  1  9  2 -1</clus>
<clus scale="   80.273">  5  6 -1 -1</clus>
<clus scale="   86.364">  1  5  2 -1</clus>
<clus scale="   86.855">  7  8 -1 -1</clus>
<clus scale="   34.220">  1  5  2 -1</clus>
</clustering>
</event>
<event>
 9    1  0.4664604E-005  0.9674451E+02  0.7546771E-02  0.1292703E+00
         21   -1    0    0  501  502  0.00000000000E+00  0.00000000000E+00  0.10873992364E+03  0.10873992364E+03  0.00000000000E+00 0. -1.
         -2   -1    0    0    0  501 -0.00000000000E+00 -0.00000000000E+00 -0.18207221939E+03  0.18207221939E+03  0.00000000000E+00 0.  1.
         23    2    1    2    0    0 -0.34710754937E+01 -0.30809136171E+02 -0.98717257431E+02  0.13757800928E+03  0.90671718223E+02 0.  0.
        -24    2    1    2    0    0  0.48352215321E+02  0.32385956071E+02  0.38187078910E+02  0.10653619720E+03  0.80653093187E+02 0.  0.
         11    1    4    4    0    0 -0.76784095913E+01 -0.19889418432E+02  0.16313855677E+02  0.26845648185E+02  0.00000000000E+00 0. -1.
        -12    1    4    4    0    0  0.56030624912E+02  0.52275374503E+02  0.21873223234E+02  0.79690549013E+02  0.00000000000E+00 0.  1.
        -11    1    3    3    0    0 -0.41688076185E+02  0.48415707886E+01 -0.56565219368E+02  0.70434086534E+02  0.00000000000E+00 0.  1.
         11    1    3    3    0    0  0.38217000691E+02 -0.35650706960E+02 -0.42152038063E+02  0.67143922744E+02  0.00000000000E+00 0. -1.
         -1    1    1    2    0  502 -0.44881139827E+02 -0.15768198993E+01 -0.12802117234E+02  0.46697936558E+02  0.00000000000E+00 0.  1.
<scales pt_clust_5="13000.00000" pt_clust_6="13000.00000" pt_clust_7="13000.00000" pt_clust_8="13000.00000" pt_clust_9="44.90885"></scales>
<clustering>
<clus scale="   44.909">  1  9  2 -1</clus>
<clus scale="   80.653">  5  6 -1 -1</clus>
<clus scale="   87.425">  1  5  2 -1</clus>
<clus scale="   90.672">  7  8 -1 -1</clus>
<clus scale="   44.909">  1  5  2 -1</clus>
</clustering>
</event>
<event>
 9    1  0.4664604E-005  0.1161483E+03  0.7546771E-02  0.1253988E+00
          1   -1    0    0  502    0 -0.00000000000E+00  0.00000000000E+00  0.46318317149E+03  0.46318317149E+03  0.00000000000E+00 0. -1.
         21   -1    0    0  501  502  0.00000000000E+00 -0.00000000000E+00 -0.65975178706E+02  0.65975178706E+02  0.00000000000E+00 0. -1.
        -24    2    1    2    0    0  0.53561470789E+02 -0.18711767514E+02  0.18616626156E+03  0.20967115134E+03  0.78007393021E+02 0.  0.
         23    2    1    2    0    0 -0.69463033708E+02  0.88381294744E+02  0.20063269323E+03  0.24727189023E+03  0.90849016463E+02 0.  0.
         13    1    3    3    0    0  0.54542241572E+02 -0.16766434785E+02  0.19364733321E+03  0.20187931819E+03  0.00000000000E+00 0. -1.
        -14    1    3    3    0    0 -0.98077078314E+00 -0.19453327293E+01 -0.74810716567E+01  0.77918331533E+01  0.00000000000E+00 0.  1.
        -11    1    4    4    0    0  0.18391068939E+02  0.31846473279E+02  0.31239464357E+02  0.48252807280E+02  0.00000000000E+00 0.  1.
         11    1    4    4    0    0 -0.87854102648E+02  0.56534821465E+02  0.16939322887E+03  0.19901908295E+03  0.00000000000E+00 0. -1.
          2    1    1    2  501    0  0.15901562919E+02 -0.69669527230E+02  0.10409037995E+02  0.72215308624E+02  0.00000000000E+00 0. -1.
<scales pt_clust_5="13000.00000" pt_clust_6="13000.00000" pt_clust_7="13000.00000" pt_clust_8="13000.00000" pt_clust_9="71.46120"></scales>
<clustering>
<clus scale="   71.461">  2  9  1 -1</clus>
<clus scale="   78.007">  5  6 -1 -1</clus>
<clus scale="   90.849">  7  8 -1 -1</clus>
<clus scale="  106.405">  1  5  2 -1</clus>
<clus scale="   71.461">  2  5  1 -1</clus>
</clustering>
</event>
<event>
 9    1  0.4664604E-005  0.9442313E+02  0.7546771E-02  0.1298273E+00
         21   -1    0    0  501  502  0.00000000000E+00  0.00000000000E+00  0.24498960449E+02  0.24498960449E+02  0.00000000000E+00 0. -1.
          1   -1    0    0  502    0 -0.00000000000E+00 -0.00000000000E+00 -0.84261495303E+03  0.84261495303E+03  0.00000000000E+00 0. -1.
        -24    2    1    2    0    0 -0.78951365062E+01  0.25974943364E+02 -0.59714044608E+03  0.60303545369E+03  0.79611652406E+02 0.  0.
         23    2    1    2    0    0 -0.17824963053E+02 -0.41051167720E+02 -0.20921547388E+03  0.23202981910E+03  0.89798634516E+02 0.  0.
         13    1    3    3    0    0  0.13742534389E+01  0.42439698041E+02 -0.16160574366E+03  0.16709109170E+03  0.00000000000E+00 0. -1.
        -14    1    3    3    0    0 -0.92693899451E+01 -0.16464754677E+02 -0.43553470242E+03  0.43594436199E+03  0.00000000000E+00 0.  1.
        -13    1    4    4    0    0 -0.43146233284E+02 -0.47024991285E+02 -0.92043195911E+02  0.11200400513E+03  0.00000000000E+00 0. -1.
         13    1    4    4    0    0  0.25321270231E+02  0.59738235648E+01 -0.11717227797E+03  0.12002581397E+03  0.00000000000E+00 0.  1.
          2    1    1    2  501    0  0.25720099559E+02  0.15076224356E+02 -0.11760072622E+02  0.32048640692E+02  0.00000000000E+00 0. -1.
<scales pt_clust_5="13000.00000" pt_clust_6="13000.00000" pt_clust_7="13000.00000" pt_clust_8="13000.00000" pt_clust_9="29.81302"></scales>
<clustering>
<clus scale="   29.813">  1  9  2 -1</clus>
<clus scale="   79.612">  5  6 -1 -1</clus>
<clus scale="   84.794">  2  5  1 -1</clus>
<clus scale="   89.799">  7  8 -1 -1</clus>
<clus scale="   29.813">  1  5  2 -1</clus>
</clustering>
</event>
<event>
 9    1  0.4664604E-005  0.2341654E+03  0.7546771E-02  0.1159451E+00
          1   -1    0    0  502    0 -0.00000000000E+00  0.00000000000E+00  0.10212544310E+04  0.10212544310E+04  0.00000000000E+00 0. -1.
         21   -1    0    0  501  502  0.00000000000E+00 -0.00000000000E+00 -0.91514236366E+02  0.91514236366E+02  0.00000000000E+00 0. -1.
         23    2    1    2    0    0  0.28752804557E+02  0.14401476621E+02  0.15410725730E+03  0.18326401410E+03  0.93821776856E+02 0.  0.
        -24    2    1    2    0    0  0.56651511082E+02 -0.21624560197E+03  0.61041450788E+03  0.65503775635E+03  0.80604198024E+02 0.  0.
         13    1    4    4    0    0  0.13383563077E+02 -0.14973982163E+03  0.47352353146E+03  0.49681552793E+03  0.00000000000E+00 0. -1.
        -14    1    4    4    0    0  0.43267948005E+02 -0.66505780336E+02  0.13689097641E+03  0.15822222842E+03  0.00000000000E+00 0.  1.
        -11    1    3    3    0    0  0.19081439899E+02  0.51143520260E+02  0.12149024752E+03  0.13319024460E+03  0.00000000000E+00 0.  1.
         11    1    3    3    0    0  0.96713646581E+01 -0.36742043639E+02  0.32617009777E+02  0.50073769500E+02  0.00000000000E+00 0. -1.
          2    1    1    2  501    0 -0.85404315639E+02  0.20184412534E+03  0.16521842943E+03  0.27446689689E+03  0.00000000000E+00 0. -1.
<scales pt_clust_5="13000.00000" pt_clust_6="13000.00000" pt_clust_7="13000.00000" pt_clust_8="13000.00000" pt_clust_9="219.85546"></scales>
<clustering>
<clus scale="   80.604">  5  6 -1 -1</clus>
<clus scale="   93.822">  7  8 -1 -1</clus>
<clus scale="   99.180">  1  7  2 -1</clus>
<clus scale="  219.855">  2  9  1 -1</clus>
<clus scale="  219.855">  2  5  1 -1</clus>
</clustering>
</event>
<event>
 9    1  0.4664604E-005  0.2629450E+03  0.7546771E-02  0.1105890E+00
          1   -1    0    0  502    0 -0.00000000000E+00  0.00000000000E+00  0.21450156472E+04  0.21450156472E+04  0.00000000000E+00 0. -1.
         21   -1    0    0  501  502  0.00000000000E+00 -0.00000000000E+00 -0.67479488819E+02  0.67479488819E+02  0.00000000000E+00 0. -1.
         23    2    1    2    0    0  0.20332863248E+03 -0.15916377682E+03  0.14959780172E+04  0.15209101528E+04  0.92421990465E+02 0.  0.
        -24    2    1    2    0    0 -0.89649073151E+02  0.21504199939E+03  0.36727936277E+03  0.44266569339E+03  0.82333273801E+02 0.  0.
         11    1    4    4    0    0 -0.18581801019E+02  0.14764642105E+03  0.20991316643E+03  0.25730970914E+03  0.00000000000E+00 0. -1.
        -12    1    4    4    0    0 -0.71067272132E+02  0.67395578334E+02  0.15736619634E+03  0.18535598425E+03  0.00000000000E+00 0.  1.
        -11    1    3    3    0    0  0.17946003872E+03 -0.16367810396E+03  0.14324363054E+04  0.14528834076E+04  0.00000000000E+00 0. -1.
         11    1    3    3    0    0  0.23868593766E+02  0.45143271376E+01  0.63541711888E+02  0.68026745237E+02  0.00000000000E+00 0.  1.
          2    1    1    2  501    0 -0.11367955933E+03 -0.55878222566E+02  0.21427877840E+03  0.24891928981E+03  0.00000000000E+00 0. -1.
<scales pt_clust_5="13000.00000" pt_clust_6="13000.00000" pt_clust_7="13000.00000" pt_clust_8="13000.00000" pt_clust_9="126.67051"></scales>
<clustering>
<clus scale="   82.333">  5  6 -1 -1</clus>
<clus scale="   92.422">  7  8 -1 -1</clus>
<clus scale="  126.671">  2  9  1 -1</clus>
<clus scale="  259.571">  2  5  1 -1</clus>
<clus scale="  126.671">  2  5  1 -1</clus>
</clustering>
</event>
<event>
 9    1  0.4664604E-005  0.1066894E+03  0.7546771E-02  0.1272608E+00
          1   -1    0    0  502    0 -0.00000000000E+00  0.00000000000E+00  0.37087924674E+03  0.37087924674E+03  0.00000000000E+00 0. -1.
         21   -1    0    0  501  502  0.00000000000E+00 -0.00000000000E+00 -0.90477311958E+02  0.90477311958E+02  0.00000000000E+00 0. -1.
         23    2    1    2    0    0 -0.20347867484E+02 -0.62350593391E+02  0.29195486301E+03  0.31354421761E+03  0.93652026957E+02 0.  0.
        -24    2    1    2    0    0  0.63613859112E+01  0.88050180719E+00  0.94631531952E+01  0.81360332052E+02  0.80552528509E+02 0.  0.
         11    1    4    4    0    0 -0.33374853145E+02 -0.16653871354E+02  0.61307006305E+01  0.37799705604E+02  0.00000000000E+00 0. -1.
        -12    1    4    4    0    0  0.39736239056E+02  0.17534373161E+02  0.33324525647E+01  0.43560626448E+02  0.00000000000E+00 0.  1.
        -13    1    3    3    0    0 -0.31896114988E+02 -0.21390079122E+01  0.27790258282E+02  0.42358422557E+02  0.00000000000E+00 0.  1.
         13    1    3    3    0    0  0.11548247504E+02 -0.60211585479E+02  0.26416460473E+03  0.27118579505E+03  0.00000000000E+00 0. -1.
          2    1    1    2  501    0  0.13986481573E+02  0.61470091584E+02 -0.21016081426E+02  0.66452009034E+02  0.00000000000E+00 0. -1.
<scales pt_clust_5="13000.00000" pt_clust_6="13000.00000" pt_clust_7="13000.00000" pt_clust_8="13000.00000" pt_clust_9="63.04121"></scales>
<clustering>
<clus scale="   63.041">  2  9  1 -1</clus>
<clus scale="   80.553">  5  6 -1 -1</clus>
<clus scale="   93.652">  7  8 -1 -1</clus>
<clus scale="   95.397">  2  5  1 -1</clus>
<clus scale="   63.041">  2  5  1 -1</clus>
</clustering>
</event>
<event>
 9    1  0.4664604E-005  0.1073282E+03  0.7546771E-02  0.1270812E+00
          1   -1    0    0  502    0 -0.00000000000E+00  0.00000000000E+00  0.82694167736E+02  0.82694167736E+02  0.00000000000E+00 0. -1.
         21   -1    0    0  501  502  0.00000000000E+00 -0.00000000000E+00 -0.44236754116E+03  0.44236754116E+03  0.00000000000E+00 0. -1.
         23    2    1    2    0    0 -0.63898476378E+02  0.21005167157E+02  0.38735670619E+01  0.11342002592E+03  0.91240700497E+02 0.  0.
        -24    2    1    2    0    0 -0.74015905506E+01 -0.40765247441E+01 -0.31232411772E+03  0.32223219774E+03  0.78840555271E+02 0.  0.
         11    1    4    4    0    0 -0.20138152144E+02  0.30704334398E+02 -0.21470633310E+03  0.21782357722E+03  0.00000000000E+00 0. -1.
        -12    1    4    4    0    0  0.12736561593E+02 -0.34780859142E+02 -0.97617784625E+02  0.10440862052E+03  0.00000000000E+00 0.  1.
        -13    1    3    3    0    0 -0.37482337963E+02 -0.15959623207E+02 -0.34936126538E+02  0.53667198265E+02  0.00000000000E+00 0. -1.
         13    1    3    3    0    0 -0.26416138415E+02  0.36964790364E+02  0.38809693600E+02  0.59752827655E+02  0.00000000000E+00 0.  1.
          2    1    1    2  501    0  0.71300066929E+02 -0.16928642413E+02 -0.51222822767E+02  0.89409485236E+02  0.00000000000E+00 0. -1.
<scales pt_clust_5="13000.00000" pt_clust_6="13000.00000" pt_clust_7="13000.00000" pt_clust_8="13000.00000" pt_clust_9="73.28222"></scales>
<clustering>
<clus scale="   73.282">  2  9  1 -1</clus>
<clus scale="   78.841">  5  6 -1 -1</clus>
<clus scale="   91.241">  7  8 -1 -1</clus>
<clus scale="   97.007">  2  5  1 -1</clus>
<clus scale="   73.282">  2  5  1 -1</clus>
</clustering>
</event>
<event>
 9    1  0.4664604E-005  0.1163036E+03  0.7546771E-02  0.1253235E+00
         -2   -1    0    0    0  501 -0.00000000000E+00  0.00000000000E+00  0.50202296243E+03  0.50202296243E+03  0.00000000000E+00 0.  1.
         21   -1    0    0  501  502  0.00000000000E+00 -0.00000000000E+00 -0.73178016459E+02  0.73178016459E+02  0.00000000000E+00 0. -1.
         23    2    1    2    0    0 -0.72741768567E+01 -0.74466528158E+02  0.42108071532E+03  0.43715996411E+03  0.90563170974E+02 0.  0.
        -24    2    1    2    0    0  0.29608815338E+02  0.60326140590E+02  0.24697802689E+02  0.10664782286E+03  0.79043351893E+02 0.  0.
         13    1    4    4    0    0  0.50935771091E+02  0.63719441161E+02  0.24033000980E+02  0.85042372348E+02  0.00000000000E+00 0. -1.
        -14    1    4    4    0    0 -0.21326955752E+02 -0.33933005719E+01  0.66480170929E+00  0.21605450510E+02  0.00000000000E+00 0.  1.
        -11    1    3    3    0    0  0.19199157960E+02 -0.63937484985E+02  0.38710806952E+03  0.39282218260E+03  0.00000000000E+00 0.  1.
         11    1    3    3    0    0 -0.26473334817E+02 -0.10529043172E+02  0.33972645805E+02  0.44337781512E+02  0.00000000000E+00 0. -1.
         -1    1    1    2    0  502 -0.22334638482E+02  0.14140387568E+02 -0.16933572045E+02  0.31393191919E+02  0.00000000000E+00 0.  1.
<scales pt_clust_5="13000.00000" pt_clust_6="13000.00000" pt_clust_7="13000.00000" pt_clust_8="13000.00000" pt_clust_9="26.43457"></scales>
<clustering>
<clus scale="   26.435">  2  9  1 -1</clus>
<clus scale="   79.043">  5  6 -1 -1</clus>
<clus scale="   90.563">  7  8 -1 -1</clus>
<clus scale="  107.576">  2  5  1 -1</clus>
<clus scale="   26.435">  2  5  1 -1</clus>
</clustering>
</event>
<event>
 9    1  0.4672267E-005  0.1035559E+03  0.7546771E-02  0.1275589E+00
         21   -1    0    0  501  502  0.00000000000E+00  0.00000000000E+00  0.17566979481E+03  0.17566979481E+03  0.00000000000E+00 0. -1.
          1   -1    0    0  502    0 -0.00000000000E+00 -0.00000000000E+00 -0.36508204544E+03  0.36508204544E+03  0.00000000000E+00 0. -1.
        -24    2    1    2    0    0 -0.16310784195E+02  0.53743270898E+02 -0.28699663317E+03  0.30434328660E+03  0.84281598228E+02 0.  0.
         23    2    1    2    0    0 -0.60322287619E+01 -0.33369512057E+02 -0.33446497860E+02  0.10193405088E+03  0.90121975072E+02 0.  0.
         13    1    3    3    0    0 -0.29157897018E+02  0.71866158555E+02 -0.24266484815E+03  0.25475705335E+03  0.00000000000E+00 0. -1.
        -14    1    3    3    0    0  0.12847112823E+02 -0.18122887657E+02 -0.44331785022E+02  0.49586233252E+02  0.00000000000E+00 0.  1.
        -11    1    4    4    0    0 -0.23245829065E+01 -0.61991595841E+02 -0.63723610053E+01  0.62361595757E+02  0.00000000000E+00 0.  1.
         11    1    4    4    0    0 -0.37076458554E+01  0.28622083784E+02 -0.27074136855E+02  0.39572455122E+02  0.00000000000E+00 0. -1.
          2    1    1    2  501    0  0.22343012956E+02 -0.20373758841E+02  0.13103088040E+03  0.13447450277E+03  0.00000000000E+00 0. -1.
<scales pt_clust_5="13000.00000" pt_clust_6="13000.00000" pt_clust_7="13000.00000" pt_clust_8="13000.00000" pt_clust_9="30.23740"></scales>
<clustering>
<clus scale="   30.237">  1  9  2 -1</clus>
<clus scale="   84.282">  5  6 -1 -1</clus>
<clus scale="   90.122">  7  8 -1 -1</clus>
<clus scale="   98.515">  2  5  1 -1</clus>
<clus scale="   30.237">  1  5  2 -1</clus>
</clustering>
</event>
<event>
 9    1  0.4664604E-005  0.9450551E+02  0.7546771E-02  0.1297849E+00
         21   -1    0    0  501  502  0.00000000000E+00  0.00000000000E+00  0.36075308307E+03  0.36075308307E+03  0.00000000000E+00 0. -1.
         -2   -1    0    0    0  501 -0.00000000000E+00 -0.00000000000E+00 -0.43383954730E+02  0.43383954730E+02  0.00000000000E+00 0.  1.
        -24    2    1    2    0    0  0.22954175839E+02  0.43970810136E+01  0.33382531845E+02  0.90435270197E+02  0.80733612290E+02 0.  0.
         23    2    1    2    0    0 -0.34222307511E+02 -0.20951983934E+02  0.16017740704E+03  0.18828346353E+03  0.90463854395E+02 0.  0.
         11    1    3    3    0    0  0.24668321648E+02 -0.33501173834E+02  0.31976215439E+02  0.52472212599E+02  0.00000000000E+00 0. -1.
        -12    1    3    3    0    0 -0.17141458083E+01  0.37898254848E+02  0.14063164051E+01  0.37963057598E+02  0.00000000000E+00 0.  1.
        -13    1    4    4    0    0 -0.21272690295E+01 -0.40570685596E+02  0.13963184569E+03  0.14542200018E+03  0.00000000000E+00 0. -1.
         13    1    4    4    0    0 -0.32095038482E+02  0.19618701662E+02  0.20545561344E+02  0.42861463356E+02  0.00000000000E+00 0.  1.
         -1    1    1    2    0  502  0.11268131672E+02  0.16554902921E+02  0.12380918946E+03  0.12541830407E+03  0.00000000000E+00 0.  1.
<scales pt_clust_5="13000.00000" pt_clust_6="13000.00000" pt_clust_7="13000.00000" pt_clust_8="13000.00000" pt_clust_9="20.02587"></scales>
<clustering>
<clus scale="   20.026">  1  9  2 -1</clus>
<clus scale="   80.734">  5  6 -1 -1</clus>
<clus scale="   85.238">  2  5  1 -1</clus>
<clus scale="   90.464">  7  8 -1 -1</clus>
<clus scale="   20.026">  1  5  2 -1</clus>
</clustering>
</event>
<event>
 9    1  0.4664604E-005  0.9763542E+02  0.7546771E-02  0.1290749E+00
         21   -1    0    0  501  502  0.00000000000E+00  0.00000000000E+00  0.81921067912E+03  0.81921067912E+03  0.00000000000E+00 0. -1.
          3   -1    0    0  502    0 -0.00000000000E+00 -0.00000000000E+00 -0.16820499871E+02  0.16820499871E+02  0.00000000000E+00 0. -1.
        -24    2    1    2    0    0 -0.31318750408E+02  0.13409669511E+02  0.23354154994E+03  0.24900866401E+03  0.79391283167E+02 0.  0.
         23    2    1    2    0    0  0.19316466879E+02 -0.50953554378E+02  0.39027543058E+03  0.40415101527E+03  0.89742636645E+02 0.  0.
         11    1    3    3    0    0 -0.42939299243E+02 -0.22586635561E+02  0.13539656531E+03  0.14382687309E+03  0.00000000000E+00 0. -1.
        -12    1    3    3    0    0  0.11620548835E+02  0.35996305072E+02  0.98144984631E+02  0.10518179093E+03  0.00000000000E+00 0.  1.
        -11    1    4    4    0    0 -0.14521575279E+02  0.17914508016E+02  0.46351992549E+02  0.51771739002E+02  0.00000000000E+00 0.  1.
         11    1    4    4    0    0  0.33838042159E+02 -0.68868062394E+02  0.34392343804E+03  0.35237927627E+03  0.00000000000E+00 0. -1.
          4    1    1    2  501    0  0.12002283529E+02  0.37543884867E+02  0.17857319872E+03  0.18287149970E+03  0.00000000000E+00 0. -1.
<scales pt_clust_5="13000.00000" pt_clust_6="13000.00000" pt_clust_7="13000.00000" pt_clust_8="13000.00000" pt_clust_9="39.41571"></scales>
<clustering>
<clus scale="   39.416">  1  9  2 -1</clus>
<clus scale="   79.391">  5  6 -1 -1</clus>
<clus scale="   88.215">  2  5  1 -1</clus>
<clus scale="   89.743">  7  8 -1 -1</clus>
<clus scale="   39.416">  1  5  2 -1</clus>
</clustering>
</event>
<event>
 9    1  0.4664604E-005  0.1309864E+03  0.7546771E-02  0.1228659E+00
         21   -1    0    0  501  502  0.00000000000E+00  0.00000000000E+00  0.42711139761E+02  0.42711139761E+02  0.00000000000E+00 0.  1.
          3   -1    0    0  502    0 -0.00000000000E+00 -0.00000000000E+00 -0.70965828978E+03  0.70965828978E+03  0.00000000000E+00 0. -1.
         23    2    1    2    0    0 -0.63261873610E+02 -0.65572473344E+02 -0.53374580999E+03  0.54922266556E+03  0.91973543842E+02 0.  0.
        -24    2    1    2    0    0  0.84097967487E+02  0.59729876260E+02 -0.11077308758E+03  0.17198099339E+03  0.81649610545E+02 0.  0.
         11    1    4    4    0    0  0.28572131485E+02  0.44404446442E+02 -0.10041980233E+03  0.11345597499E+03  0.00000000000E+00 0. -1.
        -12    1    4    4    0    0  0.55525836002E+02  0.15325429818E+02 -0.10353285245E+02  0.58525018395E+02  0.00000000000E+00 0.  1.
        -11    1    3    3    0    0 -0.85911925253E+02 -0.63246854694E+02 -0.43685972341E+03  0.44969705521E+03  0.00000000000E+00 0. -1.
         11    1    3    3    0    0  0.22650051644E+02 -0.23256186496E+01 -0.96886086583E+02  0.99525610347E+02  0.00000000000E+00 0.  1.
          4    1    1    2  501    0 -0.20836093877E+02  0.58425970839E+01 -0.22428252453E+02  0.31165770596E+02  0.00000000000E+00 0. -1.
<scales pt_clust_5="13000.00000" pt_clust_6="13000.00000" pt_clust_7="13000.00000" pt_clust_8="13000.00000" pt_clust_9="21.63975"></scales>
<clustering>
<clus scale="   21.640">  1  9  2 -1</clus>
<clus scale="   81.650">  5  6 -1 -1</clus>
<clus scale="   91.974">  7  8 -1 -1</clus>
<clus scale="  123.955">  1  5  2 -1</clus>
<clus scale="   21.640">  1  5  2 -1</clus>
</clustering>
</event>
<event>
 9    1  0.4664604E-005  0.1001335E+03  0.7546771E-02  0.1284383E+00
          1   -1    0    0  502    0 -0.00000000000E+00  0.00000000000E+00  0.41657986835E+03  0.41657986835E+03  0.00000000000E+00 0. -1.
         21   -1    0    0  501  502  0.00000000000E+00 -0.00000000000E+00 -0.11942262047E+03  0.11942262047E+03  0.00000000000E+00 0.  1.
         23    2    1    2    0    0 -0.38010125909E+02 -0.28328665325E+02  0.36885875854E+03  0.38268524140E+03  0.90243710510E+02 0.  0.
        -24    2    1    2    0    0 -0.52391679946E+01  0.24457893379E+02 -0.23137068587E+02  0.88171339392E+02  0.81321729676E+02 0.  0.
         13    1    4    4    0    0 -0.23230072823E+02 -0.13889163042E+02  0.15199239695E+02  0.31041295409E+02  0.00000000000E+00 0. -1.
        -14    1    4    4    0    0  0.17990904829E+02  0.38347056421E+02 -0.38336308282E+02  0.57130043982E+02  0.00000000000E+00 0.  1.
        -11    1    3    3    0    0 -0.56142483846E+02 -0.54920530004E+01  0.32601744707E+03  0.33086177920E+03  0.00000000000E+00 0. -1.
         11    1    3    3    0    0  0.18132357937E+02 -0.22836612325E+02  0.42841311465E+02  0.51823462205E+02  0.00000000000E+00 0.  1.
          2    1    1    2  501    0  0.43249293904E+02  0.38707719460E+01 -0.48564442066E+02  0.65145908020E+02  0.00000000000E+00 0. -1.
<scales pt_clust_5="13000.00000" pt_clust_6="13000.00000" pt_clust_7="13000.00000" pt_clust_8="13000.00000" pt_clust_9="43.42216"></scales>
<clustering>
<clus scale="   43.422">  2  9  1 -1</clus>
<clus scale="   81.322">  5  6 -1 -1</clus>
<clus scale="   90.244">  7  8 -1 -1</clus>
<clus scale="   92.174">  2  5  1 -1</clus>
<clus scale="   43.422">  2  5  1 -1</clus>
</clustering>
</event>
<event>
 9    1  0.4664604E-005  0.1544889E+03  0.7546771E-02  0.1198193E+00
         -2   -1    0    0    0  501 -0.00000000000E+00  0.00000000000E+00  0.19315581925E+03  0.19315581925E+03  0.00000000000E+00 0.  1.
         21   -1    0    0  501  502  0.00000000000E+00 -0.00000000000E+00 -0.22171314802E+03  0.22171314802E+03  0.00000000000E+00 0. -1.
         23    2    1    2    0    0 -0.60989332906E+02  0.97122800853E+02  0.91115337332E+02  0.17593138712E+03  0.97454148716E+02 0.  0.
        -24    2    1    2    0    0  0.80227308895E+02 -0.10594931159E+03 -0.45491554861E+02  0.16179586460E+03  0.80291609273E+02 0.  0.
         13    1    4    4    0    0  0.42299011609E+02 -0.87223269881E+02 -0.63433627762E+02  0.11584873898E+03  0.00000000000E+00 0. -1.
        -14    1    4    4    0    0  0.37928297286E+02 -0.18726041710E+02  0.17942072901E+02  0.45947125624E+02  0.00000000000E+00 0.  1.
        -13    1    3    3    0    0  0.10798811022E+02  0.64413183985E+02  0.66697387788E+02  0.93349955160E+02  0.00000000000E+00 0.  1.
         13    1    3    3    0    0 -0.71788143928E+02  0.32709616868E+02  0.24417949544E+02  0.82581431958E+02  0.00000000000E+00 0. -1.
         -1    1    1    2    0  502 -0.19237975990E+02  0.88265107367E+01 -0.74181111246E+02  0.77141715548E+02  0.00000000000E+00 0.  1.
<scales pt_clust_5="13000.00000" pt_clust_6="13000.00000" pt_clust_7="13000.00000" pt_clust_8="13000.00000" pt_clust_9="21.16618"></scales>
<clustering>
<clus scale="   21.166">  2  9  1 -1</clus>
<clus scale="   80.292">  5  6 -1 -1</clus>
<clus scale="   97.454">  7  8 -1 -1</clus>
<clus scale="  144.278">  2  5  1 -1</clus>
<clus scale="   21.166">  2  5  1 -1</clus>
</clustering>
</event>
<event>
 9    1  0.4664604E-005  0.8639681E+02  0.7546771E-02  0.1316117E+00
         21   -1    0    0  501  502  0.00000000000E+00  0.00000000000E+00  0.52918264827E+02  0.52918264827E+02  0.00000000000E+00 0.  1.
          1   -1    0    0  502    0 -0.00000000000E+00 -0.00000000000E+00 -0.29322826224E+03  0.29322826224E+03  0.00000000000E+00 0. -1.
         23    2    1    2    0    0  0.27421463096E+01 -0.94542042906E+01 -0.19806124525E+03  0.21623799731E+03  0.86218984382E+02 0.  0.
        -24    2    1    2    0    0 -0.93717690504E+01 -0.12185178052E+02 -0.60131838278E+02  0.10106378094E+03  0.79760524220E+02 0.  0.
         11    1    4    4    0    0  0.21531220846E+02  0.43434196658E+01 -0.62192914325E+02  0.65957693696E+02  0.00000000000E+00 0. -1.
        -12    1    4    4    0    0 -0.30902989896E+02 -0.16528597718E+02  0.20610760469E+01  0.35106087243E+02  0.00000000000E+00 0.  1.
        -11    1    3    3    0    0  0.11217849028E+02  0.37409137437E+02 -0.94442605745E+02  0.10219926360E+03  0.00000000000E+00 0. -1.
         11    1    3    3    0    0 -0.84757027187E+01 -0.46863341728E+02 -0.10361863950E+03  0.11403873371E+03  0.00000000000E+00 0.  1.
          2    1    1    2  501    0  0.66296227408E+01  0.21639382343E+02  0.17883086106E+02  0.28844748821E+02  0.00000000000E+00 0. -1.
<scales pt_clust_5="13000.00000" pt_clust_6="13000.00000" pt_clust_7="13000.00000" pt_clust_8="13000.00000" pt_clust_9="22.63216"></scales>
<clustering>
<clus scale="   22.632">  1  9  2 -1</clus>
<clus scale="   79.761">  5  6 -1 -1</clus>
<clus scale="   79.953">  1  5  2 -1</clus>
<clus scale="   86.219">  7  8 -1 -1</clus>
<clus scale="   22.632">  1  5  2 -1</clus>
</clustering>
</event>
<event>
 9    1  0.4664604E-005  0.9456085E+02  0.7546771E-02  0.1298620E+00
          1   -1    0    0  502    0 -0.00000000000E+00  0.00000000000E+00  0.65467167088E+03  0.65467167088E+03  0.00000000000E+00 0. -1.
         21   -1    0    0  501  502  0.00000000000E+00 -0.00000000000E+00 -0.16681092600E+02  0.16681092600E+02  0.00000000000E+00 0.  1.
         23    2    1    2    0    0 -0.17771996987E+02 -0.20856963006E+02  0.29151209562E+03  0.30723128560E+03  0.93063978955E+02 0.  0.
        -24    2    1    2    0    0 -0.37330214435E+01  0.97644075268E+01  0.21455613992E+03  0.22999834371E+03  0.82192589859E+02 0.  0.
         13    1    4    4    0    0  0.75769996733E+01 -0.32964518914E+02  0.13301255405E+03  0.13724580127E+03  0.00000000000E+00 0. -1.
        -14    1    4    4    0    0 -0.11310021117E+02  0.42728926441E+02  0.81543585879E+02  0.92752542447E+02  0.00000000000E+00 0.  1.
        -13    1    3    3    0    0 -0.16815472433E+02 -0.56514585580E+02  0.21272504573E+03  0.22074556299E+03  0.00000000000E+00 0.  1.
         13    1    3    3    0    0 -0.95652455312E+00  0.35657622574E+02  0.78787049887E+02  0.86485722618E+02  0.00000000000E+00 0. -1.
          2    1    1    2  501    0  0.21505018430E+02  0.11092555479E+02  0.13192234274E+03  0.13412313416E+03  0.00000000000E+00 0. -1.
<scales pt_clust_5="13000.00000" pt_clust_6="13000.00000" pt_clust_7="13000.00000" pt_clust_8="13000.00000" pt_clust_9="24.19734"></scales>
<clustering>
<clus scale="   24.197">  2  9  1 -1</clus>
<clus scale="   82.193">  5  6 -1 -1</clus>
<clus scale="   83.884">  2  5  1 -1</clus>
<clus scale="   93.064">  7  8 -1 -1</clus>
<clus scale="   24.197">  2  5  1 -1</clus>
</clustering>
</event>
<event>
 9    1  0.4664604E-005  0.1710379E+03  0.7546771E-02  0.1198500E+00
         21   -1    0    0  501  502  0.00000000000E+00  0.00000000000E+00  0.10966715736E+04  0.10966715736E+04  0.00000000000E+00 0.  1.
          3   -1    0    0  502    0 -0.00000000000E+00 -0.00000000000E+00 -0.72920635360E+02  0.72920635360E+02  0.00000000000E+00 0. -1.
        -24    2    1    2    0    0  0.51714301713E+02 -0.47229895154E+02  0.59214238933E+03  0.60148707015E+03  0.79050960203E+02 0.  0.
         23    2    1    2    0    0  0.98537435347E+01 -0.98277508694E+02  0.32618373636E+02  0.13897090721E+03  0.92159588628E+02 0.  0.
         13    1    3    3    0    0 -0.15946067274E+02 -0.16825852216E+02  0.62218617186E+02  0.66396857523E+02  0.00000000000E+00 0. -1.
        -14    1    3    3    0    0  0.67660368987E+02 -0.30404042938E+02  0.52992377215E+03  0.53509021262E+03  0.00000000000E+00 0.  1.
        -11    1    4    4    0    0 -0.24521164022E+02  0.29612034181E+01  0.19061663289E+02  0.31199410540E+02  0.00000000000E+00 0.  1.
         11    1    4    4    0    0  0.34374907557E+02 -0.10123871211E+03  0.13556710347E+02  0.10777149667E+03  0.00000000000E+00 0. -1.
          4    1    1    2  501    0 -0.61568045248E+02  0.14550740385E+03  0.39899017527E+03  0.42913423160E+03  0.00000000000E+00 0. -1.
<scales pt_clust_5="13000.00000" pt_clust_6="13000.00000" pt_clust_7="13000.00000" pt_clust_8="13000.00000" pt_clust_9="144.08534"></scales>
<clustering>
<clus scale="   79.051">  5  6 -1 -1</clus>
<clus scale="   92.160">  7  8 -1 -1</clus>
<clus scale="  105.613">  2  5  1 -1</clus>
<clus scale="  144.085">  1  9  2 -1</clus>
<clus scale="  144.085">  1  5  2 -1</clus>
</clustering>
</event>
<event>
 9    1  0.4664604E-005  0.1183859E+03  0.7546771E-02  0.1255499E+00
          1   -1    0    0  502    0 -0.00000000000E+00  0.00000000000E+00  0.10007641310E+04  0.10007641310E+04  0.00000000000E+00 0. -1.
         21   -1    0    0  501  502  0.00000000000E+00 -0.00000000000E+00 -0.31324809281E+02  0.31324809281E+02  0.00000000000E+00 0.  1.
         23    2    1    2    0    0 -0.21200931661E+02  0.36106848540E+02  0.25489599379E+03  0.27291447784E+03  0.88074744099E+02 0.  0.
        -24    2    1    2    0    0  0.44352037394E+02  0.70570465407E+02  0.17699547495E+03  0.21065489374E+03  0.78107568747E+02 0.  0.
         13    1    4    4    0    0  0.34430010590E+02  0.32814176377E+01  0.10950166004E+03  0.11483382290E+03  0.00000000000E+00 0. -1.
        -14    1    4    4    0    0  0.99220268046E+01  0.67289047769E+02  0.67493814914E+02  0.95821070842E+02  0.00000000000E+00 0.  1.
        -11    1    3    3    0    0 -0.51740350701E+02  0.66055956581E+01  0.17260795883E+03  0.18031695771E+03  0.00000000000E+00 0. -1.
         11    1    3    3    0    0  0.30539419040E+02  0.29501252882E+02  0.82288034959E+02  0.92597520131E+02  0.00000000000E+00 0.  1.
          2    1    1    2  501    0 -0.23151105733E+02 -0.10667731395E+03  0.53754785292E+03  0.54851956865E+03  0.00000000000E+00 0. -1.
<scales pt_clust_5="13000.00000" pt_clust_6="13000.00000" pt_clust_7="13000.00000" pt_clust_8="13000.00000" pt_clust_9="88.96309"></scales>
<clustering>
<clus scale="   78.108">  5  6 -1 -1</clus>
<clus scale="   88.075">  7  8 -1 -1</clus>
<clus scale="   97.521">  1  7  2 -1</clus>
<clus scale="   88.963">  2  9  1 -1</clus>
<clus scale="   88.963">  2  5  1 -1</clus>
</clustering>
</event>
<event>
 9    1  0.4664604E-005  0.1009986E+03  0.7546771E-02  0.1282480E+00
          3   -1    0    0  502    0 -0.00000000000E+00  0.00000000000E+00  0.11910202479E+03  0.11910202479E+03  0.00000000000E+00 0. -1.
         21   -1    0    0  501  502  0.00000000000E+00 -0.00000000000E+00 -0.17565016493E+03  0.17565016493E+03  0.00000000000E+00 0. -1.
         23    2    1    2    0    0 -0.47432345898E+02 -0.29169990349E+02  0.53852133369E+02  0.11973666909E+03  0.91302255623E+02 0.  0.
        -24    2    1    2    0    0  0.20643112230E+02 -0.10418313356E+02 -0.54866740809E+02  0.10174294674E+03  0.82502052274E+02 0.  0.
         13    1    4    4    0    0 -0.29264692697E+02 -0.18769763659E+02 -0.18114239888E+02  0.39202703391E+02  0.00000000000E+00 0. -1.
        -14    1    4    4    0    0  0.49907804926E+02  0.83514503026E+01 -0.36752500921E+02  0.62540243353E+02  0.00000000000E+00 0.  1.
        -13    1    3    3    0    0 -0.35082534458E+02  0.22162884751E+02  0.52502952489E+02  0.66921877623E+02  0.00000000000E+00 0.  1.
         13    1    3    3    0    0 -0.12349811440E+02 -0.51332875100E+02  0.13491808805E+01  0.52814791467E+02  0.00000000000E+00 0. -1.
          4    1    1    2  501    0  0.26789233668E+02  0.39588303705E+02 -0.55533532702E+02  0.73272573895E+02  0.00000000000E+00 0. -1.
<scales pt_clust_5="13000.00000" pt_clust_6="13000.00000" pt_clust_7="13000.00000" pt_clust_8="13000.00000" pt_clust_9="47.80059"></scales>
<clustering>
<clus scale="   47.801">  2  9  1 -1</clus>
<clus scale="   82.502">  5  6 -1 -1</clus>
<clus scale="   91.302">  7  8 -1 -1</clus>
<clus scale="   93.119">  2  5  1 -1</clus>
<clus scale="   47.801">  2  5  1 -1</clus>
</clustering>
</event>
<event>
 9    1  0.4664604E-005  0.1774307E+03  0.7546771E-02  0.1171574E+00
          1   -1    0    0  502    0 -0.00000000000E+00  0.00000000000E+00  0.10160645353E+04  0.10160645353E+04  0.00000000000E+00 0. -1.
         21   -1    0    0  501  502  0.00000000000E+00 -0.00000000000E+00 -0.56697998455E+02  0.56697998455E+02  0.00000000000E+00 0. -1.
         23    2    1    2    0    0  0.55008059737E+02  0.87841354023E+02  0.19092370150E+03  0.23545796349E+03  0.90810806969E+02 0.  0.
        -24    2    1    2    0    0 -0.59383911756E+02 -0.19808951368E+03  0.49724861940E+03  0.54452460588E+03  0.80529202780E+02 0.  0.
         13    1    4    4    0    0 -0.66114928847E+02 -0.15260362990E+03  0.44424959654E+03  0.47435931076E+03  0.00000000000E+00 0. -1.
        -14    1    4    4    0    0  0.67310170904E+01 -0.45485883789E+02  0.52999022859E+02  0.70165295119E+02  0.00000000000E+00 0.  1.
        -11    1    3    3    0    0  0.33478803310E+02  0.94909233562E+02  0.10046150633E+03  0.14220093931E+03  0.00000000000E+00 0. -1.
         11    1    3    3    0    0  0.21529256427E+02 -0.70678795391E+01  0.90462195169E+02  0.93257024177E+02  0.00000000000E+00 0.  1.
          2    1    1    2  501    0  0.43758520191E+01  0.11024815966E+03  0.27119421597E+03  0.29277996442E+03  0.00000000000E+00 0. -1.
<scales pt_clust_5="13000.00000" pt_clust_6="13000.00000" pt_clust_7="13000.00000" pt_clust_8="13000.00000" pt_clust_9="110.33502"></scales>
<clustering>
<clus scale="   80.529">  5  6 -1 -1</clus>
<clus scale="   90.811">  7  8 -1 -1</clus>
<clus scale="  110.335">  2  9  1 -1</clus>
<clus scale="  172.395">  2  5  1 -1</clus>
<clus scale="  110.335">  2  5  1 -1</clus>
</clustering>
</event>
<event>
 9    1  0.4664604E-005  0.1428939E+03  0.7546771E-02  0.1223524E+00
         21   -1    0    0  501  502  0.00000000000E+00  0.00000000000E+00  0.29882889012E+03  0.29882889012E+03  0.00000000000E+00 0. -1.
          1   -1    0    0  502    0 -0.00000000000E+00 -0.00000000000E+00 -0.49404471361E+03  0.49404471361E+03  0.00000000000E+00 0. -1.
        -24    2    1    2    0    0 -0.44763865814E+02 -0.39981853446E+02 -0.15304834472E+03  0.18630346571E+03  0.87651772529E+02 0.  0.
         23    2    1    2    0    0  0.10092227002E+03 -0.54590507859E+02 -0.29572273452E+03  0.33018640911E+03  0.91682609682E+02 0.  0.
         13    1    3    3    0    0 -0.35882218336E+02 -0.56642270956E+02 -0.15340667770E+03  0.16742009800E+03  0.00000000000E+00 0. -1.
        -14    1    3    3    0    0 -0.88816474785E+01  0.16660417509E+02  0.35833298313E+00  0.18883367709E+02  0.00000000000E+00 0.  1.
        -13    1    4    4    0    0  0.19398989763E+02 -0.56852365901E+02 -0.83747535999E+02  0.10306387388E+03  0.00000000000E+00 0.  1.
         13    1    4    4    0    0  0.81523280254E+02  0.22618580419E+01 -0.21197519852E+03  0.22712253524E+03  0.00000000000E+00 0. -1.
          2    1    1    2  501    0 -0.56158404203E+02  0.94572361306E+02  0.25355525575E+03  0.27638372890E+03  0.00000000000E+00 0. -1.
<scales pt_clust_5="13000.00000" pt_clust_6="13000.00000" pt_clust_7="13000.00000" pt_clust_8="13000.00000" pt_clust_9="109.60368"></scales>
<clustering>
<clus scale="   87.652">  5  6 -1 -1</clus>
<clus scale="   91.683">  7  8 -1 -1</clus>
<clus scale="  106.232">  2  5  1 -1</clus>
<clus scale="  109.604">  1  9  2 -1</clus>
<clus scale="  109.604">  1  5  2 -1</clus>
</clustering>
</event>
<event>
 9    1  0.4664604E-005  0.9185541E+02  0.7546771E-02  0.1305120E+00
         21   -1    0    0  501  502  0.00000000000E+00  0.00000000000E+00  0.77273370685E+02  0.77273370685E+02  0.00000000000E+00 0.  1.
          1   -1    0    0  502    0 -0.00000000000E+00 -0.00000000000E+00 -0.40007441979E+03  0.40007441979E+03  0.00000000000E+00 0. -1.
        -24    2    1    2    0    0 -0.14850224721E+02  0.34311253163E+02 -0.29872424267E+02  0.93392962726E+02  0.80200327227E+02 0.  0.
         23    2    1    2    0    0  0.86490813234E+01  0.51074762710E+02 -0.32184991107E+02  0.10951636758E+03  0.90964405801E+02 0.  0.
         13    1    3    3    0    0  0.14649655024E+02  0.15828524979E+02  0.22073644857E+02  0.30860984958E+02  0.00000000000E+00 0. -1.
        -14    1    3    3    0    0 -0.29499879746E+02  0.18482728184E+02 -0.51946069123E+02  0.62531977767E+02  0.00000000000E+00 0.  1.
        -11    1    4    4    0    0  0.84544736442E+01  0.75706222144E+02 -0.10882198867E+02  0.76950194594E+02  0.00000000000E+00 0.  1.
         11    1    4    4    0    0  0.19460767912E+00 -0.24631459434E+02 -0.21302792241E+02  0.32566172990E+02  0.00000000000E+00 0. -1.
          2    1    1    2  501    0  0.62011433979E+01 -0.85386015873E+02 -0.26074363373E+03  0.27443846017E+03  0.00000000000E+00 0. -1.
<scales pt_clust_5="13000.00000" pt_clust_6="13000.00000" pt_clust_7="13000.00000" pt_clust_8="13000.00000" pt_clust_9="85.61094"></scales>
<clustering>
<clus scale="   80.200">  5  6 -1 -1</clus>
<clus scale="   85.611">  1  9  2 -1</clus>
<clus scale="   81.210">  2  5  1 -1</clus>
<clus scale="   90.964">  7  8 -1 -1</clus>
<clus scale="   85.611">  1  5  2 -1</clus>
</clustering>
</event>
<event>
 9    1  0.4664604E-005  0.9102365E+02  0.7546771E-02  0.1307103E+00
         21   -1    0    0  501  502  0.00000000000E+00  0.00000000000E+00  0.52878906941E+03  0.52878906941E+03  0.00000000000E+00 0. -1.
          1   -1    0    0  502    0 -0.00000000000E+00 -0.00000000000E+00 -0.31258168950E+02  0.31258168950E+02  0.00000000000E+00 0. -1.
         23    2    1    2    0    0  0.53942390960E+01  0.41697880415E+02  0.16962926156E+03  0.19672370151E+03  0.90323404007E+02 0.  0.
        -24    2    1    2    0    0 -0.52862463388E+01  0.27922774987E+02  0.20993986179E+03  0.22634898382E+03  0.79696242955E+02 0.  0.
         13    1    4    4    0    0  0.25387437249E+02 -0.13336861363E+02  0.11343209717E+03  0.11700100218E+03  0.00000000000E+00 0. -1.
        -14    1    4    4    0    0 -0.30673683588E+02  0.41259636350E+02  0.96507764620E+02  0.10934798164E+03  0.00000000000E+00 0.  1.
        -11    1    3    3    0    0  0.17240993892E+02 -0.15915698682E+02  0.81068875232E+01  0.24825047034E+02  0.00000000000E+00 0.  1.
         11    1    3    3    0    0 -0.11846754796E+02  0.57613579098E+02  0.16152237404E+03  0.17189865448E+03  0.00000000000E+00 0. -1.
          2    1    1    2  501    0 -0.10799275720E+00 -0.69620655403E+02  0.11796177710E+03  0.13697455303E+03  0.00000000000E+00 0. -1.
<scales pt_clust_5="13000.00000" pt_clust_6="13000.00000" pt_clust_7="13000.00000" pt_clust_8="13000.00000" pt_clust_9="69.62077"></scales>
<clustering>
<clus scale="   69.621">  1  9  2 -1</clus>
<clus scale="   79.696">  5  6 -1 -1</clus>
<clus scale="   80.489">  1  5  2 -1</clus>
<clus scale="   90.323">  7  8 -1 -1</clus>
<clus scale="   69.621">  1  5  2 -1</clus>
</clustering>
</event>
<event>
 9    1  0.4664604E-005  0.1073985E+03  0.7546771E-02  0.1279788E+00
         -4   -1    0    0    0  501 -0.00000000000E+00  0.00000000000E+00  0.24254043504E+03  0.24254043504E+03  0.00000000000E+00 0.  1.
         21   -1    0    0  501  502  0.00000000000E+00 -0.00000000000E+00 -0.12634520205E+03  0.12634520205E+03  0.00000000000E+00 0. -1.
        -24    2    1    2    0    0  0.14299078979E+01 -0.68992354475E+01  0.16346737921E+03  0.18251766335E+03  0.80879350160E+02 0.  0.
         23    2    1    2    0    0  0.41641973307E+02  0.20178231149E+02  0.59105175493E+01  0.11665488744E+03  0.10692153007E+03 0.  0.
         11    1    3    3    0    0 -0.35664652936E+02 -0.43440952759E+01  0.40923872969E+02  0.54457341210E+02  0.00000000000E+00 0. -1.
        -12    1    3    3    0    0  0.37094560834E+02 -0.25551401716E+01  0.12254350624E+03  0.12806032214E+03  0.00000000000E+00 0.  1.
        -11    1    4    4    0    0 -0.19249302758E+02 -0.11331657001E+02 -0.31450057900E+02  0.38575228437E+02  0.00000000000E+00 0. -1.
         11    1    4    4    0    0  0.60891276066E+02  0.31509888150E+02  0.37360575449E+02  0.78079659003E+02  0.00000000000E+00 0.  1.
         -3    1    1    2    0  502 -0.43071881205E+02 -0.13278995702E+02 -0.53182663768E+02  0.69713086310E+02  0.00000000000E+00 0.  1.
<scales pt_clust_5="13000.00000" pt_clust_6="13000.00000" pt_clust_7="13000.00000" pt_clust_8="13000.00000" pt_clust_9="45.07237"></scales>
<clustering>
<clus scale="   45.072">  2  9  1 -1</clus>
<clus scale="   80.879">  5  6 -1 -1</clus>
<clus scale="   81.509">  1  5  2 -1</clus>
<clus scale="  106.922">  7  8 -1 -1</clus>
<clus scale="   45.072">  2  5  1 -1</clus>
</clustering>
</event>
<event>
 9    1  0.4664604E-005  0.9321661E+02  0.7546771E-02  0.1296637E+00
         21   -1    0    0  501  502  0.00000000000E+00  0.00000000000E+00  0.29662874616E+03  0.29662874616E+03  0.00000000000E+00 0. -1.
         -2   -1    0    0    0  501 -0.00000000000E+00 -0.00000000000E+00 -0.38233574392E+03  0.38233574392E+03  0.00000000000E+00 0.  1.
         23    2    1    2    0    0  0.84830434729E+01 -0.32095350056E+02 -0.35011155075E+03  0.36233791604E+03  0.87227254411E+02 0.  0.
        -24    2    1    2    0    0  0.19464383135E+02  0.23687139117E+02  0.27195655425E+03  0.28648044016E+03  0.84680177268E+02 0.  0.
         11    1    4    4    0    0 -0.29211356336E+02  0.14094777499E+02  0.17033162794E+03  0.17339212660E+03  0.00000000000E+00 0. -1.
        -12    1    4    4    0    0  0.48675739471E+02  0.95923616184E+01  0.10162492632E+03  0.11308831356E+03  0.00000000000E+00 0.  1.
        -13    1    3    3    0    0  0.26148831190E+01 -0.61441157215E+02 -0.26735164861E+03  0.27433329625E+03  0.00000000000E+00 0.  1.
         13    1    3    3    0    0  0.58681603539E+01  0.29345807159E+02 -0.82759902137E+02  0.88004619796E+02  0.00000000000E+00 0. -1.
         -1    1    1    2    0  502 -0.27947426608E+02  0.84082109388E+01 -0.75520012660E+01  0.30146133887E+02  0.00000000000E+00 0.  1.
<scales pt_clust_5="13000.00000" pt_clust_6="13000.00000" pt_clust_7="13000.00000" pt_clust_8="13000.00000" pt_clust_9="29.18489"></scales>
<clustering>
<clus scale="   29.185">  1  9  2 -1</clus>
<clus scale="   84.680">  5  6 -1 -1</clus>
<clus scale="   87.227">  7  8 -1 -1</clus>
<clus scale="   90.838">  1  5  2 -1</clus>
<clus scale="   29.185">  1  5  2 -1</clus>
</clustering>
</event>
<event>
 9    1  0.4664604E-005  0.1261900E+03  0.7546771E-02  0.1237911E+00
         21   -1    0    0  501  502  0.00000000000E+00  0.00000000000E+00  0.28888978270E+03  0.28888978270E+03  0.00000000000E+00 0. -1.
          1   -1    0    0  502    0 -0.00000000000E+00 -0.00000000000E+00 -0.16887302137E+03  0.16887302137E+03  0.00000000000E+00 0. -1.
         23    2    1    2    0    0 -0.67450284451E+02  0.25386430397E+02 -0.84159603625E+02  0.14221908145E+03  0.89159500470E+02 0.  0.
        -24    2    1    2    0    0  0.93128273237E+01  0.84153050339E+02  0.10824469402E+03  0.15875804964E+03  0.79490502014E+02 0.  0.
         13    1    4    4    0    0 -0.20229049165E+01  0.95412906012E+02  0.73304923770E+02  0.12033838385E+03  0.00000000000E+00 0. -1.
        -14    1    4    4    0    0  0.11335732240E+02 -0.11259855673E+02  0.34939770246E+02  0.38419665798E+02  0.00000000000E+00 0.  1.
        -13    1    3    3    0    0 -0.24249098303E+02  0.12568005749E+02  0.16516383069E+02  0.31918089647E+02  0.00000000000E+00 0.  1.
         13    1    3    3    0    0 -0.43201186148E+02  0.12818424648E+02 -0.10067598669E+03  0.11030099180E+03  0.00000000000E+00 0. -1.
          2    1    1    2  501    0  0.58137457127E+02 -0.10953948074E+03  0.95931670940E+02  0.15678567298E+03  0.00000000000E+00 0. -1.
<scales pt_clust_5="13000.00000" pt_clust_6="13000.00000" pt_clust_7="13000.00000" pt_clust_8="13000.00000" pt_clust_9="98.00607"></scales>
<clustering>
<clus scale="   79.491">  5  6 -1 -1</clus>
<clus scale="   89.160">  7  8 -1 -1</clus>
<clus scale="  114.645">  2  7  1 -1</clus>
<clus scale="   98.006">  1  9  2 -1</clus>
<clus scale="   98.006">  1  5  2 -1</clus>
</clustering>
</event>
<event>
 9    1  0.4664604E-005  0.1117939E+03  0.7546771E-02  0.1260352E+00
          1   -1    0    0  502    0 -0.00000000000E+00  0.00000000000E+00  0.57166570013E+03  0.57166570013E+03  0.00000000000E+00 0. -1.
         21   -1    0    0  501  502  0.00000000000E+00 -0.00000000000E+00 -0.74745103802E+02  0.74745103802E+02  0.00000000000E+00 0.  1.
         23    2    1    2    0    0 -0.37618372215E+02 -0.54306733694E+02  0.47571851318E+03  0.48884278462E+03  0.91075798353E+02 0.  0.
        -24    2    1    2    0    0  0.55730672774E+02  0.31534380821E+02  0.50491090624E+02  0.11628265331E+03  0.82897407476E+02 0.  0.
         11    1    4    4    0    0  0.35789185568E+02  0.78359202266E+00  0.67094094438E+02  0.76046678616E+02  0.00000000000E+00 0. -1.
        -12    1    4    4    0    0  0.19941487206E+02  0.30750788798E+02 -0.16603003814E+02  0.40235974691E+02  0.00000000000E+00 0.  1.
        -11    1    3    3    0    0 -0.49836103062E+02  0.25833751984E+01  0.15336294923E+03  0.16127772690E+03  0.00000000000E+00 0. -1.
         11    1    3    3    0    0  0.12217730847E+02 -0.56890108893E+02  0.32235556394E+03  0.32756505773E+03  0.00000000000E+00 0.  1.
          2    1    1    2  501    0 -0.18112300559E+02  0.22772352874E+02 -0.29289007474E+02  0.41285366000E+02  0.00000000000E+00 0. -1.
<scales pt_clust_5="13000.00000" pt_clust_6="13000.00000" pt_clust_7="13000.00000" pt_clust_8="13000.00000" pt_clust_9="29.09700"></scales>
<clustering>
<clus scale="   29.097">  2  9  1 -1</clus>
<clus scale="   82.897">  5  6 -1 -1</clus>
<clus scale="   91.076">  7  8 -1 -1</clus>
<clus scale="  105.238">  2  5  1 -1</clus>
<clus scale="   29.097">  2  5  1 -1</clus>
</clustering>
</event>
<event>
 9    1  0.4664604E-005  0.9792022E+02  0.7546771E-02  0.1292022E+00
         21   -1    0    0  501  502  0.00000000000E+00  0.00000000000E+00  0.38427726967E+03  0.38427726967E+03  0.00000000000E+00 0.  1.
         -2   -1    0    0    0  501 -0.00000000000E+00 -0.00000000000E+00 -0.10530584202E+03  0.10530584202E+03  0.00000000000E+00 0.  1.
         23    2    1    2    0    0  0.29292460155E+02  0.20418861508E+02 -0.57005485956E+02  0.11472600012E+03  0.92937890807E+02 0.  0.
        -24    2    1    2    0    0 -0.27761392802E+02  0.32175756471E+02  0.10734650031E+03  0.14025019801E+03  0.79629596740E+02 0.  0.
         11    1    4    4    0    0 -0.42893209971E+02  0.47189027695E+01  0.98712868724E+02  0.10773265966E+03  0.00000000000E+00 0. -1.
        -12    1    4    4    0    0  0.15131817169E+02  0.27456853701E+02  0.86336315891E+01  0.32517538351E+02  0.00000000000E+00 0.  1.
        -11    1    3    3    0    0 -0.25972014239E+02  0.32763539614E+01  0.83116915863E+01  0.27465691980E+02  0.00000000000E+00 0. -1.
         11    1    3    3    0    0  0.55264474394E+02  0.17142507547E+02 -0.65317177542E+02  0.87260308142E+02  0.00000000000E+00 0.  1.
         -1    1    1    2    0  502 -0.15310673532E+01 -0.52594617979E+02  0.22863041329E+03  0.23460691356E+03  0.00000000000E+00 0.  1.
<scales pt_clust_5="13000.00000" pt_clust_6="13000.00000" pt_clust_7="13000.00000" pt_clust_8="13000.00000" pt_clust_9="52.61690"></scales>
<clustering>
<clus scale="   52.617">  1  9  2 -1</clus>
<clus scale="   79.630">  5  6 -1 -1</clus>
<clus scale="   85.392">  1  5  2 -1</clus>
<clus scale="   92.938">  7  8 -1 -1</clus>
<clus scale="   52.617">  1  5  2 -1</clus>
</clustering>
</event>
<event>
 9    1  0.4664604E-005  0.1322345E+03  0.7546771E-02  0.1226583E+00
         -2   -1    0    0    0  501 -0.00000000000E+00  0.00000000000E+00  0.30424280270E+03  0.30424280270E+03  0.00000000000E+00 0.  1.
         21   -1    0    0  501  502  0.00000000000E+00 -0.00000000000E+00 -0.73672909313E+02  0.73672909313E+02  0.00000000000E+00 0. -1.
        -24    2    1    2    0    0  0.70776810613E+02  0.72736166016E+02  0.11623206635E+03  0.17518659291E+03  0.82949034473E+02 0.  0.
         23    2    1    2    0    0 -0.39295465072E+02 -0.78446265412E+02  0.62842372335E+02  0.14210352874E+03  0.92446195091E+02 0.  0.
         11    1    3    3    0    0  0.68977274476E+02  0.17242320066E+02  0.87261589894E+02  0.11255997098E+03  0.00000000000E+00 0. -1.
        -12    1    3    3    0    0  0.17995361371E+01  0.55493845951E+02  0.28970476455E+02  0.62626621933E+02  0.00000000000E+00 0.  1.
        -11    1    4    4    0    0  0.44266238022E+01 -0.77008730246E+02  0.60962088112E+02  0.98317423275E+02  0.00000000000E+00 0.  1.
         11    1    4    4    0    0 -0.43722088874E+02 -0.14375351658E+01  0.18802842227E+01  0.43786105463E+02  0.00000000000E+00 0. -1.
         -1    1    1    2    0  502 -0.31481345541E+02  0.57100993956E+01  0.51495454704E+02  0.60625590367E+02  0.00000000000E+00 0.  1.
<scales pt_clust_5="13000.00000" pt_clust_6="13000.00000" pt_clust_7="13000.00000" pt_clust_8="13000.00000" pt_clust_9="31.99502"></scales>
<clustering>
<clus scale="   31.995">  2  9  1 -1</clus>
<clus scale="   82.949">  5  6 -1 -1</clus>
<clus scale="   92.446">  7  8 -1 -1</clus>
<clus scale="  125.778">  1  5  2 -1</clus>
<clus scale="   31.995">  2  5  1 -1</clus>
</clustering>
</event>
<event>
 9    1  0.4664604E-005  0.1173308E+03  0.7546771E-02  0.1250200E+00
         21   -1    0    0  501  502  0.00000000000E+00  0.00000000000E+00  0.49191801763E+03  0.49191801763E+03  0.00000000000E+00 0.  1.
          3   -1    0    0  502    0 -0.00000000000E+00 -0.00000000000E+00 -0.18131886029E+03  0.18131886029E+03  0.00000000000E+00 0. -1.
        -24    2    1    2    0    0  0.56342888836E+02  0.54967164588E+02 -0.15376093609E+03  0.19031701699E+03  0.79888867716E+02 0.  0.
         23    2    1    2    0    0 -0.30102317552E+02 -0.46825235083E+02  0.34251032708E+03  0.35801099752E+03  0.88089715791E+02 0.  0.
         13    1    3    3    0    0  0.61380593477E+02  0.46314763873E+02 -0.64123658128E+02  0.10012231589E+03  0.00000000000E+00 0. -1.
        -14    1    3    3    0    0 -0.50377046411E+01  0.86524007148E+01 -0.89637277959E+02  0.90194701098E+02  0.00000000000E+00 0.  1.
        -13    1    4    4    0    0  0.11628109938E+02 -0.46853981166E+02  0.27057444049E+03  0.27484729640E+03  0.00000000000E+00 0.  1.
         13    1    4    4    0    0 -0.41730427490E+02  0.28746083661E-01  0.71935886586E+02  0.83163701119E+02  0.00000000000E+00 0. -1.
          4    1    1    2  501    0 -0.26240571284E+02 -0.81419295050E+01  0.12184976635E+03  0.12490886341E+03  0.00000000000E+00 0. -1.
<scales pt_clust_5="13000.00000" pt_clust_6="13000.00000" pt_clust_7="13000.00000" pt_clust_8="13000.00000" pt_clust_9="27.47469"></scales>
<clustering>
<clus scale="   27.475">  1  9  2 -1</clus>
<clus scale="   79.889">  5  6 -1 -1</clus>
<clus scale="   88.090">  7  8 -1 -1</clus>
<clus scale="  111.306">  2  5  1 -1</clus>
<clus scale="   27.475">  1  5  2 -1</clus>
</clustering>
</event>
<event>
 9    1  0.4664604E-005  0.1404251E+03  0.7546771E-02  0.1229543E+00
         21   -1    0    0  501  502  0.00000000000E+00  0.00000000000E+00  0.10881937065E+03  0.10881937065E+03  0.00000000000E+00 0.  1.
          1   -1    0    0  502    0 -0.00000000000E+00 -0.00000000000E+00 -0.56921103148E+03  0.56921103148E+03  0.00000000000E+00 0. -1.
        -24    2    1    2    0    0  0.39596001619E+02 -0.40285082556E+02 -0.40000623045E+03  0.41202275812E+03  0.81037260492E+02 0.  0.
         23    2    1    2    0    0  0.67068267729E+02 -0.44698721084E+02 -0.23639163096E+02  0.12476387814E+03  0.92255552977E+02 0.  0.
         13    1    3    3    0    0  0.42261764433E+02  0.37153860175E+01 -0.97617876956E+02  0.10643829540E+03  0.00000000000E+00 0. -1.
        -14    1    3    3    0    0 -0.26657628144E+01 -0.44000468574E+02 -0.30238835350E+03  0.30558446272E+03  0.00000000000E+00 0.  1.
        -13    1    4    4    0    0  0.20893625718E+02 -0.28037895001E+02  0.34193581490E+02  0.48906729260E+02  0.00000000000E+00 0.  1.
         13    1    4    4    0    0  0.46174642011E+02 -0.16660826083E+02 -0.57832744586E+02  0.75857148885E+02  0.00000000000E+00 0. -1.
          2    1    1    2  501    0 -0.10666426935E+03  0.84983803641E+02 -0.36746267283E+02  0.14124376587E+03  0.00000000000E+00 0. -1.
<scales pt_clust_5="13000.00000" pt_clust_6="13000.00000" pt_clust_7="13000.00000" pt_clust_8="13000.00000" pt_clust_9="105.86845"></scales>
<clustering>
<clus scale="   81.037">  5  6 -1 -1</clus>
<clus scale="   92.256">  7  8 -1 -1</clus>
<clus scale="   98.781">  2  5  1 -1</clus>
<clus scale="  105.868">  1  9  2 -1</clus>
<clus scale="  105.868">  1  5  2 -1</clus>
</clustering>
</event>
<event>
 9    1  0.4664604E-005  0.9763014E+02  0.7546771E-02  0.1285511E+00
         21   -1    0    0  501  502  0.00000000000E+00  0.00000000000E+00  0.27780656511E+03  0.27780656511E+03  0.00000000000E+00 0. -1.
          1   -1    0    0  502    0 -0.00000000000E+00 -0.00000000000E+00 -0.67811447961E+02  0.67811447961E+02  0.00000000000E+00 0. -1.
        -24    2    1    2    0    0  0.19381836665E+02  0.55610762796E+02 -0.49028670580E+01  0.99270517991E+02  0.79764560460E+02 0.  0.
         23    2    1    2    0    0 -0.32811717674E+02 -0.35795194926E+02  0.14655739950E+03  0.17393579746E+03  0.80104216456E+02 0.  0.
         11    1    3    3    0    0  0.36919081789E+02  0.42920706525E+02 -0.31650281882E+02  0.64860974337E+02  0.00000000000E+00 0. -1.
        -12    1    3    3    0    0 -0.17537245123E+02  0.12690056271E+02  0.26747414824E+02  0.34409543653E+02  0.00000000000E+00 0.  1.
        -11    1    4    4    0    0  0.25144341941E+02  0.73848608165E+00  0.38381240923E+02  0.45890118197E+02  0.00000000000E+00 0.  1.
         11    1    4    4    0    0 -0.57956059615E+02 -0.36533681007E+02  0.10817615858E+03  0.12804567926E+03  0.00000000000E+00 0. -1.
          2    1    1    2  501    0  0.13429881008E+02 -0.19815567871E+02  0.68340584704E+02  0.72411697616E+02  0.00000000000E+00 0. -1.
<scales pt_clust_5="13000.00000" pt_clust_6="13000.00000" pt_clust_7="13000.00000" pt_clust_8="13000.00000" pt_clust_9="23.93780"></scales>
<clustering>
<clus scale="   23.938">  1  9  2 -1</clus>
<clus scale="   79.765">  5  6 -1 -1</clus>
<clus scale="   80.104">  7  8 -1 -1</clus>
<clus scale="   97.352">  2  5  1 -1</clus>
<clus scale="   23.938">  1  5  2 -1</clus>
</clustering>
</event>
<event>
 9    1  0.4664604E-005  0.1362622E+03  0.7546771E-02  0.1221965E+00
         21   -1    0    0  501  502  0.00000000000E+00  0.00000000000E+00  0.33528018881E+03  0.33528018881E+03  0.00000000000E+00 0.  1.
         -4   -1    0    0    0  501 -0.00000000000E+00 -0.00000000000E+00 -0.99036384383E+02  0.99036384383E+02  0.00000000000E+00 0.  1.
         23    2    1    2    0    0 -0.87063345530E+02  0.46325585392E+02  0.45247451765E+02  0.14432985551E+03  0.95171893447E+02 0.  0.
        -24    2    1    2    0    0  0.65045033570E+02 -0.75497065057E+02  0.21205457224E+03  0.24780579903E+03  0.80684008353E+02 0.  0.
         13    1    4    4    0    0  0.29446039463E+02  0.11060991071E+02  0.31953925373E+02  0.44838243836E+02  0.00000000000E+00 0. -1.
        -14    1    4    4    0    0  0.35598994107E+02 -0.86558056129E+02  0.18010064686E+03  0.20296755520E+03  0.00000000000E+00 0.  1.
        -13    1    3    3    0    0 -0.10254279680E+03  0.18043958885E+02  0.40608337264E+02  0.11175708785E+03  0.00000000000E+00 0.  1.
         13    1    3    3    0    0  0.15479451274E+02  0.28281626507E+02  0.46391145010E+01  0.32572767659E+02  0.00000000000E+00 0. -1.
         -3    1    1    2    0  502  0.22018311960E+02  0.29171479665E+02 -0.21058219569E+02  0.42180918658E+02  0.00000000000E+00 0.  1.
<scales pt_clust_5="13000.00000" pt_clust_6="13000.00000" pt_clust_7="13000.00000" pt_clust_8="13000.00000" pt_clust_9="36.54836"></scales>
<clustering>
<clus scale="   36.548">  1  9  2 -1</clus>
<clus scale="   80.684">  5  6 -1 -1</clus>
<clus scale="   95.172">  7  8 -1 -1</clus>
<clus scale="  126.569">  1  5  2 -1</clus>
<clus scale="   36.548">  1  5  2 -1</clus>
</clustering>
</event>
<event>
 9    1  0.4664604E-005  0.1018052E+03  0.7546771E-02  0.1284292E+00
         21   -1    0    0  501  502  0.00000000000E+00  0.00000000000E+00  0.72230271365E+02  0.72230271365E+02  0.00000000000E+00 0.  1.
          3   -1    0    0  502    0 -0.00000000000E+00 -0.00000000000E+00 -0.38649100753E+03  0.38649100753E+03  0.00000000000E+00 0. -1.
         23    2    1    2    0    0 -0.29218771880E+02 -0.29468954665E+02 -0.30391781116E+03  0.32010112463E+03  0.91523429378E+02 0.  0.
        -24    2    1    2    0    0  0.19757999036E+02  0.62564064767E+02 -0.21453059909E+02  0.10245072474E+03  0.75705194626E+02 0.  0.
         13    1    4    4    0    0  0.19927602453E+02 -0.88118002605E+01 -0.22150963471E+02  0.31071246291E+02  0.00000000000E+00 0. -1.
        -14    1    4    4    0    0 -0.16960341760E+00  0.71375865027E+02  0.69790356145E+00  0.71379478445E+02  0.00000000000E+00 0.  1.
        -11    1    3    3    0    0 -0.58882717453E+02 -0.14508786793E+02 -0.24567373202E+03  0.25304794390E+03  0.00000000000E+00 0. -1.
         11    1    3    3    0    0  0.29663945574E+02 -0.14960167872E+02 -0.58244079143E+02  0.67053180723E+02  0.00000000000E+00 0.  1.
          4    1    1    2  501    0  0.94607728440E+01 -0.33095110102E+02  0.11110134904E+02  0.36169429537E+02  0.00000000000E+00 0. -1.
<scales pt_clust_5="13000.00000" pt_clust_6="13000.00000" pt_clust_7="13000.00000" pt_clust_8="13000.00000" pt_clust_9="34.42082"></scales>
<clustering>
<clus scale="   34.421">  1  9  2 -1</clus>
<clus scale="   75.705">  5  6 -1 -1</clus>
<clus scale="   87.858">  1  5  2 -1</clus>
<clus scale="   91.523">  7  8 -1 -1</clus>
<clus scale="   34.421">  1  5  2 -1</clus>
</clustering>
</event>
<event>
 9    1  0.4664604E-005  0.1101877E+03  0.7546771E-02  0.1262035E+00
         21   -1    0    0  501  502  0.00000000000E+00  0.00000000000E+00  0.60068363901E+03  0.60068363901E+03  0.00000000000E+00 0. -1.
          3   -1    0    0  502    0 -0.00000000000E+00 -0.00000000000E+00 -0.41538306052E+02  0.41538306052E+02  0.00000000000E+00 0. -1.
         23    2    1    2    0    0  0.22929752264E+01 -0.84108820439E+02  0.93517091265E+02  0.15287168843E+03  0.86860551199E+02 0.  0.
        -24    2    1    2    0    0  0.28690795161E+01  0.23603012125E+02  0.32818139435E+03  0.33908637043E+03  0.81921945899E+02 0.  0.
         13    1    4    4    0    0  0.30517818536E+02 -0.14797483543E+02  0.88449224152E+02  0.94728918607E+02  0.00000000000E+00 0. -1.
        -14    1    4    4    0    0 -0.27648739019E+02  0.38400495668E+02  0.23973217019E+03  0.24435745183E+03  0.00000000000E+00 0.  1.
        -11    1    3    3    0    0 -0.97931250049E+01 -0.28441031231E+02  0.91009765631E+02  0.95851838767E+02  0.00000000000E+00 0. -1.
         11    1    3    3    0    0  0.12086100231E+02 -0.55667789208E+02  0.25073256347E+01  0.57019849666E+02  0.00000000000E+00 0.  1.
          4    1    1    2  501    0 -0.51620547426E+01  0.60505808314E+02  0.13744684734E+03  0.15026388619E+03  0.00000000000E+00 0. -1.
<scales pt_clust_5="13000.00000" pt_clust_6="13000.00000" pt_clust_7="13000.00000" pt_clust_8="13000.00000" pt_clust_9="60.72561"></scales>
<clustering>
<clus scale="   60.726">  1  9  2 -1</clus>
<clus scale="   81.922">  5  6 -1 -1</clus>
<clus scale="   86.861">  7  8 -1 -1</clus>
<clus scale="  106.338">  1  5  2 -1</clus>
<clus scale="   60.726">  1  5  2 -1</clus>
</clustering>
</event>
<event>
 9    1  0.4664604E-005  0.1366676E+03  0.7546771E-02  0.1221550E+00
         21   -1    0    0  501  502  0.00000000000E+00  0.00000000000E+00  0.35251765909E+03  0.35251765909E+03  0.00000000000E+00 0. -1.
          1   -1    0    0  502    0 -0.00000000000E+00 -0.00000000000E+00 -0.70705530349E+02  0.70705530349E+02  0.00000000000E+00 0. -1.
        -24    2    1    2    0    0 -0.87957714156E+02  0.31993390554E+02  0.13058314812E+03  0.17927145358E+03  0.79537154700E+02 0.  0.
         23    2    1    2    0    0  0.84057079135E+02 -0.65817840873E+02  0.15372416659E+03  0.20981181280E+03  0.94827720985E+02 0.  0.
         13    1    3    3    0    0 -0.48350054385E+02  0.11361260261E+02  0.99726044146E+01  0.50658255325E+02  0.00000000000E+00 0. -1.
        -14    1    3    3    0    0 -0.39607659771E+02  0.20632130292E+02  0.12061054371E+03  0.12861319826E+03  0.00000000000E+00 0.  1.
        -11    1    4    4    0    0  0.36747998944E+02 -0.79848498808E+02  0.68923917713E+02  0.11169917019E+03  0.00000000000E+00 0. -1.
         11    1    4    4    0    0  0.47309080191E+02  0.14030657934E+02  0.84800248875E+02  0.98112642610E+02  0.00000000000E+00 0.  1.
          2    1    1    2  501    0  0.39006350212E+01  0.33824450320E+02 -0.24951859722E+01  0.34139923052E+02  0.00000000000E+00 0. -1.
<scales pt_clust_5="13000.00000" pt_clust_6="13000.00000" pt_clust_7="13000.00000" pt_clust_8="13000.00000" pt_clust_9="34.04864"></scales>
<clustering>
<clus scale="   34.049">  1  9  2 -1</clus>
<clus scale="   79.537">  5  6 -1 -1</clus>
<clus scale="   94.828">  7  8 -1 -1</clus>
<clus scale="  126.538">  2  5  1 -1</clus>
<clus scale="   34.049">  1  5  2 -1</clus>
</clustering>
</event>
<event>
 9    1  0.4664604E-005  0.9893341E+02  0.7546771E-02  0.1289314E+00
          1   -1    0    0  502    0 -0.00000000000E+00  0.00000000000E+00  0.66039040575E+03  0.66039040575E+03  0.00000000000E+00 0. -1.
         21   -1    0    0  501  502  0.00000000000E+00 -0.00000000000E+00 -0.30848003350E+02  0.30848003350E+02  0.00000000000E+00 0.  1.
        -24    2    1    2    0    0 -0.13684560329E+02  0.27992902862E+02  0.42093569710E+03  0.42932017439E+03  0.78473442939E+02 0.  0.
         23    2    1    2    0    0  0.25547066927E+02 -0.66897075168E+02  0.13733002723E+03  0.17985351316E+03  0.91432371306E+02 0.  0.
         13    1    3    3    0    0  0.27542875906E+02  0.32314340536E+02  0.18917320078E+03  0.19387967018E+03  0.00000000000E+00 0. -1.
        -14    1    3    3    0    0 -0.41227436235E+02 -0.43214376743E+01  0.23176249632E+03  0.23544050421E+03  0.00000000000E+00 0.  1.
        -11    1    4    4    0    0 -0.28390930465E+02 -0.53360265279E+02  0.74916173767E+02  0.96259004438E+02  0.00000000000E+00 0.  1.
         11    1    4    4    0    0  0.53937997392E+02 -0.13536809889E+02  0.62413853464E+02  0.83594508724E+02  0.00000000000E+00 0. -1.
          2    1    1    2  501    0 -0.11862506599E+02  0.38904172306E+02  0.71276678071E+02  0.82064721546E+02  0.00000000000E+00 0. -1.
<scales pt_clust_5="13000.00000" pt_clust_6="13000.00000" pt_clust_7="13000.00000" pt_clust_8="13000.00000" pt_clust_9="40.67252"></scales>
<clustering>
<clus scale="   40.673">  2  9  1 -1</clus>
<clus scale="   78.473">  5  6 -1 -1</clus>
<clus scale="   87.098">  1  5  2 -1</clus>
<clus scale="   91.432">  7  8 -1 -1</clus>
<clus scale="   40.673">  2  5  1 -1</clus>
</clustering>
</event>
<event>
 9    1  0.4664604E-005  0.1267368E+03  0.7546771E-02  0.1236388E+00
         21   -1    0    0  501  502  0.00000000000E+00  0.00000000000E+00  0.14553662598E+03  0.14553662598E+03  0.00000000000E+00 0.  1.
          1   -1    0    0  502    0 -0.00000000000E+00 -0.00000000000E+00 -0.46970771386E+03  0.46970771386E+03  0.00000000000E+00 0. -1.
         23    2    1    2    0    0  0.76694583214E+02 -0.40083159644E+02 -0.42870167461E+03  0.44733168869E+03  0.93977630895E+02 0.  0.
        -24    2    1    2    0    0 -0.51517629626E+02  0.44948538973E+02  0.89841836102E+02  0.13836082713E+03  0.79985784066E+02 0.  0.
         13    1    4    4    0    0 -0.17070328741E+02  0.29658055764E+02 -0.65695977248E+01  0.34844741487E+02  0.00000000000E+00 0. -1.
        -14    1    4    4    0    0 -0.34447300885E+02  0.15290483209E+02  0.96411433826E+02  0.10351608565E+03  0.00000000000E+00 0.  1.
        -13    1    3    3    0    0  0.21468969362E+02  0.15123859431E+01 -0.11426081393E+02  0.24367176543E+02  0.00000000000E+00 0.  1.
         13    1    3    3    0    0  0.55225613852E+02 -0.41595545587E+02 -0.41727559322E+03  0.42296451214E+03  0.00000000000E+00 0. -1.
          2    1    1    2  501    0 -0.25176953588E+02 -0.48653793290E+01  0.14688750629E+02  0.29551824022E+02  0.00000000000E+00 0. -1.
<scales pt_clust_5="13000.00000" pt_clust_6="13000.00000" pt_clust_7="13000.00000" pt_clust_8="13000.00000" pt_clust_9="25.64276"></scales>
<clustering>
<clus scale="   25.643">  1  9  2 -1</clus>
<clus scale="   79.986">  5  6 -1 -1</clus>
<clus scale="   93.978">  7  8 -1 -1</clus>
<clus scale="  116.740">  1  5  2 -1</clus>
<clus scale="   25.643">  1  5  2 -1</clus>
</clustering>
</event>
<event>
 9    1  0.4664604E-005  0.2382746E+03  0.7546771E-02  0.1155553E+00
         21   -1    0    0  501  502  0.00000000000E+00  0.00000000000E+00  0.32665181333E+03  0.32665181333E+03  0.00000000000E+00 0. -1.
          1   -1    0    0  502    0 -0.00000000000E+00 -0.00000000000E+00 -0.42029924655E+03  0.42029924655E+03  0.00000000000E+00 0. -1.
         23    2    1    2    0    0 -0.37612331806E+02  0.29646130551E+02  0.69452682702E+02  0.12432737922E+03  0.91323827827E+02 0.  0.
        -24    2    1    2    0    0 -0.17479761842E+02 -0.24419670076E+03 -0.27331779403E+03  0.37520698251E+03  0.78358742057E+02 0.  0.
         11    1    4    4    0    0 -0.21402722217E+02 -0.24755682837E+03 -0.27412121768E+03  0.36997959643E+03  0.00000000000E+00 0. -1.
        -12    1    4    4    0    0  0.39229603750E+01  0.33601276106E+01  0.80342365508E+00  0.52273860803E+01  0.00000000000E+00 0.  1.
        -11    1    3    3    0    0 -0.43249603273E+02  0.53532663841E+02  0.24389992857E+02  0.73014697375E+02  0.00000000000E+00 0. -1.
         11    1    3    3    0    0  0.56372714675E+01 -0.23886533289E+02  0.45062689845E+02  0.51312681847E+02  0.00000000000E+00 0.  1.
          2    1    1    2  501    0  0.55092093648E+02  0.21455057021E+03  0.11021767811E+03  0.24741669815E+03  0.00000000000E+00 0. -1.
<scales pt_clust_5="13000.00000" pt_clust_6="13000.00000" pt_clust_7="13000.00000" pt_clust_8="13000.00000" pt_clust_9="225.02149"></scales>
<clustering>
<clus scale="   78.359">  5  6 -1 -1</clus>
<clus scale="   91.324">  7  8 -1 -1</clus>
<clus scale="  103.120">  2  7  1 -1</clus>
<clus scale="  225.021">  1  9  2 -1</clus>
<clus scale="  225.021">  1  5  2 -1</clus>
</clustering>
</event>
<event>
 9    1  0.4664604E-005  0.1257011E+03  0.7546771E-02  0.1235600E+00
         21   -1    0    0  501  502  0.00000000000E+00  0.00000000000E+00  0.44033964968E+03  0.44033964968E+03  0.00000000000E+00 0. -1.
          1   -1    0    0  502    0 -0.00000000000E+00 -0.00000000000E+00 -0.45656742167E+02  0.45656742167E+02  0.00000000000E+00 0. -1.
        -24    2    1    2    0    0  0.48879785713E+02 -0.83202156424E+02  0.15240851578E+03  0.19724384053E+03  0.79780603279E+02 0.  0.
         23    2    1    2    0    0 -0.66095319510E+02  0.58223018593E+02  0.21614784245E+03  0.24871596170E+03  0.85914077149E+02 0.  0.
         13    1    3    3    0    0  0.10609690069E+02 -0.84185024924E+02  0.12066838355E+03  0.14751455092E+03  0.00000000000E+00 0. -1.
        -14    1    3    3    0    0  0.38270095644E+02  0.98286849957E+00  0.31740132235E+02  0.49729289613E+02  0.00000000000E+00 0.  1.
        -13    1    4    4    0    0 -0.30988524798E+02  0.72861338356E+02  0.10684936508E+03  0.13298815780E+03  0.00000000000E+00 0. -1.
         13    1    4    4    0    0 -0.35106794712E+02 -0.14638319763E+02  0.10929847737E+03  0.11572780390E+03  0.00000000000E+00 0.  1.
          2    1    1    2  501    0  0.17215533797E+02  0.24979137831E+02  0.26126549274E+02  0.40036589610E+02  0.00000000000E+00 0. -1.
<scales pt_clust_5="13000.00000" pt_clust_6="13000.00000" pt_clust_7="13000.00000" pt_clust_8="13000.00000" pt_clust_9="30.33699"></scales>
<clustering>
<clus scale="   30.337">  1  9  2 -1</clus>
<clus scale="   79.781">  5  6 -1 -1</clus>
<clus scale="   85.914">  7  8 -1 -1</clus>
<clus scale="  121.592">  2  5  1 -1</clus>
<clus scale="   30.337">  1  5  2 -1</clus>
</clustering>
</event>
<event>
 9    1  0.4664604E-005  0.1242944E+03  0.7546771E-02  0.1239599E+00
         21   -1    0    0  501  502  0.00000000000E+00  0.00000000000E+00  0.12090449083E+03  0.12090449083E+03  0.00000000000E+00 0.  1.
          1   -1    0    0  502    0 -0.00000000000E+00 -0.00000000000E+00 -0.20465279385E+03  0.20465279385E+03  0.00000000000E+00 0. -1.
        -24    2    1    2    0    0  0.71520048032E+01 -0.11471435252E+03 -0.76217553279E+02  0.15811653541E+03  0.77338150338E+02 0.  0.
         23    2    1    2    0    0  0.44680128875E+01  0.52070132870E+02 -0.48320762759E+01  0.10367080411E+03  0.89403717977E+02 0.  0.
         13    1    3    3    0    0  0.26805174645E+02 -0.12134157895E+02 -0.35267506809E+02  0.45929861878E+02  0.00000000000E+00 0. -1.
        -14    1    3    3    0    0 -0.19653169842E+02 -0.10258019462E+03 -0.40950046469E+02  0.11218667354E+03  0.00000000000E+00 0.  1.
        -11    1    4    4    0    0 -0.25257880209E+02 -0.15049606200E+02  0.42360657568E+01  0.29705141180E+02  0.00000000000E+00 0. -1.
         11    1    4    4    0    0  0.29725893096E+02  0.67119739070E+02 -0.90681420327E+01  0.73965662933E+02  0.00000000000E+00 0.  1.
          2    1    1    2  501    0 -0.11620017691E+02  0.62644219646E+02 -0.26986734659E+01  0.63769945152E+02  0.00000000000E+00 0. -1.
<scales pt_clust_5="13000.00000" pt_clust_6="13000.00000" pt_clust_7="13000.00000" pt_clust_8="13000.00000" pt_clust_9="63.71282"></scales>
<clustering>
<clus scale="   63.713">  1  9  2 -1</clus>
<clus scale="   77.338">  5  6 -1 -1</clus>
<clus scale="   89.404">  7  8 -1 -1</clus>
<clus scale="  115.919">  2  5  1 -1</clus>
<clus scale="   63.713">  1  5  2 -1</clus>
</clustering>
</event>
<event>
 9    1  0.4664604E-005  0.2034172E+03  0.7546771E-02  0.1155382E+00
         21   -1    0    0  501  502  0.00000000000E+00  0.00000000000E+00  0.15221423683E+03  0.15221423683E+03  0.00000000000E+00 0. -1.
          1   -1    0    0  502    0 -0.00000000000E+00 -0.00000000000E+00 -0.80339900510E+03  0.80339900510E+03  0.00000000000E+00 0. -1.
         23    2    1    2    0    0  0.39466630985E+02 -0.13385082623E+03 -0.19822904381E+03  0.25881160032E+03  0.90636813756E+02 0.  0.
        -24    2    1    2    0    0 -0.18899704890E+03  0.21519171199E+03 -0.43334121090E+03  0.52545283151E+03  0.79301422945E+02 0.  0.
         13    1    4    4    0    0 -0.12197140365E+03  0.94361308033E+02 -0.18124325571E+03  0.23797100139E+03  0.00000000000E+00 0. -1.
        -14    1    4    4    0    0 -0.67025645249E+02  0.12083040396E+03 -0.25209795519E+03  0.28748183013E+03  0.00000000000E+00 0.  1.
        -11    1    3    3    0    0  0.27833818218E+02 -0.71307513901E+01 -0.77910588749E+01  0.29770281328E+02  0.00000000000E+00 0.  1.
         11    1    3    3    0    0  0.11632812767E+02 -0.12672007484E+03 -0.19043798493E+03  0.22904131899E+03  0.00000000000E+00 0. -1.
          2    1    1    2  501    0  0.14953041791E+03 -0.81340885762E+02 -0.19614513567E+02  0.17134881009E+03  0.00000000000E+00 0. -1.
<scales pt_clust_5="13000.00000" pt_clust_6="13000.00000" pt_clust_7="13000.00000" pt_clust_8="13000.00000" pt_clust_9="187.32288"></scales>
<clustering>
<clus scale="   79.301">  5  6 -1 -1</clus>
<clus scale="   90.637">  7  8 -1 -1</clus>
<clus scale="  166.399">  2  7  1 -1</clus>
<clus scale="  187.323">  1  9  2 -1</clus>
<clus scale="  187.323">  1  5  2 -1</clus>
</clustering>
</event>
<event>
 9    1  0.4664604E-005  0.1348008E+03  0.7546771E-02  0.1231958E+00
         21   -1    0    0  501  502  0.00000000000E+00  0.00000000000E+00  0.54620927312E+02  0.54620927312E+02  0.00000000000E+00 0.  1.
          1   -1    0    0  502    0 -0.00000000000E+00 -0.00000000000E+00 -0.57293594421E+03  0.57293594421E+03  0.00000000000E+00 0. -1.
        -24    2    1    2    0    0  0.62374785455E+02 -0.33085527806E+02 -0.10938914882E+03  0.15249207913E+03  0.79388804672E+02 0.  0.
         23    2    1    2    0    0 -0.36402154791E+02 -0.77537484161E+02 -0.23529501339E+03  0.26755647444E+03  0.94263170765E+02 0.  0.
         11    1    3    3    0    0  0.96034577703E+01 -0.45306246549E+02 -0.75573907783E+02  0.88635759798E+02  0.00000000000E+00 0. -1.
        -12    1    3    3    0    0  0.52771327685E+02  0.12220718742E+02 -0.33815241035E+02  0.63856319331E+02  0.00000000000E+00 0.  1.
        -11    1    4    4    0    0  0.47979437252E+01 -0.76225479707E+02 -0.19701894423E+03  0.21130501273E+03  0.00000000000E+00 0.  1.
         11    1    4    4    0    0 -0.41200098516E+02 -0.13120044539E+01 -0.38276069165E+02  0.56251461707E+02  0.00000000000E+00 0. -1.
          2    1    1    2  501    0 -0.25972630664E+02  0.11062301197E+03 -0.17363085469E+03  0.20750831795E+03  0.00000000000E+00 0. -1.
<scales pt_clust_5="13000.00000" pt_clust_6="13000.00000" pt_clust_7="13000.00000" pt_clust_8="13000.00000" pt_clust_9="96.36239"></scales>
<clustering>
<clus scale="   79.389">  5  6 -1 -1</clus>
<clus scale="   94.263">  7  8 -1 -1</clus>
<clus scale="  106.244">  2  5  1 -1</clus>
<clus scale="   96.362">  1  9  2 -1</clus>
<clus scale="   96.362">  1  5  2 -1</clus>
</clustering>
</event>
<event>
 9    1  0.4664604E-005  0.1627974E+03  0.7546771E-02  0.1209350E+00
          1   -1    0    0  502    0 -0.00000000000E+00  0.00000000000E+00  0.76865514584E+02  0.76865514584E+02  0.00000000000E+00 0. -1.
         21   -1    0    0  501  502  0.00000000000E+00 -0.00000000000E+00 -0.13571598537E+04  0.13571598537E+04  0.00000000000E+00 0. -1.
         23    2    1    2    0    0  0.11258617553E+01 -0.28365418018E+02 -0.73955509624E+00  0.96917410329E+02  0.92663763031E+02 0.  0.
        -24    2    1    2    0    0  0.34790630231E+02  0.16048409641E+03 -0.32610105270E+03  0.37387415594E+03  0.80463996648E+02 0.  0.
         13    1    4    4    0    0  0.43627505978E+02  0.16643013458E+03 -0.31052956860E+03  0.35500839701E+03  0.00000000000E+00 0. -1.
        -14    1    4    4    0    0 -0.88368757469E+01 -0.59460381708E+01 -0.15571484100E+02  0.18865758929E+02  0.00000000000E+00 0.  1.
        -13    1    3    3    0    0  0.45786476251E+02 -0.40812986095E+01 -0.26634897681E+01  0.46045114655E+02  0.00000000000E+00 0.  1.
         13    1    3    3    0    0 -0.44660614495E+02 -0.24284119408E+02  0.19239346719E+01  0.50872295674E+02  0.00000000000E+00 0. -1.
          2    1    1    2  501    0 -0.35916491986E+02 -0.13211867839E+03 -0.95345373130E+03  0.96323380199E+03  0.00000000000E+00 0. -1.
<scales pt_clust_5="13000.00000" pt_clust_6="13000.00000" pt_clust_7="13000.00000" pt_clust_8="13000.00000" pt_clust_9="141.52221"></scales>
<clustering>
<clus scale="   80.464">  5  6 -1 -1</clus>
<clus scale="   92.664">  7  8 -1 -1</clus>
<clus scale="   96.915">  1  7  2 -1</clus>
<clus scale="  141.522">  2  9  1 -1</clus>
<clus scale="  141.522">  2  5  1 -1</clus>
</clustering>
</event>
<event>
 9    1  0.4664604E-005  0.1113319E+03  0.7546771E-02  0.1265959E+00
         21   -1    0    0  501  502  0.00000000000E+00  0.00000000000E+00  0.31886480762E+03  0.31886480762E+03  0.00000000000E+00 0.  1.
          3   -1    0    0  502    0 -0.00000000000E+00 -0.00000000000E+00 -0.15812158750E+03  0.15812158750E+03  0.00000000000E+00 0. -1.
        -24    2    1    2    0    0 -0.45263131033E+02  0.49147381427E+02 -0.12605397176E+03  0.15879936313E+03  0.69738209055E+02 0.  0.
         23    2    1    2    0    0  0.41020931911E+02 -0.27064566562E+02  0.16529881764E+03  0.19462529880E+03  0.90222503857E+02 0.  0.
         13    1    3    3    0    0 -0.39041651271E+02  0.61264644331E+02 -0.12568888235E+03  0.14517335267E+03  0.00000000000E+00 0. -1.
        -14    1    3    3    0    0 -0.62214797621E+01 -0.12117262904E+02 -0.36508940525E+00  0.13626010457E+02  0.00000000000E+00 0.  1.
        -13    1    4    4    0    0  0.38226477366E+02 -0.57841880879E+02  0.13260981452E+03  0.14964060165E+03  0.00000000000E+00 0.  1.
         13    1    4    4    0    0  0.27944545457E+01  0.30777314317E+02  0.32689003121E+02  0.44984697151E+02  0.00000000000E+00 0. -1.
          4    1    1    2  501    0  0.42421991221E+01 -0.22082814865E+02  0.12149837424E+03  0.12356173319E+03  0.00000000000E+00 0. -1.
<scales pt_clust_5="13000.00000" pt_clust_6="13000.00000" pt_clust_7="13000.00000" pt_clust_8="13000.00000" pt_clust_9="22.48660"></scales>
<clustering>
<clus scale="   22.487">  1  9  2 -1</clus>
<clus scale="   69.738">  5  6 -1 -1</clus>
<clus scale="   90.223">  7  8 -1 -1</clus>
<clus scale="   95.489">  2  5  1 -1</clus>
<clus scale="   22.487">  1  5  2 -1</clus>
</clustering>
</event>
<event>
 9    1  0.4664604E-005  0.1257101E+03  0.7546771E-02  0.1237001E+00
         21   -1    0    0  501  502  0.00000000000E+00  0.00000000000E+00  0.81205349764E+03  0.81205349764E+03  0.00000000000E+00 0.  1.
          1   -1    0    0  502    0 -0.00000000000E+00 -0.00000000000E+00 -0.16540523812E+03  0.16540523812E+03  0.00000000000E+00 0. -1.
         23    2    1    2    0    0 -0.62290786082E+02  0.55986352074E+02 -0.11079110507E+03  0.16663391630E+03  0.92073771771E+02 0.  0.
        -24    2    1    2    0    0  0.54890417519E+02 -0.13378675010E+03  0.68307576184E+03  0.70294705158E+03  0.81426092164E+02 0.  0.
         13    1    4    4    0    0  0.11113952798E+02 -0.65210628975E+02  0.15334165875E+03  0.16700182749E+03  0.00000000000E+00 0. -1.
        -14    1    4    4    0    0  0.43776464721E+02 -0.68576121120E+02  0.52973410309E+03  0.53594522409E+03  0.00000000000E+00 0.  1.
        -13    1    3    3    0    0 -0.23232818309E+02  0.51427859729E+02 -0.11397664992E+03  0.12718201653E+03  0.00000000000E+00 0. -1.
         13    1    3    3    0    0 -0.39057967773E+02  0.45584923453E+01  0.31855448470E+01  0.39451899764E+02  0.00000000000E+00 0.  1.
          2    1    1    2  501    0  0.74003685628E+01  0.77800398021E+02  0.74363602759E+02  0.10787776788E+03  0.00000000000E+00 0. -1.
<scales pt_clust_5="13000.00000" pt_clust_6="13000.00000" pt_clust_7="13000.00000" pt_clust_8="13000.00000" pt_clust_9="78.15157"></scales>
<clustering>
<clus scale="   78.152">  1  9  2 -1</clus>
<clus scale="   81.426">  5  6 -1 -1</clus>
<clus scale="   92.074">  7  8 -1 -1</clus>
<clus scale="  118.134">  1  5  2 -1</clus>
<clus scale="   78.152">  1  5  2 -1</clus>
</clustering>
</event>
<event>
 9    1  0.4664604E-005  0.1054973E+03  0.7546771E-02  0.1273517E+00
          3   -1    0    0  502    0 -0.00000000000E+00  0.00000000000E+00  0.25719315844E+03  0.25719315844E+03  0.00000000000E+00 0. -1.
         21   -1    0    0  501  502  0.00000000000E+00 -0.00000000000E+00 -0.10935739139E+03  0.10935739139E+03  0.00000000000E+00 0.  1.
        -24    2    1    2    0    0 -0.46205694909E+01  0.46422348302E+02  0.13655340031E+03  0.16559120137E+03  0.81223338697E+02 0.  0.
         23    2    1    2    0    0 -0.10023375922E+02 -0.66947834473E+02  0.72483298602E+02  0.13476799872E+03  0.91247489261E+02 0.  0.
         11    1    3    3    0    0  0.18491704328E+02  0.33429757980E+02  0.13355117360E+03  0.13890791128E+03  0.00000000000E+00 0. -1.
        -12    1    3    3    0    0 -0.23112273819E+02  0.12992590322E+02  0.30022267114E+01  0.26683290082E+02  0.00000000000E+00 0.  1.
        -13    1    4    4    0    0  0.12889893658E+02 -0.78916163719E+02  0.73896297084E+02  0.10887870764E+03  0.00000000000E+00 0. -1.
         13    1    4    4    0    0 -0.22913269579E+02  0.11968329246E+02 -0.14129984825E+01  0.25889291077E+02  0.00000000000E+00 0.  1.
          4    1    1    2  501    0  0.14643945413E+02  0.20525486171E+02 -0.61200931862E+02  0.66191349742E+02  0.00000000000E+00 0. -1.
<scales pt_clust_5="13000.00000" pt_clust_6="13000.00000" pt_clust_7="13000.00000" pt_clust_8="13000.00000" pt_clust_9="25.21390"></scales>
<clustering>
<clus scale="   25.214">  2  9  1 -1</clus>
<clus scale="   81.223">  5  6 -1 -1</clus>
<clus scale="   91.247">  7  8 -1 -1</clus>
<clus scale="   96.958">  1  5  2 -1</clus>
<clus scale="   25.214">  2  5  1 -1</clus>
</clustering>
</event>
<event>
 9    1  0.4664604E-005  0.2205943E+03  0.7546771E-02  0.1144055E+00
          1   -1    0    0  502    0 -0.00000000000E+00  0.00000000000E+00  0.44896160725E+03  0.44896160725E+03  0.00000000000E+00 0. -1.
         21   -1    0    0  501  502  0.00000000000E+00 -0.00000000000E+00 -0.29427257839E+03  0.29427257839E+03  0.00000000000E+00 0.  1.
        -24    2    1    2    0    0  0.12713642533E+03 -0.39938153606E+02 -0.13226091564E+03  0.21591698895E+03  0.10662302542E+03 0.  0.
         23    2    1    2    0    0  0.54795382842E+02 -0.13747147268E+03  0.18453843109E+03  0.25334370090E+03  0.90706441065E+02 0.  0.
         11    1    3    3    0    0  0.62308277932E+02 -0.25231969985E+02  0.74146307084E+00  0.67227401970E+02  0.00000000000E+00 0. -1.
        -12    1    3    3    0    0  0.64828147394E+02 -0.14706183620E+02 -0.13300237871E+03  0.14868958697E+03  0.00000000000E+00 0.  1.
        -13    1    4    4    0    0  0.53750444454E+02 -0.23203722318E+02  0.73976812799E+02  0.94340298072E+02  0.00000000000E+00 0.  1.
         13    1    4    4    0    0  0.10449383881E+01 -0.11426775036E+03  0.11056161830E+03  0.15900340282E+03  0.00000000000E+00 0. -1.
          2    1    1    2  501    0 -0.18193180817E+03  0.17740962629E+03  0.10241151341E+03  0.27397349580E+03  0.00000000000E+00 0. -1.
<scales pt_clust_5="13000.00000" pt_clust_6="13000.00000" pt_clust_7="13000.00000" pt_clust_8="13000.00000" pt_clust_9="201.08256"></scales>
<clustering>
<clus scale="   90.706">  7  8 -1 -1</clus>
<clus scale="  106.623">  5  6 -1 -1</clus>
<clus scale="  170.667">  1  5  2 -1</clus>
<clus scale="  201.083">  2  9  1 -1</clus>
<clus scale="  201.083">  2  5  1 -1</clus>
</clustering>
</event>
<event>
 9    1  0.4664604E-005  0.1225340E+03  0.7546771E-02  0.1245743E+00
          1   -1    0    0  502    0 -0.00000000000E+00  0.00000000000E+00  0.10777189119E+03  0.10777189119E+03  0.00000000000E+00 0. -1.
         21   -1    0    0  501  502  0.00000000000E+00 -0.00000000000E+00 -0.34951001378E+03  0.34951001378E+03  0.00000000000E+00 0. -1.
         23    2    1    2    0    0 -0.13444675498E+02  0.78212452621E+02  0.10859790365E+02  0.12631529723E+03  0.97671245635E+02 0.  0.
        -24    2    1    2    0    0  0.80027453248E+02 -0.32509889993E+02 -0.20966171810E+03  0.23950346022E+03  0.77088165123E+02 0.  0.
         13    1    4    4    0    0  0.38532620740E+02 -0.55616844094E+02 -0.11081107006E+03  0.12983485455E+03  0.00000000000E+00 0. -1.
        -14    1    4    4    0    0  0.41494832507E+02  0.23106954101E+02 -0.98850648042E+02  0.10966860568E+03  0.00000000000E+00 0.  1.
        -11    1    3    3    0    0 -0.41888260879E+02  0.74164853769E+02  0.31634044846E+02  0.90861238861E+02  0.00000000000E+00 0. -1.
         11    1    3    3    0    0  0.28443585380E+02  0.40475988517E+01 -0.20774254481E+02  0.35454058371E+02  0.00000000000E+00 0.  1.
          2    1    1    2  501    0 -0.66582777749E+02 -0.45702562628E+02 -0.42936194857E+02  0.91463147510E+02  0.00000000000E+00 0. -1.
<scales pt_clust_5="13000.00000" pt_clust_6="13000.00000" pt_clust_7="13000.00000" pt_clust_8="13000.00000" pt_clust_9="80.75888"></scales>
<clustering>
<clus scale="   77.088">  5  6 -1 -1</clus>
<clus scale="   80.759">  2  9  1 -1</clus>
<clus scale="   97.671">  7  8 -1 -1</clus>
<clus scale="  106.853">  2  5  1 -1</clus>
<clus scale="   80.759">  2  5  1 -1</clus>
</clustering>
</event>
<event>
 9    1  0.4664604E-005  0.9712749E+02  0.7546771E-02  0.1290040E+00
         21   -1    0    0  501  502  0.00000000000E+00  0.00000000000E+00  0.14643153852E+03  0.14643153852E+03  0.00000000000E+00 0.  1.
          3   -1    0    0  502    0 -0.00000000000E+00 -0.00000000000E+00 -0.97542890120E+02  0.97542890120E+02  0.00000000000E+00 0. -1.
        -24    2    1    2    0    0 -0.13346207314E+02  0.42190825486E+02  0.60520162119E+01  0.94725704701E+02  0.83535293296E+02 0.  0.
         23    2    1    2    0    0 -0.28348408734E+02 -0.26341628344E+02  0.27506614194E+02  0.10208255482E+03  0.90369909336E+02 0.  0.
         13    1    3    3    0    0  0.28804343784E+02  0.43028480678E+02 -0.19397263605E+01  0.51816048755E+02  0.00000000000E+00 0. -1.
        -14    1    3    3    0    0 -0.42150551098E+02 -0.83765519134E+00  0.79917425724E+01  0.42909655946E+02  0.00000000000E+00 0.  1.
        -13    1    4    4    0    0  0.11155541876E+02 -0.41350049244E+02 -0.11741871752E+02  0.44408830645E+02  0.00000000000E+00 0. -1.
         13    1    4    4    0    0 -0.39503950610E+02  0.15008420900E+02  0.39248485946E+02  0.57673724179E+02  0.00000000000E+00 0.  1.
          4    1    1    2  501    0  0.41694616048E+02 -0.15849197142E+02  0.15330017997E+02  0.47166169117E+02  0.00000000000E+00 0. -1.
<scales pt_clust_5="13000.00000" pt_clust_6="13000.00000" pt_clust_7="13000.00000" pt_clust_8="13000.00000" pt_clust_9="44.60536"></scales>
<clustering>
<clus scale="   44.605">  1  9  2 -1</clus>
<clus scale="   83.535">  5  6 -1 -1</clus>
<clus scale="   90.370">  7  8 -1 -1</clus>
<clus scale="   90.803">  2  5  1 -1</clus>
<clus scale="   44.605">  1  5  2 -1</clus>
</clustering>
</event>
<event>
 9    1  0.4664604E-005  0.9169035E+02  0.7546771E-02  0.1304054E+00
         21   -1    0    0  501  502  0.00000000000E+00  0.00000000000E+00  0.20618382414E+03  0.20618382414E+03  0.00000000000E+00 0. -1.
          1   -1    0    0  502    0 -0.00000000000E+00 -0.00000000000E+00 -0.52273813803E+03  0.52273813803E+03  0.00000000000E+00 0. -1.
         23    2    1    2    0    0 -0.22703153107E+02  0.37667031707E+02 -0.35193991963E+03  0.36598173805E+03  0.90259000180E+02 0.  0.
        -24    2    1    2    0    0 -0.11027814097E+02  0.36012065380E+02 -0.14190499710E+03  0.16800858136E+03  0.81678477418E+02 0.  0.
         13    1    4    4    0    0  0.24665522945E+02  0.46407132500E+02 -0.77368341092E+02  0.93530049569E+02  0.00000000000E+00 0. -1.
        -14    1    4    4    0    0 -0.35693337042E+02 -0.10395067121E+02 -0.64536656006E+02  0.74478531794E+02  0.00000000000E+00 0.  1.
        -13    1    3    3    0    0 -0.50821217082E+02  0.45463714215E+02 -0.20112345046E+03  0.21236851872E+03  0.00000000000E+00 0. -1.
         13    1    3    3    0    0  0.28118063974E+02 -0.77966825080E+01 -0.15081646917E+03  0.15361321933E+03  0.00000000000E+00 0.  1.
          2    1    1    2  501    0  0.33730967205E+02 -0.73679097087E+02  0.17729060284E+03  0.19493164277E+03  0.00000000000E+00 0. -1.
<scales pt_clust_5="13000.00000" pt_clust_6="13000.00000" pt_clust_7="13000.00000" pt_clust_8="13000.00000" pt_clust_9="81.03325"></scales>
<clustering>
<clus scale="   81.033">  1  9  2 -1</clus>
<clus scale="   81.678">  5  6 -1 -1</clus>
<clus scale="   83.257">  1  5  2 -1</clus>
<clus scale="   90.259">  7  8 -1 -1</clus>
<clus scale="   81.033">  1  5  2 -1</clus>
</clustering>
</event>
<event>
 9    1  0.4664604E-005  0.9056419E+02  0.7546771E-02  0.1308283E+00
         -4   -1    0    0    0  501 -0.00000000000E+00  0.00000000000E+00  0.12538197495E+03  0.12538197495E+03  0.00000000000E+00 0.  1.
         21   -1    0    0  501  502  0.00000000000E+00 -0.00000000000E+00 -0.89706405542E+02  0.89706405542E+02  0.00000000000E+00 0.  1.
         23    2    1    2    0    0  0.70667944795E+01  0.17048282186E+02  0.49476024671E+02  0.10435990529E+03  0.90014050604E+02 0.  0.
        -24    2    1    2    0    0 -0.14116291701E+01  0.80353927463E+01 -0.23625836499E+02  0.83201946918E+02  0.79358828035E+02 0.  0.
         13    1    4    4    0    0 -0.28981211167E+02 -0.19362868886E+02 -0.27140437983E+02  0.44175045740E+02  0.00000000000E+00 0. -1.
        -14    1    4    4    0    0  0.27569581996E+02  0.27398261633E+02  0.35146014844E+01  0.39026901178E+02  0.00000000000E+00 0.  1.
        -13    1    3    3    0    0 -0.29399691020E+02 -0.90287679132E+01 -0.76996654401E+01  0.31704027031E+02  0.00000000000E+00 0.  1.
         13    1    3    3    0    0  0.36466485499E+02  0.26077050099E+02  0.57175690112E+02  0.72655878264E+02  0.00000000000E+00 0. -1.
         -3    1    1    2    0  502 -0.56551653093E+01 -0.25083674932E+02  0.98253812363E+01  0.27526528281E+02  0.00000000000E+00 0.  1.
<scales pt_clust_5="13000.00000" pt_clust_6="13000.00000" pt_clust_7="13000.00000" pt_clust_8="13000.00000" pt_clust_9="25.71327"></scales>
<clustering>
<clus scale="   25.713">  2  9  1 -1</clus>
<clus scale="   79.359">  5  6 -1 -1</clus>
<clus scale="   79.982">  2  5  1 -1</clus>
<clus scale="   90.014">  7  8 -1 -1</clus>
<clus scale="   25.713">  2  5  1 -1</clus>
</clustering>
</event>
<event>
 9    1  0.4664604E-005  0.1108710E+03  0.7546771E-02  0.1265647E+00
         21   -1    0    0  501  502  0.00000000000E+00  0.00000000000E+00  0.10189674294E+03  0.10189674294E+03  0.00000000000E+00 0. -1.
          1   -1    0    0  502    0 -0.00000000000E+00 -0.00000000000E+00 -0.22076645103E+03  0.22076645103E+03  0.00000000000E+00 0. -1.
        -24    2    1    2    0    0  0.71118608527E+02  0.35244127285E+01 -0.93909279981E+02  0.14319782229E+03  0.81341167171E+02 0.  0.
         23    2    1    2    0    0 -0.82603841541E+01 -0.28680291106E+02  0.11916946653E+02  0.10236857955E+03  0.97193206643E+02 0.  0.
         13    1    3    3    0    0  0.37660048167E+02 -0.20978203422E+02 -0.92097286075E+02  0.10168713955E+03  0.00000000000E+00 0. -1.
        -14    1    3    3    0    0  0.33458560360E+02  0.24502616151E+02 -0.18119939069E+01  0.41510682739E+02  0.00000000000E+00 0.  1.
        -13    1    4    4    0    0  0.25521297037E+02  0.25018960843E+02  0.15211561755E+02  0.38841686564E+02  0.00000000000E+00 0.  1.
         13    1    4    4    0    0 -0.33781681191E+02 -0.53699251949E+02 -0.32946151027E+01  0.63526892988E+02  0.00000000000E+00 0. -1.
          2    1    1    2  501    0 -0.62858224373E+02  0.25155878378E+02 -0.36877374762E+02  0.77096792136E+02  0.00000000000E+00 0. -1.
<scales pt_clust_5="13000.00000" pt_clust_6="13000.00000" pt_clust_7="13000.00000" pt_clust_8="13000.00000" pt_clust_9="67.70509"></scales>
<clustering>
<clus scale="   67.705">  1  9  2 -1</clus>
<clus scale="   81.341">  5  6 -1 -1</clus>
<clus scale="   97.193">  7  8 -1 -1</clus>
<clus scale="   97.274">  2  5  1 -1</clus>
<clus scale="   67.705">  1  5  2 -1</clus>
</clustering>
</event>
<event>
 9    1  0.4664604E-005  0.9951393E+02  0.7546771E-02  0.1287919E+00
         21   -1    0    0  501  502  0.00000000000E+00  0.00000000000E+00  0.72130060879E+02  0.72130060879E+02  0.00000000000E+00 0. -1.
          1   -1    0    0  502    0 -0.00000000000E+00 -0.00000000000E+00 -0.63134534752E+03  0.63134534752E+03  0.00000000000E+00 0. -1.
        -24    2    1    2    0    0 -0.26861466328E+02  0.37217708341E+02 -0.41081028933E+03  0.42118523028E+03  0.80778760808E+02 0.  0.
         23    2    1    2    0    0  0.10292780900E+02 -0.65659561940E+01 -0.19941742967E+03  0.22051381127E+03  0.93327255299E+02 0.  0.
         13    1    3    3    0    0 -0.39433968007E+02  0.12483625023E+02 -0.88566990597E+02  0.97749631968E+02  0.00000000000E+00 0. -1.
        -14    1    3    3    0    0  0.12572501679E+02  0.24734083318E+02 -0.32224329873E+03  0.32343559831E+03  0.00000000000E+00 0.  1.
        -11    1    4    4    0    0 -0.25464289765E+00 -0.49579227457E+02 -0.97202884121E+02  0.10911720909E+03  0.00000000000E+00 0.  1.
         11    1    4    4    0    0  0.10547423798E+02  0.43013271263E+02 -0.10221454555E+03  0.11139660217E+03  0.00000000000E+00 0. -1.
          2    1    1    2  501    0  0.16568685427E+02 -0.30651752147E+02  0.51012432363E+02  0.61776366857E+02  0.00000000000E+00 0. -1.
<scales pt_clust_5="13000.00000" pt_clust_6="13000.00000" pt_clust_7="13000.00000" pt_clust_8="13000.00000" pt_clust_9="34.84324"></scales>
<clustering>
<clus scale="   34.843">  1  9  2 -1</clus>
<clus scale="   80.779">  5  6 -1 -1</clus>
<clus scale="   87.854">  2  5  1 -1</clus>
<clus scale="   93.327">  7  8 -1 -1</clus>
<clus scale="   34.843">  1  5  2 -1</clus>
</clustering>
</event>
<event>
 9    1  0.4664604E-005  0.2175268E+03  0.7546771E-02  0.1137757E+00
          1   -1    0    0  502    0 -0.00000000000E+00  0.00000000000E+00  0.77823696922E+03  0.77823696922E+03  0.00000000000E+00 0. -1.
         21   -1    0    0  501  502  0.00000000000E+00 -0.00000000000E+00 -0.75179031052E+02  0.75179031052E+02  0.00000000000E+00 0.  1.
        -24    2    1    2    0    0 -0.19119739543E+03 -0.45496924688E+02  0.47114493108E+03  0.51791853116E+03  0.87382175872E+02 0.  0.
         23    2    1    2    0    0  0.16416645751E+03  0.56356924261E+02  0.22673297312E+03  0.30590956708E+03  0.10975469669E+03 0.  0.
         13    1    3    3    0    0 -0.18896680483E+03 -0.22395774455E+02  0.43699722866E+03  0.47663046682E+03  0.00000000000E+00 0. -1.
        -14    1    3    3    0    0 -0.22305905991E+01 -0.23101150233E+02  0.34147702414E+02  0.41288064336E+02  0.00000000000E+00 0.  1.
        -11    1    4    4    0    0  0.63744601340E+02  0.23202431543E+02  0.15353723441E+02  0.69551878860E+02  0.00000000000E+00 0.  1.
         11    1    4    4    0    0  0.10042185617E+03  0.33154492718E+02  0.21137924968E+03  0.23635768822E+03  0.00000000000E+00 0. -1.
          2    1    1    2  501    0  0.27030937917E+02 -0.10859999573E+02  0.51800339796E+01  0.29587902045E+02  0.00000000000E+00 0. -1.
<scales pt_clust_5="13000.00000" pt_clust_6="13000.00000" pt_clust_7="13000.00000" pt_clust_8="13000.00000" pt_clust_9="29.13093"></scales>
<clustering>
<clus scale="   29.131">  2  9  1 -1</clus>
<clus scale="   87.382">  5  6 -1 -1</clus>
<clus scale="  109.755">  7  8 -1 -1</clus>
<clus scale="  207.141">  1  5  2 -1</clus>
<clus scale="   29.131">  2  5  1 -1</clus>
</clustering>
</event>
<event>
 9    1  0.4664604E-005  0.9342596E+02  0.7546771E-02  0.1299460E+00
          1   -1    0    0  502    0 -0.00000000000E+00  0.00000000000E+00  0.40426132137E+03  0.40426132137E+03  0.00000000000E+00 0. -1.
         21   -1    0    0  501  502  0.00000000000E+00 -0.00000000000E+00 -0.12184148889E+03  0.12184148889E+03  0.00000000000E+00 0. -1.
         23    2    1    2    0    0  0.43584141256E+02  0.21274662401E+02  0.24130768378E+03  0.26207141820E+03  0.89999118658E+02 0.  0.
        -24    2    1    2    0    0  0.25591912761E+00  0.12210066019E+01  0.13505741101E+03  0.15794784796E+03  0.81886885724E+02 0.  0.
         13    1    4    4    0    0  0.24010549547E+02  0.24343386137E+02  0.11317368145E+03  0.11822600861E+03  0.00000000000E+00 0. -1.
        -14    1    4    4    0    0 -0.23754630420E+02 -0.23122379535E+02  0.21883729559E+02  0.39721839348E+02  0.00000000000E+00 0.  1.
        -11    1    3    3    0    0  0.18004309215E+02  0.45541985262E+02  0.60394392496E+02  0.77754165271E+02  0.00000000000E+00 0.  1.
         11    1    3    3    0    0  0.25579832041E+02 -0.24267322861E+02  0.18091329128E+03  0.18431725293E+03  0.00000000000E+00 0. -1.
          2    1    1    2  501    0 -0.43840060384E+02 -0.22495669003E+02 -0.93945262314E+02  0.10608354410E+03  0.00000000000E+00 0. -1.
<scales pt_clust_5="13000.00000" pt_clust_6="13000.00000" pt_clust_7="13000.00000" pt_clust_8="13000.00000" pt_clust_9="49.27480"></scales>
<clustering>
<clus scale="   49.275">  2  9  1 -1</clus>
<clus scale="   81.887">  5  6 -1 -1</clus>
<clus scale="   85.639">  2  5  1 -1</clus>
<clus scale="   89.999">  7  8 -1 -1</clus>
<clus scale="   49.275">  2  5  1 -1</clus>
</clustering>
</event>
<event>
 9    1  0.4664604E-005  0.9847280E+02  0.7546771E-02  0.1288580E+00
         21   -1    0    0  501  502  0.00000000000E+00  0.00000000000E+00  0.27694856158E+03  0.27694856158E+03  0.00000000000E+00 0. -1.
          3   -1    0    0  502    0 -0.00000000000E+00 -0.00000000000E+00 -0.80318032622E+02  0.80318032622E+02  0.00000000000E+00 0. -1.
        -24    2    1    2    0    0 -0.56845681624E+01  0.38051487311E+02  0.28375410398E+02  0.93483954258E+02  0.80335893513E+02 0.  0.
         23    2    1    2    0    0  0.79623216968E+02 -0.49020658128E+01  0.11712614212E+03  0.16797042692E+03  0.90175629868E+02 0.  0.
         13    1    3    3    0    0 -0.18489422329E+02  0.29653900352E+02 -0.21689471895E+02  0.41129621142E+02  0.00000000000E+00 0. -1.
        -14    1    3    3    0    0  0.12804854167E+02  0.83975869591E+01  0.50064882294E+02  0.52354333116E+02  0.00000000000E+00 0.  1.
        -13    1    4    4    0    0  0.73628289190E+02 -0.35663605244E+02  0.55581638905E+02  0.98905693928E+02  0.00000000000E+00 0. -1.
         13    1    4    4    0    0  0.59949277785E+01  0.30761539431E+02  0.61544503215E+02  0.69064732992E+02  0.00000000000E+00 0.  1.
          4    1    1    2  501    0 -0.73938648806E+02 -0.33149421498E+02  0.51128976442E+02  0.95812213026E+02  0.00000000000E+00 0. -1.
<scales pt_clust_5="13000.00000" pt_clust_6="13000.00000" pt_clust_7="13000.00000" pt_clust_8="13000.00000" pt_clust_9="81.02971"></scales>
<clustering>
<clus scale="   80.336">  5  6 -1 -1</clus>
<clus scale="   81.030">  1  9  2 -1</clus>
<clus scale="   89.549">  2  5  1 -1</clus>
<clus scale="   90.176">  7  8 -1 -1</clus>
<clus scale="   81.030">  1  5  2 -1</clus>
</clustering>
</event>
<event>
 9    1  0.4664604E-005  0.1049186E+03  0.7546771E-02  0.1276282E+00
         21   -1    0    0  501  502  0.00000000000E+00  0.00000000000E+00  0.98530486521E+02  0.98530486521E+02  0.00000000000E+00 0.  1.
          3   -1    0    0  502    0 -0.00000000000E+00 -0.00000000000E+00 -0.33867017173E+03  0.33867017173E+03  0.00000000000E+00 0. -1.
         23    2    1    2    0    0 -0.12964840678E+02 -0.47856339408E+02 -0.24373244381E+03  0.26609008673E+03  0.94552174885E+02 0.  0.
        -24    2    1    2    0    0  0.63364203166E+02  0.29284600408E+01 -0.12648526980E+01  0.10341857442E+03  0.81671314195E+02 0.  0.
         11    1    4    4    0    0 -0.40649350953E+01 -0.28288796279E+02 -0.50291108287E+01  0.29018470807E+02  0.00000000000E+00 0. -1.
        -12    1    4    4    0    0  0.67429138261E+02  0.31217256320E+02  0.37642581307E+01  0.74400103616E+02  0.00000000000E+00 0.  1.
        -11    1    3    3    0    0  0.36882209545E+02 -0.37022150890E+02 -0.89486596098E+02  0.10362812320E+03  0.00000000000E+00 0.  1.
         11    1    3    3    0    0 -0.49847050223E+02 -0.10834188518E+02 -0.15424584771E+03  0.16246196353E+03  0.00000000000E+00 0. -1.
          4    1    1    2  501    0 -0.50399362489E+02  0.44927879367E+02  0.48576112982E+01  0.67691997099E+02  0.00000000000E+00 0. -1.
<scales pt_clust_5="13000.00000" pt_clust_6="13000.00000" pt_clust_7="13000.00000" pt_clust_8="13000.00000" pt_clust_9="67.51748"></scales>
<clustering>
<clus scale="   67.517">  1  9  2 -1</clus>
<clus scale="   81.671">  5  6 -1 -1</clus>
<clus scale="   93.477">  1  5  2 -1</clus>
<clus scale="   94.552">  7  8 -1 -1</clus>
<clus scale="   67.517">  1  5  2 -1</clus>
</clustering>
</event>
<event>
 9    1  0.4664604E-005  0.1020531E+03  0.7546771E-02  0.1280416E+00
         21   -1    0    0  501  502  0.00000000000E+00  0.00000000000E+00  0.60951568102E+03  0.60951568102E+03  0.00000000000E+00 0.  1.
         -4   -1    0    0    0  501 -0.00000000000E+00 -0.00000000000E+00 -0.71977276686E+02  0.71977276686E+02  0.00000000000E+00 0.  1.
         23    2    1    2    0    0 -0.11425371357E+02 -0.50816081807E+02 -0.19223252049E+02  0.10669468114E+03  0.91112064428E+02 0.  0.
        -24    2    1    2    0    0  0.21320380051E+02 -0.63821860662E+01  0.33023668104E+03  0.34095406026E+03  0.81842011200E+02 0.  0.
         13    1    4    4    0    0 -0.67062116496E+01 -0.36923276511E+02  0.95931803876E+02  0.10301074030E+03  0.00000000000E+00 0. -1.
        -14    1    4    4    0    0  0.28026591700E+02  0.30541090445E+02  0.23430487716E+03  0.23794331995E+03  0.00000000000E+00 0.  1.
        -11    1    3    3    0    0  0.21791996998E+02  0.12570337271E+02  0.12877592166E+02  0.28261933626E+02  0.00000000000E+00 0. -1.
         11    1    3    3    0    0 -0.33217368355E+02 -0.63386419079E+02 -0.32100844215E+02  0.78432747519E+02  0.00000000000E+00 0.  1.
         -3    1    1    2    0  502 -0.98950086938E+01  0.57198267874E+02  0.22652497535E+03  0.23384421631E+03  0.00000000000E+00 0.  1.
<scales pt_clust_5="13000.00000" pt_clust_6="13000.00000" pt_clust_7="13000.00000" pt_clust_8="13000.00000" pt_clust_9="58.04785"></scales>
<clustering>
<clus scale="   58.048">  1  9  2 -1</clus>
<clus scale="   81.842">  5  6 -1 -1</clus>
<clus scale="   91.112">  7  8 -1 -1</clus>
<clus scale="   93.870">  1  5  2 -1</clus>
<clus scale="   58.048">  1  5  2 -1</clus>
</clustering>
</event>
<event>
 9    1  0.4664604E-005  0.2184440E+03  0.7546771E-02  0.1135048E+00
          1   -1    0    0  502    0 -0.00000000000E+00  0.00000000000E+00  0.11998643104E+03  0.11998643104E+03  0.00000000000E+00 0. -1.
         21   -1    0    0  501  502  0.00000000000E+00 -0.00000000000E+00 -0.35348054434E+03  0.35348054434E+03  0.00000000000E+00 0. -1.
        -24    2    1    2    0    0  0.69647279015E+02 -0.52851480225E+02  0.44941364572E+01  0.11615883557E+03  0.76345631061E+02 0.  0.
         23    2    1    2    0    0  0.34704226718E+02 -0.26479517968E+02 -0.19862183518E+02  0.10282508576E+03  0.90955723867E+02 0.  0.
         13    1    3    3    0    0  0.18707444336E+02 -0.50925238276E+02  0.26805816310E+02  0.60513636108E+02  0.00000000000E+00 0. -1.
        -14    1    3    3    0    0  0.50939834679E+02 -0.19262419490E+01 -0.22311679852E+02  0.55645199460E+02  0.00000000000E+00 0.  1.
        -13    1    4    4    0    0  0.15120046150E+00 -0.54500447823E+02 -0.10139805893E+01  0.54510089260E+02  0.00000000000E+00 0. -1.
         13    1    4    4    0    0  0.34553026257E+02  0.28020929855E+02 -0.18848202929E+02  0.48314996503E+02  0.00000000000E+00 0.  1.
          2    1    1    2  501    0 -0.10435150573E+03  0.79330998192E+02 -0.21812606624E+03  0.25448305405E+03  0.00000000000E+00 0. -1.
<scales pt_clust_5="13000.00000" pt_clust_6="13000.00000" pt_clust_7="13000.00000" pt_clust_8="13000.00000" pt_clust_9="131.08258"></scales>
<clustering>
<clus scale="   76.346">  5  6 -1 -1</clus>
<clus scale="   90.956">  7  8 -1 -1</clus>
<clus scale="   90.956">  5  7 -1 -1</clus>
<clus scale="  131.083">  2  9  1 -1</clus>
<clus scale="  131.083">  2  5  1 -1</clus>
</clustering>
</event>
<event>
 9    1  0.4664604E-005  0.9639139E+02  0.7546771E-02  0.1294533E+00
          1   -1    0    0  502    0 -0.00000000000E+00  0.00000000000E+00  0.29911316587E+03  0.29911316587E+03  0.00000000000E+00 0. -1.
         21   -1    0    0  501  502  0.00000000000E+00 -0.00000000000E+00 -0.95943244716E+02  0.95943244716E+02  0.00000000000E+00 0. -1.
         23    2    1    2    0    0  0.17085529250E+02 -0.28159954002E+02  0.24841030520E+03  0.26708193710E+03  0.92413110950E+02 0.  0.
        -24    2    1    2    0    0  0.10724592478E+01 -0.12149668305E+01 -0.15499416993E+02  0.82399001558E+02  0.80911910232E+02 0.  0.
         11    1    4    4    0    0  0.37749433860E+02  0.15002829105E+02 -0.48753459481E+01  0.40913000819E+02  0.00000000000E+00 0. -1.
        -12    1    4    4    0    0 -0.36676974612E+02 -0.16217795936E+02 -0.10624071045E+02  0.41486000739E+02  0.00000000000E+00 0.  1.
        -11    1    3    3    0    0 -0.58198496454E+01  0.28289878289E+02  0.36253839323E+02  0.46352224641E+02  0.00000000000E+00 0.  1.
         11    1    3    3    0    0  0.22905378896E+02 -0.56449832291E+02  0.21215646588E+03  0.22072971246E+03  0.00000000000E+00 0. -1.
          2    1    1    2  501    0 -0.18157988498E+02  0.29374920832E+02 -0.29740967055E+02  0.45575471929E+02  0.00000000000E+00 0. -1.
<scales pt_clust_5="13000.00000" pt_clust_6="13000.00000" pt_clust_7="13000.00000" pt_clust_8="13000.00000" pt_clust_9="34.53402"></scales>
<clustering>
<clus scale="   34.534">  2  9  1 -1</clus>
<clus scale="   80.912">  5  6 -1 -1</clus>
<clus scale="   85.427">  2  5  1 -1</clus>
<clus scale="   92.413">  7  8 -1 -1</clus>
<clus scale="   34.534">  2  5  1 -1</clus>
</clustering>
</event>
<event>
 9    1  0.4664604E-005  0.9912472E+02  0.7546771E-02  0.1288431E+00
         21   -1    0    0  501  502  0.00000000000E+00  0.00000000000E+00  0.20039504594E+03  0.20039504594E+03  0.00000000000E+00 0.  1.
          1   -1    0    0  502    0 -0.00000000000E+00 -0.00000000000E+00 -0.11939949376E+03  0.11939949376E+03  0.00000000000E+00 0. -1.
         23    2    1    2    0    0  0.33889013814E+02  0.66386213955E+01 -0.74534945617E+02  0.12346923850E+03  0.92177319266E+02 0.  0.
        -24    2    1    2    0    0 -0.49316448298E+02  0.12461601357E+02  0.11736293594E+03  0.15094262804E+03  0.80138721266E+02 0.  0.
         11    1    4    4    0    0  0.22120123262E+01 -0.22089703052E+02  0.52557948827E+01  0.22813841398E+02  0.00000000000E+00 0. -1.
        -12    1    4    4    0    0 -0.51528460624E+02  0.34551304409E+02  0.11210714105E+03  0.12812878664E+03  0.00000000000E+00 0.  1.
        -11    1    3    3    0    0 -0.30672331862E+02 -0.55419834102E+01 -0.14135670644E+02  0.34224592130E+02  0.00000000000E+00 0.  1.
         11    1    3    3    0    0  0.64561345675E+02  0.12180604806E+02 -0.60399274974E+02  0.89244646372E+02  0.00000000000E+00 0. -1.
          2    1    1    2  501    0  0.15427434484E+02 -0.19100222752E+02  0.38167561866E+02  0.45382673156E+02  0.00000000000E+00 0. -1.
<scales pt_clust_5="13000.00000" pt_clust_6="13000.00000" pt_clust_7="13000.00000" pt_clust_8="13000.00000" pt_clust_9="24.55248"></scales>
<clustering>
<clus scale="   24.552">  1  9  2 -1</clus>
<clus scale="   80.139">  5  6 -1 -1</clus>
<clus scale="   88.041">  1  5  2 -1</clus>
<clus scale="   92.177">  7  8 -1 -1</clus>
<clus scale="   24.552">  1  5  2 -1</clus>
</clustering>
</event>
<event>
 9    1  0.4664604E-005  0.3007779E+03  0.7546771E-02  0.1132555E+00
          1   -1    0    0  502    0 -0.00000000000E+00  0.00000000000E+00  0.59283477732E+03  0.59283477732E+03  0.00000000000E+00 0. -1.
         21   -1    0    0  501  502  0.00000000000E+00 -0.00000000000E+00 -0.33954087037E+03  0.33954087037E+03  0.00000000000E+00 0. -1.
         23    2    1    2    0    0 -0.15990007336E+01  0.58005392468E+00  0.11552421212E+03  0.14578783150E+03  0.88912063095E+02 0.  0.
        -24    2    1    2    0    0 -0.28737262870E+03  0.12015736439E+02  0.32506762309E+03  0.44199563625E+03  0.83449249428E+02 0.  0.
         13    1    4    4    0    0 -0.16852599111E+03  0.44087690121E+02  0.16378072905E+03  0.23910010729E+03  0.00000000000E+00 0. -1.
        -14    1    4    4    0    0 -0.11884663760E+03 -0.32071953682E+02  0.16128689404E+03  0.20289552896E+03  0.00000000000E+00 0.  1.
        -13    1    3    3    0    0  0.24398329730E+02  0.17920504861E+02  0.46915243120E+01  0.30633860162E+02  0.00000000000E+00 0.  1.
         13    1    3    3    0    0 -0.25997330463E+02 -0.17340450937E+02  0.11083268780E+03  0.11515397134E+03  0.00000000000E+00 0. -1.
          2    1    1    2  501    0  0.28897162944E+03 -0.12595790364E+02 -0.18729792825E+03  0.34459217995E+03  0.00000000000E+00 0. -1.
<scales pt_clust_5="13000.00000" pt_clust_6="13000.00000" pt_clust_7="13000.00000" pt_clust_8="13000.00000" pt_clust_9="288.96989"></scales>
<clustering>
<clus scale="   83.449">  5  6 -1 -1</clus>
<clus scale="   88.912">  7  8 -1 -1</clus>
<clus scale="   88.928">  1  7  2 -1</clus>
<clus scale="  288.970">  2  9  1 -1</clus>
<clus scale="  288.970">  2  5  1 -1</clus>
</clustering>
</event>
<event>
 9    1  0.4664604E-005  0.2053429E+03  0.7546771E-02  0.1145308E+00
         -2   -1    0    0    0  501 -0.00000000000E+00  0.00000000000E+00  0.62386384819E+03  0.62386384819E+03  0.00000000000E+00 0.  1.
         21   -1    0    0  501  502  0.00000000000E+00 -0.00000000000E+00 -0.39088286043E+02  0.39088286043E+02  0.00000000000E+00 0. -1.
        -24    2    1    2    0    0  0.52940400142E+02 -0.77943813938E+02  0.19979113117E+03  0.23490205425E+03  0.79903409794E+02 0.  0.
         23    2    1    2    0    0 -0.58320451251E+01 -0.15125691990E+02  0.14549890688E+03  0.16683284032E+03  0.80002908683E+02 0.  0.
         13    1    3    3    0    0  0.65332668242E+02 -0.57145803693E+02  0.18981100055E+03  0.20871563513E+03  0.00000000000E+00 0. -1.
        -14    1    3    3    0    0 -0.12392268100E+02 -0.20798010246E+02  0.99801306226E+01  0.26186419116E+02  0.00000000000E+00 0.  1.
        -11    1    4    4    0    0 -0.48259580231E+01  0.33066356711E+02  0.58315132507E+02  0.67211074209E+02  0.00000000000E+00 0.  1.
         11    1    4    4    0    0 -0.10060871020E+01 -0.48192048702E+02  0.87183774376E+02  0.99621766115E+02  0.00000000000E+00 0. -1.
         -1    1    1    2    0  502 -0.47108355017E+02  0.93069505929E+02  0.23948552409E+03  0.26121723966E+03  0.00000000000E+00 0.  1.
<scales pt_clust_5="13000.00000" pt_clust_6="13000.00000" pt_clust_7="13000.00000" pt_clust_8="13000.00000" pt_clust_9="104.31271"></scales>
<clustering>
<clus scale="   79.903">  5  6 -1 -1</clus>
<clus scale="   80.003">  7  8 -1 -1</clus>
<clus scale="   81.408">  5  7 -1 -1</clus>
<clus scale="  104.313">  2  9  1 -1</clus>
<clus scale="  104.313">  2  5  1 -1</clus>
</clustering>
</event>
<event>
 9    1  0.4664604E-005  0.2509035E+03  0.7546771E-02  0.1113438E+00
          3   -1    0    0  502    0 -0.00000000000E+00  0.00000000000E+00  0.79971513803E+03  0.79971513803E+03  0.00000000000E+00 0. -1.
         21   -1    0    0  501  502  0.00000000000E+00 -0.00000000000E+00 -0.25657586616E+03  0.25657586616E+03  0.00000000000E+00 0. -1.
         23    2    1    2    0    0 -0.26270570659E+03 -0.20117159518E+02  0.68047714491E+03  0.73537876315E+03  0.91179998696E+02 0.  0.
        -24    2    1    2    0    0  0.12431080205E+03  0.18022348397E+02 -0.45429954250E+02  0.15476590985E+03  0.78170490336E+02 0.  0.
         11    1    4    4    0    0  0.66438286775E+02  0.14750875255E+02  0.16410196609E+02  0.70006634136E+02  0.00000000000E+00 0. -1.
        -12    1    4    4    0    0  0.57872515280E+02  0.32714731420E+01 -0.61840150858E+02  0.84759275714E+02  0.00000000000E+00 0.  1.
        -11    1    3    3    0    0 -0.25230771877E+03 -0.38829295385E+02  0.64811258882E+03  0.69657506912E+03  0.00000000000E+00 0. -1.
         11    1    3    3    0    0 -0.10397987821E+02  0.18712135867E+02  0.32364556088E+02  0.38803694028E+02  0.00000000000E+00 0.  1.
          4    1    1    2  501    0  0.13839490453E+03  0.20948111218E+01 -0.91907918787E+02  0.16614633120E+03  0.00000000000E+00 0. -1.
<scales pt_clust_5="13000.00000" pt_clust_6="13000.00000" pt_clust_7="13000.00000" pt_clust_8="13000.00000" pt_clust_9="138.41076"></scales>
<clustering>
<clus scale="   78.170">  5  6 -1 -1</clus>
<clus scale="   91.180">  7  8 -1 -1</clus>
<clus scale="  138.411">  2  9  1 -1</clus>
<clus scale="  246.474">  2  5  1 -1</clus>
<clus scale="  138.411">  2  5  1 -1</clus>
</clustering>
</event>
<event>
 9    1  0.4664604E-005  0.1504385E+03  0.7546771E-02  0.1200348E+00
         -4   -1    0    0    0  501 -0.00000000000E+00  0.00000000000E+00  0.76975790849E+02  0.76975790849E+02  0.00000000000E+00 0.  1.
         21   -1    0    0  501  502  0.00000000000E+00 -0.00000000000E+00 -0.86039788369E+03  0.86039788369E+03  0.00000000000E+00 0.  1.
        -24    2    1    2    0    0 -0.72446113956E+02 -0.68215254470E+02 -0.95882917057E+02  0.16729693294E+03  0.94302543004E+02 0.  0.
         23    2    1    2    0    0  0.19344885489E+03  0.26325866771E+02 -0.38184766931E+03  0.43865000574E+03  0.92144854754E+02 0.  0.
         13    1    3    3    0    0 -0.14040163795E+02  0.20828119637E+02 -0.39478606479E+02  0.46792062752E+02  0.00000000000E+00 0. -1.
        -14    1    3    3    0    0 -0.58405950161E+02 -0.89043374108E+02 -0.56404310578E+02  0.12050487019E+03  0.00000000000E+00 0.  1.
        -11    1    4    4    0    0  0.56796601114E+02  0.38234441565E+02 -0.69749013573E+02  0.97737665791E+02  0.00000000000E+00 0. -1.
         11    1    4    4    0    0  0.13665225377E+03 -0.11908574794E+02 -0.31209865574E+03  0.34091233995E+03  0.00000000000E+00 0.  1.
         -3    1    1    2    0  502 -0.12100274093E+03  0.41889387699E+02 -0.30569150647E+03  0.33142673586E+03  0.00000000000E+00 0.  1.
<scales pt_clust_5="13000.00000" pt_clust_6="13000.00000" pt_clust_7="13000.00000" pt_clust_8="13000.00000" pt_clust_9="128.04837"></scales>
<clustering>
<clus scale="   92.145">  7  8 -1 -1</clus>
<clus scale="   94.303">  5  6 -1 -1</clus>
<clus scale="  128.048">  2  9  1 -1</clus>
<clus scale="  149.095">  2  7  1 -1</clus>
<clus scale="  128.048">  2  5  1 -1</clus>
</clustering>
</event>
<event>
 9    1  0.4664604E-005  0.9196292E+02  0.7546771E-02  0.1304953E+00
         21   -1    0    0  501  502  0.00000000000E+00  0.00000000000E+00  0.41760094793E+02  0.41760094793E+02  0.00000000000E+00 0.  1.
         -2   -1    0    0    0  501 -0.00000000000E+00 -0.00000000000E+00 -0.28230628513E+03  0.28230628513E+03  0.00000000000E+00 0.  1.
        -24    2    1    2    0    0 -0.98146056717E+01  0.79733889205E+01 -0.10279396132E+03  0.13049227179E+03  0.79383456070E+02 0.  0.
         23    2    1    2    0    0  0.23405472674E+02  0.27961635685E+02 -0.10229830164E+03  0.14129582750E+03  0.90387494320E+02 0.  0.
         13    1    3    3    0    0  0.74890784296E+01 -0.28600612193E+02 -0.77070886350E+02  0.82546973514E+02  0.00000000000E+00 0. -1.
        -14    1    3    3    0    0 -0.17303684101E+02  0.36574001113E+02 -0.25723074974E+02  0.47945298279E+02  0.00000000000E+00 0.  1.
        -13    1    4    4    0    0  0.52753560308E+02 -0.50260080048E+01 -0.50074359631E+02  0.72908438291E+02  0.00000000000E+00 0.  1.
         13    1    4    4    0    0 -0.29348087634E+02  0.32987643689E+02 -0.52223942009E+02  0.68387389209E+02  0.00000000000E+00 0. -1.
         -1    1    1    2    0  502 -0.13590867002E+02 -0.35935024605E+02 -0.35453927371E+02  0.52278280626E+02  0.00000000000E+00 0.  1.
<scales pt_clust_5="13000.00000" pt_clust_6="13000.00000" pt_clust_7="13000.00000" pt_clust_8="13000.00000" pt_clust_9="38.41924"></scales>
<clustering>
<clus scale="   38.419">  1  9  2 -1</clus>
<clus scale="   79.383">  5  6 -1 -1</clus>
<clus scale="   81.173">  2  5  1 -1</clus>
<clus scale="   90.387">  7  8 -1 -1</clus>
<clus scale="   38.419">  1  5  2 -1</clus>
</clustering>
</event>
<event>
 9    1  0.4664604E-005  0.1198932E+03  0.7546771E-02  0.1246428E+00
         21   -1    0    0  501  502  0.00000000000E+00  0.00000000000E+00  0.11036511984E+03  0.11036511984E+03  0.00000000000E+00 0.  1.
          1   -1    0    0  502    0 -0.00000000000E+00 -0.00000000000E+00 -0.20152868497E+03  0.20152868497E+03  0.00000000000E+00 0. -1.
         23    2    1    2    0    0  0.14253127137E+02  0.85233001547E+02 -0.57823085499E+02  0.13895030406E+03  0.92172998186E+02 0.  0.
        -24    2    1    2    0    0  0.39543435566E+02 -0.65348381872E+02 -0.23710717940E+02  0.11478681095E+03  0.82339052179E+02 0.  0.
         13    1    4    4    0    0  0.20248955421E+02 -0.42292982043E+02 -0.54404015480E+02  0.71822791829E+02  0.00000000000E+00 0. -1.
        -14    1    4    4    0    0  0.19294480144E+02 -0.23055399829E+02  0.30693297540E+02  0.42964019123E+02  0.00000000000E+00 0.  1.
        -13    1    3    3    0    0 -0.22088161917E+02  0.86359188356E+02 -0.48215431606E+02  0.10134359455E+03  0.00000000000E+00 0. -1.
         13    1    3    3    0    0  0.36341289055E+02 -0.11261868087E+01 -0.96076538932E+01  0.37606709510E+02  0.00000000000E+00 0.  1.
          2    1    1    2  501    0 -0.53796562703E+02 -0.19884619675E+02 -0.96297616872E+01  0.58156689800E+02  0.00000000000E+00 0. -1.
<scales pt_clust_5="13000.00000" pt_clust_6="13000.00000" pt_clust_7="13000.00000" pt_clust_8="13000.00000" pt_clust_9="57.35389"></scales>
<clustering>
<clus scale="   57.354">  1  9  2 -1</clus>
<clus scale="   82.339">  5  6 -1 -1</clus>
<clus scale="   92.173">  7  8 -1 -1</clus>
<clus scale="  112.509">  1  5  2 -1</clus>
<clus scale="   57.354">  1  5  2 -1</clus>
</clustering>
</event>
<event>
 9    1  0.4664604E-005  0.9159194E+02  0.7546771E-02  0.1300328E+00
          1   -1    0    0  502    0 -0.00000000000E+00  0.00000000000E+00  0.57432399841E+03  0.57432399841E+03  0.00000000000E+00 0. -1.
         21   -1    0    0  501  502  0.00000000000E+00 -0.00000000000E+00 -0.41354270647E+02  0.41354270647E+02  0.00000000000E+00 0. -1.
         23    2    1    2    0    0  0.91821572193E+01 -0.28868852258E+02  0.15277192325E+03  0.17997089613E+03  0.90180598138E+02 0.  0.
        -24    2    1    2    0    0  0.53265099128E+02 -0.35167934846E+02  0.10786539369E+03  0.14906244987E+03  0.80689010267E+02 0.  0.
         11    1    4    4    0    0  0.55916541714E+02 -0.57526183559E+02  0.87391955601E+02  0.11863083636E+03  0.00000000000E+00 0. -1.
        -12    1    4    4    0    0 -0.26514425855E+01  0.22358248713E+02  0.20473438088E+02  0.30431613504E+02  0.00000000000E+00 0.  1.
        -11    1    3    3    0    0  0.20451987817E+02  0.29211018799E+02  0.64616140731E+02  0.73802527517E+02  0.00000000000E+00 0.  1.
         11    1    3    3    0    0 -0.11269830598E+02 -0.58079871057E+02  0.88155782516E+02  0.10616836862E+03  0.00000000000E+00 0. -1.
          2    1    1    2  501    0 -0.62447256347E+02  0.64036787104E+02  0.27233241083E+03  0.28664492306E+03  0.00000000000E+00 0. -1.
<scales pt_clust_5="13000.00000" pt_clust_6="13000.00000" pt_clust_7="13000.00000" pt_clust_8="13000.00000" pt_clust_9="89.44483"></scales>
<clustering>
<clus scale="   80.689">  5  6 -1 -1</clus>
<clus scale="   89.445">  2  9  1 -1</clus>
<clus scale="   89.445">  2  5  1 -1</clus>
<clus scale="   90.181">  7  8 -1 -1</clus>
<clus scale="   89.445">  2  5  1 -1</clus>
</clustering>
</event>
<event>
 9    1  0.4664604E-005  0.1560275E+03  0.7546771E-02  0.1195704E+00
          1   -1    0    0  502    0 -0.00000000000E+00  0.00000000000E+00  0.19141236835E+03  0.19141236835E+03  0.00000000000E+00 0. -1.
         21   -1    0    0  501  502  0.00000000000E+00 -0.00000000000E+00 -0.16935989472E+03  0.16935989472E+03  0.00000000000E+00 0. -1.
         23    2    1    2    0    0  0.62906900539E+02  0.12125426183E+03  0.59590197947E+02  0.17632145531E+03  0.94225207693E+02 0.  0.
        -24    2    1    2    0    0 -0.52719236456E+02 -0.88655368095E+02 -0.59904319785E+02  0.14362506875E+03  0.80003379060E+02 0.  0.
         11    1    4    4    0    0 -0.58852708980E+02 -0.85742206923E+02 -0.23534251135E+02  0.10662658383E+03  0.00000000000E+00 0. -1.
        -12    1    4    4    0    0  0.61334725238E+01 -0.29131611726E+01 -0.36370068650E+02  0.36998484926E+02  0.00000000000E+00 0.  1.
        -13    1    3    3    0    0 -0.23505072979E+02  0.25142121368E+02  0.10458230176E+01  0.34434117796E+02  0.00000000000E+00 0.  1.
         13    1    3    3    0    0  0.86411973518E+02  0.96112140460E+02  0.58544374930E+02  0.14188733751E+03  0.00000000000E+00 0. -1.
          2    1    1    2  501    0 -0.10187664084E+02 -0.32598893733E+02  0.22366595475E+02  0.40825739004E+02  0.00000000000E+00 0. -1.
<scales pt_clust_5="13000.00000" pt_clust_6="13000.00000" pt_clust_7="13000.00000" pt_clust_8="13000.00000" pt_clust_9="34.15373"></scales>
<clustering>
<clus scale="   34.154">  2  9  1 -1</clus>
<clus scale="   80.003">  5  6 -1 -1</clus>
<clus scale="   94.225">  7  8 -1 -1</clus>
<clus scale="  147.874">  2  5  1 -1</clus>
<clus scale="   34.154">  2  5  1 -1</clus>
</clustering>
</event>
<event>
 9    1  0.4664604E-005  0.1900932E+03  0.7546771E-02  0.1183611E+00
         21   -1    0    0  501  502  0.00000000000E+00  0.00000000000E+00  0.88464855780E+02  0.88464855780E+02  0.00000000000E+00 0. -1.
         -2   -1    0    0    0  501 -0.00000000000E+00 -0.00000000000E+00 -0.69390880792E+03  0.69390880792E+03  0.00000000000E+00 0.  1.
         23    2    1    2    0    0  0.51205848410E+02  0.29525063010E+02 -0.11343614323E+03  0.15582338297E+03  0.88991009847E+02 0.  0.
        -24    2    1    2    0    0 -0.19207932822E+03 -0.90525332120E+02 -0.35055228558E+03  0.41780154367E+03  0.81129038451E+02 0.  0.
         11    1    4    4    0    0 -0.18647032352E+03 -0.10342688478E+03 -0.32987412954E+03  0.39279160300E+03  0.00000000000E+00 0. -1.
        -12    1    4    4    0    0 -0.56090047005E+01  0.12901552662E+02 -0.20678156044E+02  0.25009940668E+02  0.00000000000E+00 0.  1.
        -13    1    3    3    0    0 -0.88658673813E+01  0.40915987014E+02 -0.26528772574E+02  0.49563064595E+02  0.00000000000E+00 0.  1.
         13    1    3    3    0    0  0.60071715791E+02 -0.11390924004E+02 -0.86907370655E+02  0.10626031838E+03  0.00000000000E+00 0. -1.
         -1    1    1    2    0  502  0.14087347981E+03  0.61000269110E+02 -0.14145552333E+03  0.20874873706E+03  0.00000000000E+00 0.  1.
<scales pt_clust_5="13000.00000" pt_clust_6="13000.00000" pt_clust_7="13000.00000" pt_clust_8="13000.00000" pt_clust_9="171.91134"></scales>
<clustering>
<clus scale="   81.129">  5  6 -1 -1</clus>
<clus scale="   88.991">  7  8 -1 -1</clus>
<clus scale="  106.832">  2  7  1 -1</clus>
<clus scale="  171.911">  1  9  2 -1</clus>
<clus scale="  171.911">  1  5  2 -1</clus>
</clustering>
</event>
<event>
 9    1  0.4664604E-005  0.1014198E+03  0.7546771E-02  0.1284758E+00
         21   -1    0    0  501  502  0.00000000000E+00  0.00000000000E+00  0.22954624234E+03  0.22954624234E+03  0.00000000000E+00 0. -1.
          3   -1    0    0  502    0 -0.00000000000E+00 -0.00000000000E+00 -0.19503317605E+03  0.19503317605E+03  0.00000000000E+00 0. -1.
         23    2    1    2    0    0  0.65803105189E+01  0.47683617183E+02 -0.12390216299E+03  0.16202717520E+03  0.92650049529E+02 0.  0.
        -24    2    1    2    0    0 -0.69116742232E+02  0.59120716189E+01  0.27391378749E+02  0.10779258256E+03  0.77825937686E+02 0.  0.
         11    1    4    4    0    0 -0.15368082251E+02  0.29142168410E+02 -0.14296916972E+02  0.35914422822E+02  0.00000000000E+00 0. -1.
        -12    1    4    4    0    0 -0.53748659981E+02 -0.23230096791E+02  0.41688295722E+02  0.71878159735E+02  0.00000000000E+00 0.  1.
        -13    1    3    3    0    0 -0.15931026751E+02 -0.14587182268E+02 -0.66800590349E-01  0.21600647263E+02  0.00000000000E+00 0.  1.
         13    1    3    3    0    0  0.22511337269E+02  0.62270799451E+02 -0.12383536240E+03  0.14042652794E+03  0.00000000000E+00 0. -1.
          4    1    1    2  501    0  0.62536431713E+02 -0.53595688802E+02  0.13102385053E+03  0.15475966063E+03  0.00000000000E+00 0. -1.
<scales pt_clust_5="13000.00000" pt_clust_6="13000.00000" pt_clust_7="13000.00000" pt_clust_8="13000.00000" pt_clust_9="82.36081"></scales>
<clustering>
<clus scale="   77.826">  5  6 -1 -1</clus>
<clus scale="   82.361">  1  9  2 -1</clus>
<clus scale="   88.084">  1  5  2 -1</clus>
<clus scale="   92.650">  7  8 -1 -1</clus>
<clus scale="   82.361">  1  5  2 -1</clus>
</clustering>
</event>
<event>
 9    1  0.4664604E-005  0.9825917E+02  0.7546771E-02  0.1286984E+00
         21   -1    0    0  501  502  0.00000000000E+00  0.00000000000E+00  0.69799019698E+02  0.69799019698E+02  0.00000000000E+00 0.  1.
          3   -1    0    0  502    0 -0.00000000000E+00 -0.00000000000E+00 -0.41988814896E+03  0.41988814896E+03  0.00000000000E+00 0. -1.
        -24    2    1    2    0    0  0.29107190617E+02 -0.10717578049E+02 -0.26133235879E+03  0.27647110986E+03  0.84732389398E+02 0.  0.
         23    2    1    2    0    0 -0.56814182944E+02  0.64871797813E+01 -0.12677650623E+03  0.16598181275E+03  0.90596604498E+02 0.  0.
         11    1    3    3    0    0  0.44304448880E+02  0.24364854878E+02 -0.12389928717E+03  0.13381914551E+03  0.00000000000E+00 0. -1.
        -12    1    3    3    0    0 -0.15197258263E+02 -0.35082432927E+02 -0.13743307161E+03  0.14265196435E+03  0.00000000000E+00 0.  1.
        -11    1    4    4    0    0 -0.11927348898E+02  0.26528029136E+02 -0.11040143500E+03  0.11416862455E+03  0.00000000000E+00 0. -1.
         11    1    4    4    0    0 -0.44886834046E+02 -0.20040849354E+02 -0.16375071229E+02  0.51813188198E+02  0.00000000000E+00 0.  1.
          4    1    1    2  501    0  0.27706992326E+02  0.42303982682E+01  0.38019735752E+02  0.47234246050E+02  0.00000000000E+00 0. -1.
<scales pt_clust_5="13000.00000" pt_clust_6="13000.00000" pt_clust_7="13000.00000" pt_clust_8="13000.00000" pt_clust_9="28.02809"></scales>
<clustering>
<clus scale="   28.028">  1  9  2 -1</clus>
<clus scale="   84.732">  5  6 -1 -1</clus>
<clus scale="   90.597">  7  8 -1 -1</clus>
<clus scale="   92.880">  2  5  1 -1</clus>
<clus scale="   28.028">  1  5  2 -1</clus>
</clustering>
</event>
<event>
 9    1  0.4664604E-005  0.1746048E+03  0.7546771E-02  0.1174244E+00
         21   -1    0    0  501  502  0.00000000000E+00  0.00000000000E+00  0.26504664638E+03  0.26504664638E+03  0.00000000000E+00 0. -1.
          1   -1    0    0  502    0 -0.00000000000E+00 -0.00000000000E+00 -0.17520088971E+03  0.17520088971E+03  0.00000000000E+00 0. -1.
         23    2    1    2    0    0  0.15365685626E+03  0.67842724160E+02  0.28724507818E+02  0.19249421502E+03  0.89531339605E+02 0.  0.
        -24    2    1    2    0    0 -0.13981731717E+03  0.77993072858E+01  0.54563617691E+02  0.17057656103E+03  0.80681245798E+02 0.  0.
         13    1    4    4    0    0 -0.84915674242E+02  0.41280560342E+02  0.16495958574E+02  0.95848177048E+02  0.00000000000E+00 0. -1.
        -14    1    4    4    0    0 -0.54901642927E+02 -0.33481253056E+02  0.38067659117E+02  0.74728383984E+02  0.00000000000E+00 0.  1.
        -11    1    3    3    0    0  0.82052156375E+02  0.14371743782E+02 -0.26531861762E+02  0.87424499276E+02  0.00000000000E+00 0.  1.
         11    1    3    3    0    0  0.71604699882E+02  0.53470980378E+02  0.55256369580E+02  0.10506971575E+03  0.00000000000E+00 0. -1.
          2    1    1    2  501    0 -0.13839539088E+02 -0.75642031446E+02  0.65576311581E+01  0.77176760037E+02  0.00000000000E+00 0. -1.
<scales pt_clust_5="13000.00000" pt_clust_6="13000.00000" pt_clust_7="13000.00000" pt_clust_8="13000.00000" pt_clust_9="76.89770"></scales>
<clustering>
<clus scale="   76.898">  1  9  2 -1</clus>
<clus scale="   80.681">  5  6 -1 -1</clus>
<clus scale="   89.531">  7  8 -1 -1</clus>
<clus scale="  170.236">  1  5  2 -1</clus>
<clus scale="   76.898">  1  5  2 -1</clus>
</clustering>
</event>
<event>
 9    1  0.4664604E-005  0.1194450E+03  0.7546771E-02  0.1248342E+00
          1   -1    0    0  502    0 -0.00000000000E+00  0.00000000000E+00  0.28754987898E+03  0.28754987898E+03  0.00000000000E+00 0. -1.
         21   -1    0    0  501  502  0.00000000000E+00 -0.00000000000E+00 -0.66009025937E+02  0.66009025937E+02  0.00000000000E+00 0.  1.
         23    2    1    2    0    0  0.63313193386E+02 -0.13038743001E+02  0.10524227840E+03  0.15528880817E+03  0.94128144065E+02 0.  0.
        -24    2    1    2    0    0 -0.73249946237E+02  0.39485143722E+02  0.12301478879E+03  0.16923117975E+03  0.81129049914E+02 0.  0.
         13    1    4    4    0    0 -0.67639093176E+02  0.10694507600E+02  0.12197170418E+03  0.13988036330E+03  0.00000000000E+00 0. -1.
        -14    1    4    4    0    0 -0.56108530608E+01  0.28790636121E+02  0.10430846094E+01  0.29350816442E+02  0.00000000000E+00 0.  1.
        -11    1    3    3    0    0  0.69699835377E+02 -0.43985601430E+02  0.79793551092E+02  0.11471621934E+03  0.00000000000E+00 0. -1.
         11    1    3    3    0    0 -0.63866419916E+01  0.30946858430E+02  0.25448727307E+02  0.40572588827E+02  0.00000000000E+00 0.  1.
          2    1    1    2  501    0  0.99367528511E+01 -0.26446400721E+02 -0.67162141372E+01  0.29038917002E+02  0.00000000000E+00 0. -1.
<scales pt_clust_5="13000.00000" pt_clust_6="13000.00000" pt_clust_7="13000.00000" pt_clust_8="13000.00000" pt_clust_9="28.25157"></scales>
<clustering>
<clus scale="   28.252">  2  9  1 -1</clus>
<clus scale="   81.129">  5  6 -1 -1</clus>
<clus scale="   94.128">  7  8 -1 -1</clus>
<clus scale="  109.494">  2  5  1 -1</clus>
<clus scale="   28.252">  2  5  1 -1</clus>
</clustering>
</event>
<event>
 9    1  0.4664604E-005  0.9881729E+02  0.7546771E-02  0.1288230E+00
          1   -1    0    0  502    0 -0.00000000000E+00  0.00000000000E+00  0.35473106413E+03  0.35473106413E+03  0.00000000000E+00 0. -1.
         21   -1    0    0  501  502  0.00000000000E+00 -0.00000000000E+00 -0.56139265737E+02  0.56139265737E+02  0.00000000000E+00 0. -1.
         23    2    1    2    0    0 -0.39409216234E+02  0.18241265131E+00  0.28234597566E+03  0.29966417375E+03  0.92337681699E+02 0.  0.
        -24    2    1    2    0    0  0.16417180261E+02 -0.11044173007E+02  0.92052416184E+01  0.84820907615E+02  0.81965555755E+02 0.  0.
         11    1    4    4    0    0 -0.32880738178E+02 -0.93004816357E+01 -0.20222938533E+01  0.34230564912E+02  0.00000000000E+00 0. -1.
        -12    1    4    4    0    0  0.49297918439E+02 -0.17436913717E+01  0.11227535472E+02  0.50590342702E+02  0.00000000000E+00 0.  1.
        -11    1    3    3    0    0  0.11281503757E+02 -0.32003228262E+02  0.55908040998E+02  0.65400214024E+02  0.00000000000E+00 0. -1.
         11    1    3    3    0    0 -0.50690719991E+02  0.32185640913E+02  0.22643793466E+03  0.23426395973E+03  0.00000000000E+00 0.  1.
          2    1    1    2  501    0  0.22992035974E+02  0.10861760356E+02  0.70405811238E+01  0.26385248508E+02  0.00000000000E+00 0. -1.
<scales pt_clust_5="13000.00000" pt_clust_6="13000.00000" pt_clust_7="13000.00000" pt_clust_8="13000.00000" pt_clust_9="25.42856"></scales>
<clustering>
<clus scale="   25.429">  2  9  1 -1</clus>
<clus scale="   81.966">  5  6 -1 -1</clus>
<clus scale="   89.202">  2  5  1 -1</clus>
<clus scale="   92.338">  7  8 -1 -1</clus>
<clus scale="   25.429">  2  5  1 -1</clus>
</clustering>
</event>
<event>
 9    1  0.4664604E-005  0.1182490E+03  0.7546771E-02  0.1254915E+00
         21   -1    0    0  501  502  0.00000000000E+00  0.00000000000E+00  0.23997196741E+03  0.23997196741E+03  0.00000000000E+00 0. -1.
          1   -1    0    0  502    0 -0.00000000000E+00 -0.00000000000E+00 -0.70190816921E+02  0.70190816921E+02  0.00000000000E+00 0. -1.
        -24    2    1    2    0    0  0.23159336807E+02  0.65562804414E+02  0.38725940145E+02  0.11278005168E+03  0.79904977400E+02 0.  0.
         23    2    1    2    0    0 -0.14108448335E+02 -0.41104997979E+02  0.71970626113E+02  0.13279874879E+03  0.10279624255E+03 0.  0.
         11    1    3    3    0    0  0.31241279697E+02  0.38904429702E+02  0.59776688091E+02  0.77864142239E+02  0.00000000000E+00 0. -1.
        -12    1    3    3    0    0 -0.80819428898E+01  0.26658374712E+02 -0.21050747945E+02  0.34915909443E+02  0.00000000000E+00 0.  1.
        -13    1    4    4    0    0 -0.40484604794E+02 -0.19505690924E+02  0.85123950780E+02  0.96257790335E+02  0.00000000000E+00 0.  1.
         13    1    4    4    0    0  0.26376156459E+02 -0.21599307055E+02 -0.13153324667E+02  0.36540958453E+02  0.00000000000E+00 0. -1.
          2    1    1    2  501    0 -0.90508884722E+01 -0.24457806435E+02  0.59084584229E+02  0.64583983860E+02  0.00000000000E+00 0. -1.
<scales pt_clust_5="13000.00000" pt_clust_6="13000.00000" pt_clust_7="13000.00000" pt_clust_8="13000.00000" pt_clust_9="26.07878"></scales>
<clustering>
<clus scale="   26.079">  1  9  2 -1</clus>
<clus scale="   79.905">  5  6 -1 -1</clus>
<clus scale="   98.998">  2  5  1 -1</clus>
<clus scale="  102.796">  7  8 -1 -1</clus>
<clus scale="   26.079">  1  5  2 -1</clus>
</clustering>
</event>
<event>
 9    1  0.4664604E-005  0.1035681E+03  0.7546771E-02  0.1276114E+00
          3   -1    0    0  502    0 -0.00000000000E+00  0.00000000000E+00  0.23504033586E+03  0.23504033586E+03  0.00000000000E+00 0. -1.
         21   -1    0    0  501  502  0.00000000000E+00 -0.00000000000E+00 -0.26212859618E+03  0.26212859618E+03  0.00000000000E+00 0. -1.
         23    2    1    2    0    0  0.53341209435E+02  0.31124653878E+02  0.18142782898E+03  0.21092992007E+03  0.88098497990E+02 0.  0.
        -24    2    1    2    0    0 -0.38318395658E+02  0.28472681348E+02 -0.31815026893E+02  0.99154023923E+02  0.80872315999E+02 0.  0.
         11    1    4    4    0    0  0.14057231016E+02 -0.15610339345E+02  0.47579267663E+01  0.21538948568E+02  0.00000000000E+00 0. -1.
        -12    1    4    4    0    0 -0.52375626674E+02  0.44083020693E+02 -0.36572953659E+02  0.77615075354E+02  0.00000000000E+00 0.  1.
        -11    1    3    3    0    0  0.30679355083E+02  0.63222188155E+01  0.54756536401E+01  0.31798994667E+02  0.00000000000E+00 0.  1.
         11    1    3    3    0    0  0.22661854352E+02  0.24802435063E+02  0.17595217534E+03  0.17913092540E+03  0.00000000000E+00 0. -1.
          4    1    1    2  501    0 -0.15022813777E+02 -0.59597335226E+02 -0.17670106240E+03  0.18708498805E+03  0.00000000000E+00 0. -1.
<scales pt_clust_5="13000.00000" pt_clust_6="13000.00000" pt_clust_7="13000.00000" pt_clust_8="13000.00000" pt_clust_9="61.46159"></scales>
<clustering>
<clus scale="   61.462">  2  9  1 -1</clus>
<clus scale="   80.872">  5  6 -1 -1</clus>
<clus scale="   88.098">  7  8 -1 -1</clus>
<clus scale="   97.495">  2  5  1 -1</clus>
<clus scale="   61.462">  2  5  1 -1</clus>
</clustering>
</event>
<event>
 9    1  0.4664604E-005  0.1592386E+03  0.7546771E-02  0.1191039E+00
         21   -1    0    0  501  502  0.00000000000E+00  0.00000000000E+00  0.57474440081E+03  0.57474440081E+03  0.00000000000E+00 0.  1.
          1   -1    0    0  502    0 -0.00000000000E+00 -0.00000000000E+00 -0.80996944801E+03  0.80996944801E+03  0.00000000000E+00 0. -1.
         23    2    1    2    0    0  0.13148116641E+03 -0.58821378669E+01 -0.78364053192E+03  0.79980703126E+03  0.90977509961E+02 0.  0.
        -24    2    1    2    0    0 -0.90988582583E+02 -0.51861743283E+02  0.35486480314E+03  0.37890712946E+03  0.81688565131E+02 0.  0.
         13    1    4    4    0    0 -0.47872468992E+02  0.15125342972E+02  0.10021648031E+03  0.11208876934E+03  0.00000000000E+00 0. -1.
        -14    1    4    4    0    0 -0.43116113591E+02 -0.66987086255E+02  0.25464832283E+03  0.26681836012E+03  0.00000000000E+00 0.  1.
        -13    1    3    3    0    0  0.13360340976E+03 -0.28448511474E+02 -0.69637833709E+03  0.70964919310E+03  0.00000000000E+00 0. -1.
         13    1    3    3    0    0 -0.21222433454E+01  0.22566373607E+02 -0.87262194827E+02  0.90157838154E+02  0.00000000000E+00 0.  1.
          2    1    1    2  501    0 -0.40492583830E+02  0.57743881150E+02  0.19355068157E+03  0.20599968809E+03  0.00000000000E+00 0. -1.
<scales pt_clust_5="13000.00000" pt_clust_6="13000.00000" pt_clust_7="13000.00000" pt_clust_8="13000.00000" pt_clust_9="70.52663"></scales>
<clustering>
<clus scale="   70.527">  1  9  2 -1</clus>
<clus scale="   81.689">  5  6 -1 -1</clus>
<clus scale="   90.978">  7  8 -1 -1</clus>
<clus scale="  154.120">  1  5  2 -1</clus>
<clus scale="   70.527">  1  5  2 -1</clus>
</clustering>
</event>
<event>
 9    1  0.4664604E-005  0.9327617E+02  0.7546771E-02  0.1302325E+00
         21   -1    0    0  501  502  0.00000000000E+00  0.00000000000E+00  0.57066946351E+03  0.57066946351E+03  0.00000000000E+00 0. -1.
          1   -1    0    0  502    0 -0.00000000000E+00 -0.00000000000E+00 -0.17976924072E+03  0.17976924072E+03  0.00000000000E+00 0. -1.
         23    2    1    2    0    0 -0.76103638960E+01  0.68685477942E+01 -0.15910618280E+03  0.18442813626E+03  0.92703103780E+02 0.  0.
        -24    2    1    2    0    0 -0.20892050004E+02 -0.37543847689E+02  0.36705426488E+03  0.37832773069E+03  0.80975429550E+02 0.  0.
         13    1    4    4    0    0 -0.30224787186E+02 -0.19149554378E+02  0.55137089199E+02  0.65729307000E+02  0.00000000000E+00 0. -1.
        -14    1    4    4    0    0  0.93327371822E+01 -0.18394293311E+02  0.31191717568E+03  0.31259842369E+03  0.00000000000E+00 0.  1.
        -13    1    3    3    0    0  0.31661620621E+02  0.27147611627E+02 -0.41697723893E+02  0.58975852815E+02  0.00000000000E+00 0.  1.
         13    1    3    3    0    0 -0.39271984517E+02 -0.20279063833E+02 -0.11740845891E+03  0.12545228344E+03  0.00000000000E+00 0. -1.
          2    1    1    2  501    0  0.28502413900E+02  0.30675299894E+02  0.18295214071E+03  0.18768283728E+03  0.00000000000E+00 0. -1.
<scales pt_clust_5="13000.00000" pt_clust_6="13000.00000" pt_clust_7="13000.00000" pt_clust_8="13000.00000" pt_clust_9="41.87316"></scales>
<clustering>
<clus scale="   41.873">  1  9  2 -1</clus>
<clus scale="   80.975">  5  6 -1 -1</clus>
<clus scale="   81.631">  1  5  2 -1</clus>
<clus scale="   92.703">  7  8 -1 -1</clus>
<clus scale="   41.873">  1  5  2 -1</clus>
</clustering>
</event>
<event>
 9    1  0.4664604E-005  0.1492963E+03  0.7546771E-02  0.1205976E+00
         21   -1    0    0  501  502  0.00000000000E+00  0.00000000000E+00  0.24729642179E+03  0.24729642179E+03  0.00000000000E+00 0.  1.
         -2   -1    0    0    0  501 -0.00000000000E+00 -0.00000000000E+00 -0.95973132640E+02  0.95973132640E+02  0.00000000000E+00 0.  1.
         23    2    1    2    0    0 -0.94713493098E+02  0.74884101826E+02  0.71216191317E+02  0.16758339705E+03  0.91837762284E+02 0.  0.
        -24    2    1    2    0    0  0.10196120257E+03 -0.54651174891E+02  0.77030008012E+02  0.15397512086E+03  0.66271245371E+02 0.  0.
         13    1    4    4    0    0  0.13261075628E+02 -0.41560443349E+02  0.23538186173E+02  0.49569877814E+02  0.00000000000E+00 0. -1.
        -14    1    4    4    0    0  0.88700126942E+02 -0.13090731542E+02  0.53491821839E+02  0.10440524305E+03  0.00000000000E+00 0.  1.
        -13    1    3    3    0    0 -0.11142551309E+03  0.51629327550E+02  0.61489109738E+02  0.13733951743E+03  0.00000000000E+00 0.  1.
         13    1    3    3    0    0  0.16712019992E+02  0.23254774277E+02  0.97270815787E+01  0.30243879627E+02  0.00000000000E+00 0. -1.
         -1    1    1    2    0  502 -0.72477094723E+01 -0.20232926935E+02  0.30770898235E+01  0.21711036519E+02  0.00000000000E+00 0.  1.
<scales pt_clust_5="13000.00000" pt_clust_6="13000.00000" pt_clust_7="13000.00000" pt_clust_8="13000.00000" pt_clust_9="21.49188"></scales>
<clustering>
<clus scale="   21.492">  1  9  2 -1</clus>
<clus scale="   66.271">  5  6 -1 -1</clus>
<clus scale="   91.838">  7  8 -1 -1</clus>
<clus scale="  135.082">  1  5  2 -1</clus>
<clus scale="   21.492">  1  5  2 -1</clus>
</clustering>
</event>
<event>
 9    1  0.4664604E-005  0.1104445E+03  0.7546771E-02  0.1260423E+00
         21   -1    0    0  501  502  0.00000000000E+00  0.00000000000E+00  0.18534504345E+03  0.18534504345E+03  0.00000000000E+00 0. -1.
          1   -1    0    0  502    0 -0.00000000000E+00 -0.00000000000E+00 -0.32979450681E+03  0.32979450681E+03  0.00000000000E+00 0. -1.
         23    2    1    2    0    0 -0.15603258201E+02  0.60001731108E+02 -0.26953387961E+03  0.29074639614E+03  0.89673213437E+02 0.  0.
        -24    2    1    2    0    0  0.15711325505E+02 -0.80401456046E+02  0.25598254450E+02  0.12283697830E+03  0.87877259426E+02 0.  0.
         11    1    4    4    0    0  0.48510478553E+02 -0.32761775166E+02 -0.23823158209E+01  0.58585628529E+02  0.00000000000E+00 0. -1.
        -12    1    4    4    0    0 -0.32799153048E+02 -0.47639680880E+02  0.27980570270E+02  0.64251349773E+02  0.00000000000E+00 0.  1.
        -13    1    3    3    0    0  0.33774048378E+02  0.99927759988E+01 -0.58138795718E+02  0.67975447653E+02  0.00000000000E+00 0. -1.
         13    1    3    3    0    0 -0.49377306580E+02  0.50008955109E+02 -0.21139508390E+03  0.22277094849E+03  0.00000000000E+00 0.  1.
          2    1    1    2  501    0 -0.10806730387E+00  0.20399724938E+02  0.99486161799E+02  0.10155617581E+03  0.00000000000E+00 0. -1.
<scales pt_clust_5="13000.00000" pt_clust_6="13000.00000" pt_clust_7="13000.00000" pt_clust_8="13000.00000" pt_clust_9="20.40001"></scales>
<clustering>
<clus scale="   20.400">  1  9  2 -1</clus>
<clus scale="   87.877">  5  6 -1 -1</clus>
<clus scale="   89.673">  7  8 -1 -1</clus>
<clus scale="  108.991">  1  5  2 -1</clus>
<clus scale="   20.400">  1  5  2 -1</clus>
</clustering>
</event>
<event>
 9    1  0.4664604E-005  0.1375272E+03  0.7546771E-02  0.1217750E+00
          1   -1    0    0  502    0 -0.00000000000E+00  0.00000000000E+00  0.47560123190E+03  0.47560123190E+03  0.00000000000E+00 0. -1.
         21   -1    0    0  501  502  0.00000000000E+00 -0.00000000000E+00 -0.12109181336E+03  0.12109181336E+03  0.00000000000E+00 0.  1.
        -24    2    1    2    0    0 -0.93395384462E+02 -0.11034503770E+02  0.25447460929E+03  0.28429210139E+03  0.84971842573E+02 0.  0.
         23    2    1    2    0    0  0.14316315164E+03 -0.76971601380E+02  0.10090457094E+03  0.21129376469E+03  0.89682814162E+02 0.  0.
         13    1    3    3    0    0 -0.98403992914E+02  0.68452387325E+01  0.24350490115E+03  0.26272578861E+03  0.00000000000E+00 0. -1.
        -14    1    3    3    0    0  0.50086084528E+01 -0.17879742502E+02  0.10969708137E+02  0.21566312786E+02  0.00000000000E+00 0.  1.
        -11    1    4    4    0    0  0.82714040868E+02 -0.89392559775E+02  0.51451174862E+02  0.13221144313E+03  0.00000000000E+00 0.  1.
         11    1    4    4    0    0  0.60449110772E+02  0.12420958395E+02  0.49453396076E+02  0.79082321564E+02  0.00000000000E+00 0. -1.
          2    1    1    2  501    0 -0.49767767178E+02  0.88006105150E+02 -0.86976168440E+00  0.10110717917E+03  0.00000000000E+00 0. -1.
<scales pt_clust_5="13000.00000" pt_clust_6="13000.00000" pt_clust_7="13000.00000" pt_clust_8="13000.00000" pt_clust_9="101.10344"></scales>
<clustering>
<clus scale="   84.972">  5  6 -1 -1</clus>
<clus scale="   89.683">  7  8 -1 -1</clus>
<clus scale="  101.103">  2  9  1 -1</clus>
<clus scale="  134.503">  1  5  2 -1</clus>
<clus scale="  101.103">  2  5  1 -1</clus>
</clustering>
</event>
<event>
 9    1  0.1741816E-004  0.9507595E+02  0.7546771E-02  0.1296284E+00
         -4   -1    0    0    0  501 -0.00000000000E+00  0.00000000000E+00  0.35905228630E+03  0.35905228630E+03  0.00000000000E+00 0.  1.
         21   -1    0    0  501  502  0.00000000000E+00 -0.00000000000E+00 -0.35804544134E+03  0.35804544134E+03  0.00000000000E+00 0.  1.
        -24    2    1    2    0    0  0.21589373569E+02 -0.21746061647E+02  0.32066402822E+03  0.33216329613E+03  0.81043470154E+02 0.  0.
         23    2    1    2    0    0 -0.45174252115E+02 -0.45724533600E+02 -0.85415262481E+02  0.14003076642E+03  0.90451105320E+02 0.  0.
         11    1    3    3    0    0 -0.19868154952E+02 -0.21832716258E+02  0.47892438006E+02  0.56259192125E+02  0.00000000000E+00 0. -1.
        -12    1    3    3    0    0  0.41457528521E+02  0.86654610713E-01  0.27277159021E+03  0.27590410401E+03  0.00000000000E+00 0.  1.
        -13    1    4    4    0    0 -0.19906611849E+02 -0.71586072795E+02 -0.63586255018E+02  0.97795965360E+02  0.00000000000E+00 0.  1.
         13    1    4    4    0    0 -0.25267640266E+02  0.25861539195E+02 -0.21829007463E+02  0.42234801064E+02  0.00000000000E+00 0. -1.
         -3    1    1    2    0  502  0.23584878546E+02  0.67470595247E+02 -0.23424192079E+03  0.24490366509E+03  0.00000000000E+00 0.  1.
<scales pt_clust_5="13000.00000" pt_clust_6="13000.00000" pt_clust_7="13000.00000" pt_clust_8="13000.00000" pt_clust_9="71.47397"></scales>
<clustering>
<clus scale="   71.474">  2  9  1 -1</clus>
<clus scale="   81.043">  5  6 -1 -1</clus>
<clus scale="   86.175">  1  5  2 -1</clus>
<clus scale="   90.451">  7  8 -1 -1</clus>
<clus scale="   71.474">  2  5  1 -1</clus>
</clustering>
</event>
<event>
 9    1  0.4664604E-005  0.1231813E+03  0.7546771E-02  0.1257413E+00
         21   -1    0    0  501  502  0.00000000000E+00  0.00000000000E+00  0.75475780231E+03  0.75475780231E+03  0.00000000000E+00 0.  1.
         -2   -1    0    0    0  501 -0.00000000000E+00 -0.00000000000E+00 -0.54494945731E+02  0.54494945731E+02  0.00000000000E+00 0.  1.
        -24    2    1    2    0    0  0.28268812975E+01 -0.25379080202E+02  0.30424149352E+02  0.88732629914E+02  0.79345836551E+02 0.  0.
         23    2    1    2    0    0  0.61611775826E+02 -0.33160167803E+02  0.12590385544E+03  0.16966232607E+03  0.89654427784E+02 0.  0.
         11    1    3    3    0    0 -0.20372136629E+02 -0.43649670505E+02  0.34038424395E+02  0.58982472153E+02  0.00000000000E+00 0. -1.
        -12    1    3    3    0    0  0.23199017926E+02  0.18270590303E+02 -0.36142750429E+01  0.29750157761E+02  0.00000000000E+00 0.  1.
        -13    1    4    4    0    0  0.60012154463E+02 -0.61156683828E+02  0.94678095464E+02  0.12769314947E+03  0.00000000000E+00 0.  1.
         13    1    4    4    0    0  0.15996213633E+01  0.27996516025E+02  0.31225759980E+02  0.41969176599E+02  0.00000000000E+00 0. -1.
         -1    1    1    2    0  502 -0.64438657124E+02  0.58539248005E+02  0.54393485179E+03  0.55085779206E+03  0.00000000000E+00 0.  1.
<scales pt_clust_5="13000.00000" pt_clust_6="13000.00000" pt_clust_7="13000.00000" pt_clust_8="13000.00000" pt_clust_9="84.47312"></scales>
<clustering>
<clus scale="   79.346">  5  6 -1 -1</clus>
<clus scale="   83.354">  2  5  1 -1</clus>
<clus scale="   84.473">  1  9  2 -1</clus>
<clus scale="   89.654">  7  8 -1 -1</clus>
<clus scale="   84.473">  1  5  2 -1</clus>
</clustering>
</event>
<event>
 9    1  0.4664604E-005  0.1067543E+03  0.7546771E-02  0.1269849E+00
         21   -1    0    0  501  502  0.00000000000E+00  0.00000000000E+00  0.48739900585E+03  0.48739900585E+03  0.00000000000E+00 0. -1.
         -2   -1    0    0    0  501 -0.00000000000E+00 -0.00000000000E+00 -0.55644305347E+02  0.55644305347E+02  0.00000000000E+00 0.  1.
        -24    2    1    2    0    0  0.52092945928E+02 -0.59010760046E+01  0.11244426798E+02  0.10047943670E+03  0.84977540279E+02 0.  0.
         23    2    1    2    0    0 -0.56297773474E+02  0.30182383573E+02  0.32210994730E+03  0.34112479570E+03  0.92362830789E+02 0.  0.
         11    1    3    3    0    0  0.27600060361E+02 -0.39363271349E+02  0.28135383931E+02  0.55703054604E+02  0.00000000000E+00 0. -1.
        -12    1    3    3    0    0  0.24492885567E+02  0.33462195345E+02 -0.16890957133E+02  0.44776382095E+02  0.00000000000E+00 0.  1.
        -13    1    4    4    0    0  0.15100544510E+02  0.17636593306E+02  0.20654044176E+02  0.31075157421E+02  0.00000000000E+00 0.  1.
         13    1    4    4    0    0 -0.71398317984E+02  0.12545790267E+02  0.30145590313E+03  0.31004963828E+03  0.00000000000E+00 0. -1.
         -1    1    1    2    0  502  0.42048275461E+01 -0.24281307568E+02  0.98400326401E+02  0.10143907880E+03  0.00000000000E+00 0.  1.
<scales pt_clust_5="13000.00000" pt_clust_6="13000.00000" pt_clust_7="13000.00000" pt_clust_8="13000.00000" pt_clust_9="24.64270"></scales>
<clustering>
<clus scale="   24.643">  1  9  2 -1</clus>
<clus scale="   84.978">  5  6 -1 -1</clus>
<clus scale="   92.363">  7  8 -1 -1</clus>
<clus scale="  100.433">  2  5  1 -1</clus>
<clus scale="   24.643">  1  5  2 -1</clus>
</clustering>
</event>
<event>
 9    1  0.4664604E-005  0.9663180E+02  0.7546771E-02  0.1293799E+00
         -2   -1    0    0    0  501 -0.00000000000E+00  0.00000000000E+00  0.19490485679E+03  0.19490485679E+03  0.00000000000E+00 0.  1.
         21   -1    0    0  501  502  0.00000000000E+00 -0.00000000000E+00 -0.15407712709E+03  0.15407712709E+03  0.00000000000E+00 0.  1.
        -24    2    1    2    0    0 -0.75389005635E+01 -0.23505089784E+02  0.80684955103E+02  0.11628172657E+03  0.80012834511E+02 0.  0.
         23    2    1    2    0    0  0.26493703502E+02  0.33564242321E+02  0.68687015808E+02  0.12205522396E+03  0.91384336004E+02 0.  0.
         13    1    3    3    0    0  0.34224359343E+02 -0.20763316276E+01  0.20471506326E+02  0.39933701265E+02  0.00000000000E+00 0. -1.
        -14    1    3    3    0    0 -0.41763259907E+02 -0.21428758156E+02  0.60213448778E+02  0.76348025304E+02  0.00000000000E+00 0.  1.
        -11    1    4    4    0    0  0.17533048998E+02  0.10797163363E+02  0.88317831737E+02  0.90686415447E+02  0.00000000000E+00 0.  1.
         11    1    4    4    0    0  0.89606545032E+01  0.22767078957E+02 -0.19630815929E+02  0.31368808511E+02  0.00000000000E+00 0. -1.
         -1    1    1    2    0  502 -0.18954802938E+02 -0.10059152537E+02 -0.10854424121E+03  0.11064503335E+03  0.00000000000E+00 0.  1.
<scales pt_clust_5="13000.00000" pt_clust_6="13000.00000" pt_clust_7="13000.00000" pt_clust_8="13000.00000" pt_clust_9="21.45859"></scales>
<clustering>
<clus scale="   21.459">  2  9  1 -1</clus>
<clus scale="   80.013">  5  6 -1 -1</clus>
<clus scale="   85.957">  1  5  2 -1</clus>
<clus scale="   91.384">  7  8 -1 -1</clus>
<clus scale="   21.459">  2  5  1 -1</clus>
</clustering>
</event>
<event>
 9    1  0.4664604E-005  0.1005993E+03  0.7546771E-02  0.1284775E+00
         21   -1    0    0  501  502  0.00000000000E+00  0.00000000000E+00  0.14163610051E+03  0.14163610051E+03  0.00000000000E+00 0.  1.
         -4   -1    0    0    0  501 -0.00000000000E+00 -0.00000000000E+00 -0.21995213479E+03  0.21995213479E+03  0.00000000000E+00 0.  1.
        -24    2    1    2    0    0 -0.91243309510E+01 -0.36715637588E+02 -0.14986051974E+03  0.17408229150E+03  0.80094802451E+02 0.  0.
         23    2    1    2    0    0  0.23041357064E+02  0.53348792200E+02 -0.43420503832E+01  0.10858122163E+03  0.91618941949E+02 0.  0.
         11    1    3    3    0    0 -0.22831892159E+02  0.19669547375E+02 -0.59451799199E+02  0.66653603214E+02  0.00000000000E+00 0. -1.
        -12    1    3    3    0    0  0.13707561208E+02 -0.56385184964E+02 -0.90408720542E+02  0.10742868829E+03  0.00000000000E+00 0.  1.
        -11    1    4    4    0    0  0.28154192811E+02 -0.55499424951E+00 -0.36119449384E+02  0.45799358241E+02  0.00000000000E+00 0.  1.
         11    1    4    4    0    0 -0.51128357468E+01  0.53903786449E+02  0.31777399001E+02  0.62781863386E+02  0.00000000000E+00 0. -1.
         -3    1    1    2    0  502 -0.13917026113E+02 -0.16633154612E+02  0.75886535843E+02  0.78924722175E+02  0.00000000000E+00 0.  1.
<scales pt_clust_5="13000.00000" pt_clust_6="13000.00000" pt_clust_7="13000.00000" pt_clust_8="13000.00000" pt_clust_9="21.68745"></scales>
<clustering>
<clus scale="   21.687">  1  9  2 -1</clus>
<clus scale="   80.095">  5  6 -1 -1</clus>
<clus scale="   90.230">  2  5  1 -1</clus>
<clus scale="   91.619">  7  8 -1 -1</clus>
<clus scale="   21.687">  1  5  2 -1</clus>
</clustering>
</event>
<event>
 9    1  0.4664604E-005  0.1403185E+03  0.7546771E-02  0.1214880E+00
          1   -1    0    0  502    0 -0.00000000000E+00  0.00000000000E+00  0.22609683886E+03  0.22609683886E+03  0.00000000000E+00 0. -1.
         21   -1    0    0  501  502  0.00000000000E+00 -0.00000000000E+00 -0.14626300356E+03  0.14626300356E+03  0.00000000000E+00 0. -1.
         23    2    1    2    0    0 -0.10292223111E+03  0.54476638553E+02  0.12057306812E+03  0.19067241641E+03  0.90870324188E+02 0.  0.
        -24    2    1    2    0    0  0.53699290968E+02 -0.72601823874E+02 -0.43138448707E+02  0.12917860375E+03  0.81679539844E+02 0.  0.
         13    1    4    4    0    0  0.47684836762E+01 -0.69003178226E+02 -0.40259449431E+02  0.80031245838E+02  0.00000000000E+00 0. -1.
        -14    1    4    4    0    0  0.48930807292E+02 -0.35986456477E+01 -0.28789992758E+01  0.49147357910E+02  0.00000000000E+00 0.  1.
        -13    1    3    3    0    0 -0.71487626863E+02  0.77254922910E+02  0.67964230651E+02  0.12529142252E+03  0.00000000000E+00 0. -1.
         13    1    3    3    0    0 -0.31434604250E+02 -0.22778284356E+02  0.52608837466E+02  0.65380993890E+02  0.00000000000E+00 0.  1.
          2    1    1    2  501    0  0.49222940145E+02  0.18125185320E+02  0.23992158863E+01  0.52508822271E+02  0.00000000000E+00 0. -1.
<scales pt_clust_5="13000.00000" pt_clust_6="13000.00000" pt_clust_7="13000.00000" pt_clust_8="13000.00000" pt_clust_9="52.45398"></scales>
<clustering>
<clus scale="   52.454">  2  9  1 -1</clus>
<clus scale="   81.680">  5  6 -1 -1</clus>
<clus scale="   90.870">  7  8 -1 -1</clus>
<clus scale="  134.549">  2  5  1 -1</clus>
<clus scale="   52.454">  2  5  1 -1</clus>
</clustering>
</event>
<event>
 9    1  0.4664604E-005  0.9170296E+02  0.7546771E-02  0.1307006E+00
          1   -1    0    0  502    0 -0.00000000000E+00  0.00000000000E+00  0.21303469590E+03  0.21303469590E+03  0.00000000000E+00 0. -1.
         21   -1    0    0  501  502  0.00000000000E+00 -0.00000000000E+00 -0.11687775918E+03  0.11687775918E+03  0.00000000000E+00 0. -1.
         23    2    1    2    0    0 -0.25527698903E+01 -0.59422270573E+01  0.14624688248E+03  0.17252101448E+03  0.91288132338E+02 0.  0.
        -24    2    1    2    0    0 -0.51667822917E+02  0.45871672471E+00 -0.23567213169E+02  0.96782885800E+02  0.78369248441E+02 0.  0.
         13    1    4    4    0    0 -0.72343252115E+02 -0.23995378601E+01 -0.22829117804E+02  0.75897776833E+02  0.00000000000E+00 0. -1.
        -14    1    4    4    0    0  0.20675429198E+02  0.28582545848E+01 -0.73809536503E+00  0.20885108967E+02  0.00000000000E+00 0.  1.
        -11    1    3    3    0    0 -0.42400294569E+02  0.16481210119E+02  0.65928798277E+02  0.80100073088E+02  0.00000000000E+00 0. -1.
         11    1    3    3    0    0  0.39847524678E+02 -0.22423437176E+02  0.80318084202E+02  0.92420941391E+02  0.00000000000E+00 0.  1.
          2    1    1    2  501    0  0.54220592808E+02  0.54835103326E+01 -0.26522732590E+02  0.60608554792E+02  0.00000000000E+00 0. -1.
<scales pt_clust_5="13000.00000" pt_clust_6="13000.00000" pt_clust_7="13000.00000" pt_clust_8="13000.00000" pt_clust_9="54.49717"></scales>
<clustering>
<clus scale="   54.497">  2  9  1 -1</clus>
<clus scale="   78.369">  5  6 -1 -1</clus>
<clus scale="   78.852">  2  5  1 -1</clus>
<clus scale="   91.288">  7  8 -1 -1</clus>
<clus scale="   54.497">  2  5  1 -1</clus>
</clustering>
</event>
<event>
 9    1  0.4664604E-005  0.1237556E+03  0.7546771E-02  0.1240225E+00
         21   -1    0    0  501  502  0.00000000000E+00  0.00000000000E+00  0.25400049421E+03  0.25400049421E+03  0.00000000000E+00 0. -1.
         -4   -1    0    0    0  501 -0.00000000000E+00 -0.00000000000E+00 -0.11789820716E+03  0.11789820716E+03  0.00000000000E+00 0.  1.
         23    2    1    2    0    0 -0.19524422109E+02 -0.10585967391E+03  0.27421103743E+02  0.14395367881E+03  0.91560204749E+02 0.  0.
        -24    2    1    2    0    0  0.55086979298E+02  0.32448425601E+02  0.10383576634E+03  0.14622975522E+03  0.80708111909E+02 0.  0.
         11    1    4    4    0    0  0.36376805282E+02  0.59358885653E+01  0.10743442823E+03  0.11358108604E+03  0.00000000000E+00 0. -1.
        -12    1    4    4    0    0  0.18710174016E+02  0.26512537036E+02 -0.35986618958E+01  0.32648669180E+02  0.00000000000E+00 0.  1.
        -13    1    3    3    0    0  0.35976300887E+02 -0.36956851142E+02  0.19442438825E+02  0.55119066568E+02  0.00000000000E+00 0.  1.
         13    1    3    3    0    0 -0.55500722996E+02 -0.68902822766E+02  0.79786649176E+01  0.88834612241E+02  0.00000000000E+00 0. -1.
         -3    1    1    2    0  502 -0.35562557189E+02  0.73411248306E+02  0.48454169695E+01  0.81715267345E+02  0.00000000000E+00 0.  1.
<scales pt_clust_5="13000.00000" pt_clust_6="13000.00000" pt_clust_7="13000.00000" pt_clust_8="13000.00000" pt_clust_9="81.57152"></scales>
<clustering>
<clus scale="   80.708">  5  6 -1 -1</clus>
<clus scale="   81.572">  1  9  2 -1</clus>
<clus scale="   91.560">  7  8 -1 -1</clus>
<clus scale="  115.957">  1  5  2 -1</clus>
<clus scale="   81.572">  1  5  2 -1</clus>
</clustering>
</event>
<event>
 9    1  0.4664604E-005  0.9338528E+02  0.7546771E-02  0.1302687E+00
         21   -1    0    0  501  502  0.00000000000E+00  0.00000000000E+00  0.37804179176E+02  0.37804179176E+02  0.00000000000E+00 0.  1.
          1   -1    0    0  502    0 -0.00000000000E+00 -0.00000000000E+00 -0.40219705889E+03  0.40219705889E+03  0.00000000000E+00 0. -1.
         23    2    1    2    0    0  0.16776432554E+02 -0.22721467450E+02 -0.23290485144E+03  0.25180653780E+03  0.91455720871E+02 0.  0.
        -24    2    1    2    0    0 -0.79277903537E+01 -0.14563449179E+02 -0.41506107399E+02  0.90392810917E+02  0.78569455912E+02 0.  0.
         13    1    4    4    0    0 -0.33853962891E+02  0.16655580140E+02 -0.30027821659E+02  0.48220008573E+02  0.00000000000E+00 0. -1.
        -14    1    4    4    0    0  0.25926172537E+02 -0.31219029319E+02 -0.11478285740E+02  0.42172802344E+02  0.00000000000E+00 0.  1.
        -11    1    3    3    0    0  0.42031939313E+02 -0.39428394412E+02 -0.99289662981E+02  0.11480295895E+03  0.00000000000E+00 0.  1.
         11    1    3    3    0    0 -0.25255506759E+02  0.16706926962E+02 -0.13361518846E+03  0.13700357885E+03  0.00000000000E+00 0. -1.
          2    1    1    2  501    0 -0.88486422002E+01  0.37284916629E+02 -0.89981920876E+02  0.97801889355E+02  0.00000000000E+00 0. -1.
<scales pt_clust_5="13000.00000" pt_clust_6="13000.00000" pt_clust_7="13000.00000" pt_clust_8="13000.00000" pt_clust_9="38.32056"></scales>
<clustering>
<clus scale="   38.321">  1  9  2 -1</clus>
<clus scale="   78.569">  5  6 -1 -1</clus>
<clus scale="   80.807">  1  5  2 -1</clus>
<clus scale="   91.456">  7  8 -1 -1</clus>
<clus scale="   38.321">  1  5  2 -1</clus>
</clustering>
</event>
<event>
 9    1  0.4664604E-005  0.1001977E+03  0.7546771E-02  0.1286849E+00
          1   -1    0    0  502    0 -0.00000000000E+00  0.00000000000E+00  0.33488523323E+03  0.33488523323E+03  0.00000000000E+00 0. -1.
         21   -1    0    0  501  502  0.00000000000E+00 -0.00000000000E+00 -0.46064817245E+02  0.46064817245E+02  0.00000000000E+00 0. -1.
        -24    2    1    2    0    0 -0.37536316965E+02 -0.30214961286E+02  0.16764383751E+03  0.19256441847E+03  0.81576222193E+02 0.  0.
         23    2    1    2    0    0 -0.52435438056E+01  0.16694857573E+02  0.99619317567E+02  0.13860988299E+03  0.94775936872E+02 0.  0.
         13    1    3    3    0    0 -0.46124579602E+02 -0.41231564162E+02  0.16753739016E+03  0.17859534101E+03  0.00000000000E+00 0. -1.
        -14    1    3    3    0    0  0.85882626366E+01  0.11016602876E+02  0.10644734772E+00  0.13969077460E+02  0.00000000000E+00 0.  1.
        -13    1    4    4    0    0  0.41692792149E+02  0.25035785350E+02  0.47589015918E+02  0.68042588878E+02  0.00000000000E+00 0.  1.
         13    1    4    4    0    0 -0.46936335954E+02 -0.83409277766E+01  0.52030301649E+02  0.70567294115E+02  0.00000000000E+00 0. -1.
          2    1    1    2  501    0  0.42779860771E+02  0.13520103713E+02  0.21557260903E+02  0.49775749011E+02  0.00000000000E+00 0. -1.
<scales pt_clust_5="13000.00000" pt_clust_6="13000.00000" pt_clust_7="13000.00000" pt_clust_8="13000.00000" pt_clust_9="44.86546"></scales>
<clustering>
<clus scale="   44.865">  2  9  1 -1</clus>
<clus scale="   81.576">  5  6 -1 -1</clus>
<clus scale="   87.817">  1  5  2 -1</clus>
<clus scale="   94.776">  7  8 -1 -1</clus>
<clus scale="   44.865">  2  5  1 -1</clus>
</clustering>
</event>
<event>
 9    1  0.4664604E-005  0.9425679E+02  0.7546771E-02  0.1299234E+00
         -2   -1    0    0    0  501 -0.00000000000E+00  0.00000000000E+00  0.65885826712E+02  0.65885826712E+02  0.00000000000E+00 0.  1.
         21   -1    0    0  501  502  0.00000000000E+00 -0.00000000000E+00 -0.65237528818E+03  0.65237528818E+03  0.00000000000E+00 0. -1.
         23    2    1    2    0    0  0.88366254125E+01  0.23707002443E+02  0.17789509392E+02  0.95501816784E+02  0.90354980223E+02 0.  0.
        -24    2    1    2    0    0 -0.54195694155E+02 -0.17631979637E+02 -0.31238266087E+03  0.32729727550E+03  0.79325404287E+02 0.  0.
         13    1    4    4    0    0 -0.72869319614E+02 -0.15590151759E+02 -0.28108433528E+03  0.29079441899E+03  0.00000000000E+00 0. -1.
        -14    1    4    4    0    0  0.18673625460E+02 -0.20418278782E+01 -0.31298325592E+02  0.36502856515E+02  0.00000000000E+00 0.  1.
        -13    1    3    3    0    0  0.40207389110E+02  0.41147454251E+02  0.66134316576E+01  0.57909279124E+02  0.00000000000E+00 0.  1.
         13    1    3    3    0    0 -0.31370763697E+02 -0.17440451807E+02  0.11176077735E+02  0.37592537660E+02  0.00000000000E+00 0. -1.
         -1    1    1    2    0  502  0.45359068742E+02 -0.60750228057E+01 -0.29189630998E+03  0.29546202260E+03  0.00000000000E+00 0.  1.
<scales pt_clust_5="13000.00000" pt_clust_6="13000.00000" pt_clust_7="13000.00000" pt_clust_8="13000.00000" pt_clust_9="45.76408"></scales>
<clustering>
<clus scale="   45.764">  2  9  1 -1</clus>
<clus scale="   79.325">  5  6 -1 -1</clus>
<clus scale="   83.743">  2  5  1 -1</clus>
<clus scale="   90.355">  7  8 -1 -1</clus>
<clus scale="   45.764">  2  5  1 -1</clus>
</clustering>
</event>
<event>
 9    1  0.4664604E-005  0.9578915E+02  0.7546771E-02  0.1295567E+00
          1   -1    0    0  502    0 -0.00000000000E+00  0.00000000000E+00  0.46612036665E+03  0.46612036665E+03  0.00000000000E+00 0. -1.
         21   -1    0    0  501  502  0.00000000000E+00 -0.00000000000E+00 -0.94166679815E+02  0.94166679815E+02  0.00000000000E+00 0. -1.
         23    2    1    2    0    0 -0.64633218139E+00 -0.36791952019E+01  0.23466213733E+03  0.25182355762E+03  0.91295297002E+02 0.  0.
        -24    2    1    2    0    0  0.14363322732E+00  0.68356592266E+02  0.19505617337E+03  0.22174457414E+03  0.80318746606E+02 0.  0.
         11    1    4    4    0    0  0.33087951150E+02  0.59957822423E+02  0.15328095568E+03  0.16788330576E+03  0.00000000000E+00 0. -1.
        -12    1    4    4    0    0 -0.32944317923E+02  0.83987698430E+01  0.41775217689E+02  0.53861268378E+02  0.00000000000E+00 0.  1.
        -13    1    3    3    0    0  0.41119021408E+02  0.53433891516E+01  0.16474990784E+03  0.16988778020E+03  0.00000000000E+00 0. -1.
         13    1    3    3    0    0 -0.41765353590E+02 -0.90225843535E+01  0.69912229485E+02  0.81935777414E+02  0.00000000000E+00 0.  1.
          2    1    1    2  501    0  0.50269895406E+00 -0.64677397064E+02 -0.57764623861E+02  0.86718914701E+02  0.00000000000E+00 0. -1.
<scales pt_clust_5="13000.00000" pt_clust_6="13000.00000" pt_clust_7="13000.00000" pt_clust_8="13000.00000" pt_clust_9="64.67935"></scales>
<clustering>
<clus scale="   64.679">  2  9  1 -1</clus>
<clus scale="   80.319">  5  6 -1 -1</clus>
<clus scale="   85.392">  2  5  1 -1</clus>
<clus scale="   91.295">  7  8 -1 -1</clus>
<clus scale="   64.679">  2  5  1 -1</clus>
</clustering>
</event>
<event>
 9    1  0.4664604E-005  0.9626675E+02  0.7546771E-02  0.1290333E+00
         21   -1    0    0  501  502  0.00000000000E+00  0.00000000000E+00  0.74390811736E+02  0.74390811736E+02  0.00000000000E+00 0.  1.
          1   -1    0    0  502    0 -0.00000000000E+00 -0.00000000000E+00 -0.48875076146E+03  0.48875076146E+03  0.00000000000E+00 0. -1.
         23    2    1    2    0    0 -0.38981663084E+02 -0.23105922759E+02 -0.41083503426E+03  0.42173933589E+03  0.83816396624E+02 0.  0.
        -24    2    1    2    0    0  0.70545465823E+02  0.96069311418E+01 -0.51659875686E+01  0.10703379923E+03  0.79753312630E+02 0.  0.
         13    1    4    4    0    0  0.40745069731E+02  0.35452218587E+02 -0.28637685240E+02  0.61132131699E+02  0.00000000000E+00 0. -1.
        -14    1    4    4    0    0  0.29800396092E+02 -0.25845287445E+02  0.23471697671E+02  0.45901667529E+02  0.00000000000E+00 0.  1.
        -11    1    3    3    0    0  0.19942543714E+02 -0.29845807457E+02 -0.14670707055E+03  0.15103457161E+03  0.00000000000E+00 0.  1.
         11    1    3    3    0    0 -0.58924206798E+02  0.67398846980E+01 -0.26412796371E+03  0.27070476429E+03  0.00000000000E+00 0. -1.
          2    1    1    2  501    0 -0.31563802740E+02  0.13498991617E+02  0.16410721013E+01  0.34368438075E+02  0.00000000000E+00 0. -1.
<scales pt_clust_5="13000.00000" pt_clust_6="13000.00000" pt_clust_7="13000.00000" pt_clust_8="13000.00000" pt_clust_9="34.32924"></scales>
<clustering>
<clus scale="   34.329">  1  9  2 -1</clus>
<clus scale="   79.753">  5  6 -1 -1</clus>
<clus scale="   83.816">  7  8 -1 -1</clus>
<clus scale="   92.751">  1  5  2 -1</clus>
<clus scale="   34.329">  1  5  2 -1</clus>
</clustering>
</event>
<event>
 9    1  0.4664604E-005  0.2321252E+03  0.7546771E-02  0.1125153E+00
          1   -1    0    0  502    0 -0.00000000000E+00  0.00000000000E+00  0.46551693589E+02  0.46551693589E+02  0.00000000000E+00 0. -1.
         21   -1    0    0  501  502  0.00000000000E+00 -0.00000000000E+00 -0.90348398233E+03  0.90348398233E+03  0.00000000000E+00 0. -1.
        -24    2    1    2    0    0 -0.97007017322E+00 -0.79543009232E+02 -0.18543732439E+03  0.21708841735E+03  0.80077139768E+02 0.  0.
         23    2    1    2    0    0 -0.21234681042E+02 -0.72623072939E+02 -0.16204648610E+03  0.20079566407E+03  0.91295195119E+02 0.  0.
         13    1    3    3    0    0 -0.27765325054E+02 -0.71275716162E+02 -0.16655944674E+03  0.18328445185E+03  0.00000000000E+00 0. -1.
        -14    1    3    3    0    0  0.26795254880E+02 -0.82672930693E+01 -0.18877877652E+02  0.33803965499E+02  0.00000000000E+00 0.  1.
        -13    1    4    4    0    0 -0.11323073931E+02  0.17113662875E+02 -0.65384705377E+02  0.68529184713E+02  0.00000000000E+00 0.  1.
         13    1    4    4    0    0 -0.99116071111E+01 -0.89736735813E+02 -0.96661780719E+02  0.13226647936E+03  0.00000000000E+00 0. -1.
          2    1    1    2  501    0  0.22204751215E+02  0.15216608217E+03 -0.50944847825E+03  0.53215159450E+03  0.00000000000E+00 0. -1.
<scales pt_clust_5="13000.00000" pt_clust_6="13000.00000" pt_clust_7="13000.00000" pt_clust_8="13000.00000" pt_clust_9="153.77766"></scales>
<clustering>
<clus scale="   80.077">  5  6 -1 -1</clus>
<clus scale="   91.295">  7  8 -1 -1</clus>
<clus scale="   95.589">  5  7 -1 -1</clus>
<clus scale="  153.778">  2  9  1 -1</clus>
<clus scale="  153.778">  2  5  1 -1</clus>
</clustering>
</event>
<event>
 9    1  0.4664604E-005  0.9291995E+02  0.7546771E-02  0.1303275E+00
          1   -1    0    0  502    0 -0.00000000000E+00  0.00000000000E+00  0.41770738141E+03  0.41770738141E+03  0.00000000000E+00 0. -1.
         21   -1    0    0  501  502  0.00000000000E+00 -0.00000000000E+00 -0.41583390825E+02  0.41583390825E+02  0.00000000000E+00 0.  1.
         23    2    1    2    0    0  0.18350230214E+02  0.35073281148E+01  0.32518982507E+03  0.33799962026E+03  0.90256792927E+02 0.  0.
        -24    2    1    2    0    0 -0.31066342667E+02 -0.20545918052E+02  0.50193096217E+02  0.10001764152E+03  0.78082836226E+02 0.  0.
         11    1    4    4    0    0 -0.21125585868E+02 -0.32382839446E+02  0.66892224054E+02  0.77262593198E+02  0.00000000000E+00 0. -1.
        -12    1    4    4    0    0 -0.99407567998E+01  0.11836921393E+02 -0.16699127837E+02  0.22755048327E+02  0.00000000000E+00 0.  1.
        -13    1    3    3    0    0  0.51352536219E+02  0.18997781019E+02  0.17070274308E+03  0.17926914167E+03  0.00000000000E+00 0. -1.
         13    1    3    3    0    0 -0.33002306005E+02 -0.15490452904E+02  0.15448708199E+03  0.15873047859E+03  0.00000000000E+00 0.  1.
          2    1    1    2  501    0  0.12716112454E+02  0.17038589938E+02  0.74106929806E+00  0.21273510446E+02  0.00000000000E+00 0. -1.
<scales pt_clust_5="13000.00000" pt_clust_6="13000.00000" pt_clust_7="13000.00000" pt_clust_8="13000.00000" pt_clust_9="21.26060"></scales>
<clustering>
<clus scale="   21.261">  2  9  1 -1</clus>
<clus scale="   78.083">  5  6 -1 -1</clus>
<clus scale="   81.147">  2  5  1 -1</clus>
<clus scale="   90.257">  7  8 -1 -1</clus>
<clus scale="   21.261">  2  5  1 -1</clus>
</clustering>
</event>
<event>
 9    1  0.4664604E-005  0.3893483E+03  0.7546771E-02  0.1059555E+00
          1   -1    0    0  502    0 -0.00000000000E+00  0.00000000000E+00  0.26353114695E+04  0.26353114695E+04  0.00000000000E+00 0. -1.
         21   -1    0    0  501  502  0.00000000000E+00 -0.00000000000E+00 -0.11723344123E+03  0.11723344123E+03  0.00000000000E+00 0. -1.
        -24    2    1    2    0    0  0.21099649810E+03 -0.16048881319E+03  0.49712506122E+03  0.56905485565E+03  0.80086958206E+02 0.  0.
         23    2    1    2    0    0 -0.86431993024E+02  0.47352972714E+03  0.12200917330E+04  0.13146461992E+04  0.89274297451E+02 0.  0.
         11    1    3    3    0    0  0.36252479655E+02  0.35818889997E+01  0.81357320264E+02  0.89140819888E+02  0.00000000000E+00 0. -1.
        -12    1    3    3    0    0  0.17474401845E+03 -0.16407070219E+03  0.41576774096E+03  0.47991403576E+03  0.00000000000E+00 0.  1.
        -11    1    4    4    0    0 -0.43689544038E+01  0.34120612351E+02  0.16876875244E+03  0.17223877540E+03  0.00000000000E+00 0.  1.
         11    1    4    4    0    0 -0.82063038620E+02  0.43940911479E+03  0.10513229806E+04  0.11424074238E+04  0.00000000000E+00 0. -1.
          2    1    1    2  501    0 -0.12456450508E+03 -0.31304091395E+03  0.80086123400E+03  0.86884385586E+03  0.00000000000E+00 0. -1.
<scales pt_clust_5="13000.00000" pt_clust_6="13000.00000" pt_clust_7="13000.00000" pt_clust_8="13000.00000" pt_clust_9="378.97521"></scales>
<clustering>
<clus scale="   80.087">  5  6 -1 -1</clus>
<clus scale="   89.274">  7  8 -1 -1</clus>
<clus scale="  276.930">  1  5  2 -1</clus>
<clus scale="  378.975">  2  9  1 -1</clus>
<clus scale="  378.975">  2  5  1 -1</clus>
</clustering>
</event>
<event>
 9    1  0.4664604E-005  0.1423400E+03  0.7546771E-02  0.1211689E+00
         21   -1    0    0  501  502  0.00000000000E+00  0.00000000000E+00  0.47032917124E+02  0.47032917124E+02  0.00000000000E+00 0. -1.
          1   -1    0    0  502    0 -0.00000000000E+00 -0.00000000000E+00 -0.90137804054E+03  0.90137804054E+03  0.00000000000E+00 0. -1.
        -24    2    1    2    0    0  0.14467109598E+03  0.19734079915E+02 -0.57370528656E+03  0.59789583672E+03  0.83800452361E+02 0.  0.
         23    2    1    2    0    0 -0.63636134895E+02 -0.28709083527E+02 -0.22283714716E+03  0.25057330516E+03  0.90867034520E+02 0.  0.
         13    1    3    3    0    0  0.14845189094E+03  0.13463639397E+02 -0.45146625954E+03  0.47543771097E+03  0.00000000000E+00 0. -1.
        -14    1    3    3    0    0 -0.37807949621E+01  0.62704405183E+01 -0.12223902702E+03  0.12245812575E+03  0.00000000000E+00 0.  1.
        -13    1    4    4    0    0  0.50419438698E+01  0.22999391676E+02 -0.84334694752E+02  0.87559887816E+02  0.00000000000E+00 0.  1.
         13    1    4    4    0    0 -0.68678078765E+02 -0.51708475203E+02 -0.13850245240E+03  0.16301341734E+03  0.00000000000E+00 0. -1.
          2    1    1    2  501    0 -0.81034961082E+02  0.89750036117E+01 -0.57802689703E+02  0.99941815795E+02  0.00000000000E+00 0. -1.
<scales pt_clust_5="13000.00000" pt_clust_6="13000.00000" pt_clust_7="13000.00000" pt_clust_8="13000.00000" pt_clust_9="81.53046"></scales>
<clustering>
<clus scale="   81.530">  1  9  2 -1</clus>
<clus scale="   83.800">  5  6 -1 -1</clus>
<clus scale="   90.867">  7  8 -1 -1</clus>
<clus scale="  137.936">  2  5  1 -1</clus>
<clus scale="   81.530">  1  5  2 -1</clus>
</clustering>
</event>
<event>
 9    1  0.4664604E-005  0.1029467E+03  0.7546771E-02  0.1278398E+00
         21   -1    0    0  501  502  0.00000000000E+00  0.00000000000E+00  0.17332804142E+03  0.17332804142E+03  0.00000000000E+00 0. -1.
         -4   -1    0    0    0  501 -0.00000000000E+00 -0.00000000000E+00 -0.28304814786E+03  0.28304814786E+03  0.00000000000E+00 0.  1.
         23    2    1    2    0    0  0.48586704510E+02 -0.15143568724E+02 -0.24668704751E+03  0.26731027961E+03  0.89500227099E+02 0.  0.
        -24    2    1    2    0    0 -0.56812086275E+02 -0.14622240970E+02  0.10614782917E+03  0.14543704320E+03  0.80269227092E+02 0.  0.
         11    1    4    4    0    0 -0.60003719841E+02  0.19650788646E+02  0.54712975880E+02  0.83547050330E+02  0.00000000000E+00 0. -1.
        -12    1    4    4    0    0  0.31916335661E+01 -0.34273029616E+02  0.51434853295E+02  0.61889992869E+02  0.00000000000E+00 0.  1.
        -11    1    3    3    0    0  0.50225131935E+02  0.22304063737E+02 -0.20013669134E+03  0.20754452620E+03  0.00000000000E+00 0.  1.
         11    1    3    3    0    0 -0.16384274255E+01 -0.37447632461E+02 -0.46550356170E+02  0.59765753412E+02  0.00000000000E+00 0. -1.
         -3    1    1    2    0  502  0.82253817649E+01  0.29765809694E+02  0.30819111889E+02  0.43628866471E+02  0.00000000000E+00 0.  1.
<scales pt_clust_5="13000.00000" pt_clust_6="13000.00000" pt_clust_7="13000.00000" pt_clust_8="13000.00000" pt_clust_9="30.88139"></scales>
<clustering>
<clus scale="   30.881">  1  9  2 -1</clus>
<clus scale="   80.269">  5  6 -1 -1</clus>
<clus scale="   89.500">  7  8 -1 -1</clus>
<clus scale="   95.031">  1  5  2 -1</clus>
<clus scale="   30.881">  1  5  2 -1</clus>
</clustering>
</event>
<event>
 9    1  0.4664604E-005  0.1543084E+03  0.7546771E-02  0.1197267E+00
         -4   -1    0    0    0  501 -0.00000000000E+00  0.00000000000E+00  0.53195502313E+03  0.53195502313E+03  0.00000000000E+00 0.  1.
         21   -1    0    0  501  502  0.00000000000E+00 -0.00000000000E+00 -0.12166134842E+03  0.12166134842E+03  0.00000000000E+00 0.  1.
        -24    2    1    2    0    0 -0.88630160022E+02  0.69105632560E+02  0.24177840082E+03  0.27838472049E+03  0.80064747419E+02 0.  0.
         23    2    1    2    0    0  0.46072801087E+02 -0.18401468078E+03  0.12632021943E+03  0.24563365423E+03  0.91624169894E+02 0.  0.
         13    1    3    3    0    0 -0.23970253703E+02  0.19378583441E+02  0.95841980405E+01  0.32279396073E+02  0.00000000000E+00 0. -1.
        -14    1    3    3    0    0 -0.64659906319E+02  0.49727049119E+02  0.23219420278E+03  0.24610532441E+03  0.00000000000E+00 0.  1.
        -13    1    4    4    0    0 -0.38907898285E+01 -0.15009226643E+03  0.86155107813E+02  0.17310554379E+03  0.00000000000E+00 0.  1.
         13    1    4    4    0    0  0.49963590915E+02 -0.33922414350E+02  0.40165111616E+02  0.72528110437E+02  0.00000000000E+00 0. -1.
         -3    1    1    2    0  502  0.42557358936E+02  0.11490904822E+03  0.42195054451E+02  0.12959799683E+03  0.00000000000E+00 0.  1.
<scales pt_clust_5="13000.00000" pt_clust_6="13000.00000" pt_clust_7="13000.00000" pt_clust_8="13000.00000" pt_clust_9="122.53660"></scales>
<clustering>
<clus scale="   80.065">  5  6 -1 -1</clus>
<clus scale="   91.624">  7  8 -1 -1</clus>
<clus scale="  122.537">  2  9  1 -1</clus>
<clus scale="  147.738">  1  5  2 -1</clus>
<clus scale="  122.537">  2  5  1 -1</clus>
</clustering>
</event>
<event>
 9    1  0.4664604E-005  0.1040826E+03  0.7546771E-02  0.1275593E+00
          1   -1    0    0  502    0 -0.00000000000E+00  0.00000000000E+00  0.40484686086E+03  0.40484686086E+03  0.00000000000E+00 0. -1.
         21   -1    0    0  501  502  0.00000000000E+00 -0.00000000000E+00 -0.13014258775E+03  0.13014258775E+03  0.00000000000E+00 0. -1.
         23    2    1    2    0    0  0.23131181672E+02  0.38903273455E+02  0.32161355885E+03  0.33725010727E+03  0.90850632165E+02 0.  0.
        -24    2    1    2    0    0 -0.53886494192E+02 -0.86104605948E+02 -0.12110317513E+02  0.13152134358E+03  0.82664663588E+02 0.  0.
         11    1    4    4    0    0 -0.63103210203E+02 -0.77948028263E+02 -0.34428832461E+02  0.10603421501E+03  0.00000000000E+00 0. -1.
        -12    1    4    4    0    0  0.92167160109E+01 -0.81565776849E+01  0.22318514947E+02  0.25487128575E+02  0.00000000000E+00 0.  1.
        -11    1    3    3    0    0  0.45706041666E+02  0.11364789911E+02  0.27275973931E+03  0.27679609116E+03  0.00000000000E+00 0.  1.
         11    1    3    3    0    0 -0.22574859994E+02  0.27538483543E+02  0.48853819543E+02  0.60454016108E+02  0.00000000000E+00 0. -1.
          2    1    1    2  501    0  0.30755312520E+02  0.47201332494E+02 -0.34798968229E+02  0.66217997759E+02  0.00000000000E+00 0. -1.
<scales pt_clust_5="13000.00000" pt_clust_6="13000.00000" pt_clust_7="13000.00000" pt_clust_8="13000.00000" pt_clust_9="56.33698"></scales>
<clustering>
<clus scale="   56.337">  2  9  1 -1</clus>
<clus scale="   82.665">  5  6 -1 -1</clus>
<clus scale="   90.851">  7  8 -1 -1</clus>
<clus scale="   97.020">  2  5  1 -1</clus>
<clus scale="   56.337">  2  5  1 -1</clus>
</clustering>
</event>
<event>
 9    1  0.4664604E-005  0.9548664E+02  0.7546771E-02  0.1295781E+00
         21   -1    0    0  501  502  0.00000000000E+00  0.00000000000E+00  0.13835220940E+03  0.13835220940E+03  0.00000000000E+00 0.  1.
         -4   -1    0    0    0  501 -0.00000000000E+00 -0.00000000000E+00 -0.96273045898E+02  0.96273045898E+02  0.00000000000E+00 0.  1.
         23    2    1    2    0    0 -0.66113485043E+01  0.20520316677E+02  0.11036689573E+02  0.93714421977E+02  0.90530608328E+02 0.  0.
        -24    2    1    2    0    0  0.47261035228E+02 -0.79740599527E+01  0.11987785904E+02  0.94296600255E+02  0.80317810764E+02 0.  0.
         11    1    4    4    0    0  0.45648831615E+02  0.30257103726E+02  0.22514122060E+01  0.54812197645E+02  0.00000000000E+00 0. -1.
        -12    1    4    4    0    0  0.16122036128E+01 -0.38231163679E+02  0.97363736984E+01  0.39484402611E+02  0.00000000000E+00 0.  1.
        -13    1    3    3    0    0 -0.23771755957E+02  0.55305109875E+01  0.45946558784E+02  0.52026620082E+02  0.00000000000E+00 0. -1.
         13    1    3    3    0    0  0.17160407453E+02  0.14989805690E+02 -0.34909869211E+02  0.41687801895E+02  0.00000000000E+00 0.  1.
         -3    1    1    2    0  502 -0.40649686724E+02 -0.12546256724E+02  0.19054688026E+02  0.46614233066E+02  0.00000000000E+00 0.  1.
<scales pt_clust_5="13000.00000" pt_clust_6="13000.00000" pt_clust_7="13000.00000" pt_clust_8="13000.00000" pt_clust_9="42.54181"></scales>
<clustering>
<clus scale="   42.542">  1  9  2 -1</clus>
<clus scale="   80.318">  5  6 -1 -1</clus>
<clus scale="   85.865">  1  5  2 -1</clus>
<clus scale="   90.531">  7  8 -1 -1</clus>
<clus scale="   42.542">  1  5  2 -1</clus>
</clustering>
</event>
<event>
 9    1  0.4664604E-005  0.9076351E+02  0.7546771E-02  0.1306112E+00
         21   -1    0    0  501  502  0.00000000000E+00  0.00000000000E+00  0.20186198438E+03  0.20186198438E+03  0.00000000000E+00 0. -1.
          1   -1    0    0  502    0 -0.00000000000E+00 -0.00000000000E+00 -0.29636550857E+03  0.29636550857E+03  0.00000000000E+00 0. -1.
        -24    2    1    2    0    0  0.16514013240E+02  0.18594191839E+01 -0.22149496510E+03  0.23629069622E+03  0.80604612053E+02 0.  0.
         23    2    1    2    0    0 -0.19013408041E+02 -0.31185876207E+02 -0.31191507575E+02  0.10103889977E+03  0.88892522528E+02 0.  0.
         11    1    3    3    0    0 -0.22222380559E+02  0.22255282743E+02 -0.14295706503E+03  0.14637572971E+03  0.00000000000E+00 0. -1.
        -12    1    3    3    0    0  0.38736393799E+02 -0.20395863559E+02 -0.78537900073E+02  0.89914966511E+02  0.00000000000E+00 0.  1.
        -13    1    4    4    0    0 -0.37618638706E+02  0.17209073961E+02 -0.17282917901E+01  0.41404120534E+02  0.00000000000E+00 0. -1.
         13    1    4    4    0    0  0.18605230665E+02 -0.48394950168E+02 -0.29463215784E+02  0.59634779234E+02  0.00000000000E+00 0.  1.
          2    1    1    2  501    0  0.24993948013E+01  0.29326457023E+02  0.15818294848E+03  0.16089789696E+03  0.00000000000E+00 0. -1.
<scales pt_clust_5="13000.00000" pt_clust_6="13000.00000" pt_clust_7="13000.00000" pt_clust_8="13000.00000" pt_clust_9="29.43277"></scales>
<clustering>
<clus scale="   29.433">  1  9  2 -1</clus>
<clus scale="   80.605">  5  6 -1 -1</clus>
<clus scale="   82.663">  2  5  1 -1</clus>
<clus scale="   88.893">  7  8 -1 -1</clus>
<clus scale="   29.433">  1  5  2 -1</clus>
</clustering>
</event>
<event>
 9    1  0.4664604E-005  0.9849727E+02  0.7546771E-02  0.1287624E+00
         21   -1    0    0  501  502  0.00000000000E+00  0.00000000000E+00  0.69155024259E+02  0.69155024259E+02  0.00000000000E+00 0. -1.
          1   -1    0    0  502    0 -0.00000000000E+00 -0.00000000000E+00 -0.26608307134E+03  0.26608307134E+03  0.00000000000E+00 0. -1.
        -24    2    1    2    0    0 -0.55086269279E+02 -0.11466634329E+02 -0.17581005863E+03  0.20131175261E+03  0.80319762544E+02 0.  0.
         23    2    1    2    0    0  0.48713628525E+02  0.44106070820E+02 -0.26229436710E+02  0.10028009108E+03  0.71061594623E+02 0.  0.
         11    1    3    3    0    0 -0.63892067609E+02 -0.15781552519E+02 -0.17922633216E+03  0.19092755653E+03  0.00000000000E+00 0. -1.
        -12    1    3    3    0    0  0.88057983299E+01  0.43149181903E+01  0.34162735314E+01  0.10384196072E+02  0.00000000000E+00 0.  1.
        -13    1    4    4    0    0  0.44217793441E+01  0.50039655302E+02 -0.23635965379E+02  0.55517367505E+02  0.00000000000E+00 0. -1.
         13    1    4    4    0    0  0.44291849180E+02 -0.59335844815E+01 -0.25934713313E+01  0.44762723579E+02  0.00000000000E+00 0.  1.
          2    1    1    2  501    0  0.63726407544E+01 -0.32639436492E+02  0.51114482556E+01  0.33646251915E+02  0.00000000000E+00 0. -1.
<scales pt_clust_5="13000.00000" pt_clust_6="13000.00000" pt_clust_7="13000.00000" pt_clust_8="13000.00000" pt_clust_9="33.25573"></scales>
<clustering>
<clus scale="   33.256">  1  9  2 -1</clus>
<clus scale="   71.062">  7  8 -1 -1</clus>
<clus scale="   80.320">  5  6 -1 -1</clus>
<clus scale="   91.105">  1  7  2 -1</clus>
<clus scale="   33.256">  1  5  2 -1</clus>
</clustering>
</event>
<event>
 9    1  0.4664604E-005  0.1307162E+03  0.7546771E-02  0.1228821E+00
          1   -1    0    0  502    0 -0.00000000000E+00  0.00000000000E+00  0.11033323376E+04  0.11033323376E+04  0.00000000000E+00 0. -1.
         21   -1    0    0  501  502  0.00000000000E+00 -0.00000000000E+00 -0.18481613889E+02  0.18481613889E+02  0.00000000000E+00 0. -1.
         23    2    1    2    0    0  0.64015139578E+01  0.10191014428E+03  0.61843840616E+03  0.63317409532E+03  0.89536114951E+02 0.  0.
        -24    2    1    2    0    0  0.10938274860E+02 -0.86103141178E+02  0.33535741360E+03  0.35550114101E+03  0.79894115111E+02 0.  0.
         13    1    4    4    0    0  0.42439763184E+02 -0.39799301533E+02  0.21532016909E+03  0.22304235723E+03  0.00000000000E+00 0. -1.
        -14    1    4    4    0    0 -0.31501488324E+02 -0.46303839645E+02  0.12003724451E+03  0.13245878378E+03  0.00000000000E+00 0.  1.
        -13    1    3    3    0    0 -0.21087590957E+02  0.10360765972E+03  0.53369213208E+03  0.54406481736E+03  0.00000000000E+00 0. -1.
         13    1    3    3    0    0  0.27489104915E+02 -0.16975154439E+01  0.84746274083E+02  0.89109277961E+02  0.00000000000E+00 0.  1.
          2    1    1    2  501    0 -0.17339788818E+02 -0.15807003103E+02  0.13105490395E+03  0.13313871515E+03  0.00000000000E+00 0. -1.
<scales pt_clust_5="13000.00000" pt_clust_6="13000.00000" pt_clust_7="13000.00000" pt_clust_8="13000.00000" pt_clust_9="23.46338"></scales>
<clustering>
<clus scale="   23.463">  2  9  1 -1</clus>
<clus scale="   79.894">  5  6 -1 -1</clus>
<clus scale="   89.536">  7  8 -1 -1</clus>
<clus scale="  124.310">  2  5  1 -1</clus>
<clus scale="   23.463">  2  5  1 -1</clus>
</clustering>
</event>
<event>
 9    1  0.4664604E-005  0.9679786E+02  0.7546771E-02  0.1293557E+00
         21   -1    0    0  501  502  0.00000000000E+00  0.00000000000E+00  0.17588223314E+03  0.17588223314E+03  0.00000000000E+00 0.  1.
         -2   -1    0    0    0  501 -0.00000000000E+00 -0.00000000000E+00 -0.65660795020E+02  0.65660795020E+02  0.00000000000E+00 0.  1.
         23    2    1    2    0    0  0.19134508971E+01 -0.42315887268E+02  0.33302663893E+02  0.10547857632E+03  0.90677268548E+02 0.  0.
        -24    2    1    2    0    0 -0.18958403129E+02  0.21791290070E+02  0.48338588309E+02  0.96966926162E+02  0.78941017713E+02 0.  0.
         13    1    4    4    0    0  0.29755333942E+02  0.28799372820E+01  0.79816946964E+01  0.30941580228E+02  0.00000000000E+00 0. -1.
        -14    1    4    4    0    0 -0.48713737071E+02  0.18911352788E+02  0.40356893612E+02  0.66025345934E+02  0.00000000000E+00 0.  1.
        -11    1    3    3    0    0 -0.22837560637E+02 -0.60223506618E+02  0.63178719945E+01  0.64717388944E+02  0.00000000000E+00 0.  1.
         11    1    3    3    0    0  0.24751011534E+02  0.17907619350E+02  0.26984791899E+02  0.40761187380E+02  0.00000000000E+00 0. -1.
         -1    1    1    2    0  502  0.17044952232E+02  0.20524597198E+02  0.28580185919E+02  0.39097525675E+02  0.00000000000E+00 0.  1.
<scales pt_clust_5="13000.00000" pt_clust_6="13000.00000" pt_clust_7="13000.00000" pt_clust_8="13000.00000" pt_clust_9="26.67938"></scales>
<clustering>
<clus scale="   26.679">  1  9  2 -1</clus>
<clus scale="   78.941">  5  6 -1 -1</clus>
<clus scale="   85.902">  1  5  2 -1</clus>
<clus scale="   90.677">  7  8 -1 -1</clus>
<clus scale="   26.679">  1  5  2 -1</clus>
</clustering>
</event>
<event>
 9    1  0.4664604E-005  0.2010461E+03  0.7546771E-02  0.1149755E+00
         21   -1    0    0  501  502  0.00000000000E+00  0.00000000000E+00  0.25580114600E+03  0.25580114600E+03  0.00000000000E+00 0. -1.
          1   -1    0    0  502    0 -0.00000000000E+00 -0.00000000000E+00 -0.25610809036E+03  0.25610809036E+03  0.00000000000E+00 0. -1.
         23    2    1    2    0    0 -0.17579840063E+03  0.36397893387E+02 -0.11839872805E+03  0.23350733738E+03  0.90980951297E+02 0.  0.
        -24    2    1    2    0    0  0.16337548503E+03 -0.83412025010E+02  0.11096136126E+03  0.22925415918E+03  0.81215335873E+02 0.  0.
         13    1    4    4    0    0  0.13185591390E+03 -0.88106123111E+02  0.11667347137E+03  0.19687907426E+03  0.00000000000E+00 0. -1.
        -14    1    4    4    0    0  0.31519571132E+02  0.46940981007E+01 -0.57121101110E+01  0.32375084915E+02  0.00000000000E+00 0.  1.
        -11    1    3    3    0    0 -0.13229763114E+03  0.58972551881E+02 -0.11395056197E+03  0.18429637992E+03  0.00000000000E+00 0. -1.
         11    1    3    3    0    0 -0.43500769488E+02 -0.22574658494E+02 -0.44481660884E+01  0.49210957456E+02  0.00000000000E+00 0.  1.
          2    1    1    2  501    0  0.12422915594E+02  0.47014131623E+02  0.71304224335E+01  0.49147739807E+02  0.00000000000E+00 0. -1.
<scales pt_clust_5="13000.00000" pt_clust_6="13000.00000" pt_clust_7="13000.00000" pt_clust_8="13000.00000" pt_clust_9="48.62774"></scales>
<clustering>
<clus scale="   48.628">  1  9  2 -1</clus>
<clus scale="   81.215">  5  6 -1 -1</clus>
<clus scale="   90.981">  7  8 -1 -1</clus>
<clus scale="  196.820">  1  5  2 -1</clus>
<clus scale="   48.628">  1  5  2 -1</clus>
</clustering>
</event>
<event>
 9    1  0.4666937E-005  0.9902726E+02  0.7546771E-02  0.1288849E+00
         21   -1    0    0  501  502  0.00000000000E+00  0.00000000000E+00  0.39443812336E+02  0.39443812336E+02  0.00000000000E+00 0.  1.
         -4   -1    0    0    0  501 -0.00000000000E+00 -0.00000000000E+00 -0.88900670471E+03  0.88900670471E+03  0.00000000000E+00 0.  1.
        -24    2    1    2    0    0  0.26577003714E+02 -0.30339147585E+02 -0.69626209090E+03  0.70191585122E+03  0.79234853175E+02 0.  0.
         23    2    1    2    0    0 -0.37986712552E+02 -0.65915578945E+01 -0.15890961486E+03  0.18747679530E+03  0.91699749804E+02 0.  0.
         13    1    3    3    0    0  0.60676885692E+01  0.25057650828E+02 -0.12655373564E+03  0.12915320636E+03  0.00000000000E+00 0. -1.
        -14    1    3    3    0    0  0.20509315144E+02 -0.55396798413E+02 -0.56970835527E+03  0.57276264486E+03  0.00000000000E+00 0.  1.
        -13    1    4    4    0    0 -0.68207084074E+02 -0.48571832315E+01 -0.98512857427E+02  0.11991906281E+03  0.00000000000E+00 0.  1.
         13    1    4    4    0    0  0.30220371522E+02 -0.17343746630E+01 -0.60396757436E+02  0.67557732490E+02  0.00000000000E+00 0. -1.
         -3    1    1    2    0  502  0.11409708838E+02  0.36930705479E+02  0.56088133884E+01  0.39057870533E+02  0.00000000000E+00 0.  1.
<scales pt_clust_5="13000.00000" pt_clust_6="13000.00000" pt_clust_7="13000.00000" pt_clust_8="13000.00000" pt_clust_9="38.65305"></scales>
<clustering>
<clus scale="   38.653">  1  9  2 -1</clus>
<clus scale="   79.235">  5  6 -1 -1</clus>
<clus scale="   87.611">  2  5  1 -1</clus>
<clus scale="   91.700">  7  8 -1 -1</clus>
<clus scale="   38.653">  1  5  2 -1</clus>
</clustering>
</event>
<event>
 9    1  0.4664604E-005  0.1120148E+03  0.7546771E-02  0.1262593E+00
         21   -1    0    0  501  502  0.00000000000E+00  0.00000000000E+00  0.24930305599E+03  0.24930305599E+03  0.00000000000E+00 0.  1.
         -4   -1    0    0    0  501 -0.00000000000E+00 -0.00000000000E+00 -0.27199004195E+03  0.27199004195E+03  0.00000000000E+00 0.  1.
        -24    2    1    2    0    0 -0.64559641781E+02 -0.22582339195E+02 -0.22955432565E+03  0.25166385744E+03  0.77211393757E+02 0.  0.
         23    2    1    2    0    0 -0.73156879034E+01  0.52498997747E+01  0.15040455167E+03  0.17659955219E+03  0.92112930332E+02 0.  0.
         11    1    3    3    0    0 -0.38624950266E+02 -0.77081502673E+01 -0.29045064718E+02  0.48937900936E+02  0.00000000000E+00 0. -1.
        -12    1    3    3    0    0 -0.25934691516E+02 -0.14874188927E+02 -0.20050926094E+03  0.20272595651E+03  0.00000000000E+00 0.  1.
        -11    1    4    4    0    0  0.19280781271E+02 -0.36364364349E+02  0.50454476140E+02  0.65113513832E+02  0.00000000000E+00 0.  1.
         11    1    4    4    0    0 -0.26596469174E+02  0.41614264123E+02  0.99950075529E+02  0.11148603836E+03  0.00000000000E+00 0. -1.
         -3    1    1    2    0  502  0.71875329685E+02  0.17332439420E+02  0.56462788031E+02  0.93029688303E+02  0.00000000000E+00 0.  1.
<scales pt_clust_5="13000.00000" pt_clust_6="13000.00000" pt_clust_7="13000.00000" pt_clust_8="13000.00000" pt_clust_9="73.93562"></scales>
<clustering>
<clus scale="   73.936">  1  9  2 -1</clus>
<clus scale="   77.211">  5  6 -1 -1</clus>
<clus scale="   92.113">  7  8 -1 -1</clus>
<clus scale="  100.121">  2  5  1 -1</clus>
<clus scale="   73.936">  1  5  2 -1</clus>
</clustering>
</event>
<event>
 9    1  0.4664604E-005  0.9600648E+02  0.7546771E-02  0.1294656E+00
         21   -1    0    0  501  502  0.00000000000E+00  0.00000000000E+00  0.12137385631E+03  0.12137385631E+03  0.00000000000E+00 0. -1.
          1   -1    0    0  502    0 -0.00000000000E+00 -0.00000000000E+00 -0.22626180968E+03  0.22626180968E+03  0.00000000000E+00 0. -1.
         23    2    1    2    0    0 -0.21462467368E+02  0.11330541765E+02 -0.14799548324E+03  0.17568288142E+03  0.91502967609E+02 0.  0.
        -24    2    1    2    0    0  0.43799792651E+02 -0.18265088651E+00 -0.28129067691E+02  0.96468452401E+02  0.81218610317E+02 0.  0.
         11    1    4    4    0    0 -0.43294721074E+01 -0.27444008622E+02 -0.30303142414E+02  0.41112022307E+02  0.00000000000E+00 0. -1.
        -12    1    4    4    0    0  0.48129264759E+02  0.27261357736E+02  0.21740747236E+01  0.55356430094E+02  0.00000000000E+00 0.  1.
        -11    1    3    3    0    0  0.11427118458E+02  0.22991725782E+02 -0.13657284061E+03  0.13896524488E+03  0.00000000000E+00 0. -1.
         11    1    3    3    0    0 -0.32889585827E+02 -0.11661184017E+02 -0.11422642629E+02  0.36717636541E+02  0.00000000000E+00 0.  1.
          2    1    1    2  501    0 -0.22337325283E+02 -0.11147890879E+02  0.71236597563E+02  0.75484332177E+02  0.00000000000E+00 0. -1.
<scales pt_clust_5="13000.00000" pt_clust_6="13000.00000" pt_clust_7="13000.00000" pt_clust_8="13000.00000" pt_clust_9="24.96461"></scales>
<clustering>
<clus scale="   24.965">  1  9  2 -1</clus>
<clus scale="   81.219">  5  6 -1 -1</clus>
<clus scale="   86.261">  1  5  2 -1</clus>
<clus scale="   91.503">  7  8 -1 -1</clus>
<clus scale="   24.965">  1  5  2 -1</clus>
</clustering>
</event>
<event>
 9    1  0.4664604E-005  0.1002643E+03  0.7546771E-02  0.1283764E+00
         21   -1    0    0  501  502  0.00000000000E+00  0.00000000000E+00  0.15878243906E+02  0.15878243906E+02  0.00000000000E+00 0.  1.
          3   -1    0    0  502    0 -0.00000000000E+00 -0.00000000000E+00 -0.11835881495E+04  0.11835881495E+04  0.00000000000E+00 0. -1.
        -24    2    1    2    0    0  0.13300515430E+02 -0.55012255504E+02 -0.78909980954E+03  0.79535766124E+03  0.81927088982E+02 0.  0.
         23    2    1    2    0    0  0.10129893673E+02  0.17463473230E+02 -0.29975867454E+03  0.31368505277E+03  0.90196794415E+02 0.  0.
         11    1    3    3    0    0  0.40325100132E+02 -0.39245757919E+02 -0.29825554742E+03  0.30351723968E+03  0.00000000000E+00 0. -1.
        -12    1    3    3    0    0 -0.27024584702E+02 -0.15766497584E+02 -0.49084426212E+03  0.49184042156E+03  0.00000000000E+00 0.  1.
        -11    1    4    4    0    0  0.17940216687E+02 -0.31581716931E+02 -0.72819214315E+02  0.81375021921E+02  0.00000000000E+00 0.  1.
         11    1    4    4    0    0 -0.78103230135E+01  0.49045190161E+02 -0.22693946023E+03  0.23231003085E+03  0.00000000000E+00 0. -1.
          4    1    1    2  501    0 -0.23430409103E+02  0.37548782274E+02 -0.78851421464E+02  0.90423679354E+02  0.00000000000E+00 0. -1.
<scales pt_clust_5="13000.00000" pt_clust_6="13000.00000" pt_clust_7="13000.00000" pt_clust_8="13000.00000" pt_clust_9="44.25941"></scales>
<clustering>
<clus scale="   44.259">  1  9  2 -1</clus>
<clus scale="   81.927">  5  6 -1 -1</clus>
<clus scale="   90.197">  7  8 -1 -1</clus>
<clus scale="   92.895">  2  5  1 -1</clus>
<clus scale="   44.259">  1  5  2 -1</clus>
</clustering>
</event>
<event>
 9    1  0.4664604E-005  0.2623603E+03  0.7546771E-02  0.1141433E+00
         -4   -1    0    0    0  501 -0.00000000000E+00  0.00000000000E+00  0.81762076362E+03  0.81762076362E+03  0.00000000000E+00 0.  1.
         21   -1    0    0  501  502  0.00000000000E+00 -0.00000000000E+00 -0.16892259174E+03  0.16892259174E+03  0.00000000000E+00 0.  1.
         23    2    1    2    0    0  0.38957390580E+02  0.38773894480E+02  0.86443332063E+02  0.13836245807E+03  0.93008746744E+02 0.  0.
        -24    2    1    2    0    0 -0.25720314603E+03  0.75923191076E+02  0.53033711017E+03  0.59957403360E+03  0.79459310839E+02 0.  0.
         11    1    4    4    0    0 -0.10671600453E+03  0.70257727286E+02  0.21443953476E+03  0.24961724287E+03  0.00000000000E+00 0. -1.
        -12    1    4    4    0    0 -0.15048714150E+03  0.56654637896E+01  0.31589757541E+03  0.34995679074E+03  0.00000000000E+00 0.  1.
        -13    1    3    3    0    0 -0.53873604602E+01  0.44425628447E+02  0.44464962886E+01  0.44971451443E+02  0.00000000000E+00 0.  1.
         13    1    3    3    0    0  0.44344751040E+02 -0.56517339675E+01  0.81996835774E+02  0.93391006626E+02  0.00000000000E+00 0. -1.
         -3    1    1    2    0  502  0.21824575545E+03 -0.11469708556E+03  0.31917729650E+02  0.24860686369E+03  0.00000000000E+00 0.  1.
<scales pt_clust_5="13000.00000" pt_clust_6="13000.00000" pt_clust_7="13000.00000" pt_clust_8="13000.00000" pt_clust_9="250.03833"></scales>
<clustering>
<clus scale="   79.459">  5  6 -1 -1</clus>
<clus scale="   93.009">  7  8 -1 -1</clus>
<clus scale="  108.036">  1  7  2 -1</clus>
<clus scale="  250.038">  2  9  1 -1</clus>
<clus scale="  250.038">  2  5  1 -1</clus>
</clustering>
</event>
<event>
 9    1  0.4664604E-005  0.1283067E+03  0.7546771E-02  0.1232495E+00
          1   -1    0    0  502    0 -0.00000000000E+00  0.00000000000E+00  0.19107446483E+03  0.19107446483E+03  0.00000000000E+00 0. -1.
         21   -1    0    0  501  502  0.00000000000E+00 -0.00000000000E+00 -0.31603777186E+03  0.31603777186E+03  0.00000000000E+00 0. -1.
        -24    2    1    2    0    0  0.83798083071E+02  0.23032246503E+02  0.11023584744E+03  0.16222784699E+03  0.81322378055E+02 0.  0.
         23    2    1    2    0    0 -0.11442245964E+03  0.25091458995E+02 -0.58636955986E+02  0.15933667777E+03  0.90707241663E+02 0.  0.
         13    1    3    3    0    0  0.89631977932E+02 -0.17526037158E+01  0.10122954834E+03  0.13521976388E+03  0.00000000000E+00 0. -1.
        -14    1    3    3    0    0 -0.58338948609E+01  0.24784850219E+02  0.90062991054E+01  0.27008083109E+02  0.00000000000E+00 0.  1.
        -11    1    4    4    0    0 -0.17548746839E+02 -0.99331815099E+01 -0.52389731227E+02  0.56136534882E+02  0.00000000000E+00 0.  1.
         11    1    4    4    0    0 -0.96873712803E+02  0.35024640505E+02 -0.62472247590E+01  0.10320014289E+03  0.00000000000E+00 0. -1.
          2    1    1    2  501    0  0.30624376571E+02 -0.48123705498E+02 -0.17656219848E+03  0.18554771194E+03  0.00000000000E+00 0. -1.
<scales pt_clust_5="13000.00000" pt_clust_6="13000.00000" pt_clust_7="13000.00000" pt_clust_8="13000.00000" pt_clust_9="57.04159"></scales>
<clustering>
<clus scale="   57.042">  2  9  1 -1</clus>
<clus scale="   81.322">  5  6 -1 -1</clus>
<clus scale="   90.707">  7  8 -1 -1</clus>
<clus scale="  121.853">  1  5  2 -1</clus>
<clus scale="   57.042">  2  5  1 -1</clus>
</clustering>
</event>
<event>
 9    1  0.4664604E-005  0.1017445E+03  0.7546771E-02  0.1284109E+00
          1   -1    0    0  502    0 -0.00000000000E+00  0.00000000000E+00  0.47238161258E+03  0.47238161258E+03  0.00000000000E+00 0. -1.
         21   -1    0    0  501  502  0.00000000000E+00 -0.00000000000E+00 -0.58936858326E+02  0.58936858326E+02  0.00000000000E+00 0.  1.
         23    2    1    2    0    0 -0.53216724432E+02 -0.21087595299E+02  0.38136819955E+03  0.39616232113E+03  0.90698261401E+02 0.  0.
        -24    2    1    2    0    0  0.14063521632E+02 -0.65343144716E+00  0.44580468858E+02  0.88658908974E+02  0.75331097984E+02 0.  0.
         11    1    4    4    0    0  0.19542724078E+02 -0.89026856500E+01  0.63647892182E+02  0.67173134923E+02  0.00000000000E+00 0. -1.
        -12    1    4    4    0    0 -0.54792024457E+01  0.82492542028E+01 -0.19067423324E+02  0.21485774051E+02  0.00000000000E+00 0.  1.
        -13    1    3    3    0    0  0.24404409584E+02  0.48448969348E+01  0.73218787837E+02  0.77330712695E+02  0.00000000000E+00 0.  1.
         13    1    3    3    0    0 -0.77621134016E+02 -0.25932492234E+02  0.30814941171E+03  0.31883160844E+03  0.00000000000E+00 0. -1.
          2    1    1    2  501    0  0.39153202799E+02  0.21741026746E+02 -0.12503914149E+02  0.46497240805E+02  0.00000000000E+00 0. -1.
<scales pt_clust_5="13000.00000" pt_clust_6="13000.00000" pt_clust_7="13000.00000" pt_clust_8="13000.00000" pt_clust_9="44.78443"></scales>
<clustering>
<clus scale="   44.784">  2  9  1 -1</clus>
<clus scale="   75.331">  5  6 -1 -1</clus>
<clus scale="   88.321">  2  5  1 -1</clus>
<clus scale="   90.698">  7  8 -1 -1</clus>
<clus scale="   44.784">  2  5  1 -1</clus>
</clustering>
</event>
<event>
 9    1  0.4664604E-005  0.1011159E+03  0.7546771E-02  0.1283184E+00
          1   -1    0    0  502    0 -0.00000000000E+00  0.00000000000E+00  0.11177052904E+04  0.11177052904E+04  0.00000000000E+00 0. -1.
         21   -1    0    0  501  502  0.00000000000E+00 -0.00000000000E+00 -0.14676693641E+02  0.14676693641E+02  0.00000000000E+00 0. -1.
        -24    2    1    2    0    0 -0.15908883137E+02  0.50385873220E+02  0.44886205720E+03  0.45903293939E+03  0.80263717002E+02 0.  0.
         23    2    1    2    0    0 -0.37077765253E+02 -0.34805377982E+02  0.43863474520E+03  0.45085344667E+03  0.91006679262E+02 0.  0.
         11    1    3    3    0    0 -0.38168322176E+02  0.38332008238E+02  0.15665661085E+03  0.16573309083E+03  0.00000000000E+00 0. -1.
        -12    1    3    3    0    0  0.22259439038E+02  0.12053864982E+02  0.29220544636E+03  0.29329984857E+03  0.00000000000E+00 0.  1.
        -13    1    4    4    0    0  0.30133304820E+02 -0.14282255438E+02  0.16524632225E+03  0.16857741811E+03  0.00000000000E+00 0.  1.
         13    1    4    4    0    0 -0.67211070074E+02 -0.20523122544E+02  0.27338842295E+03  0.28227602857E+03  0.00000000000E+00 0. -1.
          2    1    1    2  501    0  0.52986648391E+02 -0.15580495237E+02  0.21553179435E+03  0.22249559797E+03  0.00000000000E+00 0. -1.
<scales pt_clust_5="13000.00000" pt_clust_6="13000.00000" pt_clust_7="13000.00000" pt_clust_8="13000.00000" pt_clust_9="55.22985"></scales>
<clustering>
<clus scale="   55.230">  2  9  1 -1</clus>
<clus scale="   80.264">  5  6 -1 -1</clus>
<clus scale="   91.007">  7  8 -1 -1</clus>
<clus scale="   91.567">  1  5  2 -1</clus>
<clus scale="   55.230">  2  5  1 -1</clus>
</clustering>
</event>
<event>
 9    1  0.4664604E-005  0.1344218E+03  0.7546771E-02  0.1239378E+00
         -2   -1    0    0    0  501 -0.00000000000E+00  0.00000000000E+00  0.36647065296E+03  0.36647065296E+03  0.00000000000E+00 0.  1.
         21   -1    0    0  501  502  0.00000000000E+00 -0.00000000000E+00 -0.92735689961E+02  0.92735689961E+02  0.00000000000E+00 0. -1.
         23    2    1    2    0    0 -0.38271487310E+02  0.35929053941E+02  0.19349381715E+03  0.21427589774E+03  0.75622082889E+02 0.  0.
        -24    2    1    2    0    0 -0.64485442465E+02 -0.47102168770E+02  0.54836171631E+02  0.13849155272E+03  0.98974329320E+02 0.  0.
         13    1    4    4    0    0 -0.58891336821E+02 -0.47690232270E+02 -0.72733426625E+01  0.76127848518E+02  0.00000000000E+00 0. -1.
        -14    1    4    4    0    0 -0.55941056438E+01  0.58806349991E+00  0.62109514293E+02  0.62363704206E+02  0.00000000000E+00 0.  1.
        -11    1    3    3    0    0 -0.55118489040E+02  0.60889472641E+01  0.14178108631E+03  0.15223994071E+03  0.00000000000E+00 0.  1.
         11    1    3    3    0    0  0.16847001730E+02  0.29840106677E+02  0.51712730838E+02  0.62035957030E+02  0.00000000000E+00 0. -1.
         -1    1    1    2    0  502  0.10275692977E+03  0.11173114829E+02  0.25404974220E+02  0.10643889245E+03  0.00000000000E+00 0.  1.
<scales pt_clust_5="13000.00000" pt_clust_6="13000.00000" pt_clust_7="13000.00000" pt_clust_8="13000.00000" pt_clust_9="90.95776"></scales>
<clustering>
<clus scale="   75.622">  7  8 -1 -1</clus>
<clus scale="   92.056">  1  7  2 -1</clus>
<clus scale="   90.958">  2  9  1 -1</clus>
<clus scale="   98.974">  5  6 -1 -1</clus>
<clus scale="   90.958">  2  5  1 -1</clus>
</clustering>
</event>
<event>
 9    1  0.4664604E-005  0.9107568E+02  0.7546771E-02  0.1307447E+00
         -4   -1    0    0    0  501 -0.00000000000E+00  0.00000000000E+00  0.35620915898E+02  0.35620915898E+02  0.00000000000E+00 0.  1.
         21   -1    0    0  501  502  0.00000000000E+00 -0.00000000000E+00 -0.43462664757E+03  0.43462664757E+03  0.00000000000E+00 0. -1.
        -24    2    1    2    0    0 -0.25647052547E+02  0.23097673296E+02 -0.53277866657E+02  0.98642618420E+02  0.75502061411E+02 0.  0.
         23    2    1    2    0    0 -0.18079097234E+02 -0.12257742275E+02 -0.25272193640E+03  0.26826287696E+03  0.87289678738E+02 0.  0.
         11    1    3    3    0    0 -0.17938066600E+02 -0.26557114693E+02 -0.27171695686E+02  0.42016135241E+02  0.00000000000E+00 0. -1.
        -12    1    3    3    0    0 -0.77089859471E+01  0.49654787988E+02 -0.26106170970E+02  0.56626483179E+02  0.00000000000E+00 0.  1.
        -11    1    4    4    0    0 -0.19069322859E+01  0.36252165141E+02 -0.74883781360E+02  0.83219207992E+02  0.00000000000E+00 0.  1.
         11    1    4    4    0    0 -0.16172164948E+02 -0.48509907416E+02 -0.17783815504E+03  0.18504366897E+03  0.00000000000E+00 0. -1.
         -3    1    1    2    0  502  0.43726149781E+02 -0.10839931021E+02 -0.93005928615E+02  0.10334206809E+03  0.00000000000E+00 0.  1.
<scales pt_clust_5="13000.00000" pt_clust_6="13000.00000" pt_clust_7="13000.00000" pt_clust_8="13000.00000" pt_clust_9="45.04975"></scales>
<clustering>
<clus scale="   45.050">  2  9  1 -1</clus>
<clus scale="   75.502">  5  6 -1 -1</clus>
<clus scale="   79.849">  1  5  2 -1</clus>
<clus scale="   87.290">  7  8 -1 -1</clus>
<clus scale="   45.050">  2  5  1 -1</clus>
</clustering>
</event>
<event>
 9    1  0.4664604E-005  0.9503357E+02  0.7546771E-02  0.1300380E+00
         21   -1    0    0  501  502  0.00000000000E+00  0.00000000000E+00  0.17358713967E+03  0.17358713967E+03  0.00000000000E+00 0.  1.
         -2   -1    0    0    0  501 -0.00000000000E+00 -0.00000000000E+00 -0.20966053421E+03  0.20966053421E+03  0.00000000000E+00 0.  1.
        -24    2    1    2    0    0  0.94603081718E+01 -0.15252037261E+01  0.24128958601E+02  0.80154759488E+02  0.75833733578E+02 0.  0.
         23    2    1    2    0    0 -0.52387578599E+02 -0.39965178222E+02  0.88162676202E+02  0.14316673056E+03  0.91555346114E+02 0.  0.
         13    1    3    3    0    0  0.57347839044E+01  0.23513220139E+02  0.42478601148E+02  0.48889577859E+02  0.00000000000E+00 0. -1.
        -14    1    3    3    0    0  0.37255242674E+01 -0.25038423865E+02 -0.18349642547E+02  0.31265181629E+02  0.00000000000E+00 0.  1.
        -11    1    4    4    0    0 -0.28348473355E+02  0.26004944451E+02  0.13738154152E+02  0.40848867267E+02  0.00000000000E+00 0. -1.
         11    1    4    4    0    0 -0.24039105244E+02 -0.65970122673E+02  0.74424522050E+02  0.10231786329E+03  0.00000000000E+00 0.  1.
         -1    1    1    2    0  502  0.42927270427E+02  0.41490381948E+02 -0.14836502935E+03  0.15992618383E+03  0.00000000000E+00 0.  1.
<scales pt_clust_5="13000.00000" pt_clust_6="13000.00000" pt_clust_7="13000.00000" pt_clust_8="13000.00000" pt_clust_9="59.70097"></scales>
<clustering>
<clus scale="   59.701">  1  9  2 -1</clus>
<clus scale="   75.834">  5  6 -1 -1</clus>
<clus scale="   79.998">  2  5  1 -1</clus>
<clus scale="   91.555">  7  8 -1 -1</clus>
<clus scale="   59.701">  1  5  2 -1</clus>
</clustering>
</event>
<event>
 9    1  0.4664604E-005  0.1744010E+03  0.7546771E-02  0.1174721E+00
          1   -1    0    0  502    0 -0.00000000000E+00  0.00000000000E+00  0.30932124757E+03  0.30932124757E+03  0.00000000000E+00 0. -1.
         21   -1    0    0  501  502  0.00000000000E+00 -0.00000000000E+00 -0.31711211349E+03  0.31711211349E+03  0.00000000000E+00 0. -1.
        -24    2    1    2    0    0 -0.63470495050E+02 -0.12422393812E+03  0.18790214290E+03  0.24753113097E+03  0.80649581228E+02 0.  0.
         23    2    1    2    0    0  0.35870825330E+02  0.20912903253E+03 -0.11295677267E+03  0.25718164187E+03  0.91441216443E+02 0.  0.
         13    1    3    3    0    0 -0.53781693735E+02 -0.74662221944E+02  0.17116383559E+03  0.19432955663E+03  0.00000000000E+00 0. -1.
        -14    1    3    3    0    0 -0.96888013150E+01 -0.49561716173E+02  0.16738307307E+02  0.53201574342E+02  0.00000000000E+00 0.  1.
        -11    1    4    4    0    0  0.40932798393E+02  0.17681146099E+03 -0.53312579577E+02  0.18915606747E+03  0.00000000000E+00 0. -1.
         11    1    4    4    0    0 -0.50619730631E+01  0.32317571544E+02 -0.59644193097E+02  0.68025574397E+02  0.00000000000E+00 0.  1.
          2    1    1    2  501    0  0.27599669720E+02 -0.84905094415E+02 -0.82736236137E+02  0.12172058822E+03  0.00000000000E+00 0. -1.
<scales pt_clust_5="13000.00000" pt_clust_6="13000.00000" pt_clust_7="13000.00000" pt_clust_8="13000.00000" pt_clust_9="89.27831"></scales>
<clustering>
<clus scale="   80.650">  5  6 -1 -1</clus>
<clus scale="   89.278">  2  9  1 -1</clus>
<clus scale="   91.441">  7  8 -1 -1</clus>
<clus scale="  168.993">  1  5  2 -1</clus>
<clus scale="   89.278">  2  5  1 -1</clus>
</clustering>
</event>
<event>
 9    1  0.4664604E-005  0.1153903E+03  0.7546771E-02  0.1255952E+00
          1   -1    0    0  502    0 -0.00000000000E+00  0.00000000000E+00  0.35774313826E+03  0.35774313826E+03  0.00000000000E+00 0. -1.
         21   -1    0    0  501  502  0.00000000000E+00 -0.00000000000E+00 -0.41297827672E+02  0.41297827672E+02  0.00000000000E+00 0. -1.
        -24    2    1    2    0    0 -0.44042637908E+01 -0.70895393559E+02  0.15762428779E+03  0.19086540465E+03  0.80861809432E+02 0.  0.
         23    2    1    2    0    0 -0.14238711070E+02  0.59587541162E+02  0.13151193420E+03  0.17322968373E+03  0.94655789754E+02 0.  0.
         13    1    3    3    0    0 -0.29123138603E+02 -0.21474367207E+01  0.21115277701E+02  0.36036421006E+02  0.00000000000E+00 0. -1.
        -14    1    3    3    0    0  0.24718874812E+02 -0.68747956838E+02  0.13650901009E+03  0.15482898365E+03  0.00000000000E+00 0.  1.
        -11    1    4    4    0    0 -0.42049608253E+02  0.37997213623E+02  0.12524163335E+03  0.13746790360E+03  0.00000000000E+00 0.  1.
         11    1    4    4    0    0  0.27810897183E+02  0.21590327539E+02  0.62703008565E+01  0.35761780131E+02  0.00000000000E+00 0. -1.
          2    1    1    2  501    0  0.18642974861E+02  0.11307852397E+02  0.27309088586E+02  0.34945877538E+02  0.00000000000E+00 0. -1.
<scales pt_clust_5="13000.00000" pt_clust_6="13000.00000" pt_clust_7="13000.00000" pt_clust_8="13000.00000" pt_clust_9="21.80431"></scales>
<clustering>
<clus scale="   21.804">  2  9  1 -1</clus>
<clus scale="   80.862">  5  6 -1 -1</clus>
<clus scale="   94.656">  7  8 -1 -1</clus>
<clus scale="  104.374">  1  5  2 -1</clus>
<clus scale="   21.804">  2  5  1 -1</clus>
</clustering>
</event>
<event>
 9    1  0.4664604E-005  0.1176647E+03  0.7546771E-02  0.1249534E+00
          1   -1    0    0  502    0 -0.00000000000E+00  0.00000000000E+00  0.53280811322E+03  0.53280811322E+03  0.00000000000E+00 0. -1.
         21   -1    0    0  501  502  0.00000000000E+00 -0.00000000000E+00 -0.41954353435E+02  0.41954353435E+02  0.00000000000E+00 0.  1.
         23    2    1    2    0    0 -0.22986099730E+02 -0.59659517263E+02  0.13532157664E+03  0.17470954489E+03  0.90132553435E+02 0.  0.
        -24    2    1    2    0    0  0.68300853827E+02  0.60753795356E+02  0.17511583021E+03  0.21402957703E+03  0.82383709361E+02 0.  0.
         11    1    4    4    0    0  0.20228309257E+02  0.52770605274E+02  0.14763904903E+03  0.15808608438E+03  0.00000000000E+00 0. -1.
        -12    1    4    4    0    0  0.48072544570E+02  0.79831900825E+01  0.27476781180E+02  0.55943492645E+02  0.00000000000E+00 0.  1.
        -13    1    3    3    0    0 -0.28395149717E+02 -0.32342886183E+02  0.14000541290E+03  0.14647137077E+03  0.00000000000E+00 0.  1.
         13    1    3    3    0    0  0.54090499875E+01 -0.27316631080E+02 -0.46838362574E+01  0.28238174116E+02  0.00000000000E+00 0. -1.
          2    1    1    2  501    0 -0.45314754098E+02 -0.10942780933E+01  0.18041635293E+03  0.18602334474E+03  0.00000000000E+00 0. -1.
<scales pt_clust_5="13000.00000" pt_clust_6="13000.00000" pt_clust_7="13000.00000" pt_clust_8="13000.00000" pt_clust_9="45.32799"></scales>
<clustering>
<clus scale="   45.328">  2  9  1 -1</clus>
<clus scale="   82.384">  5  6 -1 -1</clus>
<clus scale="   90.133">  7  8 -1 -1</clus>
<clus scale="  111.840">  2  5  1 -1</clus>
<clus scale="   45.328">  2  5  1 -1</clus>
</clustering>
</event>
<event>
 9    1  0.4664604E-005  0.1212328E+03  0.7546771E-02  0.1245108E+00
         21   -1    0    0  501  502  0.00000000000E+00  0.00000000000E+00  0.16243847651E+03  0.16243847651E+03  0.00000000000E+00 0.  1.
          3   -1    0    0  502    0 -0.00000000000E+00 -0.00000000000E+00 -0.12186217384E+03  0.12186217384E+03  0.00000000000E+00 0. -1.
        -24    2    1    2    0    0 -0.56603797985E+02  0.66382480304E+02 -0.85988576329E+01  0.11763160860E+03  0.78438710799E+02 0.  0.
         23    2    1    2    0    0  0.34975161169E+02 -0.62894085460E+02  0.39683653497E+01  0.11643338569E+03  0.91444286289E+02 0.  0.
         11    1    3    3    0    0 -0.73643442787E+01  0.47302083106E+02 -0.34310550960E+02  0.58897661583E+02  0.00000000000E+00 0. -1.
        -12    1    3    3    0    0 -0.49239453707E+02  0.19080397198E+02  0.25711693327E+02  0.58733947018E+02  0.00000000000E+00 0.  1.
        -11    1    4    4    0    0  0.51742090690E+02 -0.50412881871E+02 -0.28631795799E+02  0.77707672326E+02  0.00000000000E+00 0. -1.
         11    1    4    4    0    0 -0.16766929521E+02 -0.12481203588E+02  0.32600161149E+02  0.38725713363E+02  0.00000000000E+00 0.  1.
          4    1    1    2  501    0  0.21628636816E+02 -0.34883948439E+01  0.45206794957E+02  0.50235656057E+02  0.00000000000E+00 0. -1.
<scales pt_clust_5="13000.00000" pt_clust_6="13000.00000" pt_clust_7="13000.00000" pt_clust_8="13000.00000" pt_clust_9="21.90815"></scales>
<clustering>
<clus scale="   21.908">  1  9  2 -1</clus>
<clus scale="   78.439">  5  6 -1 -1</clus>
<clus scale="   91.444">  7  8 -1 -1</clus>
<clus scale="  111.750">  2  5  1 -1</clus>
<clus scale="   21.908">  1  5  2 -1</clus>
</clustering>
</event>
<event>
 9    1  0.4664604E-005  0.1051000E+03  0.7546771E-02  0.1273338E+00
         -4   -1    0    0    0  501 -0.00000000000E+00  0.00000000000E+00  0.66825054140E+03  0.66825054140E+03  0.00000000000E+00 0.  1.
         21   -1    0    0  501  502  0.00000000000E+00 -0.00000000000E+00 -0.22456722382E+02  0.22456722382E+02  0.00000000000E+00 0.  1.
         23    2    1    2    0    0  0.58019744034E+01  0.48894459966E+02  0.33622236707E+03  0.35148454864E+03  0.89841953992E+02 0.  0.
        -24    2    1    2    0    0 -0.25070531488E+02 -0.60567968954E+02  0.18538040298E+03  0.21300478951E+03  0.81903211992E+02 0.  0.
         11    1    4    4    0    0 -0.48363425219E+02 -0.10962151957E+02  0.98612797268E+02  0.11037967865E+03  0.00000000000E+00 0. -1.
        -12    1    4    4    0    0  0.23292893731E+02 -0.49605816996E+02  0.86767605709E+02  0.10262511086E+03  0.00000000000E+00 0.  1.
        -13    1    3    3    0    0 -0.58016404366E+01 -0.25864619423E+02  0.99245699504E+02  0.10272461458E+03  0.00000000000E+00 0. -1.
         13    1    3    3    0    0  0.11603614840E+02  0.74759079390E+02  0.23697666756E+03  0.24875993407E+03  0.00000000000E+00 0.  1.
         -3    1    1    2    0  502  0.19268557084E+02  0.11673508988E+02  0.12419104898E+03  0.12621792563E+03  0.00000000000E+00 0.  1.
<scales pt_clust_5="13000.00000" pt_clust_6="13000.00000" pt_clust_7="13000.00000" pt_clust_8="13000.00000" pt_clust_9="22.52884"></scales>
<clustering>
<clus scale="   22.529">  2  9  1 -1</clus>
<clus scale="   81.903">  5  6 -1 -1</clus>
<clus scale="   89.842">  7  8 -1 -1</clus>
<clus scale="   98.400">  2  5  1 -1</clus>
<clus scale="   22.529">  2  5  1 -1</clus>
</clustering>
</event>
<event>
 9    1  0.4664604E-005  0.2172519E+03  0.7546771E-02  0.1169816E+00
          1   -1    0    0  502    0 -0.00000000000E+00  0.00000000000E+00  0.26296380149E+03  0.26296380149E+03  0.00000000000E+00 0. -1.
         21   -1    0    0  501  502  0.00000000000E+00 -0.00000000000E+00 -0.41593631751E+03  0.41593631751E+03  0.00000000000E+00 0. -1.
         23    2    1    2    0    0  0.26367128690E+02 -0.97246908299E+01  0.90136171204E+02  0.13297189057E+03  0.93633323310E+02 0.  0.
        -24    2    1    2    0    0  0.16435948950E+03  0.90776325139E+02  0.27157423552E+02  0.20535550354E+03  0.78606451305E+02 0.  0.
         13    1    4    4    0    0  0.13053064342E+03  0.73594368762E+02  0.53558669066E+02  0.15913174107E+03  0.00000000000E+00 0. -1.
        -14    1    4    4    0    0  0.33828846083E+02  0.17181956377E+02 -0.26401245515E+02  0.46223762471E+02  0.00000000000E+00 0.  1.
        -11    1    3    3    0    0 -0.24660847403E+02  0.14655085718E+02  0.65070051468E+02  0.71112871761E+02  0.00000000000E+00 0.  1.
         11    1    3    3    0    0  0.51027976094E+02 -0.24379776548E+02  0.25066119736E+02  0.61859018804E+02  0.00000000000E+00 0. -1.
          2    1    1    2  501    0 -0.19072661819E+03 -0.81051634309E+02 -0.27026611077E+03  0.34057272489E+03  0.00000000000E+00 0. -1.
<scales pt_clust_5="13000.00000" pt_clust_6="13000.00000" pt_clust_7="13000.00000" pt_clust_8="13000.00000" pt_clust_9="202.53253"></scales>
<clustering>
<clus scale="   78.606">  5  6 -1 -1</clus>
<clus scale="   93.633">  7  8 -1 -1</clus>
<clus scale="   97.760">  1  7  2 -1</clus>
<clus scale="  202.533">  2  9  1 -1</clus>
<clus scale="  202.533">  2  5  1 -1</clus>
</clustering>
</event>
<event>
 9    1  0.5438933E-005  0.1059816E+03  0.7546771E-02  0.1273684E+00
         21   -1    0    0  501  502  0.00000000000E+00  0.00000000000E+00  0.72199188569E+02  0.72199188569E+02  0.00000000000E+00 0.  1.
         -4   -1    0    0    0  501 -0.00000000000E+00 -0.00000000000E+00 -0.96952066907E+03  0.96952066907E+03  0.00000000000E+00 0.  1.
        -24    2    1    2    0    0  0.92823877419E+01  0.56913091821E+02 -0.79642810705E+03  0.80238458636E+03  0.78727580929E+02 0.  0.
         23    2    1    2    0    0  0.38915698333E+02 -0.34646940221E+02 -0.13877377585E+03  0.17411440120E+03  0.91339048608E+02 0.  0.
         11    1    3    3    0    0  0.39644729860E+02  0.16216276438E+02 -0.25410731383E+03  0.25769206268E+03  0.00000000000E+00 0. -1.
        -12    1    3    3    0    0 -0.30362342118E+02  0.40696815383E+02 -0.54232079322E+03  0.54469252369E+03  0.00000000000E+00 0.  1.
        -11    1    4    4    0    0 -0.99197693047E+01  0.23793517818E+02 -0.18401304226E+02  0.31672406135E+02  0.00000000000E+00 0. -1.
         11    1    4    4    0    0  0.48835467637E+02 -0.58440458039E+02 -0.12037247162E+03  0.14244199507E+03  0.00000000000E+00 0.  1.
         -3    1    1    2    0  502 -0.48198086075E+02 -0.22266151600E+02  0.37880402387E+02  0.65220870075E+02  0.00000000000E+00 0.  1.
<scales pt_clust_5="13000.00000" pt_clust_6="13000.00000" pt_clust_7="13000.00000" pt_clust_8="13000.00000" pt_clust_9="53.09272"></scales>
<clustering>
<clus scale="   53.093">  1  9  2 -1</clus>
<clus scale="   78.728">  5  6 -1 -1</clus>
<clus scale="   91.339">  7  8 -1 -1</clus>
<clus scale="   95.327">  2  5  1 -1</clus>
<clus scale="   53.093">  1  5  2 -1</clus>
</clustering>
</event>
<event>
 9    1  0.4664604E-005  0.1393572E+03  0.7546771E-02  0.1214740E+00
          1   -1    0    0  502    0 -0.00000000000E+00  0.00000000000E+00  0.21799920125E+03  0.21799920125E+03  0.00000000000E+00 0. -1.
         21   -1    0    0  501  502  0.00000000000E+00 -0.00000000000E+00 -0.73918014015E+03  0.73918014015E+03  0.00000000000E+00 0. -1.
        -24    2    1    2    0    0  0.89310489524E+02 -0.52685379181E+02  0.18663524713E+03  0.23351720544E+03  0.94580426326E+02 0.  0.
         23    2    1    2    0    0 -0.64654099557E+02  0.33834030769E+02 -0.50677099533E+03  0.52023529503E+03  0.92211855344E+02 0.  0.
         11    1    3    3    0    0  0.86486614739E+01 -0.53958303491E+02  0.10707223539E+03  0.12021131998E+03  0.00000000000E+00 0. -1.
        -12    1    3    3    0    0  0.80661828050E+02  0.12729243098E+01  0.79563011745E+02  0.11330588546E+03  0.00000000000E+00 0.  1.
        -11    1    4    4    0    0 -0.82650056971E+02  0.70163971620E+01 -0.40703177238E+03  0.41539755112E+03  0.00000000000E+00 0. -1.
         11    1    4    4    0    0  0.17995957414E+02  0.26817633607E+02 -0.99739222942E+02  0.10483774391E+03  0.00000000000E+00 0.  1.
          2    1    1    2  501    0 -0.24656389968E+02  0.18851348412E+02 -0.20104519070E+03  0.20342684092E+03  0.00000000000E+00 0. -1.
<scales pt_clust_5="13000.00000" pt_clust_6="13000.00000" pt_clust_7="13000.00000" pt_clust_8="13000.00000" pt_clust_9="31.03725"></scales>
<clustering>
<clus scale="   31.037">  2  9  1 -1</clus>
<clus scale="   92.212">  7  8 -1 -1</clus>
<clus scale="   94.580">  5  6 -1 -1</clus>
<clus scale="  137.761">  2  7  1 -1</clus>
<clus scale="   31.037">  2  5  1 -1</clus>
</clustering>
</event>
<event>
 9    1  0.4664604E-005  0.2280033E+03  0.7546771E-02  0.1153109E+00
         21   -1    0    0  501  502  0.00000000000E+00  0.00000000000E+00  0.88129873380E+02  0.88129873380E+02  0.00000000000E+00 0. -1.
          1   -1    0    0  502    0 -0.00000000000E+00 -0.00000000000E+00 -0.13406725964E+04  0.13406725964E+04  0.00000000000E+00 0. -1.
         23    2    1    2    0    0 -0.67069933089E+02 -0.52330938505E+02 -0.12677118176E+03  0.17779085317E+03  0.91113950075E+02 0.  0.
        -24    2    1    2    0    0  0.22596557535E+03  0.41454922510E+02 -0.21060766941E+03  0.32209233852E+03  0.81295339807E+02 0.  0.
         11    1    4    4    0    0  0.17860870043E+03  0.28177224112E+01 -0.18054799136E+03  0.25398146509E+03  0.00000000000E+00 0. -1.
        -12    1    4    4    0    0  0.47356874924E+02  0.38637200099E+02 -0.30059678048E+02  0.68110873423E+02  0.00000000000E+00 0.  1.
        -11    1    3    3    0    0  0.70045473322E+01 -0.47857114162E+02 -0.34652414034E+02  0.59499217286E+02  0.00000000000E+00 0.  1.
         11    1    3    3    0    0 -0.74074480422E+02 -0.44738243428E+01 -0.92118767723E+02  0.11829163589E+03  0.00000000000E+00 0. -1.
          2    1    1    2  501    0 -0.15889564226E+03  0.10876015994E+02 -0.91516387181E+03  0.92891927804E+03  0.00000000000E+00 0. -1.
<scales pt_clust_5="13000.00000" pt_clust_6="13000.00000" pt_clust_7="13000.00000" pt_clust_8="13000.00000" pt_clust_9="213.01784"></scales>
<clustering>
<clus scale="   81.295">  5  6 -1 -1</clus>
<clus scale="   91.114">  7  8 -1 -1</clus>
<clus scale="  124.654">  2  7  1 -1</clus>
<clus scale="  213.018">  1  9  2 -1</clus>
<clus scale="  213.018">  1  5  2 -1</clus>
</clustering>
</event>
<event>
 9    1  0.4664604E-005  0.2144862E+03  0.7546771E-02  0.1139050E+00
         -2   -1    0    0    0  501 -0.00000000000E+00  0.00000000000E+00  0.12398946917E+04  0.12398946917E+04  0.00000000000E+00 0.  1.
         21   -1    0    0  501  502  0.00000000000E+00 -0.00000000000E+00 -0.75393025462E+02  0.75393025462E+02  0.00000000000E+00 0. -1.
        -24    2    1    2    0    0  0.64061031977E+02  0.12994618142E+03  0.27065578557E+03  0.31699283663E+03  0.78994166409E+02 0.  0.
         23    2    1    2    0    0 -0.19608253922E+03 -0.19841081926E+03  0.54456910606E+03  0.61867487278E+03  0.91585323867E+02 0.  0.
         13    1    3    3    0    0  0.13209281038E+02  0.77002849930E+02  0.76168679836E+02  0.10911274807E+03  0.00000000000E+00 0. -1.
        -14    1    3    3    0    0  0.50851750939E+02  0.52943331492E+02  0.19448710573E+03  0.20788008856E+03  0.00000000000E+00 0.  1.
        -13    1    4    4    0    0 -0.12211378234E+02 -0.36798614333E+02  0.30627587256E+02  0.49409562600E+02  0.00000000000E+00 0. -1.
         13    1    4    4    0    0 -0.18387116099E+03 -0.16161220493E+03  0.51394151881E+03  0.56926531018E+03  0.00000000000E+00 0.  1.
         -1    1    1    2    0  502  0.13202150724E+03  0.68464637840E+02  0.34927677464E+03  0.37962000779E+03  0.00000000000E+00 0.  1.
<scales pt_clust_5="13000.00000" pt_clust_6="13000.00000" pt_clust_7="13000.00000" pt_clust_8="13000.00000" pt_clust_9="148.71821"></scales>
<clustering>
<clus scale="   78.994">  5  6 -1 -1</clus>
<clus scale="   91.585">  7  8 -1 -1</clus>
<clus scale="  148.718">  2  9  1 -1</clus>
<clus scale="  209.420">  1  5  2 -1</clus>
<clus scale="  148.718">  2  5  1 -1</clus>
</clustering>
</event>
<event>
 9    1  0.4664604E-005  0.1121785E+03  0.7546771E-02  0.1260662E+00
         21   -1    0    0  501  502  0.00000000000E+00  0.00000000000E+00  0.76061859824E+02  0.76061859824E+02  0.00000000000E+00 0.  1.
          3   -1    0    0  502    0 -0.00000000000E+00 -0.00000000000E+00 -0.67577932970E+03  0.67577932970E+03  0.00000000000E+00 0. -1.
        -24    2    1    2    0    0 -0.63956470727E+02  0.87154641725E+01 -0.46770385471E+03  0.47908988146E+03  0.81325453250E+02 0.  0.
         23    2    1    2    0    0  0.52674108376E+02 -0.50619167283E+02 -0.17555772847E+03  0.21127528153E+03  0.92086192087E+02 0.  0.
         13    1    3    3    0    0 -0.47232712775E+02  0.43424076225E+02 -0.32525138813E+03  0.33151929813E+03  0.00000000000E+00 0. -1.
        -14    1    3    3    0    0 -0.16723757952E+02 -0.34708612052E+02 -0.14245246658E+03  0.14757058334E+03  0.00000000000E+00 0.  1.
        -13    1    4    4    0    0  0.54124925488E+02 -0.84476002938E+01 -0.15488472187E+03  0.16428678151E+03  0.00000000000E+00 0. -1.
         13    1    4    4    0    0 -0.14508171116E+01 -0.42171566990E+02 -0.20673006593E+02  0.46988500021E+02  0.00000000000E+00 0.  1.
          4    1    1    2  501    0  0.11282362351E+02  0.41903703111E+02  0.43544113299E+02  0.61476026528E+02  0.00000000000E+00 0. -1.
<scales pt_clust_5="13000.00000" pt_clust_6="13000.00000" pt_clust_7="13000.00000" pt_clust_8="13000.00000" pt_clust_9="43.39599"></scales>
<clustering>
<clus scale="   43.396">  1  9  2 -1</clus>
<clus scale="   81.325">  5  6 -1 -1</clus>
<clus scale="   92.086">  7  8 -1 -1</clus>
<clus scale="  103.528">  2  5  1 -1</clus>
<clus scale="   43.396">  1  5  2 -1</clus>
</clustering>
</event>
<event>
 9    1  0.4664604E-005  0.1624556E+03  0.7546771E-02  0.1205224E+00
         21   -1    0    0  501  502  0.00000000000E+00  0.00000000000E+00  0.53486283955E+02  0.53486283955E+02  0.00000000000E+00 0. -1.
          1   -1    0    0  502    0 -0.00000000000E+00 -0.00000000000E+00 -0.85689637290E+03  0.85689637290E+03  0.00000000000E+00 0. -1.
         23    2    1    2    0    0  0.47157438405E+02  0.19454351535E+02 -0.10249604814E+03  0.14784701693E+03  0.93546805085E+02 0.  0.
        -24    2    1    2    0    0 -0.11014787527E+03  0.80539629919E+02 -0.50108254529E+03  0.53037358862E+03  0.10767190859E+03 0.  0.
         13    1    4    4    0    0 -0.75770583783E+02 -0.47750247967E+01 -0.29648459502E+03  0.30605080838E+03  0.00000000000E+00 0. -1.
        -14    1    4    4    0    0 -0.34377291487E+02  0.85314654716E+02 -0.20459795027E+03  0.22432278024E+03  0.00000000000E+00 0.  1.
        -13    1    3    3    0    0  0.43554018413E+02 -0.65639551749E+01 -0.21262457111E+01  0.44097153516E+02  0.00000000000E+00 0. -1.
         13    1    3    3    0    0  0.36034199924E+01  0.26018306710E+02 -0.10036980243E+03  0.10374986342E+03  0.00000000000E+00 0.  1.
          2    1    1    2  501    0  0.62990436864E+02 -0.99993981454E+02 -0.19983149552E+03  0.23216205130E+03  0.00000000000E+00 0. -1.
<scales pt_clust_5="13000.00000" pt_clust_6="13000.00000" pt_clust_7="13000.00000" pt_clust_8="13000.00000" pt_clust_9="121.64938"></scales>
<clustering>
<clus scale="   93.547">  7  8 -1 -1</clus>
<clus scale="  106.552">  2  7  1 -1</clus>
<clus scale="  107.672">  5  6 -1 -1</clus>
<clus scale="  121.649">  1  9  2 -1</clus>
<clus scale="  121.649">  1  5  2 -1</clus>
</clustering>
</event>
<event>
 9    1  0.4664604E-005  0.2114668E+03  0.7546771E-02  0.1141883E+00
         21   -1    0    0  501  502  0.00000000000E+00  0.00000000000E+00  0.33477880641E+03  0.33477880641E+03  0.00000000000E+00 0. -1.
          1   -1    0    0  502    0 -0.00000000000E+00 -0.00000000000E+00 -0.53933399540E+03  0.53933399540E+03  0.00000000000E+00 0. -1.
         23    2    1    2    0    0  0.17416655717E+03 -0.71553719356E+02 -0.43933770195E+03  0.48778577483E+03  0.97280118084E+02 0.  0.
        -24    2    1    2    0    0 -0.19917139389E+03 -0.68045142545E+01  0.12279304669E+03  0.24737777298E+03  0.80013028240E+02 0.  0.
         13    1    4    4    0    0 -0.17323836587E+03 -0.29908846728E+02  0.11932576568E+03  0.21247284268E+03  0.00000000000E+00 0. -1.
        -14    1    4    4    0    0 -0.25933028022E+02  0.23104332474E+02  0.34672810148E+01  0.34904930297E+02  0.00000000000E+00 0.  1.
        -11    1    3    3    0    0  0.76579557009E+02 -0.56884704292E+02 -0.11856954957E+03  0.15218093251E+03  0.00000000000E+00 0.  1.
         11    1    3    3    0    0  0.97587000164E+02 -0.14669015064E+02 -0.32076815238E+03  0.33560484231E+03  0.00000000000E+00 0. -1.
          2    1    1    2  501    0  0.25004836717E+02  0.78358233611E+02  0.11198946627E+03  0.13894925401E+03  0.00000000000E+00 0. -1.
<scales pt_clust_5="13000.00000" pt_clust_6="13000.00000" pt_clust_7="13000.00000" pt_clust_8="13000.00000" pt_clust_9="82.25117"></scales>
<clustering>
<clus scale="   80.013">  5  6 -1 -1</clus>
<clus scale="   82.251">  1  9  2 -1</clus>
<clus scale="   97.280">  7  8 -1 -1</clus>
<clus scale="  204.100">  1  5  2 -1</clus>
<clus scale="   82.251">  1  5  2 -1</clus>
</clustering>
</event>
<event>
 9    1  0.4664604E-005  0.1026462E+03  0.7546771E-02  0.1278974E+00
          3   -1    0    0  502    0 -0.00000000000E+00  0.00000000000E+00  0.98561937467E+02  0.98561937467E+02  0.00000000000E+00 0. -1.
         21   -1    0    0  501  502  0.00000000000E+00 -0.00000000000E+00 -0.26830870857E+03  0.26830870857E+03  0.00000000000E+00 0.  1.
         23    2    1    2    0    0 -0.40168414559E+02  0.27071241182E+02  0.52908094490E+02  0.11649260045E+03  0.91787285993E+02 0.  0.
        -24    2    1    2    0    0  0.18557485751E+02 -0.30424168866E+02 -0.15612317099E+03  0.18034419124E+03  0.82943188179E+02 0.  0.
         11    1    4    4    0    0  0.99139085932E+01 -0.44445037971E+02 -0.33281182371E+02  0.56402873011E+02  0.00000000000E+00 0. -1.
        -12    1    4    4    0    0  0.86435771577E+01  0.14020869105E+02 -0.12284198862E+03  0.12394131823E+03  0.00000000000E+00 0.  1.
        -11    1    3    3    0    0 -0.61839229064E+02  0.26588955521E+02  0.63347462769E+02  0.92433564501E+02  0.00000000000E+00 0. -1.
         11    1    3    3    0    0  0.21670814505E+02  0.48228566097E+00 -0.10439368280E+02  0.24059035950E+02  0.00000000000E+00 0.  1.
          4    1    1    2  501    0  0.21610928808E+02  0.33529276836E+01 -0.66531694601E+02  0.70033854345E+02  0.00000000000E+00 0. -1.
<scales pt_clust_5="13000.00000" pt_clust_6="13000.00000" pt_clust_7="13000.00000" pt_clust_8="13000.00000" pt_clust_9="21.86948"></scales>
<clustering>
<clus scale="   21.869">  2  9  1 -1</clus>
<clus scale="   82.943">  5  6 -1 -1</clus>
<clus scale="   91.787">  7  8 -1 -1</clus>
<clus scale="   94.820">  2  5  1 -1</clus>
<clus scale="   21.869">  2  5  1 -1</clus>
</clustering>
</event>
<event>
 9    1  0.4664604E-005  0.1053274E+03  0.7546771E-02  0.1283484E+00
          1   -1    0    0  502    0 -0.00000000000E+00  0.00000000000E+00  0.17146604722E+03  0.17146604722E+03  0.00000000000E+00 0. -1.
         21   -1    0    0  501  502  0.00000000000E+00 -0.00000000000E+00 -0.24333584977E+03  0.24333584977E+03  0.00000000000E+00 0.  1.
         23    2    1    2    0    0 -0.27124492917E+02 -0.97294254117E+01  0.12796376062E+03  0.16684524021E+03  0.10311260986E+03 0.  0.
        -24    2    1    2    0    0 -0.29467692910E+02  0.18916153947E+02 -0.89088834794E+02  0.12325113829E+03  0.77639273567E+02 0.  0.
         11    1    4    4    0    0 -0.97962808829E+01  0.48229305735E+02 -0.44241999615E+02  0.66176941458E+02  0.00000000000E+00 0. -1.
        -12    1    4    4    0    0 -0.19671412027E+02 -0.29313151787E+02 -0.44846835179E+02  0.57074196835E+02  0.00000000000E+00 0.  1.
        -13    1    3    3    0    0  0.42408769777E+00  0.44723450164E+02  0.67234788534E+02  0.80751988422E+02  0.00000000000E+00 0. -1.
         13    1    3    3    0    0 -0.27548580615E+02 -0.54452875576E+02  0.60728972090E+02  0.86093251788E+02  0.00000000000E+00 0.  1.
          2    1    1    2  501    0  0.56592185827E+02 -0.91867285358E+01 -0.11074472838E+03  0.12470551849E+03  0.00000000000E+00 0. -1.
<scales pt_clust_5="13000.00000" pt_clust_6="13000.00000" pt_clust_7="13000.00000" pt_clust_8="13000.00000" pt_clust_9="57.33299"></scales>
<clustering>
<clus scale="   57.333">  2  9  1 -1</clus>
<clus scale="   77.639">  5  6 -1 -1</clus>
<clus scale="   80.557">  2  5  1 -1</clus>
<clus scale="  103.113">  7  8 -1 -1</clus>
<clus scale="   57.333">  2  5  1 -1</clus>
</clustering>
</event>
<event>
 9    1  0.4664604E-005  0.9529398E+02  0.7546771E-02  0.1295327E+00
          1   -1    0    0  502    0 -0.00000000000E+00  0.00000000000E+00  0.62937886669E+03  0.62937886669E+03  0.00000000000E+00 0. -1.
         21   -1    0    0  501  502  0.00000000000E+00 -0.00000000000E+00 -0.14440789836E+03  0.14440789836E+03  0.00000000000E+00 0. -1.
         23    2    1    2    0    0  0.39209031506E+02 -0.95680196215E+01  0.54420861829E+03  0.55309023074E+03  0.90093773188E+02 0.  0.
        -24    2    1    2    0    0  0.28594529995E+02 -0.28490468593E+02  0.36018151867E+02  0.97735405264E+02  0.81397470673E+02 0.  0.
         11    1    4    4    0    0  0.42226689766E+02 -0.34200140534E+01  0.50349646649E+02  0.65801798930E+02  0.00000000000E+00 0. -1.
        -12    1    4    4    0    0 -0.13632159771E+02 -0.25070454539E+02 -0.14331494782E+02  0.31933606334E+02  0.00000000000E+00 0.  1.
        -13    1    3    3    0    0  0.42442028294E+02 -0.45488243878E+02  0.36905723341E+03  0.37426427512E+03  0.00000000000E+00 0.  1.
         13    1    3    3    0    0 -0.32329967873E+01  0.35920224256E+02  0.17515138488E+03  0.17882595562E+03  0.00000000000E+00 0. -1.
          2    1    1    2  501    0 -0.67803561501E+02  0.38058488214E+02 -0.95255801817E+02  0.12296112905E+03  0.00000000000E+00 0. -1.
<scales pt_clust_5="13000.00000" pt_clust_6="13000.00000" pt_clust_7="13000.00000" pt_clust_8="13000.00000" pt_clust_9="77.75456"></scales>
<clustering>
<clus scale="   77.755">  2  9  1 -1</clus>
<clus scale="   81.397">  5  6 -1 -1</clus>
<clus scale="   87.118">  2  5  1 -1</clus>
<clus scale="   90.094">  7  8 -1 -1</clus>
<clus scale="   77.755">  2  5  1 -1</clus>
</clustering>
</event>
<event>
 9    1  0.4664604E-005  0.9475862E+02  0.7546771E-02  0.1297433E+00
         21   -1    0    0  501  502  0.00000000000E+00  0.00000000000E+00  0.65951100719E+02  0.65951100719E+02  0.00000000000E+00 0. -1.
          3   -1    0    0  502    0 -0.00000000000E+00 -0.00000000000E+00 -0.44774883926E+03  0.44774883926E+03  0.00000000000E+00 0. -1.
         23    2    1    2    0    0 -0.14405476024E+02  0.18354005212E+01 -0.32495782312E+03  0.33807871757E+03  0.92134391128E+02 0.  0.
        -24    2    1    2    0    0  0.44091745169E+02 -0.12719974034E+02 -0.89653453815E+02  0.13005284721E+03  0.82280748392E+02 0.  0.
         11    1    4    4    0    0  0.64341376656E+02  0.72534944499E+01 -0.70723700889E+02  0.95886744648E+02  0.00000000000E+00 0. -1.
        -12    1    4    4    0    0 -0.20249631488E+02 -0.19973468484E+02 -0.18929752926E+02  0.34166102565E+02  0.00000000000E+00 0.  1.
        -11    1    3    3    0    0  0.32525550920E+02 -0.19204451896E+02 -0.90874638046E+02  0.98412002700E+02  0.00000000000E+00 0. -1.
         11    1    3    3    0    0 -0.46931026944E+02  0.21039852418E+02 -0.23408318508E+03  0.23966671487E+03  0.00000000000E+00 0.  1.
          4    1    1    2  501    0 -0.29686269144E+02  0.10884573513E+02  0.32813538396E+02  0.45568375200E+02  0.00000000000E+00 0. -1.
<scales pt_clust_5="13000.00000" pt_clust_6="13000.00000" pt_clust_7="13000.00000" pt_clust_8="13000.00000" pt_clust_9="31.61880"></scales>
<clustering>
<clus scale="   31.619">  1  9  2 -1</clus>
<clus scale="   82.281">  5  6 -1 -1</clus>
<clus scale="   85.209">  1  5  2 -1</clus>
<clus scale="   92.134">  7  8 -1 -1</clus>
<clus scale="   31.619">  1  5  2 -1</clus>
</clustering>
</event>
<event>
 9    1  0.4664604E-005  0.1077888E+03  0.7546771E-02  0.1271270E+00
          1   -1    0    0  502    0 -0.00000000000E+00  0.00000000000E+00  0.12769342625E+04  0.12769342625E+04  0.00000000000E+00 0. -1.
         21   -1    0    0  501  502  0.00000000000E+00 -0.00000000000E+00 -0.17138290572E+02  0.17138290572E+02  0.00000000000E+00 0. -1.
        -24    2    1    2    0    0 -0.15616249296E+02 -0.66757170056E+02  0.84401954806E+03  0.85018080634E+03  0.75749712642E+02 0.  0.
         23    2    1    2    0    0  0.17339010625E+01  0.16154644419E+02  0.18186443230E+03  0.20416658120E+03  0.91352844461E+02 0.  0.
         11    1    3    3    0    0 -0.29186595728E+02 -0.31567966993E+02  0.17892606175E+03  0.18401882915E+03  0.00000000000E+00 0. -1.
        -12    1    3    3    0    0  0.13570346433E+02 -0.35189203063E+02  0.66509348632E+03  0.66616197719E+03  0.00000000000E+00 0.  1.
        -13    1    4    4    0    0  0.42845584320E+02  0.21580069823E+02  0.69981850446E+02  0.84846348779E+02  0.00000000000E+00 0. -1.
         13    1    4    4    0    0 -0.41111683257E+02 -0.54254254040E+01  0.11188258186E+03  0.11932023242E+03  0.00000000000E+00 0.  1.
          2    1    1    2  501    0  0.13882348233E+02  0.50602525637E+02  0.23391199153E+03  0.23972516550E+03  0.00000000000E+00 0. -1.
<scales pt_clust_5="13000.00000" pt_clust_6="13000.00000" pt_clust_7="13000.00000" pt_clust_8="13000.00000" pt_clust_9="52.47226"></scales>
<clustering>
<clus scale="   52.472">  2  9  1 -1</clus>
<clus scale="   75.750">  5  6 -1 -1</clus>
<clus scale="   91.353">  7  8 -1 -1</clus>
<clus scale="   94.927">  1  5  2 -1</clus>
<clus scale="   52.472">  2  5  1 -1</clus>
</clustering>
</event>
<event>
 9    1  0.4664604E-005  0.1247041E+03  0.7546771E-02  0.1270491E+00
         21   -1    0    0  501  502  0.00000000000E+00  0.00000000000E+00  0.18626190155E+03  0.18626190155E+03  0.00000000000E+00 0. -1.
          1   -1    0    0  502    0 -0.00000000000E+00 -0.00000000000E+00 -0.27372669677E+03  0.27372669677E+03  0.00000000000E+00 0. -1.
        -24    2    1    2    0    0 -0.25704545665E+02 -0.12738265821E+02  0.50929681678E+02  0.80413810861E+02  0.55222834204E+02 0.  0.
         23    2    1    2    0    0 -0.60631129823E+02  0.23582064573E+02 -0.22846632382E+03  0.25433751488E+03  0.90876084214E+02 0.  0.
         13    1    3    3    0    0 -0.41760431042E+02 -0.80013542020E+01  0.46680466679E+02  0.63142863724E+02  0.00000000000E+00 0. -1.
        -14    1    3    3    0    0  0.16055885377E+02 -0.47369116193E+01  0.42492149988E+01  0.17270947138E+02  0.00000000000E+00 0.  1.
        -13    1    4    4    0    0  0.19547170803E+02 -0.97607235394E+01 -0.25524531148E+02  0.33598590755E+02  0.00000000000E+00 0.  1.
         13    1    4    4    0    0 -0.80178300627E+02  0.33342788112E+02 -0.20294179267E+03  0.22073892413E+03  0.00000000000E+00 0. -1.
          2    1    1    2  501    0  0.86335675489E+02 -0.10843798752E+02  0.90071846930E+02  0.12523727258E+03  0.00000000000E+00 0. -1.
<scales pt_clust_5="13000.00000" pt_clust_6="13000.00000" pt_clust_7="13000.00000" pt_clust_8="13000.00000" pt_clust_9="85.39705"></scales>
<clustering>
<clus scale="   55.223">  5  6 -1 -1</clus>
<clus scale="   62.230">  2  5  1 -1</clus>
<clus scale="   85.397">  1  9  2 -1</clus>
<clus scale="   90.876">  7  8 -1 -1</clus>
<clus scale="   85.397">  1  5  2 -1</clus>
</clustering>
</event>
<event>
 9    1  0.4664604E-005  0.1291087E+03  0.7546771E-02  0.1234480E+00
          1   -1    0    0  502    0 -0.00000000000E+00  0.00000000000E+00  0.48832397395E+03  0.48832397395E+03  0.00000000000E+00 0. -1.
         21   -1    0    0  501  502  0.00000000000E+00 -0.00000000000E+00 -0.10972856797E+03  0.10972856797E+03  0.00000000000E+00 0. -1.
         23    2    1    2    0    0 -0.63166325975E+02 -0.22115415718E+02 -0.28654820275E+02  0.11834033831E+03  0.93296626937E+02 0.  0.
        -24    2    1    2    0    0  0.10554842583E+02 -0.91961569083E+02  0.15040978453E+03  0.19379518916E+03  0.79781809761E+02 0.  0.
         11    1    4    4    0    0 -0.21106161118E+02 -0.87532257503E+02  0.10610493344E+03  0.13916042197E+03  0.00000000000E+00 0. -1.
        -12    1    4    4    0    0  0.31661003701E+02 -0.44293115795E+01  0.44304851088E+02  0.54634767194E+02  0.00000000000E+00 0.  1.
        -13    1    3    3    0    0 -0.37834293724E+02 -0.54665347335E+02 -0.37254238750E+02  0.76207691775E+02  0.00000000000E+00 0. -1.
         13    1    3    3    0    0 -0.25332032252E+02  0.32549931617E+02  0.85994184748E+01  0.42132646539E+02  0.00000000000E+00 0.  1.
          2    1    1    2  501    0  0.52611483392E+02  0.11407698480E+03  0.25684044173E+03  0.28591701445E+03  0.00000000000E+00 0. -1.
<scales pt_clust_5="13000.00000" pt_clust_6="13000.00000" pt_clust_7="13000.00000" pt_clust_8="13000.00000" pt_clust_9="101.50825"></scales>
<clustering>
<clus scale="   79.782">  5  6 -1 -1</clus>
<clus scale="   93.297">  7  8 -1 -1</clus>
<clus scale="  114.819">  1  7  2 -1</clus>
<clus scale="  101.508">  2  9  1 -1</clus>
<clus scale="  101.508">  2  5  1 -1</clus>
</clustering>
</event>
<event>
 9    1  0.4664604E-005  0.2987755E+03  0.7546771E-02  0.1086385E+00
         21   -1    0    0  501  502  0.00000000000E+00  0.00000000000E+00  0.26154332909E+03  0.26154332909E+03  0.00000000000E+00 0. -1.
          1   -1    0    0  502    0 -0.00000000000E+00 -0.00000000000E+00 -0.10401050956E+04  0.10401050956E+04  0.00000000000E+00 0. -1.
         23    2    1    2    0    0 -0.27883922693E+03  0.41322745668E+02 -0.65957553787E+03  0.72338355443E+03  0.93728292803E+02 0.  0.
        -24    2    1    2    0    0  0.28097019608E+03 -0.62365002313E+02 -0.28390995850E+03  0.41199053588E+03  0.79358002254E+02 0.  0.
         11    1    4    4    0    0  0.71891025143E+02 -0.27767675356E+02 -0.12602017864E+03  0.14771746246E+03  0.00000000000E+00 0. -1.
        -12    1    4    4    0    0  0.20907917093E+03 -0.34597326956E+02 -0.15788977986E+03  0.26427307342E+03  0.00000000000E+00 0.  1.
        -11    1    3    3    0    0 -0.99658279357E+02 -0.16047061238E+01 -0.13807574235E+03  0.17029168609E+03  0.00000000000E+00 0.  1.
         11    1    3    3    0    0 -0.17918094758E+03  0.42927451792E+02 -0.52149979552E+03  0.55309186834E+03  0.00000000000E+00 0. -1.
          2    1    1    2  501    0 -0.21309691420E+01  0.21042256645E+02  0.16492372987E+03  0.16627433437E+03  0.00000000000E+00 0. -1.
<scales pt_clust_5="13000.00000" pt_clust_6="13000.00000" pt_clust_7="13000.00000" pt_clust_8="13000.00000" pt_clust_9="21.14988"></scales>
<clustering>
<clus scale="   21.150">  1  9  2 -1</clus>
<clus scale="   79.358">  5  6 -1 -1</clus>
<clus scale="   93.728">  7  8 -1 -1</clus>
<clus scale="  294.584">  1  5  2 -1</clus>
<clus scale="   21.150">  1  5  2 -1</clus>
</clustering>
</event>
<event>
 9    1  0.4664604E-005  0.1179278E+03  0.7546771E-02  0.1252563E+00
         21   -1    0    0  501  502  0.00000000000E+00  0.00000000000E+00  0.29301694966E+03  0.29301694966E+03  0.00000000000E+00 0.  1.
         -4   -1    0    0    0  501 -0.00000000000E+00 -0.00000000000E+00 -0.13674930209E+03  0.13674930209E+03  0.00000000000E+00 0.  1.
        -24    2    1    2    0    0 -0.69598649188E+02 -0.32531235193E+02 -0.74879285754E+02  0.13053832185E+03  0.74371317085E+02 0.  0.
         23    2    1    2    0    0  0.48846373238E+02  0.41568324779E+02  0.61446050605E+02  0.12802420465E+03  0.92199165064E+02 0.  0.
         11    1    3    3    0    0 -0.19673388217E+02 -0.38895620633E+02 -0.42264942021E+01  0.43792405296E+02  0.00000000000E+00 0. -1.
        -12    1    3    3    0    0 -0.49925260970E+02  0.63643854408E+01 -0.70652791552E+02  0.86745916556E+02  0.00000000000E+00 0.  1.
        -11    1    4    4    0    0  0.37717213190E+02  0.17993937185E+02  0.83826655478E+02  0.93665778782E+02  0.00000000000E+00 0. -1.
         11    1    4    4    0    0  0.11129160048E+02  0.23574387594E+02 -0.22380604873E+02  0.34358425871E+02  0.00000000000E+00 0.  1.
         -3    1    1    2    0  502  0.20752275950E+02 -0.90370895865E+01  0.16970088271E+03  0.17120372525E+03  0.00000000000E+00 0.  1.
<scales pt_clust_5="13000.00000" pt_clust_6="13000.00000" pt_clust_7="13000.00000" pt_clust_8="13000.00000" pt_clust_9="22.63462"></scales>
<clustering>
<clus scale="   22.635">  1  9  2 -1</clus>
<clus scale="   74.371">  5  6 -1 -1</clus>
<clus scale="   92.199">  7  8 -1 -1</clus>
<clus scale="  104.582">  2  5  1 -1</clus>
<clus scale="   22.635">  1  5  2 -1</clus>
</clustering>
</event>
<event>
 9    1  0.4664604E-005  0.9483248E+02  0.7546771E-02  0.1300257E+00
         21   -1    0    0  501  502  0.00000000000E+00  0.00000000000E+00  0.44667972114E+02  0.44667972114E+02  0.00000000000E+00 0.  1.
          1   -1    0    0  502    0 -0.00000000000E+00 -0.00000000000E+00 -0.48853093791E+03  0.48853093791E+03  0.00000000000E+00 0. -1.
        -24    2    1    2    0    0 -0.23029614928E+02  0.26166335777E+02 -0.14163658808E+03  0.16621697592E+03  0.79700186381E+02 0.  0.
         23    2    1    2    0    0 -0.99175507613E+01  0.45801448362E+02 -0.82873111180E+02  0.13378516478E+03  0.93991421282E+02 0.  0.
         11    1    3    3    0    0 -0.49770057630E+02  0.93165651484E+01 -0.59036553941E+02  0.77776421388E+02  0.00000000000E+00 0. -1.
        -12    1    3    3    0    0  0.26740442702E+02  0.16849770628E+02 -0.82600034139E+02  0.88440554532E+02  0.00000000000E+00 0.  1.
        -11    1    4    4    0    0  0.28627038253E+02 -0.15499253051E+02 -0.27828616142E+02  0.42827164752E+02  0.00000000000E+00 0. -1.
         11    1    4    4    0    0 -0.38544589014E+02  0.61300701413E+02 -0.55044495038E+02  0.90958000032E+02  0.00000000000E+00 0.  1.
          2    1    1    2  501    0  0.32947165690E+02 -0.71967784138E+02 -0.21935326653E+03  0.23319676932E+03  0.00000000000E+00 0. -1.
<scales pt_clust_5="13000.00000" pt_clust_6="13000.00000" pt_clust_7="13000.00000" pt_clust_8="13000.00000" pt_clust_9="79.15102"></scales>
<clustering>
<clus scale="   79.151">  1  9  2 -1</clus>
<clus scale="   79.700">  5  6 -1 -1</clus>
<clus scale="   80.690">  2  5  1 -1</clus>
<clus scale="   93.991">  7  8 -1 -1</clus>
<clus scale="   79.151">  1  5  2 -1</clus>
</clustering>
</event>
<event>
 9    1  0.4664604E-005  0.1345863E+03  0.7546771E-02  0.1221503E+00
         21   -1    0    0  501  502  0.00000000000E+00  0.00000000000E+00  0.10639129635E+03  0.10639129635E+03  0.00000000000E+00 0. -1.
          1   -1    0    0  502    0 -0.00000000000E+00 -0.00000000000E+00 -0.58606577571E+03  0.58606577571E+03  0.00000000000E+00 0. -1.
         23    2    1    2    0    0 -0.24384709166E+02 -0.95142576406E+02 -0.39056966660E+03  0.41140679459E+03  0.84048570957E+02 0.  0.
        -24    2    1    2    0    0 -0.17186928773E+01  0.13022127628E+03 -0.14436785108E+03  0.21058109139E+03  0.80881301447E+02 0.  0.
         11    1    4    4    0    0 -0.18733923050E+02  0.69147608911E+02 -0.12537177008E+03  0.14439678814E+03  0.00000000000E+00 0. -1.
        -12    1    4    4    0    0  0.17015230172E+02  0.61073667365E+02 -0.18996081000E+02  0.66184303250E+02  0.00000000000E+00 0.  1.
        -11    1    3    3    0    0 -0.44726643946E+02 -0.81262374906E+02 -0.36196796065E+03  0.37366408817E+03  0.00000000000E+00 0. -1.
         11    1    3    3    0    0  0.20341934780E+02 -0.13880201499E+02 -0.28601705949E+02  0.37742706414E+02  0.00000000000E+00 0.  1.
          2    1    1    2  501    0  0.26103402044E+02 -0.35078699870E+02  0.55263038321E+02  0.70469186084E+02  0.00000000000E+00 0. -1.
<scales pt_clust_5="13000.00000" pt_clust_6="13000.00000" pt_clust_7="13000.00000" pt_clust_8="13000.00000" pt_clust_9="43.72531"></scales>
<clustering>
<clus scale="   43.725">  1  9  2 -1</clus>
<clus scale="   80.881">  5  6 -1 -1</clus>
<clus scale="   84.049">  7  8 -1 -1</clus>
<clus scale="  132.631">  1  5  2 -1</clus>
<clus scale="   43.725">  1  5  2 -1</clus>
</clustering>
</event>
<event>
 9    1  0.4664604E-005  0.1389166E+03  0.7546771E-02  0.1217167E+00
          1   -1    0    0  502    0 -0.00000000000E+00  0.00000000000E+00  0.30417630657E+03  0.30417630657E+03  0.00000000000E+00 0. -1.
         21   -1    0    0  501  502  0.00000000000E+00 -0.00000000000E+00 -0.86240061702E+02  0.86240061702E+02  0.00000000000E+00 0.  1.
         23    2    1    2    0    0 -0.60735565831E+02 -0.92937459670E+02  0.19401880417E+03  0.24143349057E+03  0.91217616875E+02 0.  0.
        -24    2    1    2    0    0  0.61115493869E+02  0.68059111821E+02  0.16096162169E+02  0.12290129541E+03  0.80489102893E+02 0.  0.
         11    1    4    4    0    0 -0.51627159189E+01  0.22787495062E+02  0.33430934621E+02  0.40786651695E+02  0.00000000000E+00 0. -1.
        -12    1    4    4    0    0  0.66278209788E+02  0.45271616759E+02 -0.17334772452E+02  0.82114643716E+02  0.00000000000E+00 0.  1.
        -11    1    3    3    0    0  0.10094723574E+02 -0.37851986564E+02  0.11631694177E+03  0.12273673970E+03  0.00000000000E+00 0. -1.
         11    1    3    3    0    0 -0.70830289406E+02 -0.55085473106E+02  0.77701862407E+02  0.11869675087E+03  0.00000000000E+00 0.  1.
          2    1    1    2  501    0 -0.37992803810E+00  0.24878347849E+02  0.78212785236E+01  0.26081582290E+02  0.00000000000E+00 0. -1.
<scales pt_clust_5="13000.00000" pt_clust_6="13000.00000" pt_clust_7="13000.00000" pt_clust_8="13000.00000" pt_clust_9="24.88125"></scales>
<clustering>
<clus scale="   24.881">  2  9  1 -1</clus>
<clus scale="   80.489">  5  6 -1 -1</clus>
<clus scale="   91.218">  7  8 -1 -1</clus>
<clus scale="  132.120">  2  5  1 -1</clus>
<clus scale="   24.881">  2  5  1 -1</clus>
</clustering>
</event>
<event>
 9    1  0.4664604E-005  0.1205582E+03  0.7546771E-02  0.1244626E+00
         21   -1    0    0  501  502  0.00000000000E+00  0.00000000000E+00  0.10216806072E+03  0.10216806072E+03  0.00000000000E+00 0. -1.
          1   -1    0    0  502    0 -0.00000000000E+00 -0.00000000000E+00 -0.26086810645E+03  0.26086810645E+03  0.00000000000E+00 0. -1.
         23    2    1    2    0    0 -0.59396268741E+02 -0.78031372428E+02 -0.60010285420E+02  0.14425226449E+03  0.87124449100E+02 0.  0.
        -24    2    1    2    0    0 -0.89899782872E+01  0.79591698538E+02 -0.19430937508E+02  0.11408875288E+03  0.78886145900E+02 0.  0.
         11    1    4    4    0    0 -0.22156915972E+02  0.85258548006E+02 -0.33269959434E+02  0.94163895067E+02  0.00000000000E+00 0. -1.
        -12    1    4    4    0    0  0.13166937685E+02 -0.56668494674E+01  0.13839021927E+02  0.19924857811E+02  0.00000000000E+00 0.  1.
        -13    1    3    3    0    0 -0.15723488885E+02  0.18895181800E+02 -0.76376073968E+01  0.25740805052E+02  0.00000000000E+00 0.  1.
         13    1    3    3    0    0 -0.43672779856E+02 -0.96926554228E+02 -0.52372678023E+02  0.11851145944E+03  0.00000000000E+00 0. -1.
          2    1    1    2  501    0  0.68386247028E+02 -0.15603261105E+01 -0.79258822804E+02  0.10469514980E+03  0.00000000000E+00 0. -1.
<scales pt_clust_5="13000.00000" pt_clust_6="13000.00000" pt_clust_7="13000.00000" pt_clust_8="13000.00000" pt_clust_9="68.40408"></scales>
<clustering>
<clus scale="   68.404">  1  9  2 -1</clus>
<clus scale="   78.886">  5  6 -1 -1</clus>
<clus scale="   87.124">  7  8 -1 -1</clus>
<clus scale="  114.746">  1  5  2 -1</clus>
<clus scale="   68.404">  1  5  2 -1</clus>
</clustering>
</event>
<event>
 9    1  0.4664604E-005  0.1053524E+03  0.7546771E-02  0.1274210E+00
         -2   -1    0    0    0  501 -0.00000000000E+00  0.00000000000E+00  0.61625253179E+03  0.61625253179E+03  0.00000000000E+00 0.  1.
         21   -1    0    0  501  502  0.00000000000E+00 -0.00000000000E+00 -0.53359452303E+02  0.53359452303E+02  0.00000000000E+00 0. -1.
        -24    2    1    2    0    0  0.14244215763E+02 -0.78017321938E+02  0.37197997070E+03  0.38875419109E+03  0.80443286100E+02 0.  0.
         23    2    1    2    0    0 -0.16236426365E+02  0.15034842394E+02  0.19628042730E+03  0.21761564139E+03  0.91328490676E+02 0.  0.
         11    1    3    3    0    0 -0.32457583513E+00 -0.57236052945E+02  0.97167592259E+02  0.11277239064E+03  0.00000000000E+00 0. -1.
        -12    1    3    3    0    0  0.14568791598E+02 -0.20781268993E+02  0.27481237845E+03  0.27598180044E+03  0.00000000000E+00 0.  1.
        -13    1    4    4    0    0  0.25339731301E+02 -0.24929045767E+02  0.61837995528E+02  0.71326692032E+02  0.00000000000E+00 0.  1.
         13    1    4    4    0    0 -0.41576157666E+02  0.39963888161E+02  0.13444243177E+03  0.14628894936E+03  0.00000000000E+00 0. -1.
         -1    1    1    2    0  502  0.19922106020E+01  0.62982479545E+02 -0.53673185196E+01  0.63242151614E+02  0.00000000000E+00 0.  1.
<scales pt_clust_5="13000.00000" pt_clust_6="13000.00000" pt_clust_7="13000.00000" pt_clust_8="13000.00000" pt_clust_9="63.01398"></scales>
<clustering>
<clus scale="   63.014">  2  9  1 -1</clus>
<clus scale="   80.443">  5  6 -1 -1</clus>
<clus scale="   91.328">  7  8 -1 -1</clus>
<clus scale="   96.070">  1  5  2 -1</clus>
<clus scale="   63.014">  2  5  1 -1</clus>
</clustering>
</event>
<event>
 9    1  0.4664604E-005  0.1038016E+03  0.7546771E-02  0.1275524E+00
         21   -1    0    0  501  502  0.00000000000E+00  0.00000000000E+00  0.19320244733E+03  0.19320244733E+03  0.00000000000E+00 0. -1.
         -4   -1    0    0    0  501 -0.00000000000E+00 -0.00000000000E+00 -0.71660429313E+02  0.71660429313E+02  0.00000000000E+00 0.  1.
         23    2    1    2    0    0  0.37322875165E+02 -0.36261345941E+00  0.40655182472E+02  0.10734579544E+03  0.92071425735E+02 0.  0.
        -24    2    1    2    0    0 -0.58456781042E+02  0.89076161696E+01  0.41207190568E+02  0.11175538025E+03  0.85408966653E+02 0.  0.
         13    1    4    4    0    0 -0.24658601481E+02 -0.25947508272E+02  0.50919604189E+02  0.62242476681E+02  0.00000000000E+00 0. -1.
        -14    1    4    4    0    0 -0.33798179561E+02  0.34855124442E+02 -0.97124136217E+01  0.49512903570E+02  0.00000000000E+00 0.  1.
        -13    1    3    3    0    0  0.26828394631E+02 -0.42485667568E+02  0.39509143515E+02  0.63920005698E+02  0.00000000000E+00 0.  1.
         13    1    3    3    0    0  0.10494480533E+02  0.42123054108E+02  0.11460389570E+01  0.43425789738E+02  0.00000000000E+00 0. -1.
         -3    1    1    2    0  502  0.21133905877E+02 -0.85450027102E+01  0.39679644974E+02  0.45761700954E+02  0.00000000000E+00 0.  1.
<scales pt_clust_5="13000.00000" pt_clust_6="13000.00000" pt_clust_7="13000.00000" pt_clust_8="13000.00000" pt_clust_9="22.79603"></scales>
<clustering>
<clus scale="   22.796">  1  9  2 -1</clus>
<clus scale="   85.409">  5  6 -1 -1</clus>
<clus scale="   92.071">  7  8 -1 -1</clus>
<clus scale="   97.940">  1  5  2 -1</clus>
<clus scale="   22.796">  1  5  2 -1</clus>
</clustering>
</event>
<event>
 9    1  0.4664604E-005  0.2186142E+03  0.7546771E-02  0.1135490E+00
          3   -1    0    0  502    0 -0.00000000000E+00  0.00000000000E+00  0.10844335050E+04  0.10844335050E+04  0.00000000000E+00 0. -1.
         21   -1    0    0  501  502  0.00000000000E+00 -0.00000000000E+00 -0.20781645599E+03  0.20781645599E+03  0.00000000000E+00 0. -1.
        -24    2    1    2    0    0 -0.19434364579E+03  0.39809914302E+02  0.85808221886E+03  0.88483275272E+03  0.85262090194E+02 0.  0.
         23    2    1    2    0    0  0.17319081602E+03 -0.11862357439E+03  0.13424326136E+03  0.26582809751E+03  0.92610545020E+02 0.  0.
         11    1    3    3    0    0 -0.12826088084E+03  0.64651957245E+02  0.52097810975E+03  0.54041550678E+03  0.00000000000E+00 0. -1.
        -12    1    3    3    0    0 -0.66082764945E+02 -0.24842042943E+02  0.33710410911E+03  0.34441724594E+03  0.00000000000E+00 0.  1.
        -11    1    4    4    0    0  0.54606698264E+02 -0.57677464644E+02  0.10086688145E+03  0.12838500378E+03  0.00000000000E+00 0.  1.
         11    1    4    4    0    0  0.11858411775E+03 -0.60946109750E+02  0.33376379914E+02  0.13744309373E+03  0.00000000000E+00 0. -1.
          4    1    1    2  501    0  0.21152829774E+02  0.78813660093E+02 -0.11570843122E+03  0.14158911074E+03  0.00000000000E+00 0. -1.
<scales pt_clust_5="13000.00000" pt_clust_6="13000.00000" pt_clust_7="13000.00000" pt_clust_8="13000.00000" pt_clust_9="81.60291"></scales>
<clustering>
<clus scale="   81.603">  2  9  1 -1</clus>
<clus scale="   85.262">  5  6 -1 -1</clus>
<clus scale="   92.611">  7  8 -1 -1</clus>
<clus scale="  215.604">  1  5  2 -1</clus>
<clus scale="   81.603">  2  5  1 -1</clus>
</clustering>
</event>
<event>
 9    1  0.4664604E-005  0.1029676E+03  0.7546771E-02  0.1280764E+00
         21   -1    0    0  501  502  0.00000000000E+00  0.00000000000E+00  0.18436733156E+03  0.18436733156E+03  0.00000000000E+00 0. -1.
          1   -1    0    0  502    0 -0.00000000000E+00 -0.00000000000E+00 -0.13183772071E+03  0.13183772071E+03  0.00000000000E+00 0. -1.
         23    2    1    2    0    0  0.15218183950E+02  0.56004814073E+02 -0.50170222396E+02  0.11966089415E+03  0.91834340257E+02 0.  0.
        -24    2    1    2    0    0 -0.52479696060E+02 -0.17332646227E+01  0.30412748310E+02  0.98772771655E+02  0.77935886829E+02 0.  0.
         11    1    4    4    0    0 -0.65830245994E+02  0.17855554894E+02  0.31306523620E+02  0.75050253493E+02  0.00000000000E+00 0. -1.
        -12    1    4    4    0    0  0.13350549934E+02 -0.19588819517E+02 -0.89377531036E+00  0.23722518161E+02  0.00000000000E+00 0.  1.
        -11    1    3    3    0    0  0.49204876928E+02  0.32242056443E+02 -0.51477370628E+02  0.78170261634E+02  0.00000000000E+00 0. -1.
         11    1    3    3    0    0 -0.33986692978E+02  0.23762757630E+02  0.13071482317E+01  0.41490632512E+02  0.00000000000E+00 0.  1.
          2    1    1    2  501    0  0.37261512110E+02 -0.54271549450E+02  0.72287084934E+02  0.97771386473E+02  0.00000000000E+00 0. -1.
<scales pt_clust_5="13000.00000" pt_clust_6="13000.00000" pt_clust_7="13000.00000" pt_clust_8="13000.00000" pt_clust_9="65.83177"></scales>
<clustering>
<clus scale="   65.832">  1  9  2 -1</clus>
<clus scale="   77.936">  5  6 -1 -1</clus>
<clus scale="   90.790">  1  5  2 -1</clus>
<clus scale="   91.834">  7  8 -1 -1</clus>
<clus scale="   65.832">  1  5  2 -1</clus>
</clustering>
</event>
<event>
 9    1  0.4664604E-005  0.1308174E+03  0.7546771E-02  0.1241976E+00
         21   -1    0    0  501  502  0.00000000000E+00  0.00000000000E+00  0.72452019154E+02  0.72452019154E+02  0.00000000000E+00 0.  1.
         -4   -1    0    0    0  501 -0.00000000000E+00 -0.00000000000E+00 -0.62043796489E+03  0.62043796489E+03  0.00000000000E+00 0.  1.
         23    2    1    2    0    0  0.15369031612E+02  0.26204893661E+02 -0.33375493649E+03  0.34694361321E+03  0.89747476442E+02 0.  0.
        -24    2    1    2    0    0  0.61350362927E+02  0.51678825222E+02 -0.20734786656E+03  0.23640589056E+03  0.80374369776E+02 0.  0.
         11    1    4    4    0    0  0.22137263124E+02 -0.20219323541E+02 -0.74975124315E+02  0.80747437910E+02  0.00000000000E+00 0. -1.
        -12    1    4    4    0    0  0.39213099803E+02  0.71898148763E+02 -0.13237274224E+03  0.15565845265E+03  0.00000000000E+00 0.  1.
        -11    1    3    3    0    0  0.27267798227E+02  0.51983918592E+02 -0.28066765999E+03  0.28674064235E+03  0.00000000000E+00 0.  1.
         11    1    3    3    0    0 -0.11898766615E+02 -0.25779024931E+02 -0.53087276506E+02  0.60202970858E+02  0.00000000000E+00 0. -1.
         -3    1    1    2    0  502 -0.76719394539E+02 -0.77883718883E+02 -0.68831426817E+01  0.10954048027E+03  0.00000000000E+00 0.  1.
<scales pt_clust_5="13000.00000" pt_clust_6="13000.00000" pt_clust_7="13000.00000" pt_clust_8="13000.00000" pt_clust_9="103.21405"></scales>
<clustering>
<clus scale="   80.374">  5  6 -1 -1</clus>
<clus scale="   89.747">  7  8 -1 -1</clus>
<clus scale="   94.750">  2  7  1 -1</clus>
<clus scale="  103.214">  1  9  2 -1</clus>
<clus scale="  103.214">  1  5  2 -1</clus>
</clustering>
</event>
<event>
 9    1  0.4664604E-005  0.1356838E+03  0.7546771E-02  0.1236529E+00
         -2   -1    0    0    0  501 -0.00000000000E+00  0.00000000000E+00  0.86807732586E+02  0.86807732586E+02  0.00000000000E+00 0.  1.
         21   -1    0    0  501  502  0.00000000000E+00 -0.00000000000E+00 -0.39308654517E+03  0.39308654517E+03  0.00000000000E+00 0.  1.
         23    2    1    2    0    0  0.26061309185E+02  0.34319500185E+00 -0.11460201439E+03  0.14876916358E+03  0.91210376116E+02 0.  0.
        -24    2    1    2    0    0  0.41598582250E+02  0.84392688630E+02 -0.21595374570E+02  0.12941809510E+03  0.86198115965E+02 0.  0.
         13    1    4    4    0    0  0.32078193584E+02  0.30912728131E+02 -0.50944861121E+02  0.67675594853E+02  0.00000000000E+00 0. -1.
        -14    1    4    4    0    0  0.95203886658E+01  0.53479960499E+02  0.29349486551E+02  0.61742500242E+02  0.00000000000E+00 0.  1.
        -13    1    3    3    0    0  0.50526240279E+02 -0.16725194613E+02 -0.34840934786E+02  0.63612293060E+02  0.00000000000E+00 0. -1.
         13    1    3    3    0    0 -0.24464931095E+02  0.17068389615E+02 -0.79761079601E+02  0.85156870519E+02  0.00000000000E+00 0.  1.
         -1    1    1    2    0  502 -0.67659891434E+02 -0.84735883632E+02 -0.17008142362E+03  0.20170701908E+03  0.00000000000E+00 0.  1.
<scales pt_clust_5="13000.00000" pt_clust_6="13000.00000" pt_clust_7="13000.00000" pt_clust_8="13000.00000" pt_clust_9="104.78539"></scales>
<clustering>
<clus scale="   86.198">  5  6 -1 -1</clus>
<clus scale="   91.210">  7  8 -1 -1</clus>
<clus scale="   94.861">  1  7  2 -1</clus>
<clus scale="  104.785">  2  9  1 -1</clus>
<clus scale="  104.785">  2  5  1 -1</clus>
</clustering>
</event>
<event>
 9    1  0.4664604E-005  0.9275899E+02  0.7546771E-02  0.1301880E+00
         -4   -1    0    0    0  501 -0.00000000000E+00  0.00000000000E+00  0.54469412735E+02  0.54469412735E+02  0.00000000000E+00 0.  1.
         21   -1    0    0  501  502  0.00000000000E+00 -0.00000000000E+00 -0.21618740726E+03  0.21618740726E+03  0.00000000000E+00 0. -1.
        -24    2    1    2    0    0 -0.34411914661E+01  0.15143058895E+02 -0.24738260925E+02  0.86641033355E+02  0.81569191953E+02 0.  0.
         23    2    1    2    0    0  0.29296563243E+02 -0.14793008320E+02 -0.11398938321E+03  0.14941551213E+03  0.90853145610E+02 0.  0.
         11    1    3    3    0    0  0.23008989790E+02 -0.25103219984E+02 -0.16279380023E+02  0.37743919758E+02  0.00000000000E+00 0. -1.
        -12    1    3    3    0    0 -0.26450181256E+02  0.40246278879E+02 -0.84588809016E+01  0.48897113598E+02  0.00000000000E+00 0.  1.
        -11    1    4    4    0    0  0.43983479834E+02  0.17045700704E+02 -0.10196596841E+03  0.11234839173E+03  0.00000000000E+00 0. -1.
         11    1    4    4    0    0 -0.14686916591E+02 -0.31838709025E+02 -0.12023414804E+02  0.37067120401E+02  0.00000000000E+00 0.  1.
         -3    1    1    2    0  502 -0.25855371777E+02 -0.35005057479E+00 -0.22990350386E+02  0.34600274508E+02  0.00000000000E+00 0.  1.
<scales pt_clust_5="13000.00000" pt_clust_6="13000.00000" pt_clust_7="13000.00000" pt_clust_8="13000.00000" pt_clust_9="25.85774"></scales>
<clustering>
<clus scale="   25.858">  2  9  1 -1</clus>
<clus scale="   81.569">  5  6 -1 -1</clus>
<clus scale="   83.687">  1  5  2 -1</clus>
<clus scale="   90.853">  7  8 -1 -1</clus>
<clus scale="   25.858">  2  5  1 -1</clus>
</clustering>
</event>
<event>
 9    1  0.4664604E-005  0.1259189E+03  0.7546771E-02  0.1235122E+00
         21   -1    0    0  501  502  0.00000000000E+00  0.00000000000E+00  0.23534005702E+03  0.23534005702E+03  0.00000000000E+00 0. -1.
         -4   -1    0    0    0  501 -0.00000000000E+00 -0.00000000000E+00 -0.13398521670E+03  0.13398521670E+03  0.00000000000E+00 0.  1.
         23    2    1    2    0    0 -0.98949830761E+02 -0.39690825068E+02 -0.15294066360E+02  0.14070888681E+03  0.90546406658E+02 0.  0.
        -24    2    1    2    0    0  0.47202315174E+02  0.55890379717E+02  0.14877628897E+02  0.11330106303E+03  0.85229067454E+02 0.  0.
         13    1    4    4    0    0  0.54607182629E+01  0.61824009232E+02  0.29443553444E+02  0.68694616971E+02  0.00000000000E+00 0. -1.
        -14    1    4    4    0    0  0.41741596912E+02 -0.59336295148E+01 -0.14565924547E+02  0.44606446057E+02  0.00000000000E+00 0.  1.
        -11    1    3    3    0    0 -0.32385679398E+02 -0.36767953391E+02 -0.46125892373E+02  0.67292737898E+02  0.00000000000E+00 0.  1.
         11    1    3    3    0    0 -0.66564151362E+02 -0.29228716770E+01  0.30831826013E+02  0.73416148910E+02  0.00000000000E+00 0. -1.
         -3    1    1    2    0  502  0.51747515586E+02 -0.16199554649E+02  0.10177127778E+03  0.11531532388E+03  0.00000000000E+00 0.  1.
<scales pt_clust_5="13000.00000" pt_clust_6="13000.00000" pt_clust_7="13000.00000" pt_clust_8="13000.00000" pt_clust_9="54.22390"></scales>
<clustering>
<clus scale="   54.224">  1  9  2 -1</clus>
<clus scale="   85.229">  5  6 -1 -1</clus>
<clus scale="   90.546">  7  8 -1 -1</clus>
<clus scale="  122.151">  1  5  2 -1</clus>
<clus scale="   54.224">  1  5  2 -1</clus>
</clustering>
</event>
<event>
 9    1  0.4664604E-005  0.9376931E+02  0.7546771E-02  0.1301605E+00
         21   -1    0    0  501  502  0.00000000000E+00  0.00000000000E+00  0.44661840226E+02  0.44661840226E+02  0.00000000000E+00 0.  1.
          1   -1    0    0  502    0 -0.00000000000E+00 -0.00000000000E+00 -0.31486351876E+03  0.31486351876E+03  0.00000000000E+00 0. -1.
         23    2    1    2    0    0 -0.23887847472E+02  0.22659573402E+02 -0.20556970493E+03  0.22720978404E+03  0.91001631053E+02 0.  0.
        -24    2    1    2    0    0 -0.76116897523E+01 -0.10872366923E+02 -0.57376485369E+02  0.97909162874E+02  0.78217625366E+02 0.  0.
         11    1    4    4    0    0  0.29199602154E+02 -0.26093974814E+02 -0.32981270604E+02  0.51198403278E+02  0.00000000000E+00 0. -1.
        -12    1    4    4    0    0 -0.36811291906E+02  0.15221607891E+02 -0.24395214766E+02  0.46710759596E+02  0.00000000000E+00 0.  1.
        -11    1    3    3    0    0  0.23017330916E+02 -0.21577100127E+02 -0.54805089770E+02  0.63237383224E+02  0.00000000000E+00 0.  1.
         11    1    3    3    0    0 -0.46905178388E+02  0.44236673528E+02 -0.15076461516E+03  0.16397240082E+03  0.00000000000E+00 0. -1.
          2    1    1    2  501    0  0.31499537224E+02 -0.11787206479E+02 -0.72554882294E+01  0.34406412067E+02  0.00000000000E+00 0. -1.
<scales pt_clust_5="13000.00000" pt_clust_6="13000.00000" pt_clust_7="13000.00000" pt_clust_8="13000.00000" pt_clust_9="33.63271"></scales>
<clustering>
<clus scale="   33.633">  1  9  2 -1</clus>
<clus scale="   78.218">  5  6 -1 -1</clus>
<clus scale="   81.421">  1  5  2 -1</clus>
<clus scale="   91.002">  7  8 -1 -1</clus>
<clus scale="   33.633">  1  5  2 -1</clus>
</clustering>
</event>
<event>
 9    1  0.4664604E-005  0.9102875E+02  0.7546771E-02  0.1306803E+00
          1   -1    0    0  502    0 -0.00000000000E+00  0.00000000000E+00  0.48376564163E+03  0.48376564163E+03  0.00000000000E+00 0. -1.
         21   -1    0    0  501  502  0.00000000000E+00 -0.00000000000E+00 -0.30867926150E+02  0.30867926150E+02  0.00000000000E+00 0. -1.
        -24    2    1    2    0    0  0.21210137248E+02 -0.12859814533E+02  0.15869624091E+03  0.17896919128E+03  0.78931804710E+02 0.  0.
         23    2    1    2    0    0  0.38446414399E+02  0.23624439026E+02  0.16505462493E+03  0.19299801724E+03  0.89269057054E+02 0.  0.
         11    1    3    3    0    0  0.48557435542E+02  0.61002905020E+01  0.10412135623E+03  0.11504909784E+03  0.00000000000E+00 0. -1.
        -12    1    3    3    0    0 -0.27347298293E+02 -0.18960105035E+02  0.54574884678E+02  0.63920093433E+02  0.00000000000E+00 0.  1.
        -13    1    4    4    0    0 -0.12396637324E+02  0.33853733393E+02  0.11651290569E+03  0.12196314637E+03  0.00000000000E+00 0.  1.
         13    1    4    4    0    0  0.50843051723E+02 -0.10229294367E+02  0.48541719248E+02  0.71034870869E+02  0.00000000000E+00 0. -1.
          2    1    1    2  501    0 -0.59656551647E+02 -0.10764624493E+02  0.12914684964E+03  0.14266635926E+03  0.00000000000E+00 0. -1.
<scales pt_clust_5="13000.00000" pt_clust_6="13000.00000" pt_clust_7="13000.00000" pt_clust_8="13000.00000" pt_clust_9="60.62000"></scales>
<clustering>
<clus scale="   60.620">  2  9  1 -1</clus>
<clus scale="   78.932">  5  6 -1 -1</clus>
<clus scale="   80.917">  1  5  2 -1</clus>
<clus scale="   89.269">  7  8 -1 -1</clus>
<clus scale="   60.620">  2  5  1 -1</clus>
</clustering>
</event>
<event>
 9    1  0.4664604E-005  0.9860614E+02  0.7546771E-02  0.1285077E+00
         21   -1    0    0  501  502  0.00000000000E+00  0.00000000000E+00  0.15383784745E+03  0.15383784745E+03  0.00000000000E+00 0. -1.
          1   -1    0    0  502    0 -0.00000000000E+00 -0.00000000000E+00 -0.21849168242E+03  0.21849168242E+03  0.00000000000E+00 0. -1.
        -24    2    1    2    0    0 -0.30868611234E+02  0.18332706436E+02 -0.17487686265E+03  0.19983018493E+03  0.89784332897E+02 0.  0.
         23    2    1    2    0    0 -0.40684145119E+01 -0.18297082392E+01  0.85381343966E+02  0.12656402121E+03  0.93319760704E+02 0.  0.
         11    1    3    3    0    0  0.25085810787E+02  0.25535221049E+02 -0.40274443953E+02  0.53882986670E+02  0.00000000000E+00 0. -1.
        -12    1    3    3    0    0 -0.55954422021E+02 -0.72025146121E+01 -0.13460241869E+03  0.14594719826E+03  0.00000000000E+00 0.  1.
        -13    1    4    4    0    0 -0.27332594247E+02 -0.13067129186E+02 -0.66144182450E+01  0.31009209957E+02  0.00000000000E+00 0. -1.
         13    1    4    4    0    0  0.23264179735E+02  0.11237420947E+02  0.91995762211E+02  0.95554811250E+02  0.00000000000E+00 0.  1.
          2    1    1    2  501    0  0.34937025746E+02 -0.16502998197E+02  0.24841683708E+02  0.45935323738E+02  0.00000000000E+00 0. -1.
<scales pt_clust_5="13000.00000" pt_clust_6="13000.00000" pt_clust_7="13000.00000" pt_clust_8="13000.00000" pt_clust_9="38.63864"></scales>
<clustering>
<clus scale="   38.639">  1  9  2 -1</clus>
<clus scale="   89.784">  5  6 -1 -1</clus>
<clus scale="   93.320">  7  8 -1 -1</clus>
<clus scale="   95.267">  2  5  1 -1</clus>
<clus scale="   38.639">  1  5  2 -1</clus>
</clustering>
</event>
<event>
 9    1  0.4664604E-005  0.1956028E+03  0.7546771E-02  0.1177171E+00
         21   -1    0    0  501  502  0.00000000000E+00  0.00000000000E+00  0.10959121611E+03  0.10959121611E+03  0.00000000000E+00 0. -1.
          1   -1    0    0  502    0 -0.00000000000E+00 -0.00000000000E+00 -0.72715500247E+03  0.72715500247E+03  0.00000000000E+00 0. -1.
         23    2    1    2    0    0  0.51989382441E+02  0.41423897960E+02 -0.18659217944E+03  0.21830686828E+03  0.91773700498E+02 0.  0.
        -24    2    1    2    0    0 -0.21741032893E+03 -0.55983164151E+02 -0.37291200585E+03  0.44252181551E+03  0.79754794851E+02 0.  0.
         13    1    4    4    0    0 -0.18775748170E+03 -0.26352892721E+02 -0.25778652259E+03  0.32000193455E+03  0.00000000000E+00 0. -1.
        -14    1    4    4    0    0 -0.29652847229E+02 -0.29630271430E+02 -0.11512548326E+03  0.12251988095E+03  0.00000000000E+00 0.  1.
        -11    1    3    3    0    0  0.21766939710E+02  0.63858900789E+01  0.32419347167E+01  0.22914829197E+02  0.00000000000E+00 0.  1.
         11    1    3    3    0    0  0.30222442731E+02  0.35038007881E+02 -0.18983411416E+03  0.19539203909E+03  0.00000000000E+00 0. -1.
          2    1    1    2  501    0  0.16542094649E+03  0.14559266191E+02 -0.58059601072E+02  0.17591753479E+03  0.00000000000E+00 0. -1.
<scales pt_clust_5="13000.00000" pt_clust_6="13000.00000" pt_clust_7="13000.00000" pt_clust_8="13000.00000" pt_clust_9="178.60471"></scales>
<clustering>
<clus scale="   79.755">  5  6 -1 -1</clus>
<clus scale="   91.774">  7  8 -1 -1</clus>
<clus scale="  113.319">  2  7  1 -1</clus>
<clus scale="  178.605">  1  9  2 -1</clus>
<clus scale="  178.605">  1  5  2 -1</clus>
</clustering>
</event>
<event>
 9    1  0.4664604E-005  0.9759513E+02  0.7546771E-02  0.1290518E+00
         21   -1    0    0  501  502  0.00000000000E+00  0.00000000000E+00  0.13640712220E+03  0.13640712220E+03  0.00000000000E+00 0. -1.
          3   -1    0    0  502    0 -0.00000000000E+00 -0.00000000000E+00 -0.16758881611E+03  0.16758881611E+03  0.00000000000E+00 0. -1.
        -24    2    1    2    0    0 -0.47140589936E+02  0.33087515631E+02 -0.12922632421E+02  0.10035897282E+03  0.81165941661E+02 0.  0.
         23    2    1    2    0    0 -0.30065410249E+02 -0.26872186890E+02  0.39608655583E+02  0.10695155059E+03  0.90795072858E+02 0.  0.
         13    1    3    3    0    0  0.10691737378E+02  0.23712858278E+02  0.20310927915E+02  0.33002222481E+02  0.00000000000E+00 0. -1.
        -14    1    3    3    0    0 -0.57832327314E+02  0.93746573529E+01 -0.33233560336E+02  0.67356750334E+02  0.00000000000E+00 0.  1.
        -11    1    4    4    0    0 -0.59331243389E+02 -0.18574433469E+02  0.44070830309E+02  0.76206588330E+02  0.00000000000E+00 0. -1.
         11    1    4    4    0    0  0.29265833139E+02 -0.82977534211E+01 -0.44621747265E+01  0.30744962262E+02  0.00000000000E+00 0.  1.
          4    1    1    2  501    0  0.77206000185E+02 -0.62153287417E+01 -0.57867717078E+02  0.96685414907E+02  0.00000000000E+00 0. -1.
<scales pt_clust_5="13000.00000" pt_clust_6="13000.00000" pt_clust_7="13000.00000" pt_clust_8="13000.00000" pt_clust_9="77.45581"></scales>
<clustering>
<clus scale="   77.456">  1  9  2 -1</clus>
<clus scale="   81.166">  5  6 -1 -1</clus>
<clus scale="   88.707">  2  5  1 -1</clus>
<clus scale="   90.795">  7  8 -1 -1</clus>
<clus scale="   77.456">  1  5  2 -1</clus>
</clustering>
</event>
<event>
 9    1  0.4664604E-005  0.1042067E+03  0.7546771E-02  0.1276733E+00
         21   -1    0    0  501  502  0.00000000000E+00  0.00000000000E+00  0.39430505921E+03  0.39430505921E+03  0.00000000000E+00 0. -1.
          1   -1    0    0  502    0 -0.00000000000E+00 -0.00000000000E+00 -0.98977668091E+02  0.98977668091E+02  0.00000000000E+00 0. -1.
        -24    2    1    2    0    0 -0.66200494207E+02 -0.60521472835E+01 -0.43044492721E+02  0.11113871565E+03  0.77973404707E+02 0.  0.
         23    2    1    2    0    0  0.12247352521E+02  0.52951845035E+01  0.88459034031E+02  0.12647245088E+03  0.89399348472E+02 0.  0.
         11    1    3    3    0    0 -0.60579830130E+02  0.22282733543E+01 -0.63854668458E+02  0.88047144784E+02  0.00000000000E+00 0. -1.
        -12    1    3    3    0    0 -0.56206640770E+01 -0.82804206378E+01  0.20810175737E+02  0.23091570861E+02  0.00000000000E+00 0.  1.
        -11    1    4    4    0    0 -0.11061078365E+02 -0.36222420502E+02  0.60146640925E+02  0.71077630913E+02  0.00000000000E+00 0. -1.
         11    1    4    4    0    0  0.23308430886E+02  0.41517605006E+02  0.28312393106E+02  0.55394819967E+02  0.00000000000E+00 0.  1.
          2    1    1    2  501    0  0.53953141686E+02  0.75696278003E+00  0.24991284981E+03  0.25567156078E+03  0.00000000000E+00 0. -1.
<scales pt_clust_5="13000.00000" pt_clust_6="13000.00000" pt_clust_7="13000.00000" pt_clust_8="13000.00000" pt_clust_9="53.95845"></scales>
<clustering>
<clus scale="   53.958">  1  9  2 -1</clus>
<clus scale="   77.973">  5  6 -1 -1</clus>
<clus scale="   89.399">  7  8 -1 -1</clus>
<clus scale="   94.587">  2  5  1 -1</clus>
<clus scale="   53.958">  1  5  2 -1</clus>
</clustering>
</event>
<event>
 9    1  0.4664604E-005  0.1354032E+03  0.7546771E-02  0.1221328E+00
         21   -1    0    0  501  502  0.00000000000E+00  0.00000000000E+00  0.65568558406E+02  0.65568558406E+02  0.00000000000E+00 0. -1.
          3   -1    0    0  502    0 -0.00000000000E+00 -0.00000000000E+00 -0.48474453272E+03  0.48474453272E+03  0.00000000000E+00 0. -1.
         23    2    1    2    0    0 -0.15363181053E+02 -0.11250966176E+03 -0.31476111885E+03  0.34658924156E+03  0.90305531976E+02 0.  0.
        -24    2    1    2    0    0  0.47479808457E+02  0.64120899658E+02 -0.55976081308E+02  0.12809802795E+03  0.83126175795E+02 0.  0.
         11    1    4    4    0    0  0.47201218270E+02  0.41134043246E+02  0.51214820777E+01  0.62818740027E+02  0.00000000000E+00 0. -1.
        -12    1    4    4    0    0  0.27859018738E+00  0.22986856411E+02 -0.61097563386E+02  0.65279287924E+02  0.00000000000E+00 0.  1.
        -11    1    3    3    0    0 -0.49489054870E+02 -0.35722646086E+02 -0.12953876286E+03  0.14319764341E+03  0.00000000000E+00 0.  1.
         11    1    3    3    0    0  0.34125873817E+02 -0.76787015670E+02 -0.18522235599E+03  0.20339159815E+03  0.00000000000E+00 0. -1.
          4    1    1    2  501    0 -0.32116627404E+02  0.48388762099E+02 -0.48438774162E+02  0.75625821619E+02  0.00000000000E+00 0. -1.
<scales pt_clust_5="13000.00000" pt_clust_6="13000.00000" pt_clust_7="13000.00000" pt_clust_8="13000.00000" pt_clust_9="58.07710"></scales>
<clustering>
<clus scale="   58.077">  1  9  2 -1</clus>
<clus scale="   83.126">  5  6 -1 -1</clus>
<clus scale="   90.306">  7  8 -1 -1</clus>
<clus scale="  130.725">  1  5  2 -1</clus>
<clus scale="   58.077">  1  5  2 -1</clus>
</clustering>
</event>
<event>
 9    1  0.4664604E-005  0.9709346E+02  0.7546771E-02  0.1290466E+00
         21   -1    0    0  501  502  0.00000000000E+00  0.00000000000E+00  0.13915945787E+03  0.13915945787E+03  0.00000000000E+00 0. -1.
         -2   -1    0    0    0  501 -0.00000000000E+00 -0.00000000000E+00 -0.37670671428E+03  0.37670671428E+03  0.00000000000E+00 0.  1.
         23    2    1    2    0    0 -0.30184258800E+02  0.26835309284E+02 -0.31913194123E+03  0.33340541258E+03  0.87651297323E+02 0.  0.
        -24    2    1    2    0    0  0.82169947209E+01 -0.69893878587E+02  0.27621899197E+02  0.11001365257E+03  0.79920968271E+02 0.  0.
         13    1    4    4    0    0 -0.27710719263E+02 -0.55458687286E+02 -0.76870432026E+00  0.62001135988E+02  0.00000000000E+00 0. -1.
        -14    1    4    4    0    0  0.35927713984E+02 -0.14435191301E+02  0.28390603517E+02  0.48012516577E+02  0.00000000000E+00 0.  1.
        -11    1    3    3    0    0 -0.10372976946E+02  0.56116759214E+02 -0.24071832572E+03  0.24739038311E+03  0.00000000000E+00 0.  1.
         11    1    3    3    0    0 -0.19811281854E+02 -0.29281449930E+02 -0.78413615509E+02  0.86015029476E+02  0.00000000000E+00 0. -1.
         -1    1    1    2    0  502  0.21967264079E+02  0.43058569303E+02  0.53962785622E+02  0.72447107006E+02  0.00000000000E+00 0.  1.
<scales pt_clust_5="13000.00000" pt_clust_6="13000.00000" pt_clust_7="13000.00000" pt_clust_8="13000.00000" pt_clust_9="48.33840"></scales>
<clustering>
<clus scale="   48.338">  1  9  2 -1</clus>
<clus scale="   79.921">  5  6 -1 -1</clus>
<clus scale="   87.651">  7  8 -1 -1</clus>
<clus scale="   90.176">  1  5  2 -1</clus>
<clus scale="   48.338">  1  5  2 -1</clus>
</clustering>
</event>
<event>
 9    1  0.4664604E-005  0.1257950E+03  0.7546771E-02  0.1236968E+00
         -2   -1    0    0    0  501 -0.00000000000E+00  0.00000000000E+00  0.17703351789E+03  0.17703351789E+03  0.00000000000E+00 0.  1.
         21   -1    0    0  501  502  0.00000000000E+00 -0.00000000000E+00 -0.39753405750E+03  0.39753405750E+03  0.00000000000E+00 0. -1.
        -24    2    1    2    0    0  0.17488978088E+02 -0.83303931098E+02  0.13635263936E+03  0.17969069768E+03  0.80319955686E+02 0.  0.
         23    2    1    2    0    0 -0.12999870145E+01  0.10546222491E+03 -0.27240196232E+03  0.30607889682E+03  0.91419314997E+02 0.  0.
         11    1    3    3    0    0 -0.25687893501E+02 -0.31001726113E+01  0.32815800602E+02  0.41789421052E+02  0.00000000000E+00 0. -1.
        -12    1    3    3    0    0  0.43176871589E+02 -0.80203758487E+02  0.10353683876E+03  0.13790127663E+03  0.00000000000E+00 0.  1.
        -13    1    4    4    0    0  0.27663413738E+02  0.85810539262E+02 -0.24668851305E+03  0.26264793085E+03  0.00000000000E+00 0. -1.
         13    1    4    4    0    0 -0.28963400752E+02  0.19651685651E+02 -0.25713449268E+02  0.43430965973E+02  0.00000000000E+00 0.  1.
         -1    1    1    2    0  502 -0.16188991073E+02 -0.22158293815E+02 -0.84451216657E+02  0.88797980899E+02  0.00000000000E+00 0.  1.
<scales pt_clust_5="13000.00000" pt_clust_6="13000.00000" pt_clust_7="13000.00000" pt_clust_8="13000.00000" pt_clust_9="27.44218"></scales>
<clustering>
<clus scale="   27.442">  2  9  1 -1</clus>
<clus scale="   80.320">  5  6 -1 -1</clus>
<clus scale="   91.419">  7  8 -1 -1</clus>
<clus scale="  117.975">  1  5  2 -1</clus>
<clus scale="   27.442">  2  5  1 -1</clus>
</clustering>
</event>
<event>
 9    1  0.4664604E-005  0.9247209E+02  0.7546771E-02  0.1305135E+00
         21   -1    0    0  501  502  0.00000000000E+00  0.00000000000E+00  0.24619766836E+02  0.24619766836E+02  0.00000000000E+00 0. -1.
          3   -1    0    0  502    0 -0.00000000000E+00 -0.00000000000E+00 -0.73433605862E+03  0.73433605862E+03  0.00000000000E+00 0. -1.
         23    2    1    2    0    0  0.70447046617E+01  0.38167123526E+02 -0.29216038847E+03  0.30883980157E+03  0.92292866802E+02 0.  0.
        -24    2    1    2    0    0  0.18585850952E+02  0.36341834726E+02 -0.21681223047E+03  0.23446229118E+03  0.79365357040E+02 0.  0.
         11    1    4    4    0    0  0.41492743039E+02  0.40837578599E+02 -0.19092649654E+03  0.19960531714E+03  0.00000000000E+00 0. -1.
        -12    1    4    4    0    0 -0.22906892087E+02 -0.44957438734E+01 -0.25885733930E+02  0.34856974039E+02  0.00000000000E+00 0.  1.
        -13    1    3    3    0    0 -0.36739818523E+02  0.42048202434E+02 -0.15096704765E+03  0.16096246479E+03  0.00000000000E+00 0.  1.
         13    1    3    3    0    0  0.43784523185E+02 -0.38810789083E+01 -0.14119334081E+03  0.14787733678E+03  0.00000000000E+00 0. -1.
          4    1    1    2  501    0 -0.25630555613E+02 -0.74508958252E+02 -0.20074367285E+03  0.21565373271E+03  0.00000000000E+00 0. -1.
<scales pt_clust_5="13000.00000" pt_clust_6="13000.00000" pt_clust_7="13000.00000" pt_clust_8="13000.00000" pt_clust_9="78.79410"></scales>
<clustering>
<clus scale="   78.794">  1  9  2 -1</clus>
<clus scale="   79.365">  5  6 -1 -1</clus>
<clus scale="   79.574">  1  5  2 -1</clus>
<clus scale="   92.293">  7  8 -1 -1</clus>
<clus scale="   78.794">  1  5  2 -1</clus>
</clustering>
</event>
<event>
 9    1  0.4664604E-005  0.6145152E+03  0.7546771E-02  0.1007353E+00
         21   -1    0    0  501  502  0.00000000000E+00  0.00000000000E+00  0.12442461128E+04  0.12442461128E+04  0.00000000000E+00 0. -1.
          1   -1    0    0  502    0 -0.00000000000E+00 -0.00000000000E+00 -0.99838502178E+03  0.99838502178E+03  0.00000000000E+00 0. -1.
        -24    2    1    2    0    0  0.21473134379E+03  0.23478721365E+03 -0.61486146081E+03  0.69705631969E+03  0.81229989135E+02 0.  0.
         23    2    1    2    0    0  0.40911120289E+03  0.14533799704E+03  0.37685036929E+02  0.44509062609E+03  0.90500793995E+02 0.  0.
         11    1    3    3    0    0  0.19071662955E+03  0.20181414446E+03 -0.58137171097E+03  0.64427854846E+03  0.00000000000E+00 0. -1.
        -12    1    3    3    0    0  0.24014714241E+02  0.32973069191E+02 -0.33489749842E+02  0.52777771234E+02  0.00000000000E+00 0.  1.
        -13    1    4    4    0    0  0.24873187716E+03  0.45524191218E+02  0.21403563068E+01  0.25287265535E+03  0.00000000000E+00 0. -1.
         13    1    4    4    0    0  0.16037932573E+03  0.99813805818E+02  0.35544680623E+02  0.19221797074E+03  0.00000000000E+00 0.  1.
          2    1    1    2  501    0 -0.62384254668E+03 -0.38012521068E+03  0.82303751485E+03  0.11004841888E+04  0.00000000000E+00 0. -1.
<scales pt_clust_5="13000.00000" pt_clust_6="13000.00000" pt_clust_7="13000.00000" pt_clust_8="13000.00000" pt_clust_9="607.81460"></scales>
<clustering>
<clus scale="   81.230">  5  6 -1 -1</clus>
<clus scale="   90.501">  7  8 -1 -1</clus>
<clus scale="  328.379">  2  5  1 -1</clus>
<clus scale="  607.815">  1  9  2 -1</clus>
<clus scale="  607.815">  1  5  2 -1</clus>
</clustering>
</event>
<event>
 9    1  0.4664604E-005  0.1009074E+03  0.7546771E-02  0.1283948E+00
         21   -1    0    0  501  502  0.00000000000E+00  0.00000000000E+00  0.10004747333E+03  0.10004747333E+03  0.00000000000E+00 0.  1.
          1   -1    0    0  502    0 -0.00000000000E+00 -0.00000000000E+00 -0.26073587491E+03  0.26073587491E+03  0.00000000000E+00 0. -1.
        -24    2    1    2    0    0 -0.26897820655E+01  0.46375658269E+02 -0.20147312961E+03  0.22192681806E+03  0.80635934983E+02 0.  0.
         23    2    1    2    0    0 -0.67859457483E+01 -0.18893370901E+02  0.69953205247E+01  0.94283112130E+02  0.91855115263E+02 0.  0.
         13    1    3    3    0    0  0.30578865372E+02  0.13793347690E+02 -0.14450906936E+03  0.14835159108E+03  0.00000000000E+00 0. -1.
        -14    1    3    3    0    0 -0.33268647437E+02  0.32582310580E+02 -0.56964060254E+02  0.73575226983E+02  0.00000000000E+00 0.  1.
        -11    1    4    4    0    0  0.40135803427E+02  0.35621373619E+01 -0.58141732965E+01  0.40710884913E+02  0.00000000000E+00 0. -1.
         11    1    4    4    0    0 -0.46921749175E+02 -0.22455508263E+02  0.12809493821E+02  0.53572227217E+02  0.00000000000E+00 0.  1.
          2    1    1    2  501    0  0.94757278138E+01 -0.27482287368E+02  0.33789407512E+02  0.44573418049E+02  0.00000000000E+00 0. -1.
<scales pt_clust_5="13000.00000" pt_clust_6="13000.00000" pt_clust_7="13000.00000" pt_clust_8="13000.00000" pt_clust_9="29.07001"></scales>
<clustering>
<clus scale="   29.070">  1  9  2 -1</clus>
<clus scale="   80.636">  5  6 -1 -1</clus>
<clus scale="   90.813">  2  5  1 -1</clus>
<clus scale="   91.855">  7  8 -1 -1</clus>
<clus scale="   29.070">  1  5  2 -1</clus>
</clustering>
</event>
<event>
 9    1  0.4664604E-005  0.9526139E+02  0.7546771E-02  0.1295793E+00
         21   -1    0    0  501  502  0.00000000000E+00  0.00000000000E+00  0.30247256102E+03  0.30247256102E+03  0.00000000000E+00 0.  1.
          3   -1    0    0  502    0 -0.00000000000E+00 -0.00000000000E+00 -0.40300964572E+02  0.40300964572E+02  0.00000000000E+00 0. -1.
        -24    2    1    2    0    0 -0.37415349300E+02  0.41705630548E+01  0.10690970889E+03  0.13963640988E+03  0.81555742590E+02 0.  0.
         23    2    1    2    0    0  0.10333962473E+02 -0.26393522129E+02  0.12301177288E+03  0.15552061312E+03  0.90836975110E+02 0.  0.
         13    1    3    3    0    0  0.10681231390E+02 -0.28897216052E+02  0.45153288709E+02  0.54662210720E+02  0.00000000000E+00 0. -1.
        -14    1    3    3    0    0 -0.48096580690E+02  0.33067779107E+02  0.61756420182E+02  0.84974199160E+02  0.00000000000E+00 0.  1.
        -11    1    4    4    0    0 -0.37567785405E+02 -0.22140110415E+02  0.37958438137E+02  0.57813199317E+02  0.00000000000E+00 0. -1.
         11    1    4    4    0    0  0.47901747878E+02 -0.42534117139E+01  0.85053334742E+02  0.97707413801E+02  0.00000000000E+00 0.  1.
          4    1    1    2  501    0  0.27081386828E+02  0.22222959074E+02  0.32250114678E+02  0.47616502594E+02  0.00000000000E+00 0. -1.
<scales pt_clust_5="13000.00000" pt_clust_6="13000.00000" pt_clust_7="13000.00000" pt_clust_8="13000.00000" pt_clust_9="35.03231"></scales>
<clustering>
<clus scale="   35.032">  1  9  2 -1</clus>
<clus scale="   81.556">  5  6 -1 -1</clus>
<clus scale="   86.456">  2  5  1 -1</clus>
<clus scale="   90.837">  7  8 -1 -1</clus>
<clus scale="   35.032">  1  5  2 -1</clus>
</clustering>
</event>
<event>
 9    1  0.4664604E-005  0.1019324E+03  0.7546771E-02  0.1285833E+00
         21   -1    0    0  501  502  0.00000000000E+00  0.00000000000E+00  0.11806994907E+03  0.11806994907E+03  0.00000000000E+00 0.  1.
         -2   -1    0    0    0  501 -0.00000000000E+00 -0.00000000000E+00 -0.12002610667E+03  0.12002610667E+03  0.00000000000E+00 0.  1.
         23    2    1    2    0    0  0.33367538024E+02 -0.35623979754E+02  0.11397557279E+02  0.10320460727E+03  0.90215442818E+02 0.  0.
        -24    2    1    2    0    0 -0.50292645331E+02  0.90325385301E+01  0.19602467644E+02  0.89288005936E+02  0.70548949955E+02 0.  0.
         13    1    4    4    0    0 -0.16350483554E+02 -0.28995000690E+02 -0.32140540572E+01  0.33442166810E+02  0.00000000000E+00 0. -1.
        -14    1    4    4    0    0 -0.33942161777E+02  0.38027539220E+02  0.22816521701E+02  0.55845839126E+02  0.00000000000E+00 0.  1.
        -11    1    3    3    0    0  0.47076133797E+02  0.53397383847E+01 -0.18294392067E+02  0.50787399622E+02  0.00000000000E+00 0. -1.
         11    1    3    3    0    0 -0.13708595773E+02 -0.40963718139E+02  0.29691949346E+02  0.52417207650E+02  0.00000000000E+00 0.  1.
         -1    1    1    2    0  502  0.16925107307E+02  0.26591441224E+02 -0.32956182527E+02  0.45603442529E+02  0.00000000000E+00 0.  1.
<scales pt_clust_5="13000.00000" pt_clust_6="13000.00000" pt_clust_7="13000.00000" pt_clust_8="13000.00000" pt_clust_9="31.52087"></scales>
<clustering>
<clus scale="   31.521">  1  9  2 -1</clus>
<clus scale="   70.549">  5  6 -1 -1</clus>
<clus scale="   85.021">  1  5  2 -1</clus>
<clus scale="   90.215">  7  8 -1 -1</clus>
<clus scale="   31.521">  1  5  2 -1</clus>
</clustering>
</event>
<event>
 9    1  0.4664604E-005  0.1060842E+03  0.7546771E-02  0.1271932E+00
          1   -1    0    0  502    0 -0.00000000000E+00  0.00000000000E+00  0.59757646243E+02  0.59757646243E+02  0.00000000000E+00 0. -1.
         21   -1    0    0  501  502  0.00000000000E+00 -0.00000000000E+00 -0.62973332947E+03  0.62973332947E+03  0.00000000000E+00 0. -1.
         23    2    1    2    0    0  0.15913374322E+02 -0.57724457052E+02 -0.32413661348E+02  0.11293457924E+03  0.90101194903E+02 0.  0.
        -24    2    1    2    0    0  0.56936352444E+02  0.43087534864E+02 -0.44489829046E+03  0.45777976029E+03  0.80805545526E+02 0.  0.
         11    1    4    4    0    0  0.66874803145E+02  0.58876367279E+02 -0.37420323393E+03  0.38466443324E+03  0.00000000000E+00 0. -1.
        -12    1    4    4    0    0 -0.99384507014E+01 -0.15788832415E+02 -0.70695056532E+02  0.73115327048E+02  0.00000000000E+00 0.  1.
        -13    1    3    3    0    0 -0.17059898837E+02 -0.62320131782E+02 -0.43446982130E+02  0.77861924134E+02  0.00000000000E+00 0.  1.
         13    1    3    3    0    0  0.32973273159E+02  0.45956747303E+01  0.11033320782E+02  0.35072655111E+02  0.00000000000E+00 0. -1.
          2    1    1    2  501    0 -0.72849726766E+02  0.14636922188E+02 -0.92663731423E+02  0.11877663618E+03  0.00000000000E+00 0. -1.
<scales pt_clust_5="13000.00000" pt_clust_6="13000.00000" pt_clust_7="13000.00000" pt_clust_8="13000.00000" pt_clust_9="74.30564"></scales>
<clustering>
<clus scale="   74.306">  2  9  1 -1</clus>
<clus scale="   80.806">  5  6 -1 -1</clus>
<clus scale="   90.101">  7  8 -1 -1</clus>
<clus scale="   98.312">  2  5  1 -1</clus>
<clus scale="   74.306">  2  5  1 -1</clus>
</clustering>
</event>
<event>
 9    1  0.4664604E-005  0.9360376E+02  0.7546771E-02  0.1297965E+00
          1   -1    0    0  502    0 -0.00000000000E+00  0.00000000000E+00  0.68011905544E+03  0.68011905544E+03  0.00000000000E+00 0. -1.
         21   -1    0    0  501  502  0.00000000000E+00 -0.00000000000E+00 -0.11204325609E+03  0.11204325609E+03  0.00000000000E+00 0. -1.
         23    2    1    2    0    0 -0.37472255819E+02 -0.25485558837E+02  0.40289924735E+03  0.41555867201E+03  0.91145612626E+02 0.  0.
        -24    2    1    2    0    0 -0.41519370585E+01 -0.51522168316E+02  0.24191205093E+03  0.26019444629E+03  0.80671786157E+02 0.  0.
         13    1    4    4    0    0  0.49907051785E+01 -0.72578704292E+02  0.18895150573E+03  0.20247283021E+03  0.00000000000E+00 0. -1.
        -14    1    4    4    0    0 -0.91426422370E+01  0.21056535976E+02  0.52960545208E+02  0.57721616082E+02  0.00000000000E+00 0.  1.
        -13    1    3    3    0    0 -0.31284000865E+02  0.27618409865E+02  0.10664730478E+03  0.11452123336E+03  0.00000000000E+00 0.  1.
         13    1    3    3    0    0 -0.61882549538E+01 -0.53103968702E+02  0.29625194257E+03  0.30103743865E+03  0.00000000000E+00 0. -1.
          2    1    1    2  501    0  0.41624192877E+02  0.77007727153E+02 -0.76735498934E+02  0.11640919324E+03  0.00000000000E+00 0. -1.
<scales pt_clust_5="13000.00000" pt_clust_6="13000.00000" pt_clust_7="13000.00000" pt_clust_8="13000.00000" pt_clust_9="87.53721"></scales>
<clustering>
<clus scale="   80.672">  5  6 -1 -1</clus>
<clus scale="   87.537">  2  9  1 -1</clus>
<clus scale="   87.537">  2  5  1 -1</clus>
<clus scale="   91.146">  7  8 -1 -1</clus>
<clus scale="   87.537">  2  5  1 -1</clus>
</clustering>
</event>
<event>
 9    1  0.4664604E-005  0.1259524E+03  0.7546771E-02  0.1235383E+00
          1   -1    0    0  502    0 -0.00000000000E+00  0.00000000000E+00  0.38047026784E+03  0.38047026784E+03  0.00000000000E+00 0. -1.
         21   -1    0    0  501  502  0.00000000000E+00 -0.00000000000E+00 -0.14570019830E+03  0.14570019830E+03  0.00000000000E+00 0.  1.
         23    2    1    2    0    0  0.70570461254E+02 -0.61208495354E+02  0.26685854026E+03  0.29563477294E+03  0.86369951691E+02 0.  0.
        -24    2    1    2    0    0 -0.45744646256E+02  0.78265538242E+02  0.59220640664E+02  0.13438675860E+03  0.79590511179E+02 0.  0.
         11    1    4    4    0    0 -0.44649310533E+02  0.48647979204E+02  0.75718718444E+02  0.10046646771E+03  0.00000000000E+00 0. -1.
        -12    1    4    4    0    0 -0.10953357229E+01  0.29617559037E+02 -0.16498077780E+02  0.33920290891E+02  0.00000000000E+00 0.  1.
        -11    1    3    3    0    0  0.71899648289E+02 -0.80603520083E+01  0.12939389102E+03  0.14824745439E+03  0.00000000000E+00 0.  1.
         11    1    3    3    0    0 -0.13291870349E+01 -0.53148143345E+02  0.13746464924E+03  0.14738731855E+03  0.00000000000E+00 0. -1.
          2    1    1    2  501    0 -0.24825814998E+02 -0.17057042888E+02 -0.91309111387E+02  0.96148934600E+02  0.00000000000E+00 0. -1.
<scales pt_clust_5="13000.00000" pt_clust_6="13000.00000" pt_clust_7="13000.00000" pt_clust_8="13000.00000" pt_clust_9="30.12082"></scales>
<clustering>
<clus scale="   30.121">  2  9  1 -1</clus>
<clus scale="   79.591">  5  6 -1 -1</clus>
<clus scale="   86.370">  7  8 -1 -1</clus>
<clus scale="  121.404">  2  5  1 -1</clus>
<clus scale="   30.121">  2  5  1 -1</clus>
</clustering>
</event>
<event>
 9    1  0.4664604E-005  0.1257865E+03  0.7546771E-02  0.1237281E+00
         21   -1    0    0  501  502  0.00000000000E+00  0.00000000000E+00  0.13978145776E+03  0.13978145776E+03  0.00000000000E+00 0.  1.
          1   -1    0    0  502    0 -0.00000000000E+00 -0.00000000000E+00 -0.57296478371E+03  0.57296478371E+03  0.00000000000E+00 0. -1.
         23    2    1    2    0    0  0.11207381549E+03  0.10343049966E+02 -0.44193900113E+03  0.46509519353E+03  0.91301366476E+02 0.  0.
        -24    2    1    2    0    0 -0.40887512875E+02 -0.19701603838E+02 -0.88280020554E+02  0.12694065710E+03  0.79124120797E+02 0.  0.
         13    1    4    4    0    0 -0.29959600113E+02 -0.33903434442E+02 -0.96984555749E+02  0.10701880470E+03  0.00000000000E+00 0. -1.
        -14    1    4    4    0    0 -0.10927912762E+02  0.14201830604E+02  0.87045351951E+01  0.19921852394E+02  0.00000000000E+00 0.  1.
        -13    1    3    3    0    0  0.69241189348E+02 -0.17785071498E+02 -0.36957158556E+03  0.37642237968E+03  0.00000000000E+00 0.  1.
         13    1    3    3    0    0  0.42832626145E+02  0.28128121464E+02 -0.72367415579E+02  0.88672813856E+02  0.00000000000E+00 0. -1.
          2    1    1    2  501    0 -0.71186302617E+02  0.93585538722E+01  0.97035695739E+02  0.12071039085E+03  0.00000000000E+00 0. -1.
<scales pt_clust_5="13000.00000" pt_clust_6="13000.00000" pt_clust_7="13000.00000" pt_clust_8="13000.00000" pt_clust_9="71.79883"></scales>
<clustering>
<clus scale="   71.799">  1  9  2 -1</clus>
<clus scale="   79.124">  5  6 -1 -1</clus>
<clus scale="   91.301">  7  8 -1 -1</clus>
<clus scale="  117.247">  1  5  2 -1</clus>
<clus scale="   71.799">  1  5  2 -1</clus>
</clustering>
</event>
<event>
 9    1  0.4664604E-005  0.1167241E+03  0.7546771E-02  0.1256989E+00
         21   -1    0    0  501  502  0.00000000000E+00  0.00000000000E+00  0.35318525090E+02  0.35318525090E+02  0.00000000000E+00 0. -1.
          1   -1    0    0  502    0 -0.00000000000E+00 -0.00000000000E+00 -0.83905524193E+03  0.83905524193E+03  0.00000000000E+00 0. -1.
         23    2    1    2    0    0 -0.43525689104E+02  0.72170768315E+02 -0.22431350695E+03  0.25981349558E+03  0.10041612258E+03 0.  0.
        -24    2    1    2    0    0 -0.67045490113E+01 -0.43596652333E+02 -0.11353226918E+03  0.14509895721E+03  0.78857543491E+02 0.  0.
         13    1    4    4    0    0 -0.10516908267E+02 -0.62770692404E+02 -0.57568675712E+02  0.85819098152E+02  0.00000000000E+00 0. -1.
        -14    1    4    4    0    0  0.38123592553E+01  0.19174040072E+02 -0.55963593467E+02  0.59279859054E+02  0.00000000000E+00 0.  1.
        -13    1    3    3    0    0 -0.27263271805E+02  0.96958222573E+02 -0.18414794322E+03  0.20989199105E+03  0.00000000000E+00 0. -1.
         13    1    3    3    0    0 -0.16262417299E+02 -0.24787454258E+02 -0.40165563730E+02  0.49921504532E+02  0.00000000000E+00 0.  1.
          2    1    1    2  501    0  0.50230238115E+02 -0.28574115982E+02 -0.46589094072E+03  0.46946131424E+03  0.00000000000E+00 0. -1.
<scales pt_clust_5="13000.00000" pt_clust_6="13000.00000" pt_clust_7="13000.00000" pt_clust_8="13000.00000" pt_clust_9="57.78893"></scales>
<clustering>
<clus scale="   57.789">  1  9  2 -1</clus>
<clus scale="   78.858">  5  6 -1 -1</clus>
<clus scale="   98.791">  1  5  2 -1</clus>
<clus scale="  100.416">  7  8 -1 -1</clus>
<clus scale="   57.789">  1  5  2 -1</clus>
</clustering>
</event>
<event>
 9    1  0.4664604E-005  0.1056650E+03  0.7546771E-02  0.1276490E+00
         21   -1    0    0  501  502  0.00000000000E+00  0.00000000000E+00  0.59324865524E+03  0.59324865524E+03  0.00000000000E+00 0.  1.
          3   -1    0    0  502    0 -0.00000000000E+00 -0.00000000000E+00 -0.24005176628E+02  0.24005176628E+02  0.00000000000E+00 0. -1.
        -24    2    1    2    0    0 -0.38715365604E+01 -0.50069660897E+02  0.20097568619E+03  0.22275391641E+03  0.81890909742E+02 0.  0.
         23    2    1    2    0    0  0.27482280850E+02  0.21416212073E+02  0.25584120694E+03  0.27610133228E+03  0.97792088732E+02 0.  0.
         11    1    3    3    0    0  0.17399695074E+02 -0.66717574076E+02  0.14893400989E+03  0.16411984457E+03  0.00000000000E+00 0. -1.
        -12    1    3    3    0    0 -0.21271231635E+02  0.16647913180E+02  0.52041676304E+02  0.58634071844E+02  0.00000000000E+00 0.  1.
        -13    1    4    4    0    0  0.45250771495E+02  0.47026001445E+02  0.21523228099E+03  0.22490889692E+03  0.00000000000E+00 0.  1.
         13    1    4    4    0    0 -0.17768490645E+02 -0.25609789372E+02  0.40608925947E+02  0.51192435360E+02  0.00000000000E+00 0. -1.
          4    1    1    2  501    0 -0.23610744290E+02  0.28653448824E+02  0.11242658548E+03  0.11839858317E+03  0.00000000000E+00 0. -1.
<scales pt_clust_5="13000.00000" pt_clust_6="13000.00000" pt_clust_7="13000.00000" pt_clust_8="13000.00000" pt_clust_9="37.12799"></scales>
<clustering>
<clus scale="   37.128">  1  9  2 -1</clus>
<clus scale="   81.891">  5  6 -1 -1</clus>
<clus scale="   91.148">  2  5  1 -1</clus>
<clus scale="   97.792">  7  8 -1 -1</clus>
<clus scale="   37.128">  1  5  2 -1</clus>
</clustering>
</event>
<event>
 9    1  0.4664604E-005  0.1514582E+03  0.7546771E-02  0.1201236E+00
          1   -1    0    0  502    0 -0.00000000000E+00  0.00000000000E+00  0.33044363792E+03  0.33044363792E+03  0.00000000000E+00 0. -1.
         21   -1    0    0  501  502  0.00000000000E+00 -0.00000000000E+00 -0.18414743922E+03  0.18414743922E+03  0.00000000000E+00 0. -1.
         23    2    1    2    0    0 -0.12605808636E+03  0.78622184732E+01  0.20191370152E+03  0.25587253946E+03  0.93536933745E+02 0.  0.
        -24    2    1    2    0    0  0.86034400553E+02  0.73330628334E+02 -0.86434564445E+02  0.16309497843E+03  0.79685249113E+02 0.  0.
         13    1    4    4    0    0  0.29730232824E+02  0.73000584455E+02 -0.32936667210E+02  0.85427139256E+02  0.00000000000E+00 0. -1.
        -14    1    4    4    0    0  0.56304167729E+02  0.33004387910E+00 -0.53497897235E+02  0.77667839169E+02  0.00000000000E+00 0.  1.
        -11    1    3    3    0    0 -0.76387233332E+02  0.41327355300E+02  0.71985549703E+02  0.11280460575E+03  0.00000000000E+00 0. -1.
         11    1    3    3    0    0 -0.49670853031E+02 -0.33465136827E+02  0.12992815181E+03  0.14306793371E+03  0.00000000000E+00 0.  1.
          2    1    1    2  501    0  0.40023685810E+02 -0.81192846807E+02  0.30817061629E+02  0.95623559262E+02  0.00000000000E+00 0. -1.
<scales pt_clust_5="13000.00000" pt_clust_6="13000.00000" pt_clust_7="13000.00000" pt_clust_8="13000.00000" pt_clust_9="90.52172"></scales>
<clustering>
<clus scale="   79.685">  5  6 -1 -1</clus>
<clus scale="   90.522">  2  9  1 -1</clus>
<clus scale="   93.537">  7  8 -1 -1</clus>
<clus scale="  143.318">  2  5  1 -1</clus>
<clus scale="   90.522">  2  5  1 -1</clus>
</clustering>
</event>
<event>
 9    1  0.4664604E-005  0.8957456E+02  0.7546771E-02  0.1307678E+00
         21   -1    0    0  501  502  0.00000000000E+00  0.00000000000E+00  0.25314655681E+02  0.25314655681E+02  0.00000000000E+00 0. -1.
          1   -1    0    0  502    0 -0.00000000000E+00 -0.00000000000E+00 -0.76634061286E+03  0.76634061286E+03  0.00000000000E+00 0. -1.
        -24    2    1    2    0    0  0.24140373251E+02 -0.22935645807E+02 -0.45184310610E+03  0.45975585766E+03  0.78131009539E+02 0.  0.
         23    2    1    2    0    0 -0.30721107899E+02 -0.19885204125E+02 -0.92608909962E+02  0.13060796650E+03  0.84515222854E+02 0.  0.
         13    1    3    3    0    0  0.21328184808E+01 -0.49966460245E+02 -0.25755637656E+03  0.26236707715E+03  0.00000000000E+00 0. -1.
        -14    1    3    3    0    0  0.22007554771E+02  0.27030814438E+02 -0.19428672954E+03  0.19738878051E+03  0.00000000000E+00 0.  1.
        -13    1    4    4    0    0  0.93673105419E+01 -0.32864710157E+02 -0.79411339751E+02  0.86452279099E+02  0.00000000000E+00 0.  1.
         13    1    4    4    0    0 -0.40088418441E+02  0.12979506032E+02 -0.13197570212E+02  0.44155687396E+02  0.00000000000E+00 0. -1.
          2    1    1    2  501    0  0.65807346475E+01  0.42820849932E+02 -0.19657394112E+03  0.20129144439E+03  0.00000000000E+00 0. -1.
<scales pt_clust_5="13000.00000" pt_clust_6="13000.00000" pt_clust_7="13000.00000" pt_clust_8="13000.00000" pt_clust_9="43.32359"></scales>
<clustering>
<clus scale="   43.324">  1  9  2 -1</clus>
<clus scale="   78.131">  5  6 -1 -1</clus>
<clus scale="   83.578">  2  5  1 -1</clus>
<clus scale="   84.515">  7  8 -1 -1</clus>
<clus scale="   43.324">  1  5  2 -1</clus>
</clustering>
</event>
<event>
 9    1  0.4664604E-005  0.5075235E+03  0.7546771E-02  0.1064945E+00
          1   -1    0    0  502    0 -0.00000000000E+00  0.00000000000E+00  0.17734280223E+04  0.17734280223E+04  0.00000000000E+00 0. -1.
         21   -1    0    0  501  502  0.00000000000E+00 -0.00000000000E+00 -0.21134553926E+03  0.21134553926E+03  0.00000000000E+00 0. -1.
         23    2    1    2    0    0 -0.36581565265E+02 -0.42485947489E+02  0.26777809684E+03  0.28858556373E+03  0.91832738148E+02 0.  0.
        -24    2    1    2    0    0  0.37236461658E+03  0.39142667323E+03  0.97064983191E+03  0.11137258461E+04  0.79711454574E+02 0.  0.
         11    1    4    4    0    0  0.22625042739E+03  0.28412560482E+03  0.60617814530E+03  0.70666014395E+03  0.00000000000E+00 0. -1.
        -12    1    4    4    0    0  0.14611418919E+03  0.10730106842E+03  0.36447168660E+03  0.40706570219E+03  0.00000000000E+00 0.  1.
        -13    1    3    3    0    0 -0.14139996741E+01 -0.64114951944E+02  0.13351839623E+03  0.14812119562E+03  0.00000000000E+00 0.  1.
         13    1    3    3    0    0 -0.35167565591E+02  0.21629004455E+02  0.13425970060E+03  0.14046436811E+03  0.00000000000E+00 0. -1.
          2    1    1    2  501    0 -0.33578305132E+03 -0.34894072574E+03  0.32365455430E+03  0.58246215169E+03  0.00000000000E+00 0. -1.
<scales pt_clust_5="13000.00000" pt_clust_6="13000.00000" pt_clust_7="13000.00000" pt_clust_8="13000.00000" pt_clust_9="501.22470"></scales>
<clustering>
<clus scale="   79.711">  5  6 -1 -1</clus>
<clus scale="   91.833">  7  8 -1 -1</clus>
<clus scale="  107.594">  1  7  2 -1</clus>
<clus scale="  501.225">  2  9  1 -1</clus>
<clus scale="  501.225">  2  5  1 -1</clus>
</clustering>
</event>
<event>
 9    1  0.4664604E-005  0.1713448E+03  0.7546771E-02  0.1177570E+00
          1   -1    0    0  502    0 -0.00000000000E+00  0.00000000000E+00  0.50343433623E+03  0.50343433623E+03  0.00000000000E+00 0. -1.
         21   -1    0    0  501  502  0.00000000000E+00 -0.00000000000E+00 -0.40095885543E+03  0.40095885543E+03  0.00000000000E+00 0.  1.
         23    2    1    2    0    0  0.12227577428E+03  0.66912638801E+02  0.27392742395E+03  0.32031706217E+03  0.90211532063E+02 0.  0.
        -24    2    1    2    0    0 -0.22697237209E+03 -0.91437101932E+02 -0.31343515265E+03  0.40596925521E+03  0.81806111976E+02 0.  0.
         11    1    4    4    0    0 -0.13662943928E+02 -0.28108204736E+02 -0.17842489304E+02  0.35987520543E+02  0.00000000000E+00 0. -1.
        -12    1    4    4    0    0 -0.21330942816E+03 -0.63328897196E+02 -0.29559266335E+03  0.36998173467E+03  0.00000000000E+00 0.  1.
        -13    1    3    3    0    0  0.23703146510E+02 -0.22369453151E+02  0.45028792294E+02  0.55586182853E+02  0.00000000000E+00 0.  1.
         13    1    3    3    0    0  0.98572627774E+02  0.89282091952E+02  0.22889863165E+03  0.26473087931E+03  0.00000000000E+00 0. -1.
          2    1    1    2  501    0  0.10469659780E+03  0.24524463131E+02  0.14198320951E+03  0.17810687428E+03  0.00000000000E+00 0. -1.
<scales pt_clust_5="13000.00000" pt_clust_6="13000.00000" pt_clust_7="13000.00000" pt_clust_8="13000.00000" pt_clust_9="107.53064"></scales>
<clustering>
<clus scale="   81.806">  5  6 -1 -1</clus>
<clus scale="   90.212">  7  8 -1 -1</clus>
<clus scale="  107.531">  2  9  1 -1</clus>
<clus scale="  167.072">  2  5  1 -1</clus>
<clus scale="  107.531">  2  5  1 -1</clus>
</clustering>
</event>
<event>
 9    1  0.4664604E-005  0.9874164E+02  0.7546771E-02  0.1290943E+00
          1   -1    0    0  502    0 -0.00000000000E+00  0.00000000000E+00  0.29189949550E+03  0.29189949550E+03  0.00000000000E+00 0. -1.
         21   -1    0    0  501  502  0.00000000000E+00 -0.00000000000E+00 -0.20682440886E+03  0.20682440886E+03  0.00000000000E+00 0. -1.
         23    2    1    2    0    0 -0.15546667201E+02  0.39822809579E+02  0.25892508041E+03  0.27775245078E+03  0.90976214616E+02 0.  0.
        -24    2    1    2    0    0 -0.62696655969E+01  0.14717630825E+02 -0.10439975303E+03  0.13001020934E+03  0.75811798126E+02 0.  0.
         11    1    4    4    0    0 -0.16221007501E+02  0.38323489043E+02 -0.93165728412E+02  0.10203756096E+03  0.00000000000E+00 0. -1.
        -12    1    4    4    0    0  0.99513419040E+01 -0.23605858219E+02 -0.11234024620E+02  0.27972648375E+02  0.00000000000E+00 0.  1.
        -11    1    3    3    0    0  0.19464675740E+02  0.54650681766E+02  0.19426008956E+03  0.20273764578E+03  0.00000000000E+00 0. -1.
         11    1    3    3    0    0 -0.35011342941E+02 -0.14827872188E+02  0.64664990844E+02  0.75014804999E+02  0.00000000000E+00 0.  1.
          2    1    1    2  501    0  0.21816332798E+02 -0.54540440403E+02 -0.69450240740E+02  0.90961244247E+02  0.00000000000E+00 0. -1.
<scales pt_clust_5="13000.00000" pt_clust_6="13000.00000" pt_clust_7="13000.00000" pt_clust_8="13000.00000" pt_clust_9="58.74191"></scales>
<clustering>
<clus scale="   58.742">  2  9  1 -1</clus>
<clus scale="   75.812">  5  6 -1 -1</clus>
<clus scale="   84.975">  2  5  1 -1</clus>
<clus scale="   90.976">  7  8 -1 -1</clus>
<clus scale="   58.742">  2  5  1 -1</clus>
</clustering>
</event>
<event>
 9    1  0.4664604E-005  0.1722056E+03  0.7546771E-02  0.1178965E+00
          3   -1    0    0  502    0 -0.00000000000E+00  0.00000000000E+00  0.11080794987E+03  0.11080794987E+03  0.00000000000E+00 0. -1.
         21   -1    0    0  501  502  0.00000000000E+00 -0.00000000000E+00 -0.34023053877E+03  0.34023053877E+03  0.00000000000E+00 0.  1.
        -24    2    1    2    0    0 -0.98839508313E+02  0.86199938098E+02 -0.24688006447E+02  0.15651453920E+03  0.81777904023E+02 0.  0.
         23    2    1    2    0    0  0.10839801704E+03 -0.10668179855E+03 -0.19866826152E+03  0.27112155756E+03  0.10443507359E+03 0.  0.
         13    1    3    3    0    0 -0.96639268402E+02  0.73856823675E+02  0.76100699652E+01  0.12186833783E+03  0.00000000000E+00 0. -1.
        -14    1    3    3    0    0 -0.22002399110E+01  0.12343114423E+02 -0.32298076412E+02  0.34646201368E+02  0.00000000000E+00 0.  1.
        -11    1    4    4    0    0  0.53525761769E+02 -0.11199386385E+03 -0.10568656861E+03  0.16302540752E+03  0.00000000000E+00 0.  1.
         11    1    4    4    0    0  0.54872255267E+02  0.53120652997E+01 -0.92981692916E+02  0.10809615004E+03  0.00000000000E+00 0. -1.
          4    1    1    2  501    0 -0.95585087238E+01  0.20481860448E+02 -0.60663209284E+01  0.23402391887E+02  0.00000000000E+00 0. -1.
<scales pt_clust_5="13000.00000" pt_clust_6="13000.00000" pt_clust_7="13000.00000" pt_clust_8="13000.00000" pt_clust_9="22.60248"></scales>
<clustering>
<clus scale="   22.602">  2  9  1 -1</clus>
<clus scale="   81.778">  5  6 -1 -1</clus>
<clus scale="  104.435">  7  8 -1 -1</clus>
<clus scale="  159.486">  1  5  2 -1</clus>
<clus scale="   22.602">  2  5  1 -1</clus>
</clustering>
</event>
<event>
 9    1  0.4664604E-005  0.1124458E+03  0.7546771E-02  0.1260254E+00
         21   -1    0    0  501  502  0.00000000000E+00  0.00000000000E+00  0.14361421301E+03  0.14361421301E+03  0.00000000000E+00 0. -1.
          1   -1    0    0  502    0 -0.00000000000E+00 -0.00000000000E+00 -0.14200537653E+03  0.14200537653E+03  0.00000000000E+00 0. -1.
         23    2    1    2    0    0  0.37073246253E+02  0.37535584266E+02 -0.24904521671E+02  0.10808533506E+03  0.90988234303E+02 0.  0.
        -24    2    1    2    0    0 -0.83055851335E+02 -0.28604618513E+02 -0.85822902491E+01  0.11900335105E+03  0.79822573342E+02 0.  0.
         13    1    4    4    0    0 -0.88224268791E+02 -0.23527228137E+02  0.16595939380E+02  0.92803433511E+02  0.00000000000E+00 0. -1.
        -14    1    4    4    0    0  0.51684174562E+01 -0.50773903755E+01 -0.25178229629E+02  0.26199917543E+02  0.00000000000E+00 0.  1.
        -13    1    3    3    0    0  0.24740303737E+02 -0.35813577673E+01 -0.51738801307E+02  0.57461398461E+02  0.00000000000E+00 0.  1.
         13    1    3    3    0    0  0.12332942516E+02  0.41116942034E+02  0.26834279636E+02  0.50623936600E+02  0.00000000000E+00 0. -1.
          2    1    1    2  501    0  0.45982605082E+02 -0.89309657534E+01  0.35095648404E+02  0.58530903430E+02  0.00000000000E+00 0. -1.
<scales pt_clust_5="13000.00000" pt_clust_6="13000.00000" pt_clust_7="13000.00000" pt_clust_8="13000.00000" pt_clust_9="46.84188"></scales>
<clustering>
<clus scale="   46.842">  1  9  2 -1</clus>
<clus scale="   79.823">  5  6 -1 -1</clus>
<clus scale="   90.988">  7  8 -1 -1</clus>
<clus scale="  103.619">  1  5  2 -1</clus>
<clus scale="   46.842">  1  5  2 -1</clus>
</clustering>
</event>
<event>
 9    1  0.4664604E-005  0.1679346E+03  0.7546771E-02  0.1202517E+00
          1   -1    0    0  502    0 -0.00000000000E+00  0.00000000000E+00  0.61949430886E+03  0.61949430886E+03  0.00000000000E+00 0. -1.
         21   -1    0    0  501  502  0.00000000000E+00 -0.00000000000E+00 -0.11389038920E+03  0.11389038920E+03  0.00000000000E+00 0. -1.
         23    2    1    2    0    0  0.38023924843E+02 -0.25758272320E+02  0.37528098294E+03  0.38896418350E+03  0.91367458319E+02 0.  0.
        -24    2    1    2    0    0 -0.28837727687E+02 -0.13189710968E+03  0.89082112686E+02  0.18120160861E+03  0.81669688869E+02 0.  0.
         11    1    4    4    0    0  0.60418948194E+01 -0.88719449506E+02  0.88834916331E+02  0.12569521699E+03  0.00000000000E+00 0. -1.
        -12    1    4    4    0    0 -0.34879622506E+02 -0.43177660177E+02  0.24719635407E+00  0.55506391619E+02  0.00000000000E+00 0.  1.
        -11    1    3    3    0    0  0.50463709917E+02 -0.46703865476E+02  0.33422618874E+03  0.34122570581E+03  0.00000000000E+00 0.  1.
         11    1    3    3    0    0 -0.12439785075E+02  0.20945593155E+02  0.41054794198E+02  0.47738477688E+02  0.00000000000E+00 0. -1.
          2    1    1    2  501    0 -0.91861971556E+01  0.15765538200E+03  0.41240824042E+02  0.16321890595E+03  0.00000000000E+00 0. -1.
<scales pt_clust_5="13000.00000" pt_clust_6="13000.00000" pt_clust_7="13000.00000" pt_clust_8="13000.00000" pt_clust_9="146.73820"></scales>
<clustering>
<clus scale="   81.670">  5  6 -1 -1</clus>
<clus scale="   91.367">  7  8 -1 -1</clus>
<clus scale="  102.261">  1  7  2 -1</clus>
<clus scale="  146.738">  2  9  1 -1</clus>
<clus scale="  146.738">  2  5  1 -1</clus>
</clustering>
</event>
<event>
 9    1  0.4664604E-005  0.1413999E+03  0.7546771E-02  0.1222168E+00
          3   -1    0    0  502    0 -0.00000000000E+00  0.00000000000E+00  0.98005765001E+03  0.98005765001E+03  0.00000000000E+00 0. -1.
         21   -1    0    0  501  502  0.00000000000E+00 -0.00000000000E+00 -0.39786793510E+02  0.39786793510E+02  0.00000000000E+00 0. -1.
         23    2    1    2    0    0 -0.60073248577E+02  0.30771107902E+02  0.35712661890E+03  0.37451312069E+03  0.90360386050E+02 0.  0.
        -24    2    1    2    0    0 -0.98988787340E+00 -0.12784375746E+03  0.23391223113E+03  0.27775167123E+03  0.78013157873E+02 0.  0.
         11    1    4    4    0    0 -0.29837266896E+02 -0.90138783612E+02  0.19295676696E+03  0.21505249760E+03  0.00000000000E+00 0. -1.
        -12    1    4    4    0    0  0.28847379023E+02 -0.37704973844E+02  0.40955464167E+02  0.62699173633E+02  0.00000000000E+00 0.  1.
        -11    1    3    3    0    0 -0.60159666990E+02  0.73389866909E+01  0.34032609020E+03  0.34568033489E+03  0.00000000000E+00 0. -1.
         11    1    3    3    0    0  0.86418412998E-01  0.23432121211E+02  0.16800528702E+02  0.28832785805E+02  0.00000000000E+00 0.  1.
          4    1    1    2  501    0  0.61063136450E+02  0.97072649554E+02  0.34923200647E+03  0.36757965160E+03  0.00000000000E+00 0. -1.
<scales pt_clust_5="13000.00000" pt_clust_6="13000.00000" pt_clust_7="13000.00000" pt_clust_8="13000.00000" pt_clust_9="117.93171"></scales>
<clustering>
<clus scale="   78.013">  5  6 -1 -1</clus>
<clus scale="   90.360">  7  8 -1 -1</clus>
<clus scale="  112.786">  1  7  2 -1</clus>
<clus scale="  117.932">  2  9  1 -1</clus>
<clus scale="  117.932">  2  5  1 -1</clus>
</clustering>
</event>
<event>
 9    1  0.4664604E-005  0.1474165E+03  0.7546771E-02  0.1205739E+00
          1   -1    0    0  502    0 -0.00000000000E+00  0.00000000000E+00  0.12077080320E+03  0.12077080320E+03  0.00000000000E+00 0. -1.
         21   -1    0    0  501  502  0.00000000000E+00 -0.00000000000E+00 -0.67667536716E+03  0.67667536716E+03  0.00000000000E+00 0.  1.
         23    2    1    2    0    0 -0.66562986451E+02 -0.90625156334E+02  0.52012347226E+02  0.15395440843E+03  0.91395434708E+02 0.  0.
        -24    2    1    2    0    0  0.73381543987E+02  0.12031896425E+03 -0.37584977673E+03  0.40943328665E+03  0.80691123368E+02 0.  0.
         13    1    4    4    0    0  0.42936142353E+02  0.51566502042E+01 -0.10378160374E+03  0.11243097721E+03  0.00000000000E+00 0. -1.
        -14    1    4    4    0    0  0.30445401634E+02  0.11516231404E+03 -0.27206817299E+03  0.29700230944E+03  0.00000000000E+00 0.  1.
        -13    1    3    3    0    0 -0.21668506473E+02 -0.71442503952E+01 -0.23508879657E+02  0.32760218394E+02  0.00000000000E+00 0.  1.
         13    1    3    3    0    0 -0.44894479979E+02 -0.83480905939E+02  0.75521226883E+02  0.12119419004E+03  0.00000000000E+00 0. -1.
          2    1    1    2  501    0 -0.68185575360E+01 -0.29693807915E+02 -0.23206713446E+03  0.23405847528E+03  0.00000000000E+00 0. -1.
<scales pt_clust_5="13000.00000" pt_clust_6="13000.00000" pt_clust_7="13000.00000" pt_clust_8="13000.00000" pt_clust_9="30.46662"></scales>
<clustering>
<clus scale="   30.467">  2  9  1 -1</clus>
<clus scale="   80.691">  5  6 -1 -1</clus>
<clus scale="   91.395">  7  8 -1 -1</clus>
<clus scale="  141.030">  2  5  1 -1</clus>
<clus scale="   30.467">  2  5  1 -1</clus>
</clustering>
</event>
<event>
 9    1  0.4664604E-005  0.1049654E+03  0.7546771E-02  0.1275301E+00
          1   -1    0    0  502    0 -0.00000000000E+00  0.00000000000E+00  0.45706347684E+03  0.45706347684E+03  0.00000000000E+00 0. -1.
         21   -1    0    0  501  502  0.00000000000E+00 -0.00000000000E+00 -0.12100045123E+03  0.12100045123E+03  0.00000000000E+00 0.  1.
         23    2    1    2    0    0  0.39227710607E+02 -0.34212869775E+02  0.38193469099E+03  0.39628498849E+03  0.91969289340E+02 0.  0.
        -24    2    1    2    0    0 -0.65558777842E+02 -0.20971831219E+02 -0.10444057641E+01  0.10596232181E+03  0.80555271729E+02 0.  0.
         13    1    4    4    0    0 -0.55283147208E+02 -0.89672507072E+01  0.35389024481E+02  0.66249686823E+02  0.00000000000E+00 0. -1.
        -14    1    4    4    0    0 -0.10275630634E+02 -0.12004580512E+02 -0.36433430245E+02  0.39712634987E+02  0.00000000000E+00 0.  1.
        -13    1    3    3    0    0 -0.22005685522E+02 -0.10718458196E+02  0.32164929978E+02  0.40419280818E+02  0.00000000000E+00 0.  1.
         13    1    3    3    0    0  0.61233396129E+02 -0.23494411579E+02  0.34976976101E+03  0.35586570767E+03  0.00000000000E+00 0. -1.
          2    1    1    2  501    0  0.26331067235E+02  0.55184700994E+02 -0.44827259614E+02  0.75816617770E+02  0.00000000000E+00 0. -1.
<scales pt_clust_5="13000.00000" pt_clust_6="13000.00000" pt_clust_7="13000.00000" pt_clust_8="13000.00000" pt_clust_9="61.14472"></scales>
<clustering>
<clus scale="   61.145">  2  9  1 -1</clus>
<clus scale="   80.555">  5  6 -1 -1</clus>
<clus scale="   91.969">  7  8 -1 -1</clus>
<clus scale="   95.124">  2  5  1 -1</clus>
<clus scale="   61.145">  2  5  1 -1</clus>
</clustering>
</event>
<event>
 9    1  0.4664604E-005  0.3199146E+03  0.7546771E-02  0.1075792E+00
          1   -1    0    0  502    0 -0.00000000000E+00  0.00000000000E+00  0.12466249569E+04  0.12466249569E+04  0.00000000000E+00 0. -1.
         21   -1    0    0  501  502  0.00000000000E+00 -0.00000000000E+00 -0.22560804538E+03  0.22560804538E+03  0.00000000000E+00 0. -1.
        -24    2    1    2    0    0 -0.29598518261E+03 -0.34037293299E+02  0.66001880382E+03  0.72949453582E+03  0.88157193386E+02 0.  0.
         23    2    1    2    0    0  0.35162165171E+03  0.37787011445E+02 -0.12138540297E+02  0.36545815268E+03  0.91360128139E+02 0.  0.
         13    1    3    3    0    0 -0.26686663736E+03 -0.76997653222E+01  0.52648192212E+03  0.59030526242E+03  0.00000000000E+00 0. -1.
        -14    1    3    3    0    0 -0.29118545249E+02 -0.26337527977E+02  0.13353688170E+03  0.13918927340E+03  0.00000000000E+00 0.  1.
        -13    1    4    4    0    0  0.12703812691E+03  0.33385770453E+02 -0.44125737934E+02  0.13856542175E+03  0.00000000000E+00 0.  1.
         13    1    4    4    0    0  0.22458352481E+03  0.44012409927E+01  0.31987197637E+02  0.22689273093E+03  0.00000000000E+00 0. -1.
          2    1    1    2  501    0 -0.55636469109E+02 -0.37497181464E+01  0.37313664802E+03  0.37728031379E+03  0.00000000000E+00 0. -1.
<scales pt_clust_5="13000.00000" pt_clust_6="13000.00000" pt_clust_7="13000.00000" pt_clust_8="13000.00000" pt_clust_9="55.76271"></scales>
<clustering>
<clus scale="   55.763">  2  9  1 -1</clus>
<clus scale="   88.157">  5  6 -1 -1</clus>
<clus scale="   91.360">  7  8 -1 -1</clus>
<clus scale="  319.015">  1  5  2 -1</clus>
<clus scale="   55.763">  2  5  1 -1</clus>
</clustering>
</event>
<event>
 9    1  0.4664604E-005  0.9045168E+02  0.7546771E-02  0.1307880E+00
         21   -1    0    0  501  502  0.00000000000E+00  0.00000000000E+00  0.10482117058E+03  0.10482117058E+03  0.00000000000E+00 0. -1.
          1   -1    0    0  502    0 -0.00000000000E+00 -0.00000000000E+00 -0.18112472092E+03  0.18112472092E+03  0.00000000000E+00 0. -1.
        -24    2    1    2    0    0  0.22598510145E+01 -0.32424936918E+02 -0.45687129706E+02  0.97621359955E+02  0.79913281987E+02 0.  0.
         23    2    1    2    0    0 -0.26694036177E+02 -0.43134243702E+02 -0.35125102586E+02  0.10878493515E+03  0.89594948170E+02 0.  0.
         13    1    3    3    0    0  0.20949981864E+02 -0.53825965557E+02 -0.32790586530E+02  0.66418061348E+02  0.00000000000E+00 0. -1.
        -14    1    3    3    0    0 -0.18690130850E+02  0.21401028640E+02 -0.12896543177E+02  0.31203298607E+02  0.00000000000E+00 0.  1.
        -11    1    4    4    0    0  0.28864061788E+02  0.50697893470E+01 -0.12156629010E+02  0.31727282515E+02  0.00000000000E+00 0.  1.
         11    1    4    4    0    0 -0.55558097965E+02 -0.48204033049E+02 -0.22968473576E+02  0.77057652638E+02  0.00000000000E+00 0. -1.
          2    1    1    2  501    0  0.24434185163E+02  0.75559180620E+02  0.45086819546E+01  0.79539596387E+02  0.00000000000E+00 0. -1.
<scales pt_clust_5="13000.00000" pt_clust_6="13000.00000" pt_clust_7="13000.00000" pt_clust_8="13000.00000" pt_clust_9="79.41171"></scales>
<clustering>
<clus scale="   79.412">  1  9  2 -1</clus>
<clus scale="   79.913">  5  6 -1 -1</clus>
<clus scale="   80.873">  2  5  1 -1</clus>
<clus scale="   89.595">  7  8 -1 -1</clus>
<clus scale="   79.412">  1  5  2 -1</clus>
</clustering>
</event>
<event>
 9    1  0.4664604E-005  0.9997627E+02  0.7546771E-02  0.1285582E+00
          1   -1    0    0  502    0 -0.00000000000E+00  0.00000000000E+00  0.10641116095E+03  0.10641116095E+03  0.00000000000E+00 0. -1.
         21   -1    0    0  501  502  0.00000000000E+00 -0.00000000000E+00 -0.14706510573E+03  0.14706510573E+03  0.00000000000E+00 0. -1.
         23    2    1    2    0    0  0.62037637693E+01  0.48857704139E+02  0.32032476926E+02  0.10894853818E+03  0.91750435721E+02 0.  0.
        -24    2    1    2    0    0  0.14442632028E+02 -0.25193973527E+02 -0.29827227939E+02  0.91394346378E+02  0.81362995896E+02 0.  0.
         13    1    4    4    0    0  0.41477441413E+02  0.82788416300E+01 -0.21951045721E+02  0.47652552640E+02  0.00000000000E+00 0. -1.
        -14    1    4    4    0    0 -0.27034809385E+02 -0.33472815157E+02 -0.78761822182E+01  0.43741793737E+02  0.00000000000E+00 0.  1.
        -11    1    3    3    0    0 -0.27083670825E+02  0.45051025713E+00 -0.17379630887E+02  0.32183532351E+02  0.00000000000E+00 0.  1.
         11    1    3    3    0    0  0.33287434594E+02  0.48407193881E+02  0.49412107813E+02  0.76765005829E+02  0.00000000000E+00 0. -1.
          2    1    1    2  501    0 -0.20646395797E+02 -0.23663730611E+02 -0.42859193762E+02  0.53133382123E+02  0.00000000000E+00 0. -1.
<scales pt_clust_5="13000.00000" pt_clust_6="13000.00000" pt_clust_7="13000.00000" pt_clust_8="13000.00000" pt_clust_9="31.40455"></scales>
<clustering>
<clus scale="   31.405">  2  9  1 -1</clus>
<clus scale="   81.363">  5  6 -1 -1</clus>
<clus scale="   90.538">  2  5  1 -1</clus>
<clus scale="   91.750">  7  8 -1 -1</clus>
<clus scale="   31.405">  2  5  1 -1</clus>
</clustering>
</event>
<event>
 9    1  0.4664604E-005  0.1307068E+03  0.7546771E-02  0.1232477E+00
         21   -1    0    0  501  502  0.00000000000E+00  0.00000000000E+00  0.41814766731E+02  0.41814766731E+02  0.00000000000E+00 0. -1.
          1   -1    0    0  502    0 -0.00000000000E+00 -0.00000000000E+00 -0.88092632732E+03  0.88092632732E+03  0.00000000000E+00 0. -1.
         23    2    1    2    0    0 -0.12310016650E+03 -0.41373056220E+01 -0.31838484302E+03  0.35619726476E+03  0.10167012771E+03 0.  0.
        -24    2    1    2    0    0  0.40163663948E+02 -0.39884650075E+02 -0.12224221559E+03  0.15714635207E+03  0.80919166352E+02 0.  0.
         11    1    4    4    0    0  0.56433794049E+02 -0.52989682907E+02 -0.10207104001E+03  0.12810611544E+03  0.00000000000E+00 0. -1.
        -12    1    4    4    0    0 -0.16270130101E+02  0.13105032833E+02 -0.20171175582E+02  0.29040236628E+02  0.00000000000E+00 0.  1.
        -11    1    3    3    0    0 -0.75849761041E+02  0.31853394809E+02 -0.98018733488E+02  0.12796678134E+03  0.00000000000E+00 0. -1.
         11    1    3    3    0    0 -0.47250405455E+02 -0.35990700431E+02 -0.22036610953E+03  0.22823048343E+03  0.00000000000E+00 0.  1.
          2    1    1    2  501    0  0.82936502548E+02  0.44021955697E+02 -0.39848450197E+03  0.40939747722E+03  0.00000000000E+00 0. -1.
<scales pt_clust_5="13000.00000" pt_clust_6="13000.00000" pt_clust_7="13000.00000" pt_clust_8="13000.00000" pt_clust_9="93.89571"></scales>
<clustering>
<clus scale="   80.919">  5  6 -1 -1</clus>
<clus scale="   93.896">  1  9  2 -1</clus>
<clus scale="  101.670">  7  8 -1 -1</clus>
<clus scale="  115.306">  1  5  2 -1</clus>
<clus scale="   93.896">  1  5  2 -1</clus>
</clustering>
</event>
<event>
 9    1  0.4664604E-005  0.9577953E+02  0.7546771E-02  0.1298150E+00
         21   -1    0    0  501  502  0.00000000000E+00  0.00000000000E+00  0.74850944536E+03  0.74850944536E+03  0.00000000000E+00 0. -1.
          1   -1    0    0  502    0 -0.00000000000E+00 -0.00000000000E+00 -0.16867806222E+02  0.16867806222E+02  0.00000000000E+00 0. -1.
         23    2    1    2    0    0 -0.21707943956E+02  0.29301575848E+02  0.33292673033E+03  0.34722025836E+03  0.91607220604E+02 0.  0.
        -24    2    1    2    0    0  0.20862808793E+01 -0.20077166930E+02  0.38374019715E+03  0.39180663515E+03  0.76475193594E+02 0.  0.
         13    1    4    4    0    0  0.19234828227E+01 -0.48999708814E+02  0.27192994980E+03  0.27631606694E+03  0.00000000000E+00 0. -1.
        -14    1    4    4    0    0  0.16279805654E+00  0.28922541885E+02  0.11181024735E+03  0.11549056821E+03  0.00000000000E+00 0.  1.
        -11    1    3    3    0    0  0.11526500927E+02 -0.25498416904E+02  0.51742427957E+02  0.58824385582E+02  0.00000000000E+00 0.  1.
         11    1    3    3    0    0 -0.33234444884E+02  0.54799992752E+02  0.28118430237E+03  0.28839587277E+03  0.00000000000E+00 0. -1.
          2    1    1    2  501    0  0.19621663077E+02 -0.92244089186E+01  0.14974711662E+02  0.26350358084E+02  0.00000000000E+00 0. -1.
<scales pt_clust_5="13000.00000" pt_clust_6="13000.00000" pt_clust_7="13000.00000" pt_clust_8="13000.00000" pt_clust_9="21.68179"></scales>
<clustering>
<clus scale="   21.682">  1  9  2 -1</clus>
<clus scale="   76.475">  5  6 -1 -1</clus>
<clus scale="   81.427">  1  5  2 -1</clus>
<clus scale="   91.607">  7  8 -1 -1</clus>
<clus scale="   21.682">  1  5  2 -1</clus>
</clustering>
</event>
<event>
 9    1  0.4664604E-005  0.9117854E+02  0.7546771E-02  0.1306677E+00
          1   -1    0    0  502    0 -0.00000000000E+00  0.00000000000E+00  0.30711939211E+03  0.30711939211E+03  0.00000000000E+00 0. -1.
         21   -1    0    0  501  502  0.00000000000E+00 -0.00000000000E+00 -0.38601958025E+02  0.38601958025E+02  0.00000000000E+00 0. -1.
        -24    2    1    2    0    0  0.73775128579E+01 -0.76042083973E+01  0.11983407675E+03  0.14480240007E+03  0.80593284062E+02 0.  0.
         23    2    1    2    0    0  0.20884179825E+02 -0.44662040259E+01  0.71201068516E+02  0.11756474674E+03  0.91081181229E+02 0.  0.
         11    1    3    3    0    0  0.30765037162E+02  0.25360108109E+02  0.70831274795E+02  0.81281560541E+02  0.00000000000E+00 0. -1.
        -12    1    3    3    0    0 -0.23387524304E+02 -0.32964316506E+02  0.49002801953E+02  0.63520839533E+02  0.00000000000E+00 0.  1.
        -11    1    4    4    0    0  0.41530944377E+02 -0.35206725140E+02  0.29983664751E+02  0.62155876535E+02  0.00000000000E+00 0. -1.
         11    1    4    4    0    0 -0.20646764552E+02  0.30740521114E+02  0.41217403764E+02  0.55408870210E+02  0.00000000000E+00 0.  1.
          2    1    1    2  501    0 -0.28261692683E+02  0.12070412423E+02  0.77482288818E+02  0.83354203313E+02  0.00000000000E+00 0. -1.
<scales pt_clust_5="13000.00000" pt_clust_6="13000.00000" pt_clust_7="13000.00000" pt_clust_8="13000.00000" pt_clust_9="30.73140"></scales>
<clustering>
<clus scale="   30.731">  2  9  1 -1</clus>
<clus scale="   80.593">  5  6 -1 -1</clus>
<clus scale="   80.703">  1  5  2 -1</clus>
<clus scale="   91.081">  7  8 -1 -1</clus>
<clus scale="   30.731">  2  5  1 -1</clus>
</clustering>
</event>
<event>
 9    1  0.4664604E-005  0.1049443E+03  0.7546771E-02  0.1277597E+00
         21   -1    0    0  501  502  0.00000000000E+00  0.00000000000E+00  0.81834208177E+02  0.81834208177E+02  0.00000000000E+00 0.  1.
          1   -1    0    0  502    0 -0.00000000000E+00 -0.00000000000E+00 -0.30409466289E+03  0.30409466289E+03  0.00000000000E+00 0. -1.
        -24    2    1    2    0    0  0.44665897829E+02  0.71404366579E+01 -0.24391467294E+03  0.26087353841E+03  0.80713116066E+02 0.  0.
         23    2    1    2    0    0 -0.20533872425E+02 -0.97623911059E+01  0.14800681836E+02  0.99832322206E+02  0.96075429624E+02 0.  0.
         11    1    3    3    0    0  0.60091572681E+02  0.10338333489E+02 -0.10779456214E+03  0.12384484597E+03  0.00000000000E+00 0. -1.
        -12    1    3    3    0    0 -0.15425674852E+02 -0.31978968314E+01 -0.13612011080E+03  0.13702869244E+03  0.00000000000E+00 0.  1.
        -11    1    4    4    0    0 -0.48231162862E+02 -0.34243979512E+02  0.20132593020E+02  0.62483729927E+02  0.00000000000E+00 0.  1.
         11    1    4    4    0    0  0.27697290437E+02  0.24481588406E+02 -0.53319111838E+01  0.37348592280E+02  0.00000000000E+00 0. -1.
          2    1    1    2  501    0 -0.24132025404E+02  0.26219544480E+01  0.68535363852E+01  0.25223010451E+02  0.00000000000E+00 0. -1.
<scales pt_clust_5="13000.00000" pt_clust_6="13000.00000" pt_clust_7="13000.00000" pt_clust_8="13000.00000" pt_clust_9="24.27405"></scales>
<clustering>
<clus scale="   24.274">  1  9  2 -1</clus>
<clus scale="   80.713">  5  6 -1 -1</clus>
<clus scale="   91.090">  2  5  1 -1</clus>
<clus scale="   96.075">  7  8 -1 -1</clus>
<clus scale="   24.274">  1  5  2 -1</clus>
</clustering>
</event>
<event>
 9    1  0.4664604E-005  0.9169661E+02  0.7546771E-02  0.1305126E+00
         21   -1    0    0  501  502  0.00000000000E+00  0.00000000000E+00  0.10254649780E+03  0.10254649780E+03  0.00000000000E+00 0.  1.
          1   -1    0    0  502    0 -0.00000000000E+00 -0.00000000000E+00 -0.13588232523E+03  0.13588232523E+03  0.00000000000E+00 0. -1.
         23    2    1    2    0    0  0.13999690649E+02  0.83800787017E+01 -0.44541677880E+02  0.10223707595E+03  0.90566227558E+02 0.  0.
        -24    2    1    2    0    0  0.18903512119E+02 -0.25896116265E+02  0.33485436667E+02  0.92765806833E+02  0.80350910640E+02 0.  0.
         13    1    4    4    0    0 -0.12702518785E+01  0.28395514477E+02  0.13769049791E+02  0.31583310694E+02  0.00000000000E+00 0. -1.
        -14    1    4    4    0    0  0.20173763997E+02 -0.54291630742E+02  0.19716386876E+02  0.61182496140E+02  0.00000000000E+00 0.  1.
        -13    1    3    3    0    0 -0.11130300958E+02  0.39293004419E+02  0.21053170736E+01  0.40893228726E+02  0.00000000000E+00 0. -1.
         13    1    3    3    0    0  0.25129991607E+02 -0.30912925717E+02 -0.46646994954E+02  0.61343847228E+02  0.00000000000E+00 0.  1.
          2    1    1    2  501    0 -0.32903202768E+02  0.17516037563E+02 -0.22279586212E+02  0.43425940244E+02  0.00000000000E+00 0. -1.
<scales pt_clust_5="13000.00000" pt_clust_6="13000.00000" pt_clust_7="13000.00000" pt_clust_8="13000.00000" pt_clust_9="37.27511"></scales>
<clustering>
<clus scale="   37.275">  1  9  2 -1</clus>
<clus scale="   80.351">  5  6 -1 -1</clus>
<clus scale="   81.623">  1  5  2 -1</clus>
<clus scale="   90.566">  7  8 -1 -1</clus>
<clus scale="   37.275">  1  5  2 -1</clus>
</clustering>
</event>
<event>
 9    1  0.4664604E-005  0.1159069E+03  0.7546771E-02  0.1253836E+00
         21   -1    0    0  501  502  0.00000000000E+00  0.00000000000E+00  0.10837960165E+03  0.10837960165E+03  0.00000000000E+00 0. -1.
          3   -1    0    0  502    0 -0.00000000000E+00 -0.00000000000E+00 -0.29063978975E+03  0.29063978975E+03  0.00000000000E+00 0. -1.
        -24    2    1    2    0    0 -0.51867982079E+02 -0.55236929873E+01 -0.70772678447E+02  0.11910626946E+03  0.80353796811E+02 0.  0.
         23    2    1    2    0    0  0.11696801111E+03  0.54298437662E+02 -0.23035185890E+02  0.15974322938E+03  0.91419054844E+02 0.  0.
         13    1    3    3    0    0 -0.68964368354E+02 -0.21320892232E+02 -0.49096220373E+02  0.87298931281E+02  0.00000000000E+00 0. -1.
        -14    1    3    3    0    0  0.17096386275E+02  0.15797199245E+02 -0.21676458074E+02  0.31807338183E+02  0.00000000000E+00 0.  1.
        -13    1    4    4    0    0  0.77324727131E+02  0.69293084635E+02 -0.43625139166E+02  0.11262236799E+03  0.00000000000E+00 0. -1.
         13    1    4    4    0    0  0.39643283975E+02 -0.14994646973E+02  0.20589953276E+02  0.47120861389E+02  0.00000000000E+00 0.  1.
          4    1    1    2  501    0 -0.65100029028E+02 -0.48774744674E+02 -0.88452323761E+02  0.12016989255E+03  0.00000000000E+00 0. -1.
<scales pt_clust_5="13000.00000" pt_clust_6="13000.00000" pt_clust_7="13000.00000" pt_clust_8="13000.00000" pt_clust_9="81.34492"></scales>
<clustering>
<clus scale="   80.354">  5  6 -1 -1</clus>
<clus scale="   81.345">  1  9  2 -1</clus>
<clus scale="   91.419">  7  8 -1 -1</clus>
<clus scale="  107.395">  2  5  1 -1</clus>
<clus scale="   81.345">  1  5  2 -1</clus>
</clustering>
</event>
<event>
 9    1  0.4664604E-005  0.1885562E+03  0.7546771E-02  0.1160923E+00
         21   -1    0    0  501  502  0.00000000000E+00  0.00000000000E+00  0.81016750615E+02  0.81016750615E+02  0.00000000000E+00 0. -1.
         -4   -1    0    0    0  501 -0.00000000000E+00 -0.00000000000E+00 -0.66527678468E+03  0.66527678468E+03  0.00000000000E+00 0.  1.
        -24    2    1    2    0    0  0.14902680291E+03  0.31047497593E+02 -0.30730339464E+03  0.35174453860E+03  0.78204277272E+02 0.  0.
         23    2    1    2    0    0 -0.18545867569E+03 -0.74117449755E+02 -0.18423197293E+03  0.28601252398E+03  0.89294049507E+02 0.  0.
         11    1    3    3    0    0  0.95756728334E+02  0.53605903864E+02 -0.23323103227E+03  0.25775891520E+03  0.00000000000E+00 0. -1.
        -12    1    3    3    0    0  0.53270074574E+02 -0.22558406271E+02 -0.74072362370E+02  0.93985623398E+02  0.00000000000E+00 0.  1.
        -11    1    4    4    0    0 -0.61831823349E+02  0.47920741603E+01 -0.97708679525E+02  0.11572866718E+03  0.00000000000E+00 0.  1.
         11    1    4    4    0    0 -0.12362685234E+03 -0.78909523916E+02 -0.86523293401E+02  0.17028385679E+03  0.00000000000E+00 0. -1.
         -3    1    1    2    0  502  0.36431872779E+02  0.43069952162E+02 -0.92724666494E+02  0.10853647272E+03  0.00000000000E+00 0.  1.
<scales pt_clust_5="13000.00000" pt_clust_6="13000.00000" pt_clust_7="13000.00000" pt_clust_8="13000.00000" pt_clust_9="56.41193"></scales>
<clustering>
<clus scale="   56.412">  1  9  2 -1</clus>
<clus scale="   78.204">  5  6 -1 -1</clus>
<clus scale="   89.294">  7  8 -1 -1</clus>
<clus scale="  183.564">  2  5  1 -1</clus>
<clus scale="   56.412">  1  5  2 -1</clus>
</clustering>
</event>
<event>
 9    1  0.4664604E-005  0.1605411E+03  0.7546771E-02  0.1209123E+00
         21   -1    0    0  501  502  0.00000000000E+00  0.00000000000E+00  0.11645046509E+03  0.11645046509E+03  0.00000000000E+00 0. -1.
          1   -1    0    0  502    0 -0.00000000000E+00 -0.00000000000E+00 -0.43712337127E+03  0.43712337127E+03  0.00000000000E+00 0. -1.
         23    2    1    2    0    0 -0.26461823004E+01  0.56443005728E+02 -0.22347192367E+01  0.10157435831E+03  0.84377373272E+02 0.  0.
        -24    2    1    2    0    0 -0.84440975483E+02  0.88915180818E+02 -0.10783062937E+03  0.18168721647E+03  0.79665627956E+02 0.  0.
         11    1    4    4    0    0 -0.53588293849E+02  0.90697736402E+02 -0.10787836836E+03  0.15078304608E+03  0.00000000000E+00 0. -1.
        -12    1    4    4    0    0 -0.30852681634E+02 -0.17825555836E+01  0.47738986323E-01  0.30904170389E+02  0.00000000000E+00 0.  1.
        -13    1    3    3    0    0  0.38077575799E+02  0.32260503505E+02  0.13441656354E+02  0.51684813927E+02  0.00000000000E+00 0.  1.
         13    1    3    3    0    0 -0.40723758099E+02  0.24182502223E+02 -0.15676375591E+02  0.49889544387E+02  0.00000000000E+00 0. -1.
          2    1    1    2  501    0  0.87087157784E+02 -0.14535818655E+03 -0.21060755757E+03  0.27031226157E+03  0.00000000000E+00 0. -1.
<scales pt_clust_5="13000.00000" pt_clust_6="13000.00000" pt_clust_7="13000.00000" pt_clust_8="13000.00000" pt_clust_9="139.38025"></scales>
<clustering>
<clus scale="   79.666">  5  6 -1 -1</clus>
<clus scale="   84.377">  7  8 -1 -1</clus>
<clus scale="  101.550">  2  7  1 -1</clus>
<clus scale="  139.380">  1  9  2 -1</clus>
<clus scale="  139.380">  1  5  2 -1</clus>
</clustering>
</event>
<event>
 9    1  0.4664604E-005  0.1086130E+03  0.7546771E-02  0.1271137E+00
         21   -1    0    0  501  502  0.00000000000E+00  0.00000000000E+00  0.62597207931E+02  0.62597207931E+02  0.00000000000E+00 0. -1.
          1   -1    0    0  502    0 -0.00000000000E+00 -0.00000000000E+00 -0.26422653352E+03  0.26422653352E+03  0.00000000000E+00 0. -1.
        -24    2    1    2    0    0 -0.17877338041E+02 -0.63062527851E+02 -0.12251047172E+03  0.15940733703E+03  0.78137070493E+02 0.  0.
         23    2    1    2    0    0  0.20687940021E+02  0.17413595475E+02 -0.41431188919E+02  0.10815356108E+03  0.96173931967E+02 0.  0.
         11    1    3    3    0    0 -0.40188742358E+02 -0.50387797646E+02 -0.47316866674E+02  0.79955931836E+02  0.00000000000E+00 0. -1.
        -12    1    3    3    0    0  0.22311404317E+02 -0.12674730205E+02 -0.75193605045E+02  0.79451405199E+02  0.00000000000E+00 0.  1.
        -11    1    4    4    0    0  0.22839460314E+02  0.54049087759E+02 -0.93649257140E+01  0.59419244935E+02  0.00000000000E+00 0. -1.
         11    1    4    4    0    0 -0.21515202934E+01 -0.36635492284E+02 -0.32066263205E+02  0.48734316148E+02  0.00000000000E+00 0.  1.
          2    1    1    2  501    0 -0.28106019799E+01  0.45648932376E+02 -0.37687664948E+02  0.59262843332E+02  0.00000000000E+00 0. -1.
<scales pt_clust_5="13000.00000" pt_clust_6="13000.00000" pt_clust_7="13000.00000" pt_clust_8="13000.00000" pt_clust_9="45.73540"></scales>
<clustering>
<clus scale="   45.735">  1  9  2 -1</clus>
<clus scale="   78.137">  5  6 -1 -1</clus>
<clus scale="   93.020">  2  5  1 -1</clus>
<clus scale="   96.174">  7  8 -1 -1</clus>
<clus scale="   45.735">  1  5  2 -1</clus>
</clustering>
</event>
<event>
 9    1  0.4664604E-005  0.9818026E+02  0.7546771E-02  0.1290045E+00
          3   -1    0    0  502    0 -0.00000000000E+00  0.00000000000E+00  0.82016889272E+02  0.82016889272E+02  0.00000000000E+00 0. -1.
         21   -1    0    0  501  502  0.00000000000E+00 -0.00000000000E+00 -0.16789762150E+03  0.16789762150E+03  0.00000000000E+00 0. -1.
        -24    2    1    2    0    0  0.27036598085E+02 -0.87020970800E+01 -0.31109499464E+02  0.93345182272E+02  0.83299567628E+02 0.  0.
         23    2    1    2    0    0 -0.70310943165E+00  0.42273103150E+02 -0.46354244515E+02  0.11308012565E+03  0.94079164640E+02 0.  0.
         13    1    3    3    0    0  0.51846161763E+02 -0.18985319132E+02 -0.36184624796E+02  0.66013588781E+02  0.00000000000E+00 0. -1.
        -14    1    3    3    0    0 -0.24809563678E+02  0.10283222052E+02  0.50751253323E+01  0.27331593492E+02  0.00000000000E+00 0.  1.
        -11    1    4    4    0    0 -0.39567699021E+02  0.45592503956E+02 -0.42617619638E+02  0.73895471623E+02  0.00000000000E+00 0.  1.
         11    1    4    4    0    0  0.38864589589E+02 -0.33194008061E+01 -0.37366248778E+01  0.39184654026E+02  0.00000000000E+00 0. -1.
          4    1    1    2  501    0 -0.26333488653E+02 -0.33571006070E+02 -0.84169882461E+01  0.43489202848E+02  0.00000000000E+00 0. -1.
<scales pt_clust_5="13000.00000" pt_clust_6="13000.00000" pt_clust_7="13000.00000" pt_clust_8="13000.00000" pt_clust_9="42.66693"></scales>
<clustering>
<clus scale="   42.667">  2  9  1 -1</clus>
<clus scale="   83.300">  5  6 -1 -1</clus>
<clus scale="   87.905">  1  5  2 -1</clus>
<clus scale="   94.079">  7  8 -1 -1</clus>
<clus scale="   42.667">  2  5  1 -1</clus>
</clustering>
</event>
<event>
 9    1  0.4664604E-005  0.3118521E+03  0.7546771E-02  0.1079863E+00
         -4   -1    0    0    0  501 -0.00000000000E+00  0.00000000000E+00  0.83102468103E+03  0.83102468103E+03  0.00000000000E+00 0.  1.
         21   -1    0    0  501  502  0.00000000000E+00 -0.00000000000E+00 -0.21266050541E+03  0.21266050541E+03  0.00000000000E+00 0.  1.
        -24    2    1    2    0    0 -0.27562060979E+03 -0.83367094315E+02  0.46878034410E+03  0.55594314468E+03  0.80006100648E+02 0.  0.
         23    2    1    2    0    0  0.30674034348E+03  0.83456670621E+02  0.22898553058E+03  0.40245971262E+03  0.92112935453E+02 0.  0.
         13    1    3    3    0    0 -0.10494160875E+03  0.61393275548E+01  0.18780555666E+03  0.21522397567E+03  0.00000000000E+00 0. -1.
        -14    1    3    3    0    0 -0.17067900104E+03 -0.89506421870E+02  0.28097478744E+03  0.34071916901E+03  0.00000000000E+00 0.  1.
        -11    1    4    4    0    0  0.14541685875E+03  0.70920365401E+01  0.14400283821E+03  0.20477591949E+03  0.00000000000E+00 0.  1.
         11    1    4    4    0    0  0.16132348473E+03  0.76364634081E+02  0.84982692378E+02  0.19768379313E+03  0.00000000000E+00 0. -1.
         -3    1    1    2    0  502 -0.31119733686E+02 -0.89576306093E-01 -0.79401699069E+02  0.85282329140E+02  0.00000000000E+00 0.  1.
<scales pt_clust_5="13000.00000" pt_clust_6="13000.00000" pt_clust_7="13000.00000" pt_clust_8="13000.00000" pt_clust_9="31.11986"></scales>
<clustering>
<clus scale="   31.120">  2  9  1 -1</clus>
<clus scale="   80.006">  5  6 -1 -1</clus>
<clus scale="   92.113">  7  8 -1 -1</clus>
<clus scale="  308.493">  1  5  2 -1</clus>
<clus scale="   31.120">  2  5  1 -1</clus>
</clustering>
</event>
<event>
 9    1  0.4664604E-005  0.9937485E+02  0.7546771E-02  0.1288208E+00
          1   -1    0    0  502    0 -0.00000000000E+00  0.00000000000E+00  0.63126266326E+03  0.63126266326E+03  0.00000000000E+00 0. -1.
         21   -1    0    0  501  502  0.00000000000E+00 -0.00000000000E+00 -0.43465144560E+02  0.43465144560E+02  0.00000000000E+00 0.  1.
        -24    2    1    2    0    0 -0.27165966329E+02  0.26965230093E+02  0.51845861319E+03  0.52580774173E+03  0.78799329388E+02 0.  0.
         23    2    1    2    0    0  0.44918519851E+02 -0.11640432280E+02  0.71893774527E+02  0.12532917929E+03  0.91572459154E+02 0.  0.
         13    1    3    3    0    0 -0.21867700817E+02 -0.24005265422E+02  0.13050296471E+03  0.13448224011E+03  0.00000000000E+00 0. -1.
        -14    1    3    3    0    0 -0.52982655115E+01  0.50970495515E+02  0.38795564847E+03  0.39132550161E+03  0.00000000000E+00 0.  1.
        -11    1    4    4    0    0  0.53495079583E+02  0.28526206411E+02  0.51124748183E+02  0.79304526154E+02  0.00000000000E+00 0.  1.
         11    1    4    4    0    0 -0.85765597320E+01 -0.40166638692E+02  0.20769026344E+02  0.46024653132E+02  0.00000000000E+00 0. -1.
          2    1    1    2  501    0 -0.17752553522E+02 -0.15324797813E+02 -0.25548690160E+01  0.23590886805E+02  0.00000000000E+00 0. -1.
<scales pt_clust_5="13000.00000" pt_clust_6="13000.00000" pt_clust_7="13000.00000" pt_clust_8="13000.00000" pt_clust_9="23.45213"></scales>
<clustering>
<clus scale="   23.452">  2  9  1 -1</clus>
<clus scale="   78.799">  5  6 -1 -1</clus>
<clus scale="   87.745">  1  5  2 -1</clus>
<clus scale="   91.572">  7  8 -1 -1</clus>
<clus scale="   23.452">  2  5  1 -1</clus>
</clustering>
</event>
<event>
 9    1  0.4664604E-005  0.9478261E+02  0.7546771E-02  0.1295545E+00
         -4   -1    0    0    0  501 -0.00000000000E+00  0.00000000000E+00  0.31166518920E+03  0.31166518920E+03  0.00000000000E+00 0.  1.
         21   -1    0    0  501  502  0.00000000000E+00 -0.00000000000E+00 -0.54444454215E+02  0.54444454215E+02  0.00000000000E+00 0.  1.
        -24    2    1    2    0    0  0.11876384693E+02 -0.43838136642E+02  0.12997920778E+03  0.16102863821E+03  0.83503276172E+02 0.  0.
         23    2    1    2    0    0 -0.31485737940E+02 -0.16401379301E+02  0.70685508310E+02  0.12015804430E+03  0.90449751728E+02 0.  0.
         11    1    3    3    0    0  0.30621436890E+02 -0.48850487784E+02  0.43032996090E+02  0.71943598092E+02  0.00000000000E+00 0. -1.
        -12    1    3    3    0    0 -0.18745052197E+02  0.50123511419E+01  0.86946211689E+02  0.89085040119E+02  0.00000000000E+00 0.  1.
        -11    1    4    4    0    0 -0.54826737939E+02 -0.31390608510E+02  0.67143675799E+02  0.92193354942E+02  0.00000000000E+00 0.  1.
         11    1    4    4    0    0  0.23340999999E+02  0.14989229208E+02  0.35418325116E+01  0.27964689356E+02  0.00000000000E+00 0. -1.
         -3    1    1    2    0  502  0.19609353247E+02  0.60239515944E+02  0.56556018894E+02  0.84922960906E+02  0.00000000000E+00 0.  1.
<scales pt_clust_5="13000.00000" pt_clust_6="13000.00000" pt_clust_7="13000.00000" pt_clust_8="13000.00000" pt_clust_9="63.35082"></scales>
<clustering>
<clus scale="   63.351">  2  9  1 -1</clus>
<clus scale="   83.503">  5  6 -1 -1</clus>
<clus scale="   88.178">  1  5  2 -1</clus>
<clus scale="   90.450">  7  8 -1 -1</clus>
<clus scale="   63.351">  2  5  1 -1</clus>
</clustering>
</event>
<event>
 9    1  0.4664604E-005  0.1844221E+03  0.7546771E-02  0.1199268E+00
         -4   -1    0    0    0  501 -0.00000000000E+00  0.00000000000E+00  0.48505843888E+03  0.48505843888E+03  0.00000000000E+00 0.  1.
         21   -1    0    0  501  502  0.00000000000E+00 -0.00000000000E+00 -0.12940455054E+03  0.12940455054E+03  0.00000000000E+00 0.  1.
        -24    2    1    2    0    0  0.56277724254E+01 -0.20597627804E+02  0.22449068727E+03  0.23929140243E+03  0.80052311093E+02 0.  0.
         23    2    1    2    0    0 -0.15834805825E+03 -0.21875836958E+02  0.10902508944E+03  0.21511666860E+03  0.94000272273E+02 0.  0.
         13    1    3    3    0    0  0.17500776973E+02  0.24105310477E+02  0.45217073645E+02  0.54147270816E+02  0.00000000000E+00 0. -1.
        -14    1    3    3    0    0 -0.11873004548E+02 -0.44702938281E+02  0.17927361363E+03  0.18514413161E+03  0.00000000000E+00 0.  1.
        -13    1    4    4    0    0 -0.88673908037E+02 -0.51059172215E+02  0.31947478917E+02  0.10719488067E+03  0.00000000000E+00 0. -1.
         13    1    4    4    0    0 -0.69674150217E+02  0.29183335257E+02  0.77077610526E+02  0.10792178793E+03  0.00000000000E+00 0.  1.
         -3    1    1    2    0  502  0.15272028583E+03  0.42473464762E+02  0.22138111625E+02  0.16005491838E+03  0.00000000000E+00 0.  1.
<scales pt_clust_5="13000.00000" pt_clust_6="13000.00000" pt_clust_7="13000.00000" pt_clust_8="13000.00000" pt_clust_9="158.66772"></scales>
<clustering>
<clus scale="   80.052">  5  6 -1 -1</clus>
<clus scale="   82.851">  1  5  2 -1</clus>
<clus scale="   94.000">  7  8 -1 -1</clus>
<clus scale="  158.668">  2  9  1 -1</clus>
<clus scale="  158.668">  2  5  1 -1</clus>
</clustering>
</event>
<event>
 9    1  0.4664604E-005  0.1963075E+03  0.7546771E-02  0.1153877E+00
          1   -1    0    0  502    0 -0.00000000000E+00  0.00000000000E+00  0.38646234031E+03  0.38646234031E+03  0.00000000000E+00 0. -1.
         21   -1    0    0  501  502  0.00000000000E+00 -0.00000000000E+00 -0.61995078885E+03  0.61995078885E+03  0.00000000000E+00 0.  1.
        -24    2    1    2    0    0  0.71513247561E+02  0.16159654692E+03  0.33751531540E+03  0.38933320059E+03  0.80225709115E+02 0.  0.
         23    2    1    2    0    0 -0.76223810707E+02 -0.12152444291E+03 -0.31346473903E+03  0.35639944930E+03  0.90455322114E+02 0.  0.
         11    1    3    3    0    0  0.23681205325E+02  0.13905892185E+03  0.25184935570E+03  0.28866291968E+03  0.00000000000E+00 0. -1.
        -12    1    3    3    0    0  0.47832042236E+02  0.22537625072E+02  0.85665959698E+02  0.10067028091E+03  0.00000000000E+00 0.  1.
        -13    1    4    4    0    0 -0.53841894940E+02 -0.54124444134E+02 -0.72858737230E+02  0.10553104138E+03  0.00000000000E+00 0. -1.
         13    1    4    4    0    0 -0.22381915767E+02 -0.67399998778E+02 -0.24060600180E+03  0.25086840792E+03  0.00000000000E+00 0.  1.
          2    1    1    2  501    0  0.47105631461E+01 -0.40072104010E+02 -0.25753902490E+03  0.26068047927E+03  0.00000000000E+00 0. -1.
<scales pt_clust_5="13000.00000" pt_clust_6="13000.00000" pt_clust_7="13000.00000" pt_clust_8="13000.00000" pt_clust_9="40.34802"></scales>
<clustering>
<clus scale="   40.348">  2  9  1 -1</clus>
<clus scale="   80.226">  5  6 -1 -1</clus>
<clus scale="   90.455">  7  8 -1 -1</clus>
<clus scale="  191.809">  1  5  2 -1</clus>
<clus scale="   40.348">  2  5  1 -1</clus>
</clustering>
</event>
<event>
 9    1  0.4664604E-005  0.1210105E+03  0.7546771E-02  0.1246794E+00
         21   -1    0    0  501  502  0.00000000000E+00  0.00000000000E+00  0.35795554069E+02  0.35795554069E+02  0.00000000000E+00 0. -1.
          1   -1    0    0  502    0 -0.00000000000E+00 -0.00000000000E+00 -0.82634659097E+03  0.82634659097E+03  0.00000000000E+00 0. -1.
        -24    2    1    2    0    0  0.37312090962E+02 -0.38781017533E+02 -0.26551231582E+03  0.28056580681E+03  0.72967271039E+02 0.  0.
         23    2    1    2    0    0 -0.79048431827E+02  0.10255159497E+03 -0.43951597637E+03  0.46702177238E+03  0.90385608302E+02 0.  0.
         13    1    3    3    0    0  0.39348932804E+02  0.24025793780E+01 -0.19445819832E+03  0.19841396573E+03  0.00000000000E+00 0. -1.
        -14    1    3    3    0    0 -0.20368418422E+01 -0.41183596911E+02 -0.71054117503E+02  0.82151841083E+02  0.00000000000E+00 0.  1.
        -11    1    4    4    0    0 -0.22417460336E+02  0.11935916103E+01 -0.15208686839E+02  0.27115887303E+02  0.00000000000E+00 0.  1.
         11    1    4    4    0    0 -0.56630971491E+02  0.10135800336E+03 -0.42430728953E+03  0.43990588508E+03  0.00000000000E+00 0. -1.
          2    1    1    2  501    0  0.41736340866E+02 -0.63770577432E+02 -0.85522744706E+02  0.11455456585E+03  0.00000000000E+00 0. -1.
<scales pt_clust_5="13000.00000" pt_clust_6="13000.00000" pt_clust_7="13000.00000" pt_clust_8="13000.00000" pt_clust_9="76.21423"></scales>
<clustering>
<clus scale="   72.967">  5  6 -1 -1</clus>
<clus scale="   76.214">  1  9  2 -1</clus>
<clus scale="   90.386">  7  8 -1 -1</clus>
<clus scale="  108.620">  2  5  1 -1</clus>
<clus scale="   76.214">  1  5  2 -1</clus>
</clustering>
</event>
<event>
 9    1  0.5010304E-005  0.1445722E+03  0.7546771E-02  0.1209443E+00
         21   -1    0    0  501  502  0.00000000000E+00  0.00000000000E+00  0.17535572218E+03  0.17535572218E+03  0.00000000000E+00 0.  1.
          1   -1    0    0  502    0 -0.00000000000E+00 -0.00000000000E+00 -0.48568617346E+03  0.48568617346E+03  0.00000000000E+00 0. -1.
        -24    2    1    2    0    0  0.46182797021E+02 -0.10146307990E+03 -0.31890309856E+03  0.34737821571E+03  0.80900130750E+02 0.  0.
         23    2    1    2    0    0 -0.99788642413E+02  0.81541841017E+02  0.11321377882E+03  0.19441516284E+03  0.91504376038E+02 0.  0.
         13    1    3    3    0    0  0.31599127953E+02 -0.10936024401E+03 -0.30561500638E+03  0.32612681580E+03  0.00000000000E+00 0. -1.
        -14    1    3    3    0    0  0.14583669069E+02  0.78971641066E+01 -0.13288092172E+02  0.21251399907E+02  0.00000000000E+00 0.  1.
        -13    1    4    4    0    0 -0.15535019742E+02 -0.19687071179E+02  0.27795274641E+02  0.37436545011E+02  0.00000000000E+00 0. -1.
         13    1    4    4    0    0 -0.84253622671E+02  0.10122891220E+03  0.85418504182E+02  0.15697861783E+03  0.00000000000E+00 0.  1.
          2    1    1    2  501    0  0.53605845392E+02  0.19921238885E+02 -0.10464113155E+03  0.11924851710E+03  0.00000000000E+00 0. -1.
<scales pt_clust_5="13000.00000" pt_clust_6="13000.00000" pt_clust_7="13000.00000" pt_clust_8="13000.00000" pt_clust_9="57.18781"></scales>
<clustering>
<clus scale="   57.188">  1  9  2 -1</clus>
<clus scale="   80.900">  5  6 -1 -1</clus>
<clus scale="   91.504">  7  8 -1 -1</clus>
<clus scale="  138.105">  2  5  1 -1</clus>
<clus scale="   57.188">  1  5  2 -1</clus>
</clustering>
</event>
<event>
 9    1  0.4664604E-005  0.1515744E+03  0.7546771E-02  0.1223969E+00
         21   -1    0    0  501  502  0.00000000000E+00  0.00000000000E+00  0.11625100588E+03  0.11625100588E+03  0.00000000000E+00 0.  1.
         -2   -1    0    0    0  501 -0.00000000000E+00 -0.00000000000E+00 -0.46244784529E+03  0.46244784529E+03  0.00000000000E+00 0.  1.
        -24    2    1    2    0    0 -0.64239242244E+01  0.42977722949E+02 -0.97051519576E+01  0.88716017817E+02  0.76733241626E+02 0.  0.
         23    2    1    2    0    0  0.51307587460E+02  0.75273785500E+02 -0.33976178743E+03  0.36345751561E+03  0.91458636230E+02 0.  0.
         13    1    3    3    0    0  0.78517987923E+01 -0.20565142685E+02 -0.84440781090E+01  0.23577071341E+02  0.00000000000E+00 0. -1.
        -14    1    3    3    0    0 -0.14275723017E+02  0.63542865634E+02 -0.12610738486E+01  0.65138946475E+02  0.00000000000E+00 0.  1.
        -11    1    4    4    0    0 -0.20440285935E+02  0.32358268233E+02 -0.16962726137E+03  0.17389154842E+03  0.00000000000E+00 0.  1.
         11    1    4    4    0    0  0.71747873394E+02  0.42915517267E+02 -0.17013452607E+03  0.18956596720E+03  0.00000000000E+00 0. -1.
         -1    1    1    2    0  502 -0.44883663235E+02 -0.11825150845E+03  0.32700999783E+01  0.12652531774E+03  0.00000000000E+00 0.  1.
<scales pt_clust_5="13000.00000" pt_clust_6="13000.00000" pt_clust_7="13000.00000" pt_clust_8="13000.00000" pt_clust_9="120.87229"></scales>
<clustering>
<clus scale="   76.733">  5  6 -1 -1</clus>
<clus scale="   88.184">  2  5  1 -1</clus>
<clus scale="   91.459">  7  8 -1 -1</clus>
<clus scale="  120.872">  1  9  2 -1</clus>
<clus scale="  120.872">  1  5  2 -1</clus>
</clustering>
</event>
<event>
 9    1  0.4664604E-005  0.1817978E+03  0.7546771E-02  0.1182993E+00
         21   -1    0    0  501  502  0.00000000000E+00  0.00000000000E+00  0.15467003641E+03  0.15467003641E+03  0.00000000000E+00 0. -1.
          1   -1    0    0  502    0 -0.00000000000E+00 -0.00000000000E+00 -0.68122590299E+03  0.68122590299E+03  0.00000000000E+00 0. -1.
        -24    2    1    2    0    0  0.85512519821E+02  0.38796818962E+02 -0.45866811053E+03  0.47509085630E+03  0.80729808078E+02 0.  0.
         23    2    1    2    0    0  0.45924278719E+02  0.10282766821E+03 -0.84303576387E+02  0.16689116784E+03  0.89794210201E+02 0.  0.
         11    1    3    3    0    0  0.89710864444E+02  0.46515673800E+02 -0.45406010306E+03  0.46516913516E+03  0.00000000000E+00 0. -1.
        -12    1    3    3    0    0 -0.41983446229E+01 -0.77188548386E+01 -0.46080074679E+01  0.99217211418E+01  0.00000000000E+00 0.  1.
        -13    1    4    4    0    0  0.24946915555E+02 -0.93105940556E+01 -0.31305621502E+02  0.41098390419E+02  0.00000000000E+00 0.  1.
         13    1    4    4    0    0  0.20977363164E+02  0.11213826226E+03 -0.52997954885E+02  0.12579277742E+03  0.00000000000E+00 0. -1.
          2    1    1    2  501    0 -0.13143679854E+03 -0.14162448717E+03  0.16415820341E+02  0.19391391527E+03  0.00000000000E+00 0. -1.
<scales pt_clust_5="13000.00000" pt_clust_6="13000.00000" pt_clust_7="13000.00000" pt_clust_8="13000.00000" pt_clust_9="158.07416"></scales>
<clustering>
<clus scale="   80.730">  5  6 -1 -1</clus>
<clus scale="   89.794">  7  8 -1 -1</clus>
<clus scale="  123.834">  2  5  1 -1</clus>
<clus scale="  158.074">  1  9  2 -1</clus>
<clus scale="  158.074">  1  5  2 -1</clus>
</clustering>
</event>
<event>
 9    1  0.4664604E-005  0.9452096E+02  0.7546771E-02  0.1299264E+00
         21   -1    0    0  501  502  0.00000000000E+00  0.00000000000E+00  0.63744255476E+02  0.63744255476E+02  0.00000000000E+00 0. -1.
          1   -1    0    0  502    0 -0.00000000000E+00 -0.00000000000E+00 -0.20889328336E+03  0.20889328336E+03  0.00000000000E+00 0. -1.
         23    2    1    2    0    0 -0.35274226189E+01 -0.11247399284E+02 -0.10720473716E+03  0.14165225322E+03  0.91834407885E+02 0.  0.
        -24    2    1    2    0    0  0.49246091801E+01  0.44473380913E+02 -0.22506625080E+02  0.94321413671E+02  0.79924010904E+02 0.  0.
         11    1    4    4    0    0  0.14681983913E+02  0.65438824475E+02 -0.23792309216E+02  0.71160904844E+02  0.00000000000E+00 0. -1.
        -12    1    4    4    0    0 -0.97573747324E+01 -0.20965443563E+02  0.12856841363E+01  0.23160508827E+02  0.00000000000E+00 0.  1.
        -11    1    3    3    0    0 -0.47397058387E+02 -0.33009741886E+01 -0.47997301078E+02  0.67536053224E+02  0.00000000000E+00 0. -1.
         11    1    3    3    0    0  0.43869635768E+02 -0.79464250952E+01 -0.59207436083E+02  0.74116199995E+02  0.00000000000E+00 0.  1.
          2    1    1    2  501    0 -0.13971865612E+01 -0.33225981629E+02 -0.15437665645E+02  0.36663871946E+02  0.00000000000E+00 0. -1.
<scales pt_clust_5="13000.00000" pt_clust_6="13000.00000" pt_clust_7="13000.00000" pt_clust_8="13000.00000" pt_clust_9="33.25535"></scales>
<clustering>
<clus scale="   33.255">  1  9  2 -1</clus>
<clus scale="   79.924">  5  6 -1 -1</clus>
<clus scale="   82.997">  1  5  2 -1</clus>
<clus scale="   91.834">  7  8 -1 -1</clus>
<clus scale="   33.255">  1  5  2 -1</clus>
</clustering>
</event>
<event>
 9    1  0.4664604E-005  0.1028789E+03  0.7546771E-02  0.1279562E+00
         -2   -1    0    0    0  501 -0.00000000000E+00  0.00000000000E+00  0.32751373669E+02  0.32751373669E+02  0.00000000000E+00 0.  1.
         21   -1    0    0  501  502  0.00000000000E+00 -0.00000000000E+00 -0.38222412025E+03  0.38222412025E+03  0.00000000000E+00 0. -1.
        -24    2    1    2    0    0  0.37870752257E+01 -0.40940483298E+02 -0.11313825876E+03  0.14506467549E+03  0.80950783616E+02 0.  0.
         23    2    1    2    0    0  0.12404355608E+02  0.54735009369E+02 -0.21018949210E+03  0.23620603861E+03  0.91999352140E+02 0.  0.
         11    1    3    3    0    0  0.28619636245E+02  0.10759697467E+02 -0.57679097123E+02  0.65281949368E+02  0.00000000000E+00 0. -1.
        -12    1    3    3    0    0 -0.24832561019E+02 -0.51700180765E+02 -0.55459161641E+02  0.79782726124E+02  0.00000000000E+00 0.  1.
        -13    1    4    4    0    0  0.41024148360E+02  0.12392818125E+02 -0.15574025441E+03  0.16152891237E+03  0.00000000000E+00 0. -1.
         13    1    4    4    0    0 -0.28619792752E+02  0.42342191244E+02 -0.54449237697E+02  0.74677126232E+02  0.00000000000E+00 0.  1.
         -1    1    1    2    0  502 -0.16191430833E+02 -0.13794526071E+02 -0.26144995710E+02  0.33704779819E+02  0.00000000000E+00 0.  1.
<scales pt_clust_5="13000.00000" pt_clust_6="13000.00000" pt_clust_7="13000.00000" pt_clust_8="13000.00000" pt_clust_9="21.27092"></scales>
<clustering>
<clus scale="   21.271">  2  9  1 -1</clus>
<clus scale="   80.951">  5  6 -1 -1</clus>
<clus scale="   91.999">  7  8 -1 -1</clus>
<clus scale="   93.130">  1  5  2 -1</clus>
<clus scale="   21.271">  2  5  1 -1</clus>
</clustering>
</event>
<event>
 9    1  0.4664604E-005  0.1082998E+03  0.7546771E-02  0.1267245E+00
         21   -1    0    0  501  502  0.00000000000E+00  0.00000000000E+00  0.41409719058E+02  0.41409719058E+02  0.00000000000E+00 0. -1.
          1   -1    0    0  502    0 -0.00000000000E+00 -0.00000000000E+00 -0.76623440749E+03  0.76623440749E+03  0.00000000000E+00 0. -1.
         23    2    1    2    0    0 -0.45188110633E+02 -0.44373225785E+02 -0.61651998635E+03  0.62603146974E+03  0.88360392877E+02 0.  0.
        -24    2    1    2    0    0  0.27808628641E+02  0.56130027496E+02 -0.12049448722E+03  0.15734622645E+03  0.79467060552E+02 0.  0.
         11    1    4    4    0    0 -0.10442562928E+02  0.44216869580E+02 -0.10496945980E+03  0.11437992030E+03  0.00000000000E+00 0. -1.
        -12    1    4    4    0    0  0.38251191569E+02  0.11913157916E+02 -0.15525027424E+02  0.42966306154E+02  0.00000000000E+00 0.  1.
        -11    1    3    3    0    0 -0.45186906146E+02  0.16289385395E+02 -0.26695352391E+03  0.27124045511E+03  0.00000000000E+00 0.  1.
         11    1    3    3    0    0 -0.12044868770E-02 -0.60662611180E+02 -0.34956646244E+03  0.35479101463E+03  0.00000000000E+00 0. -1.
          2    1    1    2  501    0  0.17379481992E+02 -0.11756801711E+02  0.12189785137E+02  0.24266430362E+02  0.00000000000E+00 0. -1.
<scales pt_clust_5="13000.00000" pt_clust_6="13000.00000" pt_clust_7="13000.00000" pt_clust_8="13000.00000" pt_clust_9="20.98258"></scales>
<clustering>
<clus scale="   20.983">  1  9  2 -1</clus>
<clus scale="   79.467">  5  6 -1 -1</clus>
<clus scale="   88.360">  7  8 -1 -1</clus>
<clus scale="  101.175">  1  5  2 -1</clus>
<clus scale="   20.983">  1  5  2 -1</clus>
</clustering>
</event>
<event>
 9    1  0.4664604E-005  0.1646407E+03  0.7546771E-02  0.1185021E+00
          1   -1    0    0  502    0 -0.00000000000E+00  0.00000000000E+00  0.10983336630E+04  0.10983336630E+04  0.00000000000E+00 0. -1.
         21   -1    0    0  501  502  0.00000000000E+00 -0.00000000000E+00 -0.44849212856E+02  0.44849212856E+02  0.00000000000E+00 0. -1.
         23    2    1    2    0    0  0.30142143755E+02 -0.16859758709E+03  0.75639797028E+03  0.78085432493E+03  0.90894950986E+02 0.  0.
        -24    2    1    2    0    0  0.73664463484E+00  0.91143665558E+02  0.20145258392E+03  0.23544887727E+03  0.80903150870E+02 0.  0.
         13    1    4    4    0    0  0.34837341649E+02  0.14365275953E+02  0.68401356729E+02  0.78094475661E+02  0.00000000000E+00 0. -1.
        -14    1    4    4    0    0 -0.34100697015E+02  0.76778389605E+02  0.13305122719E+03  0.15735440161E+03  0.00000000000E+00 0.  1.
        -13    1    3    3    0    0  0.20594387487E+02 -0.32791665316E+02  0.60980360131E+02  0.72235908189E+02  0.00000000000E+00 0.  1.
         13    1    3    3    0    0  0.95477562672E+01 -0.13580592178E+03  0.69541761014E+03  0.70861841674E+03  0.00000000000E+00 0. -1.
          2    1    1    2  501    0 -0.30878788389E+02  0.77453921534E+02  0.95633895918E+02  0.12687967364E+03  0.00000000000E+00 0. -1.
<scales pt_clust_5="13000.00000" pt_clust_6="13000.00000" pt_clust_7="13000.00000" pt_clust_8="13000.00000" pt_clust_9="83.38231"></scales>
<clustering>
<clus scale="   80.903">  5  6 -1 -1</clus>
<clus scale="   83.382">  2  9  1 -1</clus>
<clus scale="   90.895">  7  8 -1 -1</clus>
<clus scale="  159.342">  2  5  1 -1</clus>
<clus scale="   83.382">  2  5  1 -1</clus>
</clustering>
</event>
<event>
 9    1  0.4664604E-005  0.1613078E+03  0.7546771E-02  0.1218647E+00
          3   -1    0    0  502    0 -0.00000000000E+00  0.00000000000E+00  0.32943685701E+03  0.32943685701E+03  0.00000000000E+00 0. -1.
         21   -1    0    0  501  502  0.00000000000E+00 -0.00000000000E+00 -0.15870501178E+03  0.15870501178E+03  0.00000000000E+00 0. -1.
        -24    2    1    2    0    0 -0.18064548523E+02 -0.27847153842E+02 -0.36359321219E+02  0.89511721198E+02  0.74756645871E+02 0.  0.
         23    2    1    2    0    0 -0.37184202855E+02 -0.10095131566E+03  0.21626375379E+03  0.25818226888E+03  0.91182452732E+02 0.  0.
         13    1    3    3    0    0 -0.40697207405E+02 -0.15600466684E+02 -0.44727716406E+02  0.62451628211E+02  0.00000000000E+00 0. -1.
        -14    1    3    3    0    0  0.22632658882E+02 -0.12246687158E+02  0.83683951875E+01  0.27060092986E+02  0.00000000000E+00 0.  1.
        -13    1    4    4    0    0 -0.62072411880E+02 -0.40095047748E+02  0.96329880630E+02  0.12140857907E+03  0.00000000000E+00 0.  1.
         13    1    4    4    0    0  0.24888209024E+02 -0.60856267914E+02  0.11993387316E+03  0.13677368981E+03  0.00000000000E+00 0. -1.
          4    1    1    2  501    0  0.55248751378E+02  0.12879846950E+03 -0.91725873399E+01  0.14044787871E+03  0.00000000000E+00 0. -1.
<scales pt_clust_5="13000.00000" pt_clust_6="13000.00000" pt_clust_7="13000.00000" pt_clust_8="13000.00000" pt_clust_9="133.06379"></scales>
<clustering>
<clus scale="   74.757">  5  6 -1 -1</clus>
<clus scale="   81.795">  1  5  2 -1</clus>
<clus scale="   91.182">  7  8 -1 -1</clus>
<clus scale="  133.064">  2  9  1 -1</clus>
<clus scale="  133.064">  2  5  1 -1</clus>
</clustering>
</event>
<event>
 9    1  0.5233062E-005  0.1031118E+03  0.7546771E-02  0.1279961E+00
         21   -1    0    0  501  502  0.00000000000E+00  0.00000000000E+00  0.87766864703E+02  0.87766864703E+02  0.00000000000E+00 0. -1.
          1   -1    0    0  502    0 -0.00000000000E+00 -0.00000000000E+00 -0.45999046954E+03  0.45999046954E+03  0.00000000000E+00 0. -1.
        -24    2    1    2    0    0  0.49481020366E+02  0.77037117561E+01 -0.38219265877E+03  0.39382988306E+03  0.80765276100E+02 0.  0.
         23    2    1    2    0    0 -0.94875058025E-01 -0.93709025100E+01 -0.20188393769E+02  0.96037533884E+02  0.93422769475E+02 0.  0.
         11    1    3    3    0    0  0.58055020775E+02 -0.11431990440E+02 -0.35278148632E+03  0.35770917368E+03  0.00000000000E+00 0. -1.
        -12    1    3    3    0    0 -0.85740004096E+01  0.19135702196E+02 -0.29411172451E+02  0.36120709385E+02  0.00000000000E+00 0.  1.
        -11    1    4    4    0    0 -0.41140028547E+02  0.14290453644E+02 -0.21654945938E+02  0.48638006721E+02  0.00000000000E+00 0.  1.
         11    1    4    4    0    0  0.41045153489E+02 -0.23661356154E+02  0.14665521692E+01  0.47399527163E+02  0.00000000000E+00 0. -1.
          2    1    1    2  501    0 -0.49386145308E+02  0.16671907539E+01  0.30157447699E+02  0.57889917301E+02  0.00000000000E+00 0. -1.
<scales pt_clust_5="13000.00000" pt_clust_6="13000.00000" pt_clust_7="13000.00000" pt_clust_8="13000.00000" pt_clust_9="49.41428"></scales>
<clustering>
<clus scale="   49.414">  1  9  2 -1</clus>
<clus scale="   80.765">  5  6 -1 -1</clus>
<clus scale="   91.800">  2  5  1 -1</clus>
<clus scale="   93.423">  7  8 -1 -1</clus>
<clus scale="   49.414">  1  5  2 -1</clus>
</clustering>
</event>
<event>
 9    1  0.4664604E-005  0.1128004E+03  0.7546771E-02  0.1259508E+00
         21   -1    0    0  501  502  0.00000000000E+00  0.00000000000E+00  0.42201312360E+02  0.42201312360E+02  0.00000000000E+00 0.  1.
          1   -1    0    0  502    0 -0.00000000000E+00 -0.00000000000E+00 -0.39260493192E+03  0.39260493192E+03  0.00000000000E+00 0. -1.
         23    2    1    2    0    0 -0.61851679879E+02 -0.41942783794E+02 -0.19136274003E+03  0.22458575699E+03  0.90742694225E+02 0.  0.
        -24    2    1    2    0    0  0.42033689517E+02  0.36922719812E+02 -0.72860230148E+02  0.12164815463E+03  0.79746737210E+02 0.  0.
         11    1    4    4    0    0  0.35044715576E+02 -0.79974551952E+01 -0.66703743787E+02  0.75772559773E+02  0.00000000000E+00 0. -1.
        -12    1    4    4    0    0  0.69889739411E+01  0.44920175007E+02 -0.61564863616E+01  0.45875594860E+02  0.00000000000E+00 0.  1.
        -11    1    3    3    0    0 -0.32418742795E+02 -0.40548096666E+02 -0.28787809221E+02  0.59362117444E+02  0.00000000000E+00 0.  1.
         11    1    3    3    0    0 -0.29432937084E+02 -0.13946871276E+01 -0.16257493081E+03  0.16522363955E+03  0.00000000000E+00 0. -1.
          2    1    1    2  501    0  0.19817990362E+02  0.50200639817E+01 -0.86180649384E+02  0.88572332659E+02  0.00000000000E+00 0. -1.
<scales pt_clust_5="13000.00000" pt_clust_6="13000.00000" pt_clust_7="13000.00000" pt_clust_8="13000.00000" pt_clust_9="20.44393"></scales>
<clustering>
<clus scale="   20.444">  1  9  2 -1</clus>
<clus scale="   79.747">  5  6 -1 -1</clus>
<clus scale="   90.743">  7  8 -1 -1</clus>
<clus scale="  104.160">  1  5  2 -1</clus>
<clus scale="   20.444">  1  5  2 -1</clus>
</clustering>
</event>
<event>
 9    1  0.4664604E-005  0.1027429E+03  0.7546771E-02  0.1278499E+00
          1   -1    0    0  502    0 -0.00000000000E+00  0.00000000000E+00  0.10863737147E+03  0.10863737147E+03  0.00000000000E+00 0. -1.
         21   -1    0    0  501  502  0.00000000000E+00 -0.00000000000E+00 -0.14671276563E+03  0.14671276563E+03  0.00000000000E+00 0.  1.
         23    2    1    2    0    0  0.50864640020E+02  0.43250515458E+02  0.38121752043E+02  0.11488647910E+03  0.85368708610E+02 0.  0.
        -24    2    1    2    0    0 -0.30089361325E+02 -0.27059883657E+02 -0.38882398326E+02  0.94789385451E+02  0.76390966261E+02 0.  0.
         13    1    4    4    0    0 -0.35522101294E+02 -0.49140507062E+02 -0.16403062103E+02  0.62814564879E+02  0.00000000000E+00 0. -1.
        -14    1    4    4    0    0  0.54327399688E+01  0.22080623406E+02 -0.22479336223E+02  0.31974820572E+02  0.00000000000E+00 0.  1.
        -11    1    3    3    0    0  0.56530832381E+02 -0.16865761966E+01  0.40451844754E+02  0.69533670211E+02  0.00000000000E+00 0.  1.
         11    1    3    3    0    0 -0.56661923607E+01  0.44937091655E+02 -0.23300927116E+01  0.45352808891E+02  0.00000000000E+00 0. -1.
          2    1    1    2  501    0 -0.20775278695E+02 -0.16190631802E+02 -0.37314747881E+02  0.45674272544E+02  0.00000000000E+00 0. -1.
<scales pt_clust_5="13000.00000" pt_clust_6="13000.00000" pt_clust_7="13000.00000" pt_clust_8="13000.00000" pt_clust_9="26.33911"></scales>
<clustering>
<clus scale="   26.339">  2  9  1 -1</clus>
<clus scale="   76.391">  5  6 -1 -1</clus>
<clus scale="   85.369">  7  8 -1 -1</clus>
<clus scale="   95.414">  2  5  1 -1</clus>
<clus scale="   26.339">  2  5  1 -1</clus>
</clustering>
</event>
<event>
 9    1  0.4664604E-005  0.2343557E+03  0.7546771E-02  0.1123795E+00
         21   -1    0    0  501  502  0.00000000000E+00  0.00000000000E+00  0.84634928665E+02  0.84634928665E+02  0.00000000000E+00 0. -1.
          1   -1    0    0  502    0 -0.00000000000E+00 -0.00000000000E+00 -0.11222486467E+04  0.11222486467E+04  0.00000000000E+00 0. -1.
         23    2    1    2    0    0 -0.23015452676E+03 -0.48050724828E+02 -0.80354233110E+03  0.84095837428E+03  0.79061565045E+02 0.  0.
        -24    2    1    2    0    0  0.16917968135E+03  0.23684023013E+02 -0.94788304994E+02  0.21193999125E+03  0.82164710192E+02 0.  0.
         11    1    4    4    0    0  0.14388983238E+03  0.48884875621E+02 -0.64375259441E+02  0.16503996169E+03  0.00000000000E+00 0. -1.
        -12    1    4    4    0    0  0.25289848969E+02 -0.25200852608E+02 -0.30413045553E+02  0.46900029562E+02  0.00000000000E+00 0.  1.
        -13    1    3    3    0    0 -0.80852524014E+02 -0.41826337207E+02 -0.41040168655E+03  0.42037616184E+03  0.00000000000E+00 0.  1.
         13    1    3    3    0    0 -0.14930200275E+03 -0.62243876207E+01 -0.39314064455E+03  0.42058221244E+03  0.00000000000E+00 0. -1.
          2    1    1    2  501    0  0.60974845414E+02  0.24366701815E+02 -0.13928308196E+03  0.15398520984E+03  0.00000000000E+00 0. -1.
<scales pt_clust_5="13000.00000" pt_clust_6="13000.00000" pt_clust_7="13000.00000" pt_clust_8="13000.00000" pt_clust_9="65.66332"></scales>
<clustering>
<clus scale="   65.663">  1  9  2 -1</clus>
<clus scale="   79.062">  7  8 -1 -1</clus>
<clus scale="   82.165">  5  6 -1 -1</clus>
<clus scale="  233.286">  2  7  1 -1</clus>
<clus scale="   65.663">  1  5  2 -1</clus>
</clustering>
</event>
<event>
 9    1  0.4664604E-005  0.1211543E+03  0.7546771E-02  0.1243142E+00
         21   -1    0    0  501  502  0.00000000000E+00  0.00000000000E+00  0.37573432283E+02  0.37573432283E+02  0.00000000000E+00 0. -1.
          1   -1    0    0  502    0 -0.00000000000E+00 -0.00000000000E+00 -0.52478977779E+03  0.52478977779E+03  0.00000000000E+00 0. -1.
         23    2    1    2    0    0  0.66461387302E+02 -0.68229875490E+02 -0.30101285337E+03  0.32887606026E+03  0.92077647703E+02 0.  0.
        -24    2    1    2    0    0 -0.41617824369E+02  0.40536102008E+02 -0.13668429728E+03  0.17154929089E+03  0.85856526892E+02 0.  0.
         13    1    4    4    0    0 -0.47977666364E+02 -0.59281992186E+01 -0.10308654821E+03  0.11385884435E+03  0.00000000000E+00 0. -1.
        -14    1    4    4    0    0  0.63598419956E+01  0.46464301227E+02 -0.33597749069E+02  0.57690446534E+02  0.00000000000E+00 0.  1.
        -11    1    3    3    0    0  0.15901400771E+02  0.22320777596E+02 -0.83948487330E+02  0.88308664263E+02  0.00000000000E+00 0.  1.
         11    1    3    3    0    0  0.50559986531E+02 -0.90550653086E+02 -0.21706436604E+03  0.24056739599E+03  0.00000000000E+00 0. -1.
          2    1    1    2  501    0 -0.24843562933E+02  0.27693773482E+02 -0.49519194858E+02  0.61937858925E+02  0.00000000000E+00 0. -1.
<scales pt_clust_5="13000.00000" pt_clust_6="13000.00000" pt_clust_7="13000.00000" pt_clust_8="13000.00000" pt_clust_9="37.20414"></scales>
<clustering>
<clus scale="   37.204">  1  9  2 -1</clus>
<clus scale="   85.857">  5  6 -1 -1</clus>
<clus scale="   92.078">  7  8 -1 -1</clus>
<clus scale="  116.496">  1  5  2 -1</clus>
<clus scale="   37.204">  1  5  2 -1</clus>
</clustering>
</event>
<event>
 9    1  0.4664604E-005  0.1945884E+03  0.7546771E-02  0.1156225E+00
         21   -1    0    0  501  502  0.00000000000E+00  0.00000000000E+00  0.25831836822E+03  0.25831836822E+03  0.00000000000E+00 0. -1.
          3   -1    0    0  502    0 -0.00000000000E+00 -0.00000000000E+00 -0.33264664112E+03  0.33264664112E+03  0.00000000000E+00 0. -1.
        -24    2    1    2    0    0 -0.11342985049E+03 -0.19268432559E+03 -0.10089055705E+03  0.25769436036E+03  0.78955041326E+02 0.  0.
         23    2    1    2    0    0 -0.39191478274E+02  0.13089250718E+03  0.88069160060E+01  0.16766040801E+03  0.96765852649E+02 0.  0.
         11    1    3    3    0    0 -0.11632074141E+03 -0.15511414465E+03 -0.62030243487E+02  0.20356488857E+03  0.00000000000E+00 0. -1.
        -12    1    3    3    0    0  0.28908909221E+01 -0.37570180948E+02 -0.38860313558E+02  0.54129471793E+02  0.00000000000E+00 0.  1.
        -11    1    4    4    0    0  0.24391958847E+02  0.86460952819E+02  0.61341851439E+01  0.90044945700E+02  0.00000000000E+00 0. -1.
         11    1    4    4    0    0 -0.63583437121E+02  0.44431554359E+02  0.26727308621E+01  0.77615462307E+02  0.00000000000E+00 0.  1.
          4    1    1    2  501    0  0.15262132876E+03  0.61791818415E+02  0.17755368140E+02  0.16561024097E+03  0.00000000000E+00 0. -1.
<scales pt_clust_5="13000.00000" pt_clust_6="13000.00000" pt_clust_7="13000.00000" pt_clust_8="13000.00000" pt_clust_9="164.65570"></scales>
<clustering>
<clus scale="   78.955">  5  6 -1 -1</clus>
<clus scale="   96.766">  7  8 -1 -1</clus>
<clus scale="  164.656">  1  9  2 -1</clus>
<clus scale="  186.373">  2  5  1 -1</clus>
<clus scale="  164.656">  1  5  2 -1</clus>
</clustering>
</event>
<event>
 9    1  0.4664604E-005  0.1774187E+03  0.7546771E-02  0.1171854E+00
         21   -1    0    0  501  502  0.00000000000E+00  0.00000000000E+00  0.75400042525E+03  0.75400042525E+03  0.00000000000E+00 0.  1.
          3   -1    0    0  502    0 -0.00000000000E+00 -0.00000000000E+00 -0.63875740479E+02  0.63875740479E+02  0.00000000000E+00 0. -1.
        -24    2    1    2    0    0  0.10462270962E+03  0.14891426890E+03  0.21461499186E+03  0.29252560222E+03  0.79939116663E+02 0.  0.
         23    2    1    2    0    0 -0.83194504860E+02 -0.74512128473E+02  0.33351035063E+03  0.36361417407E+03  0.92264460569E+02 0.  0.
         11    1    3    3    0    0  0.48848407993E+02  0.29937141217E+02  0.26655830331E+02  0.63189656419E+02  0.00000000000E+00 0. -1.
        -12    1    3    3    0    0  0.55774301628E+02  0.11897712768E+03  0.18795916153E+03  0.22933594580E+03  0.00000000000E+00 0.  1.
        -11    1    4    4    0    0 -0.31723603755E+02 -0.84681636328E+02  0.18101471595E+03  0.20234548168E+03  0.00000000000E+00 0. -1.
         11    1    4    4    0    0 -0.51470901105E+02  0.10169507855E+02  0.15249563468E+03  0.16126869240E+03  0.00000000000E+00 0.  1.
          4    1    1    2  501    0 -0.21428204761E+02 -0.74402140424E+02  0.14199934228E+03  0.16173638944E+03  0.00000000000E+00 0. -1.
<scales pt_clust_5="13000.00000" pt_clust_6="13000.00000" pt_clust_7="13000.00000" pt_clust_8="13000.00000" pt_clust_9="77.42639"></scales>
<clustering>
<clus scale="   77.426">  1  9  2 -1</clus>
<clus scale="   79.939">  5  6 -1 -1</clus>
<clus scale="   92.264">  7  8 -1 -1</clus>
<clus scale="  171.333">  2  5  1 -1</clus>
<clus scale="   77.426">  1  5  2 -1</clus>
</clustering>
</event>
<event>
 9    1  0.4664604E-005  0.1024615E+03  0.7546771E-02  0.1279105E+00
         21   -1    0    0  501  502  0.00000000000E+00  0.00000000000E+00  0.42292861789E+02  0.42292861789E+02  0.00000000000E+00 0. -1.
          1   -1    0    0  502    0 -0.00000000000E+00 -0.00000000000E+00 -0.42894340903E+03  0.42894340903E+03  0.00000000000E+00 0. -1.
        -24    2    1    2    0    0  0.57261768365E+01 -0.59063182155E+02 -0.27030130078E+03  0.28844074026E+03  0.81326618357E+02 0.  0.
         23    2    1    2    0    0 -0.25800436148E+02  0.23564870408E+02 -0.99914565172E+02  0.13882730598E+03  0.89828363718E+02 0.  0.
         11    1    3    3    0    0  0.11422092449E+02 -0.78364919459E+02 -0.23248586457E+03  0.24560375002E+03  0.00000000000E+00 0. -1.
        -12    1    3    3    0    0 -0.56959156127E+01  0.19301737305E+02 -0.37815436209E+02  0.42836990246E+02  0.00000000000E+00 0.  1.
        -13    1    4    4    0    0  0.15525619333E+02 -0.20460797926E+02 -0.47463036432E+01  0.26119274601E+02  0.00000000000E+00 0. -1.
         13    1    4    4    0    0 -0.41326055481E+02  0.44025668335E+02 -0.95168261529E+02  0.11270803137E+03  0.00000000000E+00 0.  1.
          2    1    1    2  501    0  0.20074259312E+02  0.35498311746E+02 -0.16434681294E+02  0.43968224583E+02  0.00000000000E+00 0. -1.
<scales pt_clust_5="13000.00000" pt_clust_6="13000.00000" pt_clust_7="13000.00000" pt_clust_8="13000.00000" pt_clust_9="40.78120"></scales>
<clustering>
<clus scale="   40.781">  1  9  2 -1</clus>
<clus scale="   81.327">  5  6 -1 -1</clus>
<clus scale="   89.828">  7  8 -1 -1</clus>
<clus scale="   95.096">  2  5  1 -1</clus>
<clus scale="   40.781">  1  5  2 -1</clus>
</clustering>
</event>
<event>
 9    1  0.4664604E-005  0.1049197E+03  0.7546771E-02  0.1273995E+00
         21   -1    0    0  501  502  0.00000000000E+00  0.00000000000E+00  0.62167357286E+02  0.62167357286E+02  0.00000000000E+00 0.  1.
          1   -1    0    0  502    0 -0.00000000000E+00 -0.00000000000E+00 -0.27489455020E+03  0.27489455020E+03  0.00000000000E+00 0. -1.
         23    2    1    2    0    0 -0.20514903719E+02 -0.43073031051E+02 -0.14464344683E+03  0.17750732085E+03  0.91164548834E+02 0.  0.
        -24    2    1    2    0    0 -0.29319244509E+01  0.62866589271E+02 -0.74913991917E+02  0.12811908192E+03  0.82713896901E+02 0.  0.
         11    1    4    4    0    0  0.29015200095E+02  0.17953111898E+02  0.12039240087E+01  0.34141550879E+02  0.00000000000E+00 0. -1.
        -12    1    4    4    0    0 -0.31947124546E+02  0.44913477373E+02 -0.76117915926E+02  0.93977531045E+02  0.00000000000E+00 0.  1.
        -11    1    3    3    0    0 -0.30466999222E+02 -0.64451875987E+02 -0.13368083547E+03  0.15150197402E+03  0.00000000000E+00 0. -1.
         11    1    3    3    0    0  0.99520955032E+01  0.21378844936E+02 -0.10962611361E+02  0.26005346827E+02  0.00000000000E+00 0.  1.
          2    1    1    2  501    0  0.23446828170E+02 -0.19793558220E+02  0.68302458392E+01  0.31435504712E+02  0.00000000000E+00 0. -1.
<scales pt_clust_5="13000.00000" pt_clust_6="13000.00000" pt_clust_7="13000.00000" pt_clust_8="13000.00000" pt_clust_9="30.68450"></scales>
<clustering>
<clus scale="   30.685">  1  9  2 -1</clus>
<clus scale="   82.714">  5  6 -1 -1</clus>
<clus scale="   91.165">  7  8 -1 -1</clus>
<clus scale="   97.667">  1  5  2 -1</clus>
<clus scale="   30.685">  1  5  2 -1</clus>
</clustering>
</event>
<event>
 9    1  0.4664604E-005  0.1236835E+03  0.7546771E-02  0.1239822E+00
         21   -1    0    0  501  502  0.00000000000E+00  0.00000000000E+00  0.20421502625E+03  0.20421502625E+03  0.00000000000E+00 0. -1.
          1   -1    0    0  502    0 -0.00000000000E+00 -0.00000000000E+00 -0.15353321321E+03  0.15353321321E+03  0.00000000000E+00 0. -1.
        -24    2    1    2    0    0 -0.64987938209E+02 -0.38123324103E+02 -0.59859464895E+02  0.12553961427E+03  0.80623937270E+02 0.  0.
         23    2    1    2    0    0  0.86730928441E+02  0.84008604122E+02  0.64890723382E+02  0.16392839615E+03  0.89900019855E+02 0.  0.
         13    1    3    3    0    0 -0.28982711403E+01  0.21398296931E+02 -0.24188385480E+02  0.32424760281E+02  0.00000000000E+00 0. -1.
        -14    1    3    3    0    0 -0.62089667069E+02 -0.59521621034E+02 -0.35671079415E+02  0.93114853991E+02  0.00000000000E+00 0.  1.
        -11    1    4    4    0    0  0.79217078851E+02  0.40836803424E+02  0.77737935114E+02  0.11826316693E+03  0.00000000000E+00 0.  1.
         11    1    4    4    0    0  0.75138495903E+01  0.43171800698E+02 -0.12847211733E+02  0.45665229228E+02  0.00000000000E+00 0. -1.
          2    1    1    2  501    0 -0.21742990232E+02 -0.45885280019E+02  0.45650554552E+02  0.68280229039E+02  0.00000000000E+00 0. -1.
<scales pt_clust_5="13000.00000" pt_clust_6="13000.00000" pt_clust_7="13000.00000" pt_clust_8="13000.00000" pt_clust_9="50.77614"></scales>
<clustering>
<clus scale="   50.776">  1  9  2 -1</clus>
<clus scale="   80.624">  5  6 -1 -1</clus>
<clus scale="   89.900">  7  8 -1 -1</clus>
<clus scale="  117.115">  2  5  1 -1</clus>
<clus scale="   50.776">  1  5  2 -1</clus>
</clustering>
</event>
<event>
 9    1  0.4664604E-005  0.1102872E+03  0.7546771E-02  0.1263085E+00
          3   -1    0    0  502    0 -0.00000000000E+00  0.00000000000E+00  0.35603757451E+03  0.35603757451E+03  0.00000000000E+00 0. -1.
         21   -1    0    0  501  502  0.00000000000E+00 -0.00000000000E+00 -0.54763168553E+02  0.54763168553E+02  0.00000000000E+00 0.  1.
        -24    2    1    2    0    0  0.43020229736E+02 -0.22398277453E+02  0.73850205066E+02  0.12072059904E+03  0.82262915367E+02 0.  0.
         23    2    1    2    0    0 -0.83789229044E+02  0.40473127497E+01  0.11272146339E+03  0.16697211342E+03  0.90202786573E+02 0.  0.
         13    1    3    3    0    0 -0.78469889508E+01 -0.32947651865E+02  0.56640713428E+02  0.65994646879E+02  0.00000000000E+00 0. -1.
        -14    1    3    3    0    0  0.50867218687E+02  0.10549374412E+02  0.17209491638E+02  0.54725952160E+02  0.00000000000E+00 0.  1.
        -11    1    4    4    0    0 -0.78746651797E+02 -0.29518408269E+02  0.56551383369E+02  0.10134313276E+03  0.00000000000E+00 0.  1.
         11    1    4    4    0    0 -0.50425772472E+01  0.33565721019E+02  0.56170080023E+02  0.65628980661E+02  0.00000000000E+00 0. -1.
          4    1    1    2  501    0  0.40768999308E+02  0.18350964703E+02  0.11470273750E+03  0.12310803061E+03  0.00000000000E+00 0. -1.
<scales pt_clust_5="13000.00000" pt_clust_6="13000.00000" pt_clust_7="13000.00000" pt_clust_8="13000.00000" pt_clust_9="44.70874"></scales>
<clustering>
<clus scale="   44.709">  2  9  1 -1</clus>
<clus scale="   82.263">  5  6 -1 -1</clus>
<clus scale="   90.203">  7  8 -1 -1</clus>
<clus scale="  103.894">  1  5  2 -1</clus>
<clus scale="   44.709">  2  5  1 -1</clus>
</clustering>
</event>
<event>
 9    1  0.4664604E-005  0.1208395E+03  0.7546771E-02  0.1244704E+00
         21   -1    0    0  501  502  0.00000000000E+00  0.00000000000E+00  0.11772742694E+03  0.11772742694E+03  0.00000000000E+00 0. -1.
         -2   -1    0    0    0  501 -0.00000000000E+00 -0.00000000000E+00 -0.39317029687E+03  0.39317029687E+03  0.00000000000E+00 0.  1.
         23    2    1    2    0    0  0.80577307840E+02  0.16999850692E+02 -0.34135512889E+03  0.36258152835E+03  0.90334618039E+02 0.  0.
        -24    2    1    2    0    0 -0.61826960820E+02 -0.26162120598E+02  0.34201331109E+02  0.11035429813E+03  0.80630704007E+02 0.  0.
         13    1    4    4    0    0 -0.79999003671E+02 -0.14321691875E+02  0.17891149832E+02  0.83216853394E+02  0.00000000000E+00 0. -1.
        -14    1    4    4    0    0  0.18172042851E+02 -0.11840428724E+02  0.16310181277E+02  0.27137444740E+02  0.00000000000E+00 0.  1.
        -11    1    3    3    0    0  0.72694612955E+02  0.49594530469E+02 -0.22891395542E+03  0.24524625011E+03  0.00000000000E+00 0.  1.
         11    1    3    3    0    0  0.78826948854E+01 -0.32594679777E+02 -0.11244117347E+03  0.11733527824E+03  0.00000000000E+00 0. -1.
         -1    1    1    2    0  502 -0.18750347020E+02  0.91622699063E+01  0.31710927859E+02  0.37961897330E+02  0.00000000000E+00 0.  1.
<scales pt_clust_5="13000.00000" pt_clust_6="13000.00000" pt_clust_7="13000.00000" pt_clust_8="13000.00000" pt_clust_9="20.86918"></scales>
<clustering>
<clus scale="   20.869">  1  9  2 -1</clus>
<clus scale="   80.631">  5  6 -1 -1</clus>
<clus scale="   90.335">  7  8 -1 -1</clus>
<clus scale="  113.768">  1  5  2 -1</clus>
<clus scale="   20.869">  1  5  2 -1</clus>
</clustering>
</event>
<event>
 9    1  0.4664604E-005  0.9905675E+02  0.7546771E-02  0.1291662E+00
          1   -1    0    0  502    0 -0.00000000000E+00  0.00000000000E+00  0.10092949348E+03  0.10092949348E+03  0.00000000000E+00 0. -1.
         21   -1    0    0  501  502  0.00000000000E+00 -0.00000000000E+00 -0.23350621325E+03  0.23350621325E+03  0.00000000000E+00 0. -1.
         23    2    1    2    0    0 -0.57693212164E+02  0.17042127651E+02  0.27888238187E+02  0.11353703872E+03  0.92162706596E+02 0.  0.
        -24    2    1    2    0    0 -0.13863181504E+02 -0.13426036810E+02 -0.61139130933E+02  0.98428208298E+02  0.74683817468E+02 0.  0.
         11    1    4    4    0    0 -0.25694178479E+02  0.25425098398E+02 -0.23956207924E+02  0.43365035851E+02  0.00000000000E+00 0. -1.
        -12    1    4    4    0    0  0.11830996975E+02 -0.38851135208E+02 -0.37182923009E+02  0.55063172447E+02  0.00000000000E+00 0.  1.
        -13    1    3    3    0    0 -0.22783865095E+02  0.25285781686E+02  0.57636987474E+02  0.66936519100E+02  0.00000000000E+00 0. -1.
         13    1    3    3    0    0 -0.34909347069E+02 -0.82436540353E+01 -0.29748749287E+02  0.46600519619E+02  0.00000000000E+00 0.  1.
          2    1    1    2  501    0  0.71556393668E+02 -0.36160908407E+01 -0.99325827025E+02  0.12247045971E+03  0.00000000000E+00 0. -1.
<scales pt_clust_5="13000.00000" pt_clust_6="13000.00000" pt_clust_7="13000.00000" pt_clust_8="13000.00000" pt_clust_9="71.64770"></scales>
<clustering>
<clus scale="   71.648">  2  9  1 -1</clus>
<clus scale="   74.684">  5  6 -1 -1</clus>
<clus scale="   83.042">  2  5  1 -1</clus>
<clus scale="   92.163">  7  8 -1 -1</clus>
<clus scale="   71.648">  2  5  1 -1</clus>
</clustering>
</event>
<event>
 9    1  0.4664604E-005  0.1027817E+03  0.7546771E-02  0.1277677E+00
         21   -1    0    0  501  502  0.00000000000E+00  0.00000000000E+00  0.73871479272E+02  0.73871479272E+02  0.00000000000E+00 0.  1.
          1   -1    0    0  502    0 -0.00000000000E+00 -0.00000000000E+00 -0.44730223378E+03  0.44730223378E+03  0.00000000000E+00 0. -1.
         23    2    1    2    0    0 -0.59800326493E+02  0.30926095359E+02 -0.34096957880E+03  0.35843137994E+03  0.87637309608E+02 0.  0.
        -24    2    1    2    0    0  0.25083608971E+02  0.13532019545E+02 -0.55415793698E+02  0.10184332702E+03  0.80553398906E+02 0.  0.
         13    1    4    4    0    0  0.24570050478E+02  0.33878197338E+02 -0.66571959466E+02  0.78633615092E+02  0.00000000000E+00 0. -1.
        -14    1    4    4    0    0  0.51355849311E+00 -0.20346177793E+02  0.11156165768E+02  0.23209711927E+02  0.00000000000E+00 0.  1.
        -11    1    3    3    0    0 -0.43665309512E+02 -0.21707170625E+02 -0.22271416355E+03  0.22799004180E+03  0.00000000000E+00 0.  1.
         11    1    3    3    0    0 -0.16135016981E+02  0.52633265985E+02 -0.11825541525E+03  0.13044133814E+03  0.00000000000E+00 0. -1.
          2    1    1    2  501    0  0.34716717522E+02 -0.44458114904E+02  0.22954617988E+02  0.60899006095E+02  0.00000000000E+00 0. -1.
<scales pt_clust_5="13000.00000" pt_clust_6="13000.00000" pt_clust_7="13000.00000" pt_clust_8="13000.00000" pt_clust_9="56.40722"></scales>
<clustering>
<clus scale="   56.407">  1  9  2 -1</clus>
<clus scale="   80.553">  5  6 -1 -1</clus>
<clus scale="   87.637">  7  8 -1 -1</clus>
<clus scale="   96.812">  1  5  2 -1</clus>
<clus scale="   56.407">  1  5  2 -1</clus>
</clustering>
</event>
<event>
 9    1  0.4664604E-005  0.1855462E+03  0.7546771E-02  0.1194080E+00
         21   -1    0    0  501  502  0.00000000000E+00  0.00000000000E+00  0.71969430605E+02  0.71969430605E+02  0.00000000000E+00 0. -1.
          1   -1    0    0  502    0 -0.00000000000E+00 -0.00000000000E+00 -0.65690958842E+03  0.65690958842E+03  0.00000000000E+00 0. -1.
        -24    2    1    2    0    0  0.63429080195E+01 -0.42757652711E+02 -0.13093678141E+03  0.15951972448E+03  0.80210051894E+02 0.  0.
         23    2    1    2    0    0 -0.20679601452E+02 -0.13119620575E+03 -0.22378368126E+03  0.28045343845E+03  0.10457009525E+03 0.  0.
         13    1    3    3    0    0 -0.22844836367E+02 -0.24189197160E+02 -0.11797610920E+03  0.12257800027E+03  0.00000000000E+00 0. -1.
        -14    1    3    3    0    0  0.29187744386E+02 -0.18568455551E+02 -0.12960672217E+02  0.36941724218E+02  0.00000000000E+00 0.  1.
        -11    1    4    4    0    0 -0.58223468166E+02 -0.67648858029E+02 -0.15856026398E+03  0.18195520754E+03  0.00000000000E+00 0.  1.
         11    1    4    4    0    0  0.37543866714E+02 -0.63547347724E+02 -0.65223417284E+02  0.98498230912E+02  0.00000000000E+00 0. -1.
          2    1    1    2  501    0  0.14336693432E+02  0.17395385846E+03 -0.23021969514E+03  0.28890585609E+03  0.00000000000E+00 0. -1.
<scales pt_clust_5="13000.00000" pt_clust_6="13000.00000" pt_clust_7="13000.00000" pt_clust_8="13000.00000" pt_clust_9="153.27264"></scales>
<clustering>
<clus scale="   80.210">  5  6 -1 -1</clus>
<clus scale="   91.116">  2  5  1 -1</clus>
<clus scale="  104.570">  7  8 -1 -1</clus>
<clus scale="  153.273">  1  9  2 -1</clus>
<clus scale="  153.273">  1  5  2 -1</clus>
</clustering>
</event>
<event>
 9    1  0.4664604E-005  0.8955856E+02  0.7546771E-02  0.1308890E+00
         21   -1    0    0  501  502  0.00000000000E+00  0.00000000000E+00  0.41751768966E+03  0.41751768966E+03  0.00000000000E+00 0.  1.
         -2   -1    0    0    0  501 -0.00000000000E+00 -0.00000000000E+00 -0.35768373303E+03  0.35768373303E+03  0.00000000000E+00 0.  1.
         23    2    1    2    0    0 -0.49779832522E+01 -0.16308094675E+02 -0.34093327023E+03  0.35246124537E+03  0.87765029887E+02 0.  0.
        -24    2    1    2    0    0  0.20489833662E+02  0.47134546479E+02  0.23570012079E+03  0.25410436517E+03  0.79830963305E+02 0.  0.
         11    1    4    4    0    0 -0.13658493366E+02 -0.17060063361E+02  0.64543256100E+02  0.68142733368E+02  0.00000000000E+00 0. -1.
        -12    1    4    4    0    0  0.34148327028E+02  0.64194609841E+02  0.17115686469E+03  0.18596163180E+03  0.00000000000E+00 0.  1.
        -11    1    3    3    0    0  0.25603257897E+02  0.26307003508E+02 -0.15334236091E+03  0.15767518796E+03  0.00000000000E+00 0. -1.
         11    1    3    3    0    0 -0.30581241150E+02 -0.42615098183E+02 -0.18759090932E+03  0.19478605741E+03  0.00000000000E+00 0.  1.
         -1    1    1    2    0  502 -0.15511850410E+02 -0.30826451804E+02  0.16506710606E+03  0.16863581215E+03  0.00000000000E+00 0.  1.
<scales pt_clust_5="13000.00000" pt_clust_6="13000.00000" pt_clust_7="13000.00000" pt_clust_8="13000.00000" pt_clust_9="34.50924"></scales>
<clustering>
<clus scale="   34.509">  1  9  2 -1</clus>
<clus scale="   79.831">  5  6 -1 -1</clus>
<clus scale="   81.799">  1  5  2 -1</clus>
<clus scale="   87.765">  7  8 -1 -1</clus>
<clus scale="   34.509">  1  5  2 -1</clus>
</clustering>
</event>
<event>
 9    1  0.4664604E-005  0.1434174E+03  0.7546771E-02  0.1209686E+00
          1   -1    0    0  502    0 -0.00000000000E+00  0.00000000000E+00  0.11034261352E+03  0.11034261352E+03  0.00000000000E+00 0. -1.
         21   -1    0    0  501  502  0.00000000000E+00 -0.00000000000E+00 -0.56489683420E+03  0.56489683420E+03  0.00000000000E+00 0. -1.
         23    2    1    2    0    0  0.97867661655E+02  0.63741884599E+02  0.41573511187E+02  0.14510291272E+03  0.75401534450E+02 0.  0.
        -24    2    1    2    0    0 -0.10941696329E+03 -0.83974445036E+02 -0.46221673352E+03  0.48899411555E+03  0.80294190449E+02 0.  0.
         11    1    4    4    0    0 -0.85050472965E+02 -0.15879039940E+02 -0.22794955194E+03  0.24381699098E+03  0.00000000000E+00 0. -1.
        -12    1    4    4    0    0 -0.24366490326E+02 -0.68095405095E+02 -0.23426718158E+03  0.24517712456E+03  0.00000000000E+00 0.  1.
        -13    1    3    3    0    0  0.78478129408E+02  0.45152671098E+02 -0.57121521302E+01  0.90720500355E+02  0.00000000000E+00 0. -1.
         13    1    3    3    0    0  0.19389532247E+02  0.18589213501E+02  0.47285663317E+02  0.54382412365E+02  0.00000000000E+00 0.  1.
          2    1    1    2  501    0  0.11549301636E+02  0.20232560436E+02 -0.33910998345E+02  0.41142419458E+02  0.00000000000E+00 0. -1.
<scales pt_clust_5="13000.00000" pt_clust_6="13000.00000" pt_clust_7="13000.00000" pt_clust_8="13000.00000" pt_clust_9="23.29684"></scales>
<clustering>
<clus scale="   23.297">  2  9  1 -1</clus>
<clus scale="   75.402">  7  8 -1 -1</clus>
<clus scale="   80.294">  5  6 -1 -1</clus>
<clus scale="  140.737">  1  7  2 -1</clus>
<clus scale="   23.297">  2  5  1 -1</clus>
</clustering>
</event>
<event>
 9    1  0.4664604E-005  0.2205280E+03  0.7546771E-02  0.1161578E+00
          1   -1    0    0  502    0 -0.00000000000E+00  0.00000000000E+00  0.72151600869E+03  0.72151600869E+03  0.00000000000E+00 0. -1.
         21   -1    0    0  501  502  0.00000000000E+00 -0.00000000000E+00 -0.10351082285E+03  0.10351082285E+03  0.00000000000E+00 0. -1.
         23    2    1    2    0    0 -0.11255235515E+02 -0.64846172275E+02  0.14209990255E+03  0.18155908129E+03  0.91867357145E+02 0.  0.
        -24    2    1    2    0    0  0.20565535882E+03  0.87748632365E+02  0.23288098330E+03  0.33141528511E+03  0.74890518267E+02 0.  0.
         13    1    4    4    0    0  0.16076047722E+03  0.99444796242E+02  0.17931340658E+03  0.26055037193E+03  0.00000000000E+00 0. -1.
        -14    1    4    4    0    0  0.44894881603E+02 -0.11696163877E+02  0.53567576719E+02  0.70864913173E+02  0.00000000000E+00 0.  1.
        -11    1    3    3    0    0  0.62771779272E+01 -0.27479862874E+02  0.13711703611E+03  0.13998438276E+03  0.00000000000E+00 0. -1.
         11    1    3    3    0    0 -0.17532413442E+02 -0.37366309400E+02  0.49828664362E+01  0.41574698522E+02  0.00000000000E+00 0.  1.
          2    1    1    2  501    0 -0.19440012331E+03 -0.22902460090E+02  0.24302429999E+03  0.31205246515E+03  0.00000000000E+00 0. -1.
<scales pt_clust_5="13000.00000" pt_clust_6="13000.00000" pt_clust_7="13000.00000" pt_clust_8="13000.00000" pt_clust_9="207.42237"></scales>
<clustering>
<clus scale="   74.891">  5  6 -1 -1</clus>
<clus scale="   91.867">  7  8 -1 -1</clus>
<clus scale="  113.010">  1  7  2 -1</clus>
<clus scale="  207.422">  2  9  1 -1</clus>
<clus scale="  207.422">  2  5  1 -1</clus>
</clustering>
</event>
<event>
 9    1  0.4664604E-005  0.1437427E+03  0.7546771E-02  0.1228286E+00
          1   -1    0    0  502    0 -0.00000000000E+00  0.00000000000E+00  0.34900969044E+03  0.34900969044E+03  0.00000000000E+00 0. -1.
         21   -1    0    0  501  502  0.00000000000E+00 -0.00000000000E+00 -0.16763074865E+03  0.16763074865E+03  0.00000000000E+00 0. -1.
        -24    2    1    2    0    0 -0.21119822220E+01 -0.48697181136E+02 -0.62127866037E+02  0.11311463042E+03  0.80988714998E+02 0.  0.
         23    2    1    2    0    0  0.11300722450E+03  0.43653682016E+02  0.24999644720E+03  0.29232640641E+03  0.90995755553E+02 0.  0.
         13    1    3    3    0    0  0.35920173476E+02 -0.38408433246E+02 -0.48173219059E+02  0.71317078189E+02  0.00000000000E+00 0. -1.
        -14    1    3    3    0    0 -0.38032155698E+02 -0.10288747890E+02 -0.13954646979E+02  0.41797552230E+02  0.00000000000E+00 0.  1.
        -11    1    4    4    0    0  0.71247299477E+02 -0.19858037973E+02  0.10253903653E+03  0.12643090353E+03  0.00000000000E+00 0.  1.
         11    1    4    4    0    0  0.41759925023E+02  0.63511719989E+02  0.14745741067E+03  0.16589550288E+03  0.00000000000E+00 0. -1.
          2    1    1    2  501    0 -0.11089524228E+03  0.50434991198E+01 -0.64896393761E+01  0.11119940226E+03  0.00000000000E+00 0. -1.
<scales pt_clust_5="13000.00000" pt_clust_6="13000.00000" pt_clust_7="13000.00000" pt_clust_8="13000.00000" pt_clust_9="111.27320"></scales>
<clustering>
<clus scale="   80.989">  5  6 -1 -1</clus>
<clus scale="   90.996">  7  8 -1 -1</clus>
<clus scale="   94.525">  1  5  2 -1</clus>
<clus scale="  111.273">  2  9  1 -1</clus>
<clus scale="  111.273">  2  5  1 -1</clus>
</clustering>
</event>
<event>
 9    1  0.4664604E-005  0.1919925E+03  0.7546771E-02  0.1158593E+00
         21   -1    0    0  501  502  0.00000000000E+00  0.00000000000E+00  0.81320124590E+02  0.81320124590E+02  0.00000000000E+00 0.  1.
         -2   -1    0    0    0  501 -0.00000000000E+00 -0.00000000000E+00 -0.67908774180E+03  0.67908774180E+03  0.00000000000E+00 0.  1.
        -24    2    1    2    0    0  0.59916675531E+02  0.18667155908E+03 -0.35908761198E+03  0.41548383893E+03  0.72433613441E+02 0.  0.
         23    2    1    2    0    0  0.68136028121E+01 -0.14009351767E+03 -0.16423073908E+03  0.23462834659E+03  0.91684821479E+02 0.  0.
         13    1    3    3    0    0  0.10377036958E+02  0.75912312265E+02 -0.78044188867E+02  0.10936753387E+03  0.00000000000E+00 0. -1.
        -14    1    3    3    0    0  0.49539638573E+02  0.11075924681E+03 -0.28104342311E+03  0.30611630505E+03  0.00000000000E+00 0.  1.
        -11    1    4    4    0    0  0.32726430614E+02 -0.92764032957E+01 -0.28962169401E+02  0.44675252381E+02  0.00000000000E+00 0. -1.
         11    1    4    4    0    0 -0.25912827802E+02 -0.13081711437E+03 -0.13526856967E+03  0.18995309421E+03  0.00000000000E+00 0.  1.
         -1    1    1    2    0  502 -0.66730278343E+02 -0.46578041410E+02 -0.74449266151E+02  0.11029568088E+03  0.00000000000E+00 0.  1.
<scales pt_clust_5="13000.00000" pt_clust_6="13000.00000" pt_clust_7="13000.00000" pt_clust_8="13000.00000" pt_clust_9="81.37840"></scales>
<clustering>
<clus scale="   72.434">  5  6 -1 -1</clus>
<clus scale="   81.378">  1  9  2 -1</clus>
<clus scale="   91.685">  7  8 -1 -1</clus>
<clus scale="  183.580">  2  5  1 -1</clus>
<clus scale="   81.378">  1  5  2 -1</clus>
</clustering>
</event>
<event>
 9    1  0.4664604E-005  0.1059460E+03  0.7546771E-02  0.1272475E+00
         21   -1    0    0  501  502  0.00000000000E+00  0.00000000000E+00  0.31490792672E+02  0.31490792672E+02  0.00000000000E+00 0.  1.
          1   -1    0    0  502    0 -0.00000000000E+00 -0.00000000000E+00 -0.88958559401E+03  0.88958559401E+03  0.00000000000E+00 0. -1.
        -24    2    1    2    0    0 -0.64926257964E+02  0.45427697314E+02 -0.28231455827E+03  0.30388425593E+03  0.79781179049E+02 0.  0.
         23    2    1    2    0    0  0.14176844064E+02 -0.88070519751E+01 -0.92732149379E+02  0.13010688617E+03  0.89721810222E+02 0.  0.
         11    1    3    3    0    0 -0.13987629312E+02 -0.21396168047E+02 -0.98713324710E+02  0.10196945747E+03  0.00000000000E+00 0. -1.
        -12    1    3    3    0    0 -0.50938628653E+02  0.66823865361E+02 -0.18360123356E+03  0.20191479846E+03  0.00000000000E+00 0.  1.
        -11    1    4    4    0    0 -0.30138615824E+02 -0.18340272843E+02 -0.11542809227E+02  0.37120590197E+02  0.00000000000E+00 0.  1.
         11    1    4    4    0    0  0.44315459889E+02  0.95332208677E+01 -0.81189340152E+02  0.92986295977E+02  0.00000000000E+00 0. -1.
          2    1    1    2  501    0  0.50749413900E+02 -0.36620645339E+02 -0.48304809368E+03  0.48708524458E+03  0.00000000000E+00 0. -1.
<scales pt_clust_5="13000.00000" pt_clust_6="13000.00000" pt_clust_7="13000.00000" pt_clust_8="13000.00000" pt_clust_9="62.58257"></scales>
<clustering>
<clus scale="   62.583">  1  9  2 -1</clus>
<clus scale="   79.781">  5  6 -1 -1</clus>
<clus scale="   89.722">  7  8 -1 -1</clus>
<clus scale="   97.671">  2  5  1 -1</clus>
<clus scale="   62.583">  1  5  2 -1</clus>
</clustering>
</event>
<event>
 9    1  0.4664604E-005  0.1039312E+03  0.7546771E-02  0.1276957E+00
         21   -1    0    0  501  502  0.00000000000E+00  0.00000000000E+00  0.61671937126E+02  0.61671937126E+02  0.00000000000E+00 0. -1.
          1   -1    0    0  502    0 -0.00000000000E+00 -0.00000000000E+00 -0.76093678528E+03  0.76093678528E+03  0.00000000000E+00 0. -1.
         23    2    1    2    0    0 -0.37568524766E+02  0.23212855758E+02 -0.53431474735E+03  0.54402977633E+03  0.92335895311E+02 0.  0.
        -24    2    1    2    0    0  0.73169791306E+02 -0.47080054844E+02 -0.12552292565E+02  0.12026853794E+03  0.82076861814E+02 0.  0.
         13    1    4    4    0    0  0.71594376175E+02 -0.13063138658E+02 -0.33681625828E+02  0.80192594483E+02  0.00000000000E+00 0. -1.
        -14    1    4    4    0    0  0.15754151303E+01 -0.34016916186E+02  0.21129333263E+02  0.40075943455E+02  0.00000000000E+00 0.  1.
        -11    1    3    3    0    0  0.22145772384E+02  0.34109637098E+02 -0.17846437353E+03  0.18303943618E+03  0.00000000000E+00 0. -1.
         11    1    3    3    0    0 -0.59714297150E+02 -0.10896781341E+02 -0.35585037382E+03  0.36099034015E+03  0.00000000000E+00 0.  1.
          2    1    1    2  501    0 -0.35601266539E+02  0.23867199086E+02 -0.15239780824E+03  0.15831040814E+03  0.00000000000E+00 0. -1.
<scales pt_clust_5="13000.00000" pt_clust_6="13000.00000" pt_clust_7="13000.00000" pt_clust_8="13000.00000" pt_clust_9="42.86135"></scales>
<clustering>
<clus scale="   42.861">  1  9  2 -1</clus>
<clus scale="   82.077">  5  6 -1 -1</clus>
<clus scale="   92.336">  7  8 -1 -1</clus>
<clus scale="   94.934">  1  5  2 -1</clus>
<clus scale="   42.861">  1  5  2 -1</clus>
</clustering>
</event>
<event>
 9    1  0.4664604E-005  0.1009226E+03  0.7546771E-02  0.1282284E+00
          1   -1    0    0  502    0 -0.00000000000E+00  0.00000000000E+00  0.65730292614E+02  0.65730292614E+02  0.00000000000E+00 0. -1.
         21   -1    0    0  501  502  0.00000000000E+00 -0.00000000000E+00 -0.18968364075E+03  0.18968364075E+03  0.00000000000E+00 0.  1.
        -24    2    1    2    0    0  0.16175935497E+02 -0.39531069881E+02 -0.42390269860E+02  0.11246718283E+03  0.95013503561E+02 0.  0.
         23    2    1    2    0    0 -0.19271230770E+02  0.18835242129E+02 -0.47468921767E+02  0.10294288014E+03  0.87279959644E+02 0.  0.
         13    1    3    3    0    0 -0.18859464858E+02  0.95798931418E+01  0.17504766901E+02  0.27456704674E+02  0.00000000000E+00 0. -1.
        -14    1    3    3    0    0  0.35035400355E+02 -0.49110963023E+02 -0.59895036761E+02  0.85010478152E+02  0.00000000000E+00 0.  1.
        -11    1    4    4    0    0 -0.17604255267E+02 -0.32842930541E+02 -0.31597723156E+02  0.48856770244E+02  0.00000000000E+00 0.  1.
         11    1    4    4    0    0 -0.16669755027E+01  0.51678172670E+02 -0.15871198611E+02  0.54086109892E+02  0.00000000000E+00 0. -1.
          2    1    1    2  501    0  0.30952952734E+01  0.20695827751E+02 -0.34094156503E+02  0.40003870398E+02  0.00000000000E+00 0. -1.
<scales pt_clust_5="13000.00000" pt_clust_6="13000.00000" pt_clust_7="13000.00000" pt_clust_8="13000.00000" pt_clust_9="20.92602"></scales>
<clustering>
<clus scale="   20.926">  2  9  1 -1</clus>
<clus scale="   87.280">  7  8 -1 -1</clus>
<clus scale="   93.678">  2  7  1 -1</clus>
<clus scale="   95.014">  5  6 -1 -1</clus>
<clus scale="   20.926">  2  5  1 -1</clus>
</clustering>
</event>
<event>
 9    1  0.4664604E-005  0.1071214E+03  0.7546771E-02  0.1271122E+00
          1   -1    0    0  502    0 -0.00000000000E+00  0.00000000000E+00  0.44782275565E+03  0.44782275565E+03  0.00000000000E+00 0. -1.
         21   -1    0    0  501  502  0.00000000000E+00 -0.00000000000E+00 -0.83558668213E+02  0.83558668213E+02  0.00000000000E+00 0. -1.
         23    2    1    2    0    0 -0.40413275558E+02 -0.72041798523E+02  0.29026624679E+03  0.31542198307E+03  0.91723932531E+02 0.  0.
        -24    2    1    2    0    0  0.38219359272E+02 -0.53460794358E+01  0.10069572622E+03  0.13406637627E+03  0.79654654471E+02 0.  0.
         13    1    4    4    0    0  0.39112182318E+02 -0.38477043004E+02  0.55722388892E+02  0.78199937774E+02  0.00000000000E+00 0. -1.
        -14    1    4    4    0    0 -0.89282304632E+00  0.33130963568E+02  0.44973337323E+02  0.55866438493E+02  0.00000000000E+00 0.  1.
        -13    1    3    3    0    0  0.26826792330E+02 -0.35243354157E+02  0.77417654867E+02  0.89192287133E+02  0.00000000000E+00 0.  1.
         13    1    3    3    0    0 -0.67240067888E+02 -0.36798444366E+02  0.21284859193E+03  0.22622969594E+03  0.00000000000E+00 0. -1.
          2    1    1    2  501    0  0.21939162857E+01  0.77387877959E+02 -0.26697885573E+02  0.81893064527E+02  0.00000000000E+00 0. -1.
<scales pt_clust_5="13000.00000" pt_clust_6="13000.00000" pt_clust_7="13000.00000" pt_clust_8="13000.00000" pt_clust_9="77.41897"></scales>
<clustering>
<clus scale="   77.419">  2  9  1 -1</clus>
<clus scale="   79.655">  5  6 -1 -1</clus>
<clus scale="   91.724">  7  8 -1 -1</clus>
<clus scale="   96.988">  2  5  1 -1</clus>
<clus scale="   77.419">  2  5  1 -1</clus>
</clustering>
</event>
<event>
 9    1  0.4664604E-005  0.1856387E+03  0.7546771E-02  0.1163984E+00
         21   -1    0    0  501  502  0.00000000000E+00  0.00000000000E+00  0.10263596438E+03  0.10263596438E+03  0.00000000000E+00 0. -1.
          1   -1    0    0  502    0 -0.00000000000E+00 -0.00000000000E+00 -0.75061263217E+03  0.75061263217E+03  0.00000000000E+00 0. -1.
         23    2    1    2    0    0  0.16435850935E+03 -0.66468285647E+02 -0.54708155218E+03  0.58233941955E+03  0.91592697478E+02 0.  0.
        -24    2    1    2    0    0 -0.10789449393E+03  0.77495173314E+02 -0.13441776570E+03  0.20432430367E+03  0.77676004187E+02 0.  0.
         13    1    4    4    0    0 -0.94443614569E+01  0.51037486771E+02 -0.43248609212E+02  0.67560811259E+02  0.00000000000E+00 0. -1.
        -14    1    4    4    0    0 -0.98450132476E+02  0.26457686544E+02 -0.91169156488E+02  0.13676349241E+03  0.00000000000E+00 0.  1.
        -11    1    3    3    0    0  0.42036528431E+02 -0.52307881127E+01 -0.44353034483E+02  0.61332067751E+02  0.00000000000E+00 0.  1.
         11    1    3    3    0    0  0.12232198092E+03 -0.61237497534E+02 -0.50272851770E+03  0.52100735180E+03  0.00000000000E+00 0. -1.
          2    1    1    2  501    0 -0.56464015417E+02 -0.11026887668E+02  0.33522650088E+02  0.66584873339E+02  0.00000000000E+00 0. -1.
<scales pt_clust_5="13000.00000" pt_clust_6="13000.00000" pt_clust_7="13000.00000" pt_clust_8="13000.00000" pt_clust_9="57.53066"></scales>
<clustering>
<clus scale="   57.531">  1  9  2 -1</clus>
<clus scale="   77.676">  5  6 -1 -1</clus>
<clus scale="   91.593">  7  8 -1 -1</clus>
<clus scale="  179.182">  1  5  2 -1</clus>
<clus scale="   57.531">  1  5  2 -1</clus>
</clustering>
</event>
<event>
 9    1  0.4664604E-005  0.1332660E+03  0.7546771E-02  0.1228489E+00
          3   -1    0    0  502    0 -0.00000000000E+00  0.00000000000E+00  0.27121929916E+03  0.27121929916E+03  0.00000000000E+00 0. -1.
         21   -1    0    0  501  502  0.00000000000E+00 -0.00000000000E+00 -0.35807772144E+03  0.35807772144E+03  0.00000000000E+00 0. -1.
         23    2    1    2    0    0 -0.56330831717E+02  0.60767399427E+02  0.20498725097E+03  0.24283990939E+03  0.10042713329E+03 0.  0.
        -24    2    1    2    0    0  0.63938977576E+02 -0.96362794366E+02 -0.61205976289E+02  0.15296281611E+03  0.79230490272E+02 0.  0.
         13    1    4    4    0    0  0.82167519012E+02 -0.76272781767E+02 -0.56079943502E+02  0.12535548844E+03  0.00000000000E+00 0. -1.
        -14    1    4    4    0    0 -0.18228541437E+02 -0.20090012599E+02 -0.51260327863E+01  0.27607327673E+02  0.00000000000E+00 0.  1.
        -13    1    3    3    0    0  0.45723709262E+01 -0.24726924683E+02  0.43113397418E+02  0.49910844684E+02  0.00000000000E+00 0.  1.
         13    1    3    3    0    0 -0.60903202643E+02  0.85494324110E+02  0.16187385355E+03  0.19292906471E+03  0.00000000000E+00 0. -1.
          4    1    1    2  501    0 -0.76081458587E+01  0.35595394939E+02 -0.23063969696E+03  0.23349429509E+03  0.00000000000E+00 0. -1.
<scales pt_clust_5="13000.00000" pt_clust_6="13000.00000" pt_clust_7="13000.00000" pt_clust_8="13000.00000" pt_clust_9="36.39940"></scales>
<clustering>
<clus scale="   36.399">  2  9  1 -1</clus>
<clus scale="   79.230">  5  6 -1 -1</clus>
<clus scale="  100.427">  7  8 -1 -1</clus>
<clus scale="  118.117">  2  5  1 -1</clus>
<clus scale="   36.399">  2  5  1 -1</clus>
</clustering>
</event>
<event>
 9    1  0.4664604E-005  0.1404620E+03  0.7546771E-02  0.1215327E+00
         21   -1    0    0  501  502  0.00000000000E+00  0.00000000000E+00  0.24700985053E+03  0.24700985053E+03  0.00000000000E+00 0.  1.
          1   -1    0    0  502    0 -0.00000000000E+00 -0.00000000000E+00 -0.12522742997E+03  0.12522742997E+03  0.00000000000E+00 0. -1.
         23    2    1    2    0    0 -0.32706352218E+01 -0.11266292775E+03  0.25260516955E+02  0.14691581231E+03  0.90788379461E+02 0.  0.
        -24    2    1    2    0    0  0.57418852423E+02  0.91425653532E+02  0.10037316813E+03  0.16703010107E+03  0.78541116915E+02 0.  0.
         11    1    4    4    0    0 -0.17865545858E+02  0.34940646256E+02  0.33139576320E+02  0.51363975784E+02  0.00000000000E+00 0. -1.
        -12    1    4    4    0    0  0.75284398282E+02  0.56485007276E+02  0.67233591812E+02  0.11566612529E+03  0.00000000000E+00 0.  1.
        -11    1    3    3    0    0  0.24153328519E+02 -0.61386006435E+02 -0.24511928183E+02  0.70373714467E+02  0.00000000000E+00 0. -1.
         11    1    3    3    0    0 -0.27423963741E+02 -0.51276921313E+02  0.49772445138E+02  0.76542097839E+02  0.00000000000E+00 0.  1.
          2    1    1    2  501    0 -0.54148217202E+02  0.21237274216E+02 -0.38512645296E+01  0.58291367120E+02  0.00000000000E+00 0. -1.
<scales pt_clust_5="13000.00000" pt_clust_6="13000.00000" pt_clust_7="13000.00000" pt_clust_8="13000.00000" pt_clust_9="58.16403"></scales>
<clustering>
<clus scale="   58.164">  1  9  2 -1</clus>
<clus scale="   78.541">  5  6 -1 -1</clus>
<clus scale="   90.788">  7  8 -1 -1</clus>
<clus scale="  132.875">  1  5  2 -1</clus>
<clus scale="   58.164">  1  5  2 -1</clus>
</clustering>
</event>
<event>
 9    1  0.4664604E-005  0.1543874E+03  0.7546771E-02  0.1216271E+00
          1   -1    0    0  502    0 -0.00000000000E+00  0.00000000000E+00  0.54778406443E+02  0.54778406443E+02  0.00000000000E+00 0. -1.
         21   -1    0    0  501  502  0.00000000000E+00 -0.00000000000E+00 -0.10498710883E+04  0.10498710883E+04  0.00000000000E+00 0. -1.
        -24    2    1    2    0    0  0.33313757846E+02 -0.13892389552E+02 -0.12333160137E+03  0.15758058750E+03  0.91203907309E+02 0.  0.
         23    2    1    2    0    0  0.72089791968E+02  0.99141798795E+02 -0.74817552783E+03  0.76362747542E+03  0.91292203403E+02 0.  0.
         11    1    3    3    0    0  0.12976016446E+02  0.26158259978E+02 -0.32590709428E+01  0.29381169332E+02  0.00000000000E+00 0. -1.
        -12    1    3    3    0    0  0.20337741400E+02 -0.40050649531E+02 -0.12007253043E+03  0.12819941816E+03  0.00000000000E+00 0.  1.
        -11    1    4    4    0    0  0.70478334229E+02  0.20146813668E+02 -0.39184722162E+03  0.39864437132E+03  0.00000000000E+00 0. -1.
         11    1    4    4    0    0  0.16114577395E+01  0.78994985127E+02 -0.35632830621E+03  0.36498310410E+03  0.00000000000E+00 0.  1.
          2    1    1    2  501    0 -0.10540354981E+03 -0.85249409243E+02 -0.12358555269E+03  0.18344143186E+03  0.00000000000E+00 0. -1.
<scales pt_clust_5="13000.00000" pt_clust_6="13000.00000" pt_clust_7="13000.00000" pt_clust_8="13000.00000" pt_clust_9="124.50391"></scales>
<clustering>
<clus scale="   91.204">  5  6 -1 -1</clus>
<clus scale="   91.292">  7  8 -1 -1</clus>
<clus scale="   98.086">  1  5  2 -1</clus>
<clus scale="  124.504">  2  9  1 -1</clus>
<clus scale="  124.504">  2  5  1 -1</clus>
</clustering>
</event>
<event>
 9    1  0.4664604E-005  0.1318960E+03  0.7546771E-02  0.1241632E+00
          1   -1    0    0  502    0 -0.00000000000E+00  0.00000000000E+00  0.30761807758E+03  0.30761807758E+03  0.00000000000E+00 0. -1.
         21   -1    0    0  501  502  0.00000000000E+00 -0.00000000000E+00 -0.14545041082E+03  0.14545041082E+03  0.00000000000E+00 0. -1.
         23    2    1    2    0    0 -0.54701596131E+01  0.15791416156E+02  0.18552316671E+03  0.20756852583E+03  0.91578141803E+02 0.  0.
        -24    2    1    2    0    0 -0.91236960399E+02 -0.58298240875E+02  0.12086578833E+02  0.13407627498E+03  0.78150459327E+02 0.  0.
         13    1    4    4    0    0 -0.73904047542E+02 -0.11094361716E+02 -0.16075742880E+02  0.76441628804E+02  0.00000000000E+00 0. -1.
        -14    1    4    4    0    0 -0.17332912856E+02 -0.47203879159E+02  0.28162321713E+02  0.57634646177E+02  0.00000000000E+00 0.  1.
        -11    1    3    3    0    0 -0.43697967011E+02  0.20422828468E+02  0.13925696135E+03  0.14737403275E+03  0.00000000000E+00 0. -1.
         11    1    3    3    0    0  0.38227807398E+02 -0.46314123121E+01  0.46266205364E+02  0.60194493080E+02  0.00000000000E+00 0.  1.
          2    1    1    2  501    0  0.96707120012E+02  0.42506824719E+02 -0.35442078788E+02  0.11142368760E+03  0.00000000000E+00 0. -1.
<scales pt_clust_5="13000.00000" pt_clust_6="13000.00000" pt_clust_7="13000.00000" pt_clust_8="13000.00000" pt_clust_9="106.25005"></scales>
<clustering>
<clus scale="   78.150">  5  6 -1 -1</clus>
<clus scale="   91.578">  7  8 -1 -1</clus>
<clus scale="   93.091">  1  7  2 -1</clus>
<clus scale="  106.250">  2  9  1 -1</clus>
<clus scale="  106.250">  2  5  1 -1</clus>
</clustering>
</event>
<event>
 9    1  0.4664604E-005  0.1128729E+03  0.7546771E-02  0.1256065E+00
         21   -1    0    0  501  502  0.00000000000E+00  0.00000000000E+00  0.53831693008E+02  0.53831693008E+02  0.00000000000E+00 0.  1.
          3   -1    0    0  502    0 -0.00000000000E+00 -0.00000000000E+00 -0.45316478175E+03  0.45316478175E+03  0.00000000000E+00 0. -1.
         23    2    1    2    0    0 -0.66893478850E+02  0.21037179983E+02 -0.33630868152E+03  0.35584332763E+03  0.92755830523E+02 0.  0.
        -24    2    1    2    0    0  0.39043269512E+02 -0.30876304177E+02 -0.63774268930E+02  0.12160649220E+03  0.90792392373E+02 0.  0.
         11    1    4    4    0    0  0.41878471812E+02 -0.14183080161E+02 -0.84183086446E+02  0.95088160187E+02  0.00000000000E+00 0. -1.
        -12    1    4    4    0    0 -0.28352023003E+01 -0.16693224016E+02  0.20408817516E+02  0.26518332009E+02  0.00000000000E+00 0.  1.
        -11    1    3    3    0    0  0.19966484308E+02 -0.11853302785E+02 -0.75524951571E+02  0.79013793684E+02  0.00000000000E+00 0.  1.
         11    1    3    3    0    0 -0.86859963158E+02  0.32890482768E+02 -0.26078372995E+03  0.27682953395E+03  0.00000000000E+00 0. -1.
          4    1    1    2  501    0  0.27850209338E+02  0.98391241942E+01  0.74986171267E+00  0.29546654932E+02  0.00000000000E+00 0. -1.
<scales pt_clust_5="13000.00000" pt_clust_6="13000.00000" pt_clust_7="13000.00000" pt_clust_8="13000.00000" pt_clust_9="29.53714"></scales>
<clustering>
<clus scale="   29.537">  1  9  2 -1</clus>
<clus scale="   90.792">  5  6 -1 -1</clus>
<clus scale="   92.756">  7  8 -1 -1</clus>
<clus scale="  111.265">  1  5  2 -1</clus>
<clus scale="   29.537">  1  5  2 -1</clus>
</clustering>
</event>
<event>
 9    1  0.4664604E-005  0.9376620E+02  0.7546771E-02  0.1300375E+00
          1   -1    0    0  502    0 -0.00000000000E+00  0.00000000000E+00  0.36260069680E+03  0.36260069680E+03  0.00000000000E+00 0. -1.
         21   -1    0    0  501  502  0.00000000000E+00 -0.00000000000E+00 -0.34261170852E+02  0.34261170852E+02  0.00000000000E+00 0.  1.
        -24    2    1    2    0    0  0.17113781319E+02 -0.31099126494E+02  0.17277391268E+03  0.19372913628E+03  0.80125627388E+02 0.  0.
         23    2    1    2    0    0 -0.11082008878E+02  0.11563226703E-01  0.14127128218E+03  0.16838871361E+03  0.90963578686E+02 0.  0.
         11    1    3    3    0    0  0.22794922725E+02 -0.44183279255E+00  0.53391072516E+01  0.23416015556E+02  0.00000000000E+00 0. -1.
        -12    1    3    3    0    0 -0.56811414065E+01 -0.30657293702E+02  0.16743480542E+03  0.17031312073E+03  0.00000000000E+00 0.  1.
        -11    1    4    4    0    0 -0.16995772819E+02 -0.38452219591E+02  0.33340564751E+02  0.53656525634E+02  0.00000000000E+00 0.  1.
         11    1    4    4    0    0  0.59137639411E+01  0.38463782818E+02  0.10793071743E+03  0.11473218798E+03  0.00000000000E+00 0. -1.
          2    1    1    2  501    0 -0.60317724408E+01  0.31087563267E+02  0.14294331090E+02  0.34744017758E+02  0.00000000000E+00 0. -1.
<scales pt_clust_5="13000.00000" pt_clust_6="13000.00000" pt_clust_7="13000.00000" pt_clust_8="13000.00000" pt_clust_9="31.66732"></scales>
<clustering>
<clus scale="   31.667">  2  9  1 -1</clus>
<clus scale="   80.126">  5  6 -1 -1</clus>
<clus scale="   83.294">  1  5  2 -1</clus>
<clus scale="   90.964">  7  8 -1 -1</clus>
<clus scale="   31.667">  2  5  1 -1</clus>
</clustering>
</event>
<event>
 9    1  0.4664604E-005  0.1298964E+03  0.7546771E-02  0.1229879E+00
         -2   -1    0    0    0  501 -0.00000000000E+00  0.00000000000E+00  0.74466491536E+02  0.74466491536E+02  0.00000000000E+00 0.  1.
         21   -1    0    0  501  502  0.00000000000E+00 -0.00000000000E+00 -0.41700467001E+03  0.41700467001E+03  0.00000000000E+00 0.  1.
         23    2    1    2    0    0 -0.47002722058E+02  0.10092270638E+03 -0.72010470545E+02  0.16030369109E+03  0.90095044076E+02 0.  0.
        -24    2    1    2    0    0  0.67953501894E+02 -0.44112183357E+02 -0.10743078388E+03  0.15719339958E+03  0.81270095402E+02 0.  0.
         11    1    4    4    0    0  0.11579058433E+02 -0.34254528881E+02 -0.79088490638E+00  0.36167289669E+02  0.00000000000E+00 0. -1.
        -12    1    4    4    0    0  0.56374443461E+02 -0.98576544761E+01 -0.10663989898E+03  0.12102610991E+03  0.00000000000E+00 0.  1.
        -13    1    3    3    0    0 -0.48623286362E+02  0.76569023138E+01 -0.17363259345E+02  0.52195161698E+02  0.00000000000E+00 0. -1.
         13    1    3    3    0    0  0.16205643037E+01  0.93265804063E+02 -0.54647211200E+02  0.10810852940E+03  0.00000000000E+00 0.  1.
         -1    1    1    2    0  502 -0.20950779836E+02 -0.56810523019E+02 -0.16309692405E+03  0.17397407087E+03  0.00000000000E+00 0.  1.
<scales pt_clust_5="13000.00000" pt_clust_6="13000.00000" pt_clust_7="13000.00000" pt_clust_8="13000.00000" pt_clust_9="60.55056"></scales>
<clustering>
<clus scale="   60.551">  2  9  1 -1</clus>
<clus scale="   81.270">  5  6 -1 -1</clus>
<clus scale="   90.095">  7  8 -1 -1</clus>
<clus scale="  123.939">  2  5  1 -1</clus>
<clus scale="   60.551">  2  5  1 -1</clus>
</clustering>
</event>
<event>
 9    1  0.4664604E-005  0.9043376E+02  0.7546771E-02  0.1304572E+00
         21   -1    0    0  501  502  0.00000000000E+00  0.00000000000E+00  0.22105381754E+03  0.22105381754E+03  0.00000000000E+00 0.  1.
          1   -1    0    0  502    0 -0.00000000000E+00 -0.00000000000E+00 -0.13918736815E+03  0.13918736815E+03  0.00000000000E+00 0. -1.
         23    2    1    2    0    0  0.29033138293E+02  0.43888760656E+01 -0.10251821469E+03  0.13624762409E+03  0.84801210923E+02 0.  0.
        -24    2    1    2    0    0 -0.53164241032E+02 -0.78982505416E+01  0.17069505172E+03  0.19602873878E+03  0.80010292215E+02 0.  0.
         13    1    4    4    0    0 -0.48835882951E+02 -0.12293565334E+02  0.37742292022E+02  0.62932947010E+02  0.00000000000E+00 0. -1.
        -14    1    4    4    0    0 -0.43283580806E+01  0.43953147926E+01  0.13295275970E+03  0.13309579177E+03  0.00000000000E+00 0.  1.
        -11    1    3    3    0    0 -0.17416591173E+02  0.10225031691E+02  0.33669351681E+01  0.20474988977E+02  0.00000000000E+00 0.  1.
         11    1    3    3    0    0  0.46449729466E+02 -0.58361556254E+01 -0.10588514986E+03  0.11577263511E+03  0.00000000000E+00 0. -1.
          2    1    1    2  501    0  0.24131102739E+02  0.35093744760E+01  0.13689612358E+02  0.27964822816E+02  0.00000000000E+00 0. -1.
<scales pt_clust_5="13000.00000" pt_clust_6="13000.00000" pt_clust_7="13000.00000" pt_clust_8="13000.00000" pt_clust_9="24.38495"></scales>
<clustering>
<clus scale="   24.385">  1  9  2 -1</clus>
<clus scale="   80.010">  5  6 -1 -1</clus>
<clus scale="   84.801">  7  8 -1 -1</clus>
<clus scale="   85.957">  1  5  2 -1</clus>
<clus scale="   24.385">  1  5  2 -1</clus>
</clustering>
</event>
<event>
 9    1  0.4664604E-005  0.1752555E+03  0.7546771E-02  0.1173578E+00
         21   -1    0    0  501  502  0.00000000000E+00  0.00000000000E+00  0.63235999458E+03  0.63235999458E+03  0.00000000000E+00 0. -1.
          1   -1    0    0  502    0 -0.00000000000E+00 -0.00000000000E+00 -0.10175253174E+03  0.10175253174E+03  0.00000000000E+00 0. -1.
         23    2    1    2    0    0 -0.99250803006E+02 -0.11600665836E+03  0.13665977060E+02  0.17724071009E+03  0.88990132616E+02 0.  0.
        -24    2    1    2    0    0  0.12044528434E+03  0.83940706996E+02  0.44338934185E+03  0.47388176169E+03  0.80104349354E+02 0.  0.
         11    1    4    4    0    0  0.79358846592E+02  0.83841925081E+02  0.23921658880E+03  0.26561602228E+03  0.00000000000E+00 0. -1.
        -12    1    4    4    0    0  0.41086437745E+02  0.98781915196E-01  0.20417275305E+03  0.20826573941E+03  0.00000000000E+00 0.  1.
        -11    1    3    3    0    0 -0.87782588887E+02 -0.34997594904E+02  0.13224259420E+02  0.95422720554E+02  0.00000000000E+00 0.  1.
         11    1    3    3    0    0 -0.11468214119E+02 -0.81009063459E+02  0.44171763984E+00  0.81817989538E+02  0.00000000000E+00 0. -1.
          2    1    1    2  501    0 -0.21194481331E+02  0.32065951367E+02  0.73552143922E+02  0.82990054533E+02  0.00000000000E+00 0. -1.
<scales pt_clust_5="13000.00000" pt_clust_6="13000.00000" pt_clust_7="13000.00000" pt_clust_8="13000.00000" pt_clust_9="38.43737"></scales>
<clustering>
<clus scale="   38.437">  1  9  2 -1</clus>
<clus scale="   80.104">  5  6 -1 -1</clus>
<clus scale="   88.990">  7  8 -1 -1</clus>
<clus scale="  170.915">  1  5  2 -1</clus>
<clus scale="   38.437">  1  5  2 -1</clus>
</clustering>
</event>
<event>
 9    1  0.4664604E-005  0.9215923E+02  0.7546771E-02  0.1303755E+00
         21   -1    0    0  501  502  0.00000000000E+00  0.00000000000E+00  0.33668987906E+02  0.33668987906E+02  0.00000000000E+00 0.  1.
          3   -1    0    0  502    0 -0.00000000000E+00 -0.00000000000E+00 -0.30435891964E+03  0.30435891964E+03  0.00000000000E+00 0. -1.
         23    2    1    2    0    0 -0.19494138998E+02  0.13125316786E+00 -0.11458519511E+03  0.14675557977E+03  0.89595728543E+02 0.  0.
        -24    2    1    2    0    0  0.18652925802E+02  0.20243894244E+02 -0.95429285400E+02  0.12726166731E+03  0.79567811075E+02 0.  0.
         11    1    4    4    0    0 -0.18467693502E+02  0.33352196976E+02 -0.71945434129E+02  0.81422172892E+02  0.00000000000E+00 0. -1.
        -12    1    4    4    0    0  0.37120619303E+02 -0.13108302732E+02 -0.23483851271E+02  0.45839494417E+02  0.00000000000E+00 0.  1.
        -13    1    3    3    0    0 -0.25987697642E+02  0.37402472569E+02 -0.31249785274E+02  0.55234540486E+02  0.00000000000E+00 0.  1.
         13    1    3    3    0    0  0.64935586439E+01 -0.37271219401E+02 -0.83335409833E+02  0.91521039284E+02  0.00000000000E+00 0. -1.
          4    1    1    2  501    0  0.84121319698E+00 -0.20375147412E+02 -0.60675451225E+02  0.64010660464E+02  0.00000000000E+00 0. -1.
<scales pt_clust_5="13000.00000" pt_clust_6="13000.00000" pt_clust_7="13000.00000" pt_clust_8="13000.00000" pt_clust_9="20.39252"></scales>
<clustering>
<clus scale="   20.393">  1  9  2 -1</clus>
<clus scale="   79.568">  5  6 -1 -1</clus>
<clus scale="   82.444">  1  5  2 -1</clus>
<clus scale="   89.596">  7  8 -1 -1</clus>
<clus scale="   20.393">  1  5  2 -1</clus>
</clustering>
</event>
<event>
 9    1  0.4664604E-005  0.2372983E+03  0.7546771E-02  0.1121606E+00
         -4   -1    0    0    0  501 -0.00000000000E+00  0.00000000000E+00  0.62740515115E+02  0.62740515115E+02  0.00000000000E+00 0.  1.
         21   -1    0    0  501  502  0.00000000000E+00 -0.00000000000E+00 -0.63398690296E+03  0.63398690296E+03  0.00000000000E+00 0. -1.
        -24    2    1    2    0    0 -0.51505920852E+02  0.78183211255E+02 -0.17755273594E+03  0.21655367364E+03  0.81271428699E+02 0.  0.
         23    2    1    2    0    0 -0.45970374665E+02  0.32003718894E+02 -0.79737604808E+02  0.13345889434E+03  0.91190336599E+02 0.  0.
         13    1    3    3    0    0 -0.58941668920E+02  0.81389433947E+02 -0.18156305410E+03  0.20751747615E+03  0.00000000000E+00 0. -1.
        -14    1    3    3    0    0  0.74357480682E+01 -0.32062226920E+01  0.40103181635E+01  0.90361974889E+01  0.00000000000E+00 0.  1.
        -11    1    4    4    0    0  0.14235104248E+02  0.17119234295E+02 -0.66385722994E+02  0.70019787155E+02  0.00000000000E+00 0. -1.
         11    1    4    4    0    0 -0.60205478913E+02  0.14884484600E+02 -0.13351881814E+02  0.63439107189E+02  0.00000000000E+00 0.  1.
         -3    1    1    2    0  502  0.97476295517E+02 -0.11018693015E+03 -0.31395604710E+03  0.34671485009E+03  0.00000000000E+00 0.  1.
<scales pt_clust_5="13000.00000" pt_clust_6="13000.00000" pt_clust_7="13000.00000" pt_clust_8="13000.00000" pt_clust_9="147.11488"></scales>
<clustering>
<clus scale="   81.271">  5  6 -1 -1</clus>
<clus scale="   91.190">  7  8 -1 -1</clus>
<clus scale="  105.069">  5  7 -1 -1</clus>
<clus scale="  147.115">  2  9  1 -1</clus>
<clus scale="  147.115">  2  5  1 -1</clus>
</clustering>
</event>
<event>
 9    1  0.4664604E-005  0.8612879E+02  0.7546771E-02  0.1314545E+00
         21   -1    0    0  501  502  0.00000000000E+00  0.00000000000E+00  0.10207756021E+03  0.10207756021E+03  0.00000000000E+00 0. -1.
          1   -1    0    0  502    0 -0.00000000000E+00 -0.00000000000E+00 -0.10036195783E+03  0.10036195783E+03  0.00000000000E+00 0. -1.
        -24    2    1    2    0    0 -0.31581948923E+02  0.34770029754E+01 -0.24986719806E+02  0.89214682109E+02  0.79532473177E+02 0.  0.
         23    2    1    2    0    0  0.97261088162E+01  0.86338538823E+01  0.27607713846E+02  0.88221429474E+02  0.82774960761E+02 0.  0.
         11    1    3    3    0    0 -0.41499015778E+02 -0.13470758965E+02 -0.43941048603E+02  0.61922898914E+02  0.00000000000E+00 0. -1.
        -12    1    3    3    0    0  0.99170668552E+01  0.16947761940E+02  0.18954328797E+02  0.27291783195E+02  0.00000000000E+00 0.  1.
        -11    1    4    4    0    0  0.81644804628E+01  0.45498545271E+02  0.20850021022E+02  0.50709957007E+02  0.00000000000E+00 0. -1.
         11    1    4    4    0    0  0.15616283535E+01 -0.36864691389E+02  0.67576928250E+01  0.37511472467E+02  0.00000000000E+00 0.  1.
          2    1    1    2  501    0  0.21855840107E+02 -0.12110856858E+02 -0.90539165586E+00  0.25003406461E+02  0.00000000000E+00 0. -1.
<scales pt_clust_5="13000.00000" pt_clust_6="13000.00000" pt_clust_7="13000.00000" pt_clust_8="13000.00000" pt_clust_9="24.98702"></scales>
<clustering>
<clus scale="   24.987">  1  9  2 -1</clus>
<clus scale="   79.532">  5  6 -1 -1</clus>
<clus scale="   82.775">  7  8 -1 -1</clus>
<clus scale="   83.017">  2  5  1 -1</clus>
<clus scale="   24.987">  1  5  2 -1</clus>
</clustering>
</event>
<event>
 9    1  0.4664604E-005  0.1111046E+03  0.7546771E-02  0.1262466E+00
          1   -1    0    0  502    0 -0.00000000000E+00  0.00000000000E+00  0.50241426090E+03  0.50241426090E+03  0.00000000000E+00 0. -1.
         21   -1    0    0  501  502  0.00000000000E+00 -0.00000000000E+00 -0.95466279496E+02  0.95466279496E+02  0.00000000000E+00 0. -1.
         23    2    1    2    0    0  0.59627680702E+02  0.30206682652E+02  0.36141380293E+03  0.37843420269E+03  0.90136589892E+02 0.  0.
        -24    2    1    2    0    0 -0.74798656515E+02  0.34381723506E+02  0.84597560307E+02  0.14245433475E+03  0.79746776437E+02 0.  0.
         13    1    4    4    0    0 -0.26584349315E+02  0.55292495883E+02  0.53415728762E+02  0.81346344778E+02  0.00000000000E+00 0. -1.
        -14    1    4    4    0    0 -0.48214307200E+02 -0.20910772377E+02  0.31181831544E+02  0.61107989974E+02  0.00000000000E+00 0.  1.
        -11    1    3    3    0    0 -0.20369941922E+02  0.13235539351E+02  0.14624731416E+03  0.14825110770E+03  0.00000000000E+00 0. -1.
         11    1    3    3    0    0  0.79997622624E+02  0.16971143301E+02  0.21516648877E+03  0.23018309499E+03  0.00000000000E+00 0.  1.
          2    1    1    2  501    0  0.15170975813E+02 -0.64588406158E+02 -0.39063381837E+02  0.76992002946E+02  0.00000000000E+00 0. -1.
<scales pt_clust_5="13000.00000" pt_clust_6="13000.00000" pt_clust_7="13000.00000" pt_clust_8="13000.00000" pt_clust_9="66.34622"></scales>
<clustering>
<clus scale="   66.346">  2  9  1 -1</clus>
<clus scale="   79.747">  5  6 -1 -1</clus>
<clus scale="   90.137">  7  8 -1 -1</clus>
<clus scale="  102.855">  2  5  1 -1</clus>
<clus scale="   66.346">  2  5  1 -1</clus>
</clustering>
</event>
<event>
 9    1  0.4664604E-005  0.1044323E+03  0.7546771E-02  0.1278115E+00
          1   -1    0    0  502    0 -0.00000000000E+00  0.00000000000E+00  0.25684139168E+02  0.25684139168E+02  0.00000000000E+00 0. -1.
         21   -1    0    0  501  502  0.00000000000E+00 -0.00000000000E+00 -0.85761952688E+03  0.85761952688E+03  0.00000000000E+00 0.  1.
         23    2    1    2    0    0  0.39349542430E+02 -0.24357776435E+02 -0.29567981024E+03  0.31441911554E+03  0.96390571471E+02 0.  0.
        -24    2    1    2    0    0  0.32002290007E+02  0.58217572680E+02 -0.37030372699E+03  0.38509775428E+03  0.82231367419E+02 0.  0.
         13    1    4    4    0    0  0.13885923248E+02  0.15616227381E+02 -0.12580842615E+02  0.24391863868E+02  0.00000000000E+00 0. -1.
        -14    1    4    4    0    0  0.18116366759E+02  0.42601345300E+02 -0.35772288438E+03  0.36070589041E+03  0.00000000000E+00 0.  1.
        -11    1    3    3    0    0  0.56495152890E+02 -0.50417378648E+02 -0.21131767494E+03  0.22447443977E+03  0.00000000000E+00 0. -1.
         11    1    3    3    0    0 -0.17145610460E+02  0.26059602213E+02 -0.84362135308E+02  0.89944675769E+02  0.00000000000E+00 0.  1.
          2    1    1    2  501    0 -0.71351832437E+02 -0.33859796245E+02 -0.16595185047E+03  0.18378679623E+03  0.00000000000E+00 0. -1.
<scales pt_clust_5="13000.00000" pt_clust_6="13000.00000" pt_clust_7="13000.00000" pt_clust_8="13000.00000" pt_clust_9="78.97833"></scales>
<clustering>
<clus scale="   78.978">  2  9  1 -1</clus>
<clus scale="   82.231">  5  6 -1 -1</clus>
<clus scale="   91.526">  2  5  1 -1</clus>
<clus scale="   96.391">  7  8 -1 -1</clus>
<clus scale="   78.978">  2  5  1 -1</clus>
</clustering>
</event>
<event>
 9    1  0.4664604E-005  0.1728251E+03  0.7546771E-02  0.1200356E+00
         21   -1    0    0  501  502  0.00000000000E+00  0.00000000000E+00  0.48083010472E+03  0.48083010472E+03  0.00000000000E+00 0. -1.
          1   -1    0    0  502    0 -0.00000000000E+00 -0.00000000000E+00 -0.10924468971E+03  0.10924468971E+03  0.00000000000E+00 0. -1.
         23    2    1    2    0    0 -0.31194816327E+02 -0.17907914512E+02  0.95155119352E+01  0.98780345363E+02  0.91505200371E+02 0.  0.
        -24    2    1    2    0    0 -0.13013624812E+03 -0.43473622391E+02  0.18787338603E+03  0.24606021007E+03  0.80148729758E+02 0.  0.
         13    1    4    4    0    0 -0.69879360734E+02  0.15719267171E+02  0.63530258019E+02  0.95740869544E+02  0.00000000000E+00 0. -1.
        -14    1    4    4    0    0 -0.60256887385E+02 -0.59192889562E+02  0.12434312801E+03  0.15031934052E+03  0.00000000000E+00 0.  1.
        -11    1    3    3    0    0  0.23269325592E+02  0.20955184919E+02  0.97460241055E+00  0.31329397350E+02  0.00000000000E+00 0.  1.
         11    1    3    3    0    0 -0.54464141919E+02 -0.38863099431E+02  0.85409095246E+01  0.67450948013E+02  0.00000000000E+00 0. -1.
          2    1    1    2  501    0  0.16133106445E+03  0.61381536903E+02  0.17419651705E+03  0.24523423900E+03  0.00000000000E+00 0. -1.
<scales pt_clust_5="13000.00000" pt_clust_6="13000.00000" pt_clust_7="13000.00000" pt_clust_8="13000.00000" pt_clust_9="153.11665"></scales>
<clustering>
<clus scale="   80.149">  5  6 -1 -1</clus>
<clus scale="   91.505">  7  8 -1 -1</clus>
<clus scale="   98.321">  2  7  1 -1</clus>
<clus scale="  153.117">  1  9  2 -1</clus>
<clus scale="  153.117">  1  5  2 -1</clus>
</clustering>
</event>
<event>
 9    1  0.4664604E-005  0.8979438E+02  0.7546771E-02  0.1308553E+00
          1   -1    0    0  502    0 -0.00000000000E+00  0.00000000000E+00  0.38923289145E+02  0.38923289145E+02  0.00000000000E+00 0. -1.
         21   -1    0    0  501  502  0.00000000000E+00 -0.00000000000E+00 -0.40017613608E+03  0.40017613608E+03  0.00000000000E+00 0.  1.
         23    2    1    2    0    0 -0.12579400785E+02 -0.30077922670E+02 -0.95772500416E+02  0.13464798878E+03  0.88852609930E+02 0.  0.
        -24    2    1    2    0    0  0.12506617877E+02 -0.29253274332E+02 -0.12655394081E+03  0.15338607828E+03  0.80617737030E+02 0.  0.
         13    1    4    4    0    0  0.32972392896E+02  0.13765156954E+02 -0.75674445770E+02  0.83685601999E+02  0.00000000000E+00 0. -1.
        -14    1    4    4    0    0 -0.20465775019E+02 -0.43018431286E+02 -0.50879495043E+02  0.69700476278E+02  0.00000000000E+00 0.  1.
        -13    1    3    3    0    0 -0.41427626627E+02 -0.11979712439E+02 -0.12840528868E+02  0.44996010264E+02  0.00000000000E+00 0. -1.
         13    1    3    3    0    0  0.28848225842E+02 -0.18098210231E+02 -0.82931971547E+02  0.89651978520E+02  0.00000000000E+00 0.  1.
          2    1    1    2  501    0  0.72782908105E-01  0.59331197002E+02 -0.13892640571E+03  0.15106535817E+03  0.00000000000E+00 0. -1.
<scales pt_clust_5="13000.00000" pt_clust_6="13000.00000" pt_clust_7="13000.00000" pt_clust_8="13000.00000" pt_clust_9="59.33124"></scales>
<clustering>
<clus scale="   59.331">  2  9  1 -1</clus>
<clus scale="   80.618">  5  6 -1 -1</clus>
<clus scale="   81.655">  2  5  1 -1</clus>
<clus scale="   88.853">  7  8 -1 -1</clus>
<clus scale="   59.331">  2  5  1 -1</clus>
</clustering>
</event>
<event>
 9    1  0.4664604E-005  0.1333502E+03  0.7546771E-02  0.1224991E+00
          3   -1    0    0  502    0 -0.00000000000E+00  0.00000000000E+00  0.16731788174E+03  0.16731788174E+03  0.00000000000E+00 0. -1.
         21   -1    0    0  501  502  0.00000000000E+00 -0.00000000000E+00 -0.48498086895E+03  0.48498086895E+03  0.00000000000E+00 0. -1.
         23    2    1    2    0    0  0.79662489612E+02 -0.63560731054E+02  0.12482046851E+03  0.18493667318E+03  0.90748801328E+02 0.  0.
        -24    2    1    2    0    0 -0.51768495727E+02  0.36123643659E+02 -0.23755137782E+03  0.25872836688E+03  0.80776332816E+02 0.  0.
         13    1    4    4    0    0 -0.16506950851E+02 -0.16470890281E+02 -0.15935519049E+02  0.28243767815E+02  0.00000000000E+00 0. -1.
        -14    1    4    4    0    0 -0.35261544876E+02  0.52594533940E+02 -0.22161585877E+03  0.23048459907E+03  0.00000000000E+00 0.  1.
        -13    1    3    3    0    0  0.76244480503E+02 -0.73950900245E+01  0.50633742857E+02  0.91824202035E+02  0.00000000000E+00 0.  1.
         13    1    3    3    0    0  0.34180091090E+01 -0.56165641029E+02  0.74186725655E+02  0.93112471141E+02  0.00000000000E+00 0. -1.
          4    1    1    2  501    0 -0.27893993885E+02  0.27437087395E+02 -0.20493207790E+03  0.20863371063E+03  0.00000000000E+00 0. -1.
<scales pt_clust_5="13000.00000" pt_clust_6="13000.00000" pt_clust_7="13000.00000" pt_clust_8="13000.00000" pt_clust_9="39.12632"></scales>
<clustering>
<clus scale="   39.126">  2  9  1 -1</clus>
<clus scale="   80.776">  5  6 -1 -1</clus>
<clus scale="   90.749">  7  8 -1 -1</clus>
<clus scale="  126.774">  2  5  1 -1</clus>
<clus scale="   39.126">  2  5  1 -1</clus>
</clustering>
</event>
<event>
 9    1  0.4664604E-005  0.1293491E+03  0.7546771E-02  0.1230976E+00
         21   -1    0    0  501  502  0.00000000000E+00  0.00000000000E+00  0.48940629100E+03  0.48940629100E+03  0.00000000000E+00 0. -1.
          1   -1    0    0  502    0 -0.00000000000E+00 -0.00000000000E+00 -0.48374986951E+02  0.48374986951E+02  0.00000000000E+00 0. -1.
         23    2    1    2    0    0 -0.91991328096E+02  0.32465582276E+02  0.11210538311E+03  0.17378068251E+03  0.90087125689E+02 0.  0.
        -24    2    1    2    0    0  0.88492266582E+02  0.24558973176E+01  0.23296988863E+03  0.26182763764E+03  0.80261012629E+02 0.  0.
         11    1    4    4    0    0  0.97480277040E+02  0.12001568143E+02  0.16038868902E+03  0.18807172465E+03  0.00000000000E+00 0. -1.
        -12    1    4    4    0    0 -0.89880104572E+01 -0.95456708256E+01  0.72581199609E+02  0.73755912984E+02  0.00000000000E+00 0.  1.
        -13    1    3    3    0    0 -0.73270838689E+02  0.58317382711E+02  0.55667038084E+02  0.10894196647E+03  0.00000000000E+00 0. -1.
         13    1    3    3    0    0 -0.18720489408E+02 -0.25851800435E+02  0.56438345025E+02  0.64838716047E+02  0.00000000000E+00 0.  1.
          2    1    1    2  501    0  0.34990615138E+01 -0.34921479593E+02  0.95956032312E+02  0.10217295780E+03  0.00000000000E+00 0. -1.
<scales pt_clust_5="13000.00000" pt_clust_6="13000.00000" pt_clust_7="13000.00000" pt_clust_8="13000.00000" pt_clust_9="35.09634"></scales>
<clustering>
<clus scale="   35.096">  1  9  2 -1</clus>
<clus scale="   80.261">  5  6 -1 -1</clus>
<clus scale="   90.087">  7  8 -1 -1</clus>
<clus scale="  122.708">  1  5  2 -1</clus>
<clus scale="   35.096">  1  5  2 -1</clus>
</clustering>
</event>
<event>
 9    1  0.4664604E-005  0.1548488E+03  0.7546771E-02  0.1204002E+00
         21   -1    0    0  501  502  0.00000000000E+00  0.00000000000E+00  0.21239363927E+03  0.21239363927E+03  0.00000000000E+00 0. -1.
          1   -1    0    0  502    0 -0.00000000000E+00 -0.00000000000E+00 -0.24174029657E+03  0.24174029657E+03  0.00000000000E+00 0. -1.
        -24    2    1    2    0    0 -0.66738573092E+02 -0.68972162730E+02  0.33985317146E+02  0.13081488671E+03  0.82136084851E+02 0.  0.
         23    2    1    2    0    0  0.23663295985E+02 -0.10025473042E+03 -0.59664048551E+00  0.13776867055E+03  0.91481626889E+02 0.  0.
         11    1    3    3    0    0 -0.67855846692E+02 -0.85812370843E+02  0.28222738857E+02  0.11298098030E+03  0.00000000000E+00 0. -1.
        -12    1    3    3    0    0  0.11172736002E+01  0.16840208114E+02  0.57625782891E+01  0.17833906419E+02  0.00000000000E+00 0.  1.
        -13    1    4    4    0    0 -0.24890847725E+02 -0.29035707685E+02  0.27505148362E+02  0.47107959069E+02  0.00000000000E+00 0.  1.
         13    1    4    4    0    0  0.48554143710E+02 -0.71219022732E+02 -0.28101788848E+02  0.90660711484E+02  0.00000000000E+00 0. -1.
          2    1    1    2  501    0  0.43075277107E+02  0.16922689315E+03 -0.62735333957E+02  0.18555037857E+03  0.00000000000E+00 0. -1.
<scales pt_clust_5="13000.00000" pt_clust_6="13000.00000" pt_clust_7="13000.00000" pt_clust_8="13000.00000" pt_clust_9="124.93707"></scales>
<clustering>
<clus scale="   82.136">  5  6 -1 -1</clus>
<clus scale="   91.482">  7  8 -1 -1</clus>
<clus scale="  126.323">  2  5  1 -1</clus>
<clus scale="  124.937">  1  9  2 -1</clus>
<clus scale="  124.937">  1  5  2 -1</clus>
</clustering>
</event>
<event>
 9    1  0.4664604E-005  0.9707013E+02  0.7546771E-02  0.1290525E+00
         21   -1    0    0  501  502  0.00000000000E+00  0.00000000000E+00  0.43541222563E+02  0.43541222563E+02  0.00000000000E+00 0. -1.
          1   -1    0    0  502    0 -0.00000000000E+00 -0.00000000000E+00 -0.45766697935E+03  0.45766697935E+03  0.00000000000E+00 0. -1.
        -24    2    1    2    0    0 -0.37584928481E+02  0.16688624551E+02 -0.23536416482E+03  0.25198674316E+03  0.80061798659E+02 0.  0.
         23    2    1    2    0    0  0.49160561368E+02  0.38178189917E+02 -0.15411314799E+03  0.18796863517E+03  0.87789580504E+02 0.  0.
         11    1    3    3    0    0 -0.14086826826E+02 -0.32474445797E+02 -0.86462683039E+02  0.93428174970E+02  0.00000000000E+00 0. -1.
        -12    1    3    3    0    0 -0.23498101655E+02  0.49163070348E+02 -0.14890148178E+03  0.15855856819E+03  0.00000000000E+00 0.  1.
        -11    1    4    4    0    0  0.61239635754E+02 -0.47955423910E+01 -0.73202470701E+02  0.95560933078E+02  0.00000000000E+00 0.  1.
         11    1    4    4    0    0 -0.12079074386E+02  0.42973732308E+02 -0.80910677293E+02  0.92407702096E+02  0.00000000000E+00 0. -1.
          2    1    1    2  501    0 -0.11575632887E+02 -0.54866814468E+02 -0.24648443965E+02  0.61252823580E+02  0.00000000000E+00 0. -1.
<scales pt_clust_5="13000.00000" pt_clust_6="13000.00000" pt_clust_7="13000.00000" pt_clust_8="13000.00000" pt_clust_9="56.07462"></scales>
<clustering>
<clus scale="   56.075">  1  9  2 -1</clus>
<clus scale="   80.062">  5  6 -1 -1</clus>
<clus scale="   87.790">  7  8 -1 -1</clus>
<clus scale="   90.142">  2  5  1 -1</clus>
<clus scale="   56.075">  1  5  2 -1</clus>
</clustering>
</event>
<event>
 9    1  0.4664604E-005  0.9989544E+02  0.7546771E-02  0.1284594E+00
          1   -1    0    0  502    0 -0.00000000000E+00  0.00000000000E+00  0.47549727476E+03  0.47549727476E+03  0.00000000000E+00 0. -1.
         21   -1    0    0  501  502  0.00000000000E+00 -0.00000000000E+00 -0.53734009062E+02  0.53734009062E+02  0.00000000000E+00 0. -1.
         23    2    1    2    0    0 -0.26880990696E+02 -0.19011502791E+02  0.30046996534E+03  0.31608827624E+03  0.92442270687E+02 0.  0.
        -24    2    1    2    0    0  0.26009885986E+02  0.41875404243E+02  0.14839650149E+03  0.17767329763E+03  0.84357663476E+02 0.  0.
         11    1    4    4    0    0  0.11044683091E+02  0.59627678992E+02  0.56481409937E+02  0.82870952662E+02  0.00000000000E+00 0. -1.
        -12    1    4    4    0    0  0.14965202895E+02 -0.17752274750E+02  0.91915091552E+02  0.94802344969E+02  0.00000000000E+00 0.  1.
        -11    1    3    3    0    0 -0.18316911178E+02 -0.55995382369E+02  0.15730947192E+03  0.16797994534E+03  0.00000000000E+00 0.  1.
         11    1    3    3    0    0 -0.85640795177E+01  0.36983879578E+02  0.14316049342E+03  0.14810833090E+03  0.00000000000E+00 0. -1.
          2    1    1    2  501    0  0.87110471024E+00 -0.22863901452E+02 -0.27103201124E+02  0.35469709953E+02  0.00000000000E+00 0. -1.
<scales pt_clust_5="13000.00000" pt_clust_6="13000.00000" pt_clust_7="13000.00000" pt_clust_8="13000.00000" pt_clust_9="22.88049"></scales>
<clustering>
<clus scale="   22.880">  2  9  1 -1</clus>
<clus scale="   84.358">  5  6 -1 -1</clus>
<clus scale="   92.442">  7  8 -1 -1</clus>
<clus scale="   92.465">  2  5  1 -1</clus>
<clus scale="   22.880">  2  5  1 -1</clus>
</clustering>
</event>
<event>
 9    1  0.4664604E-005  0.3045735E+03  0.7546771E-02  0.1083993E+00
         21   -1    0    0  501  502  0.00000000000E+00  0.00000000000E+00  0.67234331983E+03  0.67234331983E+03  0.00000000000E+00 0. -1.
          1   -1    0    0  502    0 -0.00000000000E+00 -0.00000000000E+00 -0.53695236774E+03  0.53695236774E+03  0.00000000000E+00 0. -1.
         23    2    1    2    0    0 -0.29424242426E+03  0.48687792326E+02 -0.28586864362E+03  0.42522313412E+03  0.10072103569E+03 0.  0.
        -24    2    1    2    0    0  0.13288829097E+03 -0.31191567933E+03  0.26873655604E+03  0.43970740647E+03  0.78565754999E+02 0.  0.
         13    1    4    4    0    0  0.99964157243E+02 -0.24658469012E+03  0.16609776686E+03  0.31366432741E+03  0.00000000000E+00 0. -1.
        -14    1    4    4    0    0  0.32924133724E+02 -0.65330989213E+02  0.10263878918E+03  0.12604307905E+03  0.00000000000E+00 0.  1.
        -11    1    3    3    0    0 -0.24122325174E+03  0.12089666315E+01 -0.19753518861E+03  0.31178561468E+03  0.00000000000E+00 0. -1.
         11    1    3    3    0    0 -0.53019172522E+02  0.47478825695E+02 -0.88333455007E+02  0.11343751944E+03  0.00000000000E+00 0.  1.
          2    1    1    2  501    0  0.16135413329E+03  0.26322788701E+03  0.15252303967E+03  0.34436514699E+03  0.00000000000E+00 0. -1.
<scales pt_clust_5="13000.00000" pt_clust_6="13000.00000" pt_clust_7="13000.00000" pt_clust_8="13000.00000" pt_clust_9="308.74597"></scales>
<clustering>
<clus scale="   78.566">  5  6 -1 -1</clus>
<clus scale="  100.721">  7  8 -1 -1</clus>
<clus scale="  308.746">  1  9  2 -1</clus>
<clus scale="  308.746">  1  5  2 -1</clus>
<clus scale="  304.573">  1  5  2 -1</clus>
</clustering>
</event>
<event>
 9    1  0.4664604E-005  0.1496051E+03  0.7546771E-02  0.1202351E+00
         21   -1    0    0  501  502  0.00000000000E+00  0.00000000000E+00  0.98085142822E+03  0.98085142822E+03  0.00000000000E+00 0. -1.
          1   -1    0    0  502    0 -0.00000000000E+00 -0.00000000000E+00 -0.13573104842E+03  0.13573104842E+03  0.00000000000E+00 0. -1.
        -24    2    1    2    0    0 -0.11726810533E+03 -0.41750451510E+02 -0.61238651556E+02  0.16208464560E+03  0.83823333059E+02 0.  0.
         23    2    1    2    0    0  0.11713227158E+01  0.98380954866E+02  0.68651730972E+03  0.69951575439E+03  0.91302189510E+02 0.  0.
         13    1    3    3    0    0 -0.75814231950E+02  0.73220468499E+01 -0.61420563383E+02  0.97846286299E+02  0.00000000000E+00 0. -1.
        -14    1    3    3    0    0 -0.41453873380E+02 -0.49072498359E+02  0.18191182712E+00  0.64238359298E+02  0.00000000000E+00 0.  1.
        -11    1    4    4    0    0 -0.26591822325E+02 -0.48719976021E+01  0.15718903349E+03  0.15949687654E+03  0.00000000000E+00 0.  1.
         11    1    4    4    0    0  0.27763145041E+02  0.10325295247E+03  0.52932827623E+03  0.54001887785E+03  0.00000000000E+00 0. -1.
          2    1    1    2  501    0  0.11609678261E+03 -0.56630503357E+02  0.21984172164E+03  0.25498207666E+03  0.00000000000E+00 0. -1.
<scales pt_clust_5="13000.00000" pt_clust_6="13000.00000" pt_clust_7="13000.00000" pt_clust_8="13000.00000" pt_clust_9="129.17228"></scales>
<clustering>
<clus scale="   83.823">  5  6 -1 -1</clus>
<clus scale="   91.302">  7  8 -1 -1</clus>
<clus scale="  129.172">  1  9  2 -1</clus>
<clus scale="  145.162">  2  5  1 -1</clus>
<clus scale="  129.172">  1  5  2 -1</clus>
</clustering>
</event>
<event>
 9    1  0.4664604E-005  0.1783878E+03  0.7546771E-02  0.1189824E+00
         21   -1    0    0  501  502  0.00000000000E+00  0.00000000000E+00  0.74598556393E+03  0.74598556393E+03  0.00000000000E+00 0. -1.
          1   -1    0    0  502    0 -0.00000000000E+00 -0.00000000000E+00 -0.48035184906E+03  0.48035184906E+03  0.00000000000E+00 0. -1.
        -24    2    1    2    0    0 -0.61519054993E+02 -0.48139718770E+02 -0.42534096470E+03  0.43999371596E+03  0.81101832214E+02 0.  0.
         23    2    1    2    0    0 -0.72625052727E+02 -0.59004461448E+02  0.86286409953E+02  0.15775605764E+03  0.93197126694E+02 0.  0.
         11    1    3    3    0    0 -0.58594777654E+02 -0.44272174457E+02 -0.42814148510E+03  0.43439441141E+03  0.00000000000E+00 0. -1.
        -12    1    3    3    0    0 -0.29242773387E+01 -0.38675443131E+01  0.28005204039E+01  0.55993045550E+01  0.00000000000E+00 0.  1.
        -13    1    4    4    0    0 -0.16593685436E+02 -0.55467299899E+02  0.83416863561E+02  0.10153986843E+03  0.00000000000E+00 0.  1.
         13    1    4    4    0    0 -0.56031367291E+02 -0.35371615486E+01  0.28695463917E+01  0.56216189206E+02  0.00000000000E+00 0. -1.
          2    1    1    2  501    0  0.13414410772E+03  0.10714418022E+03  0.60468826961E+03  0.62858763939E+03  0.00000000000E+00 0. -1.
<scales pt_clust_5="13000.00000" pt_clust_6="13000.00000" pt_clust_7="13000.00000" pt_clust_8="13000.00000" pt_clust_9="152.10689"></scales>
<clustering>
<clus scale="   81.102">  5  6 -1 -1</clus>
<clus scale="   93.197">  7  8 -1 -1</clus>
<clus scale="  112.603">  2  5  1 -1</clus>
<clus scale="  152.107">  1  9  2 -1</clus>
<clus scale="  152.107">  1  5  2 -1</clus>
</clustering>
</event>
<event>
 9    1  0.4664604E-005  0.1109802E+03  0.7546771E-02  0.1262778E+00
         21   -1    0    0  501  502  0.00000000000E+00  0.00000000000E+00  0.28168880670E+02  0.28168880670E+02  0.00000000000E+00 0.  1.
          1   -1    0    0  502    0 -0.00000000000E+00 -0.00000000000E+00 -0.90603542920E+03  0.90603542920E+03  0.00000000000E+00 0. -1.
        -24    2    1    2    0    0  0.57876831580E+02  0.55325302675E+02 -0.42875908208E+03  0.44357697607E+03  0.80719058984E+02 0.  0.
         23    2    1    2    0    0 -0.74607483741E+01 -0.23657814788E+02 -0.10434547979E+03  0.14076244748E+03  0.91163219014E+02 0.  0.
         13    1    3    3    0    0  0.34692829898E+02 -0.15948851524E+02 -0.16620123833E+03  0.17053096474E+03  0.00000000000E+00 0. -1.
        -14    1    3    3    0    0  0.23184001682E+02  0.71274154199E+02 -0.26255784375E+03  0.27304601133E+03  0.00000000000E+00 0.  1.
        -11    1    4    4    0    0 -0.72428360671E+01  0.22443791291E+02  0.31547858583E+01  0.23793594004E+02  0.00000000000E+00 0.  1.
         11    1    4    4    0    0 -0.21791230701E+00 -0.46101606079E+02 -0.10750026565E+03  0.11696885348E+03  0.00000000000E+00 0. -1.
          2    1    1    2  501    0 -0.50416083206E+02 -0.31667487887E+02 -0.34476198665E+03  0.34986488632E+03  0.00000000000E+00 0. -1.
<scales pt_clust_5="13000.00000" pt_clust_6="13000.00000" pt_clust_7="13000.00000" pt_clust_8="13000.00000" pt_clust_9="59.53667"></scales>
<clustering>
<clus scale="   59.537">  1  9  2 -1</clus>
<clus scale="   80.719">  5  6 -1 -1</clus>
<clus scale="   91.163">  7  8 -1 -1</clus>
<clus scale="  102.574">  2  5  1 -1</clus>
<clus scale="   59.537">  1  5  2 -1</clus>
</clustering>
</event>
<event>
 9    1  0.4664604E-005  0.9527000E+02  0.7546771E-02  0.1296945E+00
          1   -1    0    0  502    0 -0.00000000000E+00  0.00000000000E+00  0.12022036346E+04  0.12022036346E+04  0.00000000000E+00 0. -1.
         21   -1    0    0  501  502  0.00000000000E+00 -0.00000000000E+00 -0.42860491571E+02  0.42860491571E+02  0.00000000000E+00 0. -1.
        -24    2    1    2    0    0  0.60920415683E+01 -0.20973790822E+02  0.97787330521E+03  0.98150460601E+03  0.81474399060E+02 0.  0.
         23    2    1    2    0    0  0.42898201072E+02  0.51713778143E+02  0.60211264948E+02  0.12921432230E+03  0.92500671109E+02 0.  0.
         11    1    3    3    0    0  0.47053262085E+01 -0.39102102777E+02  0.22562235191E+03  0.22903397175E+03  0.00000000000E+00 0. -1.
        -12    1    3    3    0    0  0.13867153598E+01  0.18128311956E+02  0.75225095331E+03  0.75247063426E+03  0.00000000000E+00 0.  1.
        -11    1    4    4    0    0  0.17186822625E+00  0.26019468494E+02  0.73204976195E+02  0.77691768027E+02  0.00000000000E+00 0.  1.
         11    1    4    4    0    0  0.42726332845E+02  0.25694309649E+02 -0.12993711248E+02  0.51522554272E+02  0.00000000000E+00 0. -1.
          2    1    1    2  501    0 -0.48990242640E+02 -0.30739987322E+02  0.12125857288E+03  0.13434519787E+03  0.00000000000E+00 0. -1.
<scales pt_clust_5="13000.00000" pt_clust_6="13000.00000" pt_clust_7="13000.00000" pt_clust_8="13000.00000" pt_clust_9="57.83589"></scales>
<clustering>
<clus scale="   57.836">  2  9  1 -1</clus>
<clus scale="   81.474">  5  6 -1 -1</clus>
<clus scale="   84.605">  1  5  2 -1</clus>
<clus scale="   92.501">  7  8 -1 -1</clus>
<clus scale="   57.836">  2  5  1 -1</clus>
</clustering>
</event>
<event>
 9    1  0.4664604E-005  0.1007985E+03  0.7546771E-02  0.1284895E+00
          3   -1    0    0  502    0 -0.00000000000E+00  0.00000000000E+00  0.13819068046E+03  0.13819068046E+03  0.00000000000E+00 0. -1.
         21   -1    0    0  501  502  0.00000000000E+00 -0.00000000000E+00 -0.14170413635E+03  0.14170413635E+03  0.00000000000E+00 0.  1.
         23    2    1    2    0    0  0.35497821235E+02  0.25791539634E+02  0.62885191191E+02  0.12013111017E+03  0.92475064366E+02 0.  0.
        -24    2    1    2    0    0 -0.38498218690E+02  0.12051155387E+02 -0.79320534307E+02  0.11966324379E+03  0.80001259754E+02 0.  0.
         13    1    4    4    0    0  0.44442309349E+01 -0.28897315525E+02 -0.34979956466E+02  0.45589509621E+02  0.00000000000E+00 0. -1.
        -14    1    4    4    0    0 -0.42942449625E+02  0.40948470912E+02 -0.44340577841E+02  0.74073734165E+02  0.00000000000E+00 0.  1.
        -13    1    3    3    0    0  0.22846544920E+02 -0.33084984977E+02  0.14026145934E+02  0.42583020272E+02  0.00000000000E+00 0. -1.
         13    1    3    3    0    0  0.12651276315E+02  0.58876524611E+02  0.48859045258E+02  0.77548089894E+02  0.00000000000E+00 0.  1.
          4    1    1    2  501    0  0.30003974550E+01 -0.37842695021E+02  0.12921887229E+02  0.40100462852E+02  0.00000000000E+00 0. -1.
<scales pt_clust_5="13000.00000" pt_clust_6="13000.00000" pt_clust_7="13000.00000" pt_clust_8="13000.00000" pt_clust_9="37.96147"></scales>
<clustering>
<clus scale="   37.961">  2  9  1 -1</clus>
<clus scale="   80.001">  5  6 -1 -1</clus>
<clus scale="   89.492">  2  5  1 -1</clus>
<clus scale="   92.475">  7  8 -1 -1</clus>
<clus scale="   37.961">  2  5  1 -1</clus>
</clustering>
</event>
<event>
 9    1  0.4664604E-005  0.9995852E+02  0.7546771E-02  0.1285333E+00
         -2   -1    0    0    0  501 -0.00000000000E+00  0.00000000000E+00  0.12326987459E+03  0.12326987459E+03  0.00000000000E+00 0.  1.
         21   -1    0    0  501  502  0.00000000000E+00 -0.00000000000E+00 -0.19290808398E+03  0.19290808398E+03  0.00000000000E+00 0. -1.
        -24    2    1    2    0    0  0.17625738012E+02  0.15164547042E+02  0.55011884733E+02  0.10474845571E+03  0.86054060818E+02 0.  0.
         23    2    1    2    0    0 -0.52889097513E+02 -0.40619305168E+02 -0.12076502066E+03  0.16776552423E+03  0.95466728838E+02 0.  0.
         13    1    3    3    0    0  0.87493501273E+00  0.42034506482E+02  0.59408843345E+02  0.72781013417E+02  0.00000000000E+00 0. -1.
        -14    1    3    3    0    0  0.16750802999E+02 -0.26869959440E+02 -0.43969586112E+01  0.31967442288E+02  0.00000000000E+00 0.  1.
        -11    1    4    4    0    0 -0.65930635965E+02 -0.61428086222E+02 -0.10593501455E+03  0.13907726573E+03  0.00000000000E+00 0. -1.
         11    1    4    4    0    0  0.13041538452E+02  0.20808781054E+02 -0.14830006112E+02  0.28688258494E+02  0.00000000000E+00 0.  1.
         -1    1    1    2    0  502  0.35263359501E+02  0.25454758126E+02 -0.38850734663E+01  0.43663978637E+02  0.00000000000E+00 0.  1.
<scales pt_clust_5="13000.00000" pt_clust_6="13000.00000" pt_clust_7="13000.00000" pt_clust_8="13000.00000" pt_clust_9="43.49082"></scales>
<clustering>
<clus scale="   43.491">  2  9  1 -1</clus>
<clus scale="   86.054">  5  6 -1 -1</clus>
<clus scale="   91.012">  1  5  2 -1</clus>
<clus scale="   95.467">  7  8 -1 -1</clus>
<clus scale="   43.491">  2  5  1 -1</clus>
</clustering>
</event>
<event>
 9    1  0.4664604E-005  0.1368756E+03  0.7546771E-02  0.1220348E+00
          3   -1    0    0  502    0 -0.00000000000E+00  0.00000000000E+00  0.87192870006E+03  0.87192870006E+03  0.00000000000E+00 0. -1.
         21   -1    0    0  501  502  0.00000000000E+00 -0.00000000000E+00 -0.28742183973E+02  0.28742183973E+02  0.00000000000E+00 0.  1.
         23    2    1    2    0    0  0.11062633726E+03  0.82377276410E+01  0.43664755969E+03  0.46001591349E+03  0.92991949283E+02 0.  0.
        -24    2    1    2    0    0 -0.82331042637E+02 -0.39911242963E+02  0.24821255435E+03  0.27673094894E+03  0.81235694562E+02 0.  0.
         13    1    4    4    0    0 -0.30059885843E+02  0.23955591784E+02  0.60516560614E+02  0.71691849071E+02  0.00000000000E+00 0. -1.
        -14    1    4    4    0    0 -0.52271156793E+02 -0.63866834746E+02  0.18769599373E+03  0.20503909987E+03  0.00000000000E+00 0.  1.
        -11    1    3    3    0    0  0.91545606864E+02 -0.17974173220E+02  0.40150924931E+03  0.41220546615E+03  0.00000000000E+00 0. -1.
         11    1    3    3    0    0  0.19080730395E+02  0.26211900861E+02  0.35138310380E+02  0.47810447347E+02  0.00000000000E+00 0.  1.
          4    1    1    2  501    0 -0.28295294622E+02  0.31673515322E+02  0.15832640205E+03  0.16392402160E+03  0.00000000000E+00 0. -1.
<scales pt_clust_5="13000.00000" pt_clust_6="13000.00000" pt_clust_7="13000.00000" pt_clust_8="13000.00000" pt_clust_9="42.47160"></scales>
<clustering>
<clus scale="   42.472">  2  9  1 -1</clus>
<clus scale="   81.236">  5  6 -1 -1</clus>
<clus scale="   92.992">  7  8 -1 -1</clus>
<clus scale="  129.177">  2  5  1 -1</clus>
<clus scale="   42.472">  2  5  1 -1</clus>
</clustering>
</event>
<event>
 9    1  0.4664604E-005  0.1040724E+03  0.7546771E-02  0.1278164E+00
         21   -1    0    0  501  502  0.00000000000E+00  0.00000000000E+00  0.24988274097E+03  0.24988274097E+03  0.00000000000E+00 0. -1.
         -2   -1    0    0    0  501 -0.00000000000E+00 -0.00000000000E+00 -0.67668261461E+02  0.67668261461E+02  0.00000000000E+00 0.  1.
         23    2    1    2    0    0 -0.11164393024E+01 -0.60312574114E+02  0.41052213443E+02  0.11842802184E+03  0.93279467707E+02 0.  0.
        -24    2    1    2    0    0 -0.71776113501E+01  0.20171953444E+02  0.13395203177E+03  0.15750509762E+03  0.80039260057E+02 0.  0.
         11    1    4    4    0    0 -0.38364851108E+02  0.14707622682E+01  0.10239867120E+03  0.10935955745E+03  0.00000000000E+00 0. -1.
        -12    1    4    4    0    0  0.31187239758E+02  0.18701191176E+02  0.31553360577E+02  0.48145540175E+02  0.00000000000E+00 0.  1.
        -11    1    3    3    0    0  0.40117893613E+02 -0.26779886640E+02  0.43875862563E+02  0.65205053731E+02  0.00000000000E+00 0.  1.
         11    1    3    3    0    0 -0.41234332915E+02 -0.33532687474E+02 -0.28236491203E+01  0.53222968111E+02  0.00000000000E+00 0. -1.
         -1    1    1    2    0  502  0.82940506525E+01  0.40140620670E+02  0.72102342904E+01  0.41617882965E+02  0.00000000000E+00 0.  1.
<scales pt_clust_5="13000.00000" pt_clust_6="13000.00000" pt_clust_7="13000.00000" pt_clust_8="13000.00000" pt_clust_9="40.98856"></scales>
<clustering>
<clus scale="   40.989">  1  9  2 -1</clus>
<clus scale="   80.039">  5  6 -1 -1</clus>
<clus scale="   92.392">  1  5  2 -1</clus>
<clus scale="   93.279">  7  8 -1 -1</clus>
<clus scale="   40.989">  1  5  2 -1</clus>
</clustering>
</event>
<event>
 9    1  0.4664604E-005  0.1271488E+03  0.7546771E-02  0.1246614E+00
         21   -1    0    0  501  502  0.00000000000E+00  0.00000000000E+00  0.18402371378E+03  0.18402371378E+03  0.00000000000E+00 0.  1.
         -2   -1    0    0    0  501 -0.00000000000E+00 -0.00000000000E+00 -0.32492898008E+03  0.32492898008E+03  0.00000000000E+00 0.  1.
         23    2    1    2    0    0 -0.20204257897E+02  0.14207942451E+02 -0.21857005965E+03  0.23791625950E+03  0.90670821624E+02 0.  0.
        -24    2    1    2    0    0 -0.47125373293E+02  0.62004286666E+02 -0.35600760831E+02  0.11881728686E+03  0.82369904162E+02 0.  0.
         13    1    4    4    0    0 -0.46393504148E+01 -0.20197121885E+02 -0.84988474005E+01  0.22398163136E+02  0.00000000000E+00 0. -1.
        -14    1    4    4    0    0 -0.42486022879E+02  0.82201408551E+02 -0.27101913431E+02  0.96419123723E+02  0.00000000000E+00 0.  1.
        -11    1    3    3    0    0  0.36302506987E+02  0.36603352217E+01 -0.83610254029E+02  0.91224693182E+02  0.00000000000E+00 0. -1.
         11    1    3    3    0    0 -0.56506764883E+02  0.10547607229E+02 -0.13495980562E+03  0.14669156632E+03  0.00000000000E+00 0.  1.
         -1    1    1    2    0  502  0.67329631190E+02 -0.76212229117E+02  0.11326555418E+03  0.15221914750E+03  0.00000000000E+00 0.  1.
<scales pt_clust_5="13000.00000" pt_clust_6="13000.00000" pt_clust_7="13000.00000" pt_clust_8="13000.00000" pt_clust_9="96.86081"></scales>
<clustering>
<clus scale="   82.370">  5  6 -1 -1</clus>
<clus scale="   90.671">  7  8 -1 -1</clus>
<clus scale="   93.975">  2  7  1 -1</clus>
<clus scale="   96.861">  1  9  2 -1</clus>
<clus scale="   96.861">  1  5  2 -1</clus>
</clustering>
</event>
<event>
 9    1  0.4664604E-005  0.1035662E+03  0.7546771E-02  0.1281211E+00
         21   -1    0    0  501  502  0.00000000000E+00  0.00000000000E+00  0.24101198185E+03  0.24101198185E+03  0.00000000000E+00 0. -1.
          1   -1    0    0  502    0 -0.00000000000E+00 -0.00000000000E+00 -0.82028802271E+02  0.82028802271E+02  0.00000000000E+00 0. -1.
        -24    2    1    2    0    0 -0.92457928394E+00 -0.25742951623E+02  0.99662063990E+01  0.84776892102E+02  0.80151367794E+02 0.  0.
         23    2    1    2    0    0  0.54811768373E+02  0.49936099910E+02  0.72845655811E+02  0.14187298393E+03  0.96558324204E+02 0.  0.
         13    1    3    3    0    0  0.37042960506E+02 -0.84318918616E+01 -0.88425146267E+01  0.39005996825E+02  0.00000000000E+00 0. -1.
        -14    1    3    3    0    0 -0.37967539790E+02 -0.17311059762E+02  0.18808721026E+02  0.45770895276E+02  0.00000000000E+00 0.  1.
        -13    1    4    4    0    0 -0.13641294236E+02  0.45502752327E+02  0.93805206393E+01  0.48420858576E+02  0.00000000000E+00 0.  1.
         13    1    4    4    0    0  0.68453062609E+02  0.44333475826E+01  0.63465135172E+02  0.93452125357E+02  0.00000000000E+00 0. -1.
          2    1    1    2  501    0 -0.53887189089E+02 -0.24193148286E+02  0.76171317364E+02  0.96390908082E+02  0.00000000000E+00 0. -1.
<scales pt_clust_5="13000.00000" pt_clust_6="13000.00000" pt_clust_7="13000.00000" pt_clust_8="13000.00000" pt_clust_9="59.06892"></scales>
<clustering>
<clus scale="   59.069">  1  9  2 -1</clus>
<clus scale="   80.151">  5  6 -1 -1</clus>
<clus scale="   88.469">  2  5  1 -1</clus>
<clus scale="   96.558">  7  8 -1 -1</clus>
<clus scale="   59.069">  1  5  2 -1</clus>
</clustering>
</event>
<event>
 9    1  0.4664604E-005  0.1028048E+03  0.7546771E-02  0.1279936E+00
          1   -1    0    0  502    0 -0.00000000000E+00  0.00000000000E+00  0.48443149853E+03  0.48443149853E+03  0.00000000000E+00 0. -1.
         21   -1    0    0  501  502  0.00000000000E+00 -0.00000000000E+00 -0.36310039075E+02  0.36310039075E+02  0.00000000000E+00 0. -1.
        -24    2    1    2    0    0  0.59342078163E+02  0.37563616945E+02  0.24123618758E+03  0.26354977586E+03  0.79568075262E+02 0.  0.
         23    2    1    2    0    0 -0.25325373412E+02  0.65507279119E+01  0.15074592258E+03  0.17810422692E+03  0.91172890152E+02 0.  0.
         11    1    3    3    0    0  0.64365566834E+02  0.31517143134E+02  0.24468558542E+03  0.25496527649E+03  0.00000000000E+00 0. -1.
        -12    1    3    3    0    0 -0.50234886715E+01  0.60464738111E+01 -0.34493978395E+01  0.85844993701E+01  0.00000000000E+00 0.  1.
        -11    1    4    4    0    0 -0.31096672259E+02  0.43507900639E+02  0.62492379764E+02  0.82251066693E+02  0.00000000000E+00 0. -1.
         11    1    4    4    0    0  0.57712988467E+01 -0.36957172727E+02  0.88253542818E+02  0.95853160231E+02  0.00000000000E+00 0.  1.
          2    1    1    2  501    0 -0.34016704750E+02 -0.44114344857E+02  0.56139349289E+02  0.79087534813E+02  0.00000000000E+00 0. -1.
<scales pt_clust_5="13000.00000" pt_clust_6="13000.00000" pt_clust_7="13000.00000" pt_clust_8="13000.00000" pt_clust_9="55.70648"></scales>
<clustering>
<clus scale="   55.706">  2  9  1 -1</clus>
<clus scale="   79.568">  5  6 -1 -1</clus>
<clus scale="   91.173">  7  8 -1 -1</clus>
<clus scale="   92.668">  1  5  2 -1</clus>
<clus scale="   55.706">  2  5  1 -1</clus>
</clustering>
</event>
<event>
 9    1  0.4664604E-005  0.9647493E+02  0.7546771E-02  0.1294600E+00
         21   -1    0    0  501  502  0.00000000000E+00  0.00000000000E+00  0.61330360371E+03  0.61330360371E+03  0.00000000000E+00 0.  1.
         -2   -1    0    0    0  501 -0.00000000000E+00 -0.00000000000E+00 -0.22372630359E+02  0.22372630359E+02  0.00000000000E+00 0.  1.
        -24    2    1    2    0    0  0.44720313080E+01  0.40710886032E+02  0.14166949393E+03  0.16735547671E+03  0.79121645397E+02 0.  0.
         23    2    1    2    0    0 -0.21878764778E+02 -0.69349433440E+01  0.30942608629E+03  0.32341476767E+03  0.91246015160E+02 0.  0.
         13    1    3    3    0    0 -0.14555100128E+02  0.51162103676E+02  0.49490685806E+02  0.72654936335E+02  0.00000000000E+00 0. -1.
        -14    1    3    3    0    0  0.19027131436E+02 -0.10451217644E+02  0.92178808124E+02  0.94700540379E+02  0.00000000000E+00 0.  1.
        -11    1    4    4    0    0 -0.27229604179E+02 -0.46091298887E+02  0.15385779840E+03  0.16290512977E+03  0.00000000000E+00 0.  1.
         11    1    4    4    0    0  0.53508394006E+01  0.39156355543E+02  0.15556828789E+03  0.16050963790E+03  0.00000000000E+00 0. -1.
         -1    1    1    2    0  502  0.17406733470E+02 -0.33775942688E+02  0.13983539313E+03  0.14490598968E+03  0.00000000000E+00 0.  1.
<scales pt_clust_5="13000.00000" pt_clust_6="13000.00000" pt_clust_7="13000.00000" pt_clust_8="13000.00000" pt_clust_9="37.99748"></scales>
<clustering>
<clus scale="   37.997">  1  9  2 -1</clus>
<clus scale="   79.122">  5  6 -1 -1</clus>
<clus scale="   85.099">  2  5  1 -1</clus>
<clus scale="   91.246">  7  8 -1 -1</clus>
<clus scale="   37.997">  1  5  2 -1</clus>
</clustering>
</event>
<event>
 9    1  0.4664604E-005  0.1807007E+03  0.7546771E-02  0.1168657E+00
          1   -1    0    0  502    0 -0.00000000000E+00  0.00000000000E+00  0.97579722276E+02  0.97579722276E+02  0.00000000000E+00 0. -1.
         21   -1    0    0  501  502  0.00000000000E+00 -0.00000000000E+00 -0.47632232768E+03  0.47632232768E+03  0.00000000000E+00 0. -1.
         23    2    1    2    0    0  0.17293372018E+02  0.14663343590E+03 -0.79799121475E+02  0.19183673987E+03  0.92913991071E+02 0.  0.
        -24    2    1    2    0    0 -0.39609158182E+02 -0.16853091762E+03 -0.29392486405E+03  0.35040017842E+03  0.80105578593E+02 0.  0.
         13    1    4    4    0    0 -0.52351359337E+02 -0.16781610939E+03 -0.25732725287E+03  0.31164118224E+03  0.00000000000E+00 0. -1.
        -14    1    4    4    0    0  0.12742201155E+02 -0.71480823391E+00 -0.36597611178E+02  0.38758996182E+02  0.00000000000E+00 0.  1.
        -13    1    3    3    0    0  0.26481587038E+02  0.28464254097E+01 -0.28215875127E+02  0.38800930386E+02  0.00000000000E+00 0.  1.
         13    1    3    3    0    0 -0.91882150198E+01  0.14378701049E+03 -0.51583246349E+02  0.15303580949E+03  0.00000000000E+00 0. -1.
          2    1    1    2  501    0  0.22315786164E+02  0.21897481724E+02 -0.50186198809E+01  0.31665131666E+02  0.00000000000E+00 0. -1.
<scales pt_clust_5="13000.00000" pt_clust_6="13000.00000" pt_clust_7="13000.00000" pt_clust_8="13000.00000" pt_clust_9="31.26492"></scales>
<clustering>
<clus scale="   31.265">  2  9  1 -1</clus>
<clus scale="   80.106">  5  6 -1 -1</clus>
<clus scale="   92.914">  7  8 -1 -1</clus>
<clus scale="  174.461">  2  5  1 -1</clus>
<clus scale="   31.265">  2  5  1 -1</clus>
</clustering>
</event>
<event>
 9    1  0.4664604E-005  0.9088232E+02  0.7546771E-02  0.1302036E+00
          1   -1    0    0  502    0 -0.00000000000E+00  0.00000000000E+00  0.47350358294E+02  0.47350358294E+02  0.00000000000E+00 0. -1.
         21   -1    0    0  501  502  0.00000000000E+00 -0.00000000000E+00 -0.79102437827E+03  0.79102437827E+03  0.00000000000E+00 0. -1.
         23    2    1    2    0    0 -0.18054294809E+02  0.78508781985E+01 -0.30416841683E+02  0.97004852491E+02  0.89984239172E+02 0.  0.
        -24    2    1    2    0    0 -0.61315429763E+02 -0.31598189375E+02 -0.30510574386E+03  0.32489529734E+03  0.87803256186E+02 0.  0.
         11    1    4    4    0    0 -0.84102720623E+02 -0.26593676954E+02 -0.24722953529E+03  0.26249368448E+03  0.00000000000E+00 0. -1.
        -12    1    4    4    0    0  0.22787290859E+02 -0.50045124208E+01 -0.57876208574E+02  0.62401612865E+02  0.00000000000E+00 0.  1.
        -13    1    3    3    0    0  0.57731424596E+01  0.28413836922E+02 -0.51514989230E+02  0.59114037401E+02  0.00000000000E+00 0.  1.
         13    1    3    3    0    0 -0.23827437269E+02 -0.20562958723E+02  0.21098147547E+02  0.37890815090E+02  0.00000000000E+00 0. -1.
          2    1    1    2  501    0  0.79369724573E+02  0.23747311176E+02 -0.40815143443E+03  0.41647458674E+03  0.00000000000E+00 0. -1.
<scales pt_clust_5="13000.00000" pt_clust_6="13000.00000" pt_clust_7="13000.00000" pt_clust_8="13000.00000" pt_clust_9="82.84617"></scales>
<clustering>
<clus scale="   82.846">  2  9  1 -1</clus>
<clus scale="   87.803">  5  6 -1 -1</clus>
<clus scale="   88.723">  2  5  1 -1</clus>
<clus scale="   89.984">  7  8 -1 -1</clus>
<clus scale="   82.846">  2  5  1 -1</clus>
</clustering>
</event>
<event>
 9    1  0.4664604E-005  0.9600188E+02  0.7546771E-02  0.1294513E+00
         21   -1    0    0  501  502  0.00000000000E+00  0.00000000000E+00  0.12715295095E+03  0.12715295095E+03  0.00000000000E+00 0. -1.
         -2   -1    0    0    0  501 -0.00000000000E+00 -0.00000000000E+00 -0.11843230722E+03  0.11843230722E+03  0.00000000000E+00 0.  1.
        -24    2    1    2    0    0  0.29512557386E+02  0.17535037872E+02 -0.57140429599E+02  0.10504497470E+03  0.81184662453E+02 0.  0.
         23    2    1    2    0    0 -0.21772177851E+02  0.35731893988E+01  0.30616511254E+02  0.98735380775E+02  0.91238748592E+02 0.  0.
         11    1    3    3    0    0 -0.16436033248E+02 -0.12680655346E+02 -0.43779504159E+02  0.48451905982E+02  0.00000000000E+00 0. -1.
        -12    1    3    3    0    0  0.45948590634E+02  0.30215693218E+02 -0.13360925440E+02  0.56593068714E+02  0.00000000000E+00 0.  1.
        -13    1    4    4    0    0 -0.39635024284E+02 -0.20934846149E+02  0.46427257180E+02  0.64534433774E+02  0.00000000000E+00 0. -1.
         13    1    4    4    0    0  0.17862846433E+02  0.24508035548E+02 -0.15810745926E+02  0.34200947002E+02  0.00000000000E+00 0.  1.
         -1    1    1    2    0  502 -0.77403795352E+01 -0.21108227270E+02  0.35244562078E+02  0.41804902702E+02  0.00000000000E+00 0.  1.
<scales pt_clust_5="13000.00000" pt_clust_6="13000.00000" pt_clust_7="13000.00000" pt_clust_8="13000.00000" pt_clust_9="22.48268"></scales>
<clustering>
<clus scale="   22.483">  1  9  2 -1</clus>
<clus scale="   81.185">  5  6 -1 -1</clus>
<clus scale="   86.503">  2  5  1 -1</clus>
<clus scale="   91.239">  7  8 -1 -1</clus>
<clus scale="   22.483">  1  5  2 -1</clus>
</clustering>
</event>
<event>
 9    1  0.4664604E-005  0.1068406E+03  0.7546771E-02  0.1275590E+00
         21   -1    0    0  501  502  0.00000000000E+00  0.00000000000E+00  0.15120624448E+03  0.15120624448E+03  0.00000000000E+00 0. -1.
          1   -1    0    0  502    0 -0.00000000000E+00 -0.00000000000E+00 -0.20169041464E+03  0.20169041464E+03  0.00000000000E+00 0. -1.
         23    2    1    2    0    0 -0.19717356533E+02 -0.36758494162E+02 -0.14175204474E+03  0.17689202736E+03  0.97248064846E+02 0.  0.
        -24    2    1    2    0    0  0.20503546931E+01  0.56764552753E+02  0.18203959959E+02  0.98218380048E+02  0.78032349814E+02 0.  0.
         13    1    4    4    0    0 -0.19063868211E+02 -0.87982194695E+01 -0.10646866736E+02  0.23541357401E+02  0.00000000000E+00 0. -1.
        -14    1    4    4    0    0  0.21114222904E+02  0.65562772222E+02  0.28850826695E+02  0.74677022646E+02  0.00000000000E+00 0.  1.
        -13    1    3    3    0    0 -0.57126054374E+02 -0.79233467858E+01 -0.66281565526E+02  0.87860181204E+02  0.00000000000E+00 0. -1.
         13    1    3    3    0    0  0.37408697841E+02 -0.28835147376E+02 -0.75470479212E+02  0.89031846161E+02  0.00000000000E+00 0.  1.
          2    1    1    2  501    0  0.17667001839E+02 -0.20006058591E+02  0.73063914626E+02  0.77786251708E+02  0.00000000000E+00 0. -1.
<scales pt_clust_5="13000.00000" pt_clust_6="13000.00000" pt_clust_7="13000.00000" pt_clust_8="13000.00000" pt_clust_9="26.69017"></scales>
<clustering>
<clus scale="   26.690">  1  9  2 -1</clus>
<clus scale="   78.032">  5  6 -1 -1</clus>
<clus scale="   89.704">  1  5  2 -1</clus>
<clus scale="   97.248">  7  8 -1 -1</clus>
<clus scale="   26.690">  1  5  2 -1</clus>
</clustering>
</event>
<event>
 9    1  0.4664604E-005  0.1384479E+03  0.7546771E-02  0.1234475E+00
         21   -1    0    0  501  502  0.00000000000E+00  0.00000000000E+00  0.10625604506E+03  0.10625604506E+03  0.00000000000E+00 0. -1.
          3   -1    0    0  502    0 -0.00000000000E+00 -0.00000000000E+00 -0.27657596966E+03  0.27657596966E+03  0.00000000000E+00 0. -1.
        -24    2    1    2    0    0  0.10623992234E+02 -0.45667168385E+02 -0.62824041906E+02  0.11233464245E+03  0.80460252131E+02 0.  0.
         23    2    1    2    0    0 -0.27752866552E+02 -0.60120221930E+02 -0.11044804927E+03  0.16329156286E+03  0.10040269033E+03 0.  0.
         11    1    3    3    0    0  0.17785206735E+02  0.13818158702E+02  0.36807389983E+01  0.22821107075E+02  0.00000000000E+00 0. -1.
        -12    1    3    3    0    0 -0.71612145017E+01 -0.59485327087E+02 -0.66504780904E+02  0.89513535372E+02  0.00000000000E+00 0.  1.
        -11    1    4    4    0    0  0.31289263362E+02  0.45965690983E+01 -0.39246320802E+02  0.50402580744E+02  0.00000000000E+00 0.  1.
         11    1    4    4    0    0 -0.59042129914E+02 -0.64716791029E+02 -0.71201728468E+02  0.11288898211E+03  0.00000000000E+00 0. -1.
          4    1    1    2  501    0  0.17128874319E+02  0.10578739032E+03  0.29521665838E+01  0.10720580942E+03  0.00000000000E+00 0. -1.
<scales pt_clust_5="13000.00000" pt_clust_6="13000.00000" pt_clust_7="13000.00000" pt_clust_8="13000.00000" pt_clust_9="95.32637"></scales>
<clustering>
<clus scale="   80.460">  5  6 -1 -1</clus>
<clus scale="   93.125">  2  5  1 -1</clus>
<clus scale="   95.326">  1  9  2 -1</clus>
<clus scale="  100.403">  7  8 -1 -1</clus>
<clus scale="   95.326">  1  5  2 -1</clus>
</clustering>
</event>
<event>
 9    1  0.4664604E-005  0.9269916E+02  0.7546771E-02  0.1303784E+00
         21   -1    0    0  501  502  0.00000000000E+00  0.00000000000E+00  0.21568192284E+03  0.21568192284E+03  0.00000000000E+00 0. -1.
          1   -1    0    0  502    0 -0.00000000000E+00 -0.00000000000E+00 -0.23544975393E+03  0.23544975393E+03  0.00000000000E+00 0. -1.
         23    2    1    2    0    0  0.15773501765E+02  0.81693979235E+00 -0.18882797149E+03  0.21079357188E+03  0.92349642024E+02 0.  0.
        -24    2    1    2    0    0  0.38413527812E+02 -0.67120120798E+00  0.35241365773E+02  0.95964562097E+02  0.80567944537E+02 0.  0.
         13    1    4    4    0    0  0.30058658504E+02  0.30983634403E+02  0.44443020034E+02  0.61957167315E+02  0.00000000000E+00 0. -1.
        -14    1    4    4    0    0  0.83548693078E+01 -0.31654835611E+02 -0.92016542615E+01  0.34007394782E+02  0.00000000000E+00 0.  1.
        -13    1    3    3    0    0 -0.35346929939E+02 -0.96763905433E+01 -0.46536741492E+02  0.59234333784E+02  0.00000000000E+00 0.  1.
         13    1    3    3    0    0  0.51120431704E+02  0.10493330336E+02 -0.14229123000E+03  0.15155923810E+03  0.00000000000E+00 0. -1.
          2    1    1    2  501    0 -0.54187029576E+02 -0.14573858437E+00  0.13381877463E+03  0.14437354279E+03  0.00000000000E+00 0. -1.
<scales pt_clust_5="13000.00000" pt_clust_6="13000.00000" pt_clust_7="13000.00000" pt_clust_8="13000.00000" pt_clust_9="54.18723"></scales>
<clustering>
<clus scale="   54.187">  1  9  2 -1</clus>
<clus scale="   80.568">  5  6 -1 -1</clus>
<clus scale="   80.968">  1  5  2 -1</clus>
<clus scale="   92.350">  7  8 -1 -1</clus>
<clus scale="   54.187">  1  5  2 -1</clus>
</clustering>
</event>
<event>
 9    1  0.4664604E-005  0.1076085E+03  0.7546771E-02  0.1270173E+00
         21   -1    0    0  501  502  0.00000000000E+00  0.00000000000E+00  0.94209399886E+02  0.94209399886E+02  0.00000000000E+00 0.  1.
         -2   -1    0    0    0  501 -0.00000000000E+00 -0.00000000000E+00 -0.39581294367E+03  0.39581294367E+03  0.00000000000E+00 0.  1.
        -24    2    1    2    0    0  0.52228107158E+02 -0.58454083991E+01 -0.23370815792E+03  0.25270270079E+03  0.80481102968E+02 0.  0.
         23    2    1    2    0    0 -0.47345189255E+02  0.61237640940E+02 -0.11332516016E+03  0.16551430379E+03  0.92524468225E+02 0.  0.
         13    1    3    3    0    0  0.47845224098E+02  0.30425063722E+02 -0.17068098873E+03  0.17985230019E+03  0.00000000000E+00 0. -1.
        -14    1    3    3    0    0  0.43828830593E+01 -0.36270472121E+02 -0.63027169190E+02  0.72850400602E+02  0.00000000000E+00 0.  1.
        -11    1    4    4    0    0  0.27041919968E+02  0.21162131653E+02 -0.46407150457E+02  0.57729757190E+02  0.00000000000E+00 0.  1.
         11    1    4    4    0    0 -0.74387109223E+02  0.40075509288E+02 -0.66918009704E+02  0.10778454660E+03  0.00000000000E+00 0. -1.
         -1    1    1    2    0  502 -0.48829179022E+01 -0.55392232541E+02  0.45429774292E+02  0.71805338975E+02  0.00000000000E+00 0.  1.
<scales pt_clust_5="13000.00000" pt_clust_6="13000.00000" pt_clust_7="13000.00000" pt_clust_8="13000.00000" pt_clust_9="55.60703"></scales>
<clustering>
<clus scale="   55.607">  1  9  2 -1</clus>
<clus scale="   80.481">  5  6 -1 -1</clus>
<clus scale="   92.524">  7  8 -1 -1</clus>
<clus scale="   97.448">  2  5  1 -1</clus>
<clus scale="   55.607">  1  5  2 -1</clus>
</clustering>
</event>
<event>
 9    1  0.4664604E-005  0.9836261E+02  0.7546771E-02  0.1290549E+00
         21   -1    0    0  501  502  0.00000000000E+00  0.00000000000E+00  0.17284742213E+03  0.17284742213E+03  0.00000000000E+00 0. -1.
          1   -1    0    0  502    0 -0.00000000000E+00 -0.00000000000E+00 -0.11670388612E+03  0.11670388612E+03  0.00000000000E+00 0. -1.
        -24    2    1    2    0    0  0.93263534830E+01 -0.22921788903E+02  0.11895196762E+01  0.83183483597E+02  0.79408360457E+02 0.  0.
         23    2    1    2    0    0 -0.70831804905E+02  0.20249841423E+02  0.77144567516E+02  0.14092716131E+03  0.92097664643E+02 0.  0.
         13    1    3    3    0    0 -0.72028726482E+01 -0.45586862852E+02 -0.17628160505E+02  0.49404407514E+02  0.00000000000E+00 0. -1.
        -14    1    3    3    0    0  0.16529226131E+02  0.22665073949E+02  0.18817680182E+02  0.33779076083E+02  0.00000000000E+00 0.  1.
        -11    1    4    4    0    0 -0.54442407355E+02  0.50734806881E+02  0.25319356368E+02  0.78607036293E+02  0.00000000000E+00 0.  1.
         11    1    4    4    0    0 -0.16389397550E+02 -0.30484965458E+02  0.51825211148E+02  0.62320125012E+02  0.00000000000E+00 0. -1.
          2    1    1    2  501    0  0.61505451422E+02  0.26719474795E+01 -0.22190551180E+02  0.65440663350E+02  0.00000000000E+00 0. -1.
<scales pt_clust_5="13000.00000" pt_clust_6="13000.00000" pt_clust_7="13000.00000" pt_clust_8="13000.00000" pt_clust_9="61.56349"></scales>
<clustering>
<clus scale="   61.563">  1  9  2 -1</clus>
<clus scale="   79.408">  5  6 -1 -1</clus>
<clus scale="   86.596">  2  5  1 -1</clus>
<clus scale="   92.098">  7  8 -1 -1</clus>
<clus scale="   61.563">  1  5  2 -1</clus>
</clustering>
</event>
<event>
 9    1  0.4664604E-005  0.9712223E+02  0.7546771E-02  0.1291276E+00
          1   -1    0    0  502    0 -0.00000000000E+00  0.00000000000E+00  0.72558429318E+03  0.72558429318E+03  0.00000000000E+00 0. -1.
         21   -1    0    0  501  502  0.00000000000E+00 -0.00000000000E+00 -0.29909345371E+02  0.29909345371E+02  0.00000000000E+00 0. -1.
         23    2    1    2    0    0  0.35265380733E+02 -0.13678581627E+02  0.41461253345E+03  0.42578193413E+03  0.89196142628E+02 0.  0.
        -24    2    1    2    0    0 -0.47796228385E+02 -0.49642752551E+02  0.14778058889E+03  0.18162166929E+03  0.79990286759E+02 0.  0.
         13    1    4    4    0    0 -0.37445512356E+02 -0.71724521783E+02  0.11895108097E+03  0.14386081149E+03  0.00000000000E+00 0. -1.
        -14    1    4    4    0    0 -0.10350716029E+02  0.22081769231E+02  0.28829507923E+02  0.37760857800E+02  0.00000000000E+00 0.  1.
        -11    1    3    3    0    0 -0.28648046065E+02  0.52885760552E+01  0.15717126939E+03  0.15984832655E+03  0.00000000000E+00 0.  1.
         11    1    3    3    0    0  0.63913426798E+02 -0.18967157683E+02  0.25744126406E+03  0.26593360758E+03  0.00000000000E+00 0. -1.
          2    1    1    2  501    0  0.12530847652E+02  0.63321334179E+02  0.13328182546E+03  0.14809003513E+03  0.00000000000E+00 0. -1.
<scales pt_clust_5="13000.00000" pt_clust_6="13000.00000" pt_clust_7="13000.00000" pt_clust_8="13000.00000" pt_clust_9="64.54931"></scales>
<clustering>
<clus scale="   64.549">  2  9  1 -1</clus>
<clus scale="   79.990">  5  6 -1 -1</clus>
<clus scale="   88.742">  2  5  1 -1</clus>
<clus scale="   89.196">  7  8 -1 -1</clus>
<clus scale="   64.549">  2  5  1 -1</clus>
</clustering>
</event>
<event>
 9    1  0.4664604E-005  0.9832059E+02  0.7546771E-02  0.1287525E+00
         21   -1    0    0  501  502  0.00000000000E+00  0.00000000000E+00  0.40843916341E+03  0.40843916341E+03  0.00000000000E+00 0.  1.
          1   -1    0    0  502    0 -0.00000000000E+00 -0.00000000000E+00 -0.63228922823E+02  0.63228922823E+02  0.00000000000E+00 0. -1.
         23    2    1    2    0    0  0.36883693918E+02 -0.25783251715E+02 -0.32472419569E+01  0.98250671527E+02  0.87278101085E+02 0.  0.
        -24    2    1    2    0    0 -0.57015492043E+02 -0.39162379427E+01  0.24647599785E+03  0.26530833922E+03  0.79824771168E+02 0.  0.
         11    1    4    4    0    0 -0.21528543661E+02  0.16423711791E+02  0.16469535083E+02  0.31693249865E+02  0.00000000000E+00 0. -1.
        -12    1    4    4    0    0 -0.35486948382E+02 -0.20339949733E+02  0.23000646277E+03  0.23361508936E+03  0.00000000000E+00 0.  1.
        -13    1    3    3    0    0  0.10450006649E+02 -0.25950923829E+02  0.39251871116E+02  0.48201270446E+02  0.00000000000E+00 0.  1.
         13    1    3    3    0    0  0.26433687269E+02  0.16767211424E+00 -0.42499113072E+02  0.50049401081E+02  0.00000000000E+00 0. -1.
          2    1    1    2  501    0  0.20131798125E+02  0.29699489658E+02  0.10198148469E+03  0.10810907548E+03  0.00000000000E+00 0. -1.
<scales pt_clust_5="13000.00000" pt_clust_6="13000.00000" pt_clust_7="13000.00000" pt_clust_8="13000.00000" pt_clust_9="35.87965"></scales>
<clustering>
<clus scale="   35.880">  1  9  2 -1</clus>
<clus scale="   79.825">  5  6 -1 -1</clus>
<clus scale="   87.278">  7  8 -1 -1</clus>
<clus scale="   91.769">  1  5  2 -1</clus>
<clus scale="   35.880">  1  5  2 -1</clus>
</clustering>
</event>
<event>
 9    1  0.4664604E-005  0.1262487E+03  0.7546771E-02  0.1236119E+00
         21   -1    0    0  501  502  0.00000000000E+00  0.00000000000E+00  0.24613901780E+03  0.24613901780E+03  0.00000000000E+00 0.  1.
         -2   -1    0    0    0  501 -0.00000000000E+00 -0.00000000000E+00 -0.95528291867E+02  0.95528291867E+02  0.00000000000E+00 0.  1.
         23    2    1    2    0    0 -0.27815116445E+02  0.85571210077E+02  0.15393359621E+02  0.12881726221E+03  0.90889046784E+02 0.  0.
        -24    2    1    2    0    0  0.60653923386E+02 -0.65304560584E+02  0.75208669515E+02  0.14150463405E+03  0.80147572845E+02 0.  0.
         11    1    4    4    0    0  0.24926150964E+02 -0.35057071650E+02 -0.10109957480E+02  0.44187356956E+02  0.00000000000E+00 0. -1.
        -12    1    4    4    0    0  0.35727772422E+02 -0.30247488935E+02  0.85318626995E+02  0.97317277096E+02  0.00000000000E+00 0.  1.
        -13    1    3    3    0    0 -0.17512843691E+02  0.26128874568E+02  0.50145977640E+02  0.59194905641E+02  0.00000000000E+00 0. -1.
         13    1    3    3    0    0 -0.10302272755E+02  0.59442335509E+02 -0.34752618019E+02  0.69622356567E+02  0.00000000000E+00 0.  1.
         -1    1    1    2    0  502 -0.32838806941E+02 -0.20266649493E+02  0.60008696800E+02  0.71345413410E+02  0.00000000000E+00 0.  1.
<scales pt_clust_5="13000.00000" pt_clust_6="13000.00000" pt_clust_7="13000.00000" pt_clust_8="13000.00000" pt_clust_9="38.58917"></scales>
<clustering>
<clus scale="   38.589">  1  9  2 -1</clus>
<clus scale="   80.148">  5  6 -1 -1</clus>
<clus scale="   90.889">  7  8 -1 -1</clus>
<clus scale="  118.750">  1  5  2 -1</clus>
<clus scale="   38.589">  1  5  2 -1</clus>
</clustering>
</event>
<event>
 9    1  0.4664604E-005  0.1025836E+03  0.7546771E-02  0.1278874E+00
         21   -1    0    0  501  502  0.00000000000E+00  0.00000000000E+00  0.20071067278E+03  0.20071067278E+03  0.00000000000E+00 0. -1.
         -2   -1    0    0    0  501 -0.00000000000E+00 -0.00000000000E+00 -0.80881072786E+02  0.80881072786E+02  0.00000000000E+00 0.  1.
        -24    2    1    2    0    0  0.44458144183E+02  0.27084003949E+02 -0.11793441479E+02  0.96877561707E+02  0.80846192528E+02 0.  0.
         23    2    1    2    0    0 -0.26463351080E+02 -0.39368058696E+02  0.12703684651E+03  0.16244887981E+03  0.89449008862E+02 0.  0.
         11    1    3    3    0    0 -0.13613138254E+02  0.26403834068E+02  0.14583206642E+02  0.33093049159E+02  0.00000000000E+00 0. -1.
        -12    1    3    3    0    0  0.58071282437E+02  0.68016988003E+00 -0.26376648121E+02  0.63784512548E+02  0.00000000000E+00 0.  1.
        -11    1    4    4    0    0 -0.53899191965E+02 -0.23710915681E+02  0.43706625306E+02  0.73332117879E+02  0.00000000000E+00 0.  1.
         11    1    4    4    0    0  0.27435840885E+02 -0.15657143015E+02  0.83330221201E+02  0.89116761935E+02  0.00000000000E+00 0. -1.
         -1    1    1    2    0  502 -0.17994793103E+02  0.12284054748E+02  0.45861949637E+01  0.22265304043E+02  0.00000000000E+00 0.  1.
<scales pt_clust_5="13000.00000" pt_clust_6="13000.00000" pt_clust_7="13000.00000" pt_clust_8="13000.00000" pt_clust_9="21.78786"></scales>
<clustering>
<clus scale="   21.788">  1  9  2 -1</clus>
<clus scale="   80.846">  5  6 -1 -1</clus>
<clus scale="   89.449">  7  8 -1 -1</clus>
<clus scale="   95.175">  2  5  1 -1</clus>
<clus scale="   21.788">  1  5  2 -1</clus>
</clustering>
</event>
<event>
 9    1  0.4664604E-005  0.1301764E+03  0.7546771E-02  0.1252772E+00
         21   -1    0    0  501  502  0.00000000000E+00  0.00000000000E+00  0.28071282921E+03  0.28071282921E+03  0.00000000000E+00 0.  1.
          3   -1    0    0  502    0 -0.00000000000E+00 -0.00000000000E+00 -0.10621033750E+03  0.10621033750E+03  0.00000000000E+00 0. -1.
        -24    2    1    2    0    0  0.32231254586E+02 -0.21904605352E+01  0.13709392253E+03  0.15744781177E+03  0.70366312577E+02 0.  0.
         23    2    1    2    0    0  0.62085180854E+02  0.48895828380E+02  0.22275306298E+02  0.12314569292E+03  0.91778541604E+02 0.  0.
         13    1    3    3    0    0  0.23684518659E+02 -0.36841024343E+01  0.42771572616E+01  0.24347959033E+02  0.00000000000E+00 0. -1.
        -14    1    3    3    0    0  0.85467359271E+01  0.14936418991E+01  0.13281676527E+03  0.13309985273E+03  0.00000000000E+00 0.  1.
        -11    1    4    4    0    0  0.47567005558E+02  0.76255502839E+02  0.12977136237E+02  0.90807091110E+02  0.00000000000E+00 0.  1.
         11    1    4    4    0    0  0.14518175296E+02 -0.27359674459E+02  0.92981700613E+01  0.32338601808E+02  0.00000000000E+00 0. -1.
          4    1    1    2  501    0 -0.94316435440E+02 -0.46705367845E+02  0.15133262880E+02  0.10632966202E+03  0.00000000000E+00 0. -1.
<scales pt_clust_5="13000.00000" pt_clust_6="13000.00000" pt_clust_7="13000.00000" pt_clust_8="13000.00000" pt_clust_9="92.31800"></scales>
<clustering>
<clus scale="   70.366">  5  6 -1 -1</clus>
<clus scale="   77.428">  2  5  1 -1</clus>
<clus scale="   91.779">  7  8 -1 -1</clus>
<clus scale="   92.318">  1  9  2 -1</clus>
<clus scale="   92.318">  1  5  2 -1</clus>
</clustering>
</event>
<event>
 9    1  0.4664604E-005  0.1208028E+03  0.7546771E-02  0.1254250E+00
         21   -1    0    0  501  502  0.00000000000E+00  0.00000000000E+00  0.14099791270E+03  0.14099791270E+03  0.00000000000E+00 0.  1.
          1   -1    0    0  502    0 -0.00000000000E+00 -0.00000000000E+00 -0.19077308224E+03  0.19077308224E+03  0.00000000000E+00 0. -1.
         23    2    1    2    0    0  0.26877839122E+02 -0.38896557203E+02 -0.11797447335E+03  0.16628488667E+03  0.10722558825E+03 0.  0.
        -24    2    1    2    0    0 -0.51700126287E+02  0.64173629751E+02  0.36119824328E+02  0.11769312404E+03  0.75867462881E+02 0.  0.
         13    1    4    4    0    0 -0.32215017024E+02  0.79188703031E+02  0.18594512718E+02  0.87489507444E+02  0.00000000000E+00 0. -1.
        -14    1    4    4    0    0 -0.19485109264E+02 -0.15015073280E+02  0.17525311609E+02  0.30203616598E+02  0.00000000000E+00 0.  1.
        -13    1    3    3    0    0 -0.33675655706E+02 -0.24928768348E+02 -0.12255813881E+02  0.43654303940E+02  0.00000000000E+00 0.  1.
         13    1    3    3    0    0  0.60553494828E+02 -0.13967788855E+02 -0.10571865947E+03  0.12263058273E+03  0.00000000000E+00 0. -1.
          2    1    1    2  501    0  0.24822287166E+02 -0.25277072548E+02  0.32079479486E+02  0.47792984222E+02  0.00000000000E+00 0. -1.
<scales pt_clust_5="13000.00000" pt_clust_6="13000.00000" pt_clust_7="13000.00000" pt_clust_8="13000.00000" pt_clust_9="35.42706"></scales>
<clustering>
<clus scale="   35.427">  1  9  2 -1</clus>
<clus scale="   75.867">  5  6 -1 -1</clus>
<clus scale="   94.084">  1  5  2 -1</clus>
<clus scale="  107.226">  7  8 -1 -1</clus>
<clus scale="   35.427">  1  5  2 -1</clus>
</clustering>
</event>
<event>
 9    1  0.4664604E-005  0.1200854E+03  0.7546771E-02  0.1245631E+00
         21   -1    0    0  501  502  0.00000000000E+00  0.00000000000E+00  0.60240119621E+02  0.60240119621E+02  0.00000000000E+00 0.  1.
         -4   -1    0    0    0  501 -0.00000000000E+00 -0.00000000000E+00 -0.50459722864E+03  0.50459722864E+03  0.00000000000E+00 0.  1.
        -24    2    1    2    0    0 -0.55777447332E+02 -0.55978158613E+02 -0.37855054898E+03  0.39521225380E+03  0.81532383436E+02 0.  0.
         23    2    1    2    0    0  0.36104660639E+02  0.77495704487E+02 -0.39488075950E+02  0.13034805382E+03  0.90123117228E+02 0.  0.
         11    1    3    3    0    0 -0.11733053534E+02 -0.59978464345E+02 -0.28831963703E+03  0.29472579431E+03  0.00000000000E+00 0. -1.
        -12    1    3    3    0    0 -0.44044393798E+02  0.40003057325E+01 -0.90230911941E+02  0.10048645949E+03  0.00000000000E+00 0.  1.
        -13    1    4    4    0    0  0.47430724265E+01  0.28818350339E+02  0.28661171970E+02  0.40920127455E+02  0.00000000000E+00 0. -1.
         13    1    4    4    0    0  0.31361588213E+02  0.48677354148E+02 -0.68149247920E+02  0.89427926366E+02  0.00000000000E+00 0.  1.
         -3    1    1    2    0  502  0.19672786693E+02 -0.21517545874E+02 -0.26318484096E+02  0.39277040645E+02  0.00000000000E+00 0.  1.
<scales pt_clust_5="13000.00000" pt_clust_6="13000.00000" pt_clust_7="13000.00000" pt_clust_8="13000.00000" pt_clust_9="29.15516"></scales>
<clustering>
<clus scale="   29.155">  1  9  2 -1</clus>
<clus scale="   81.532">  5  6 -1 -1</clus>
<clus scale="   90.123">  7  8 -1 -1</clus>
<clus scale="  113.780">  2  5  1 -1</clus>
<clus scale="   29.155">  1  5  2 -1</clus>
</clustering>
</event>
<event>
 9    1  0.4664604E-005  0.2650640E+03  0.7546771E-02  0.1104629E+00
          1   -1    0    0  502    0 -0.00000000000E+00  0.00000000000E+00  0.68558718921E+03  0.68558718921E+03  0.00000000000E+00 0. -1.
         21   -1    0    0  501  502  0.00000000000E+00 -0.00000000000E+00 -0.13635200137E+03  0.13635200137E+03  0.00000000000E+00 0. -1.
         23    2    1    2    0    0 -0.18138541052E+03  0.16907966755E+03  0.26545954543E+03  0.37452218337E+03  0.91156428452E+02 0.  0.
        -24    2    1    2    0    0  0.22488097238E+03 -0.11860852434E+03  0.26956124829E+03  0.37929029293E+03  0.80984109205E+02 0.  0.
         13    1    4    4    0    0  0.13885819905E+03 -0.85652864261E+02  0.22232774517E+03  0.27576736368E+03  0.00000000000E+00 0. -1.
        -14    1    4    4    0    0  0.86022773331E+02 -0.32955660080E+02  0.47233503125E+02  0.10352292925E+03  0.00000000000E+00 0.  1.
        -13    1    3    3    0    0 -0.14863213735E+03  0.15896709471E+03  0.17992322908E+03  0.28237283477E+03  0.00000000000E+00 0. -1.
         13    1    3    3    0    0 -0.32753273178E+02  0.10112572838E+02  0.85536316346E+02  0.92149348600E+02  0.00000000000E+00 0.  1.
          2    1    1    2  501    0 -0.43495561857E+02 -0.50471143211E+02  0.14214394114E+02  0.68126714278E+02  0.00000000000E+00 0. -1.
<scales pt_clust_5="13000.00000" pt_clust_6="13000.00000" pt_clust_7="13000.00000" pt_clust_8="13000.00000" pt_clust_9="66.62732"></scales>
<clustering>
<clus scale="   66.627">  2  9  1 -1</clus>
<clus scale="   80.984">  5  6 -1 -1</clus>
<clus scale="   91.156">  7  8 -1 -1</clus>
<clus scale="  261.740">  2  5  1 -1</clus>
<clus scale="   66.627">  2  5  1 -1</clus>
</clustering>
</event>
<event>
 9    1  0.4664604E-005  0.9059887E+02  0.7546771E-02  0.1307252E+00
         21   -1    0    0  501  502  0.00000000000E+00  0.00000000000E+00  0.10437312824E+03  0.10437312824E+03  0.00000000000E+00 0. -1.
          1   -1    0    0  502    0 -0.00000000000E+00 -0.00000000000E+00 -0.12924679691E+03  0.12924679691E+03  0.00000000000E+00 0. -1.
        -24    2    1    2    0    0  0.69885274687E+00  0.60139049565E+01 -0.58128199658E+02  0.10013023923E+03  0.81305115246E+02 0.  0.
         23    2    1    2    0    0 -0.10087506019E+02  0.26908960523E+02  0.22310626136E+02  0.97547636238E+02  0.90509266724E+02 0.  0.
         11    1    3    3    0    0  0.35517834492E+02 -0.15822052690E+02 -0.18582281698E+02  0.43094722548E+02  0.00000000000E+00 0. -1.
        -12    1    3    3    0    0 -0.34818981745E+02  0.21835957647E+02 -0.39545917960E+02  0.57035516684E+02  0.00000000000E+00 0.  1.
        -11    1    4    4    0    0 -0.34193625234E+02  0.35858077401E+02 -0.15416521388E+02  0.51890990097E+02  0.00000000000E+00 0. -1.
         11    1    4    4    0    0  0.24106119215E+02 -0.89491168773E+01  0.37727147524E+02  0.45656646141E+02  0.00000000000E+00 0.  1.
          2    1    1    2  501    0  0.93886532721E+01 -0.32922865480E+02  0.10943904857E+02  0.35942049680E+02  0.00000000000E+00 0. -1.
<scales pt_clust_5="13000.00000" pt_clust_6="13000.00000" pt_clust_7="13000.00000" pt_clust_8="13000.00000" pt_clust_9="34.23539"></scales>
<clustering>
<clus scale="   34.235">  1  9  2 -1</clus>
<clus scale="   81.305">  5  6 -1 -1</clus>
<clus scale="   81.405">  2  5  1 -1</clus>
<clus scale="   90.509">  7  8 -1 -1</clus>
<clus scale="   34.235">  1  5  2 -1</clus>
</clustering>
</event>
<event>
 9    1  0.4664604E-005  0.9320666E+02  0.7546771E-02  0.1301478E+00
         21   -1    0    0  501  502  0.00000000000E+00  0.00000000000E+00  0.32608102662E+03  0.32608102662E+03  0.00000000000E+00 0.  1.
          1   -1    0    0  502    0 -0.00000000000E+00 -0.00000000000E+00 -0.36777978002E+02  0.36777978002E+02  0.00000000000E+00 0. -1.
         23    2    1    2    0    0 -0.26054890821E+02  0.19598523524E+02  0.11914918141E+03  0.15344428021E+03  0.91025602094E+02 0.  0.
        -24    2    1    2    0    0  0.14245808184E+02  0.16979713926E+02  0.11721296298E+03  0.14399178327E+03  0.80644288228E+02 0.  0.
         13    1    4    4    0    0 -0.69719594219E+01  0.38065677502E+02  0.22716345782E+02  0.44873560005E+02  0.00000000000E+00 0. -1.
        -14    1    4    4    0    0  0.21217767606E+02 -0.21085963575E+02  0.94496617196E+02  0.99118223267E+02  0.00000000000E+00 0.  1.
        -11    1    3    3    0    0 -0.56013180524E+02  0.16241580558E+02  0.45841433199E+02  0.74180201733E+02  0.00000000000E+00 0. -1.
         11    1    3    3    0    0  0.29958289702E+02  0.33569429655E+01  0.73307748216E+02  0.79264078475E+02  0.00000000000E+00 0.  1.
          2    1    1    2  501    0  0.11809082638E+02 -0.36578237450E+02  0.52940904230E+02  0.65422941147E+02  0.00000000000E+00 0. -1.
<scales pt_clust_5="13000.00000" pt_clust_6="13000.00000" pt_clust_7="13000.00000" pt_clust_8="13000.00000" pt_clust_9="38.43725"></scales>
<clustering>
<clus scale="   38.437">  1  9  2 -1</clus>
<clus scale="   80.644">  5  6 -1 -1</clus>
<clus scale="   83.098">  1  5  2 -1</clus>
<clus scale="   91.026">  7  8 -1 -1</clus>
<clus scale="   38.437">  1  5  2 -1</clus>
</clustering>
</event>
<event>
 9    1  0.4664604E-005  0.9307198E+02  0.7546771E-02  0.1301570E+00
         21   -1    0    0  501  502  0.00000000000E+00  0.00000000000E+00  0.36283210729E+03  0.36283210729E+03  0.00000000000E+00 0.  1.
          3   -1    0    0  502    0 -0.00000000000E+00 -0.00000000000E+00 -0.51521523619E+02  0.51521523619E+02  0.00000000000E+00 0. -1.
         23    2    1    2    0    0  0.14277100546E+02 -0.13451338653E+02  0.13884518661E+02  0.93704198198E+02  0.90569988352E+02 0.  0.
        -24    2    1    2    0    0 -0.76170344400E+01  0.34883630414E+02  0.27564630285E+03  0.28937551946E+03  0.80513477746E+02 0.  0.
         13    1    4    4    0    0 -0.39712308899E+01  0.25838637131E+02  0.18456170889E+02  0.32000563862E+02  0.00000000000E+00 0. -1.
        -14    1    4    4    0    0 -0.36458035501E+01  0.90449932826E+01  0.25719013196E+03  0.25737495559E+03  0.00000000000E+00 0.  1.
        -13    1    3    3    0    0 -0.16562843176E+02  0.13973424326E+02  0.39554919058E+02  0.45101840130E+02  0.00000000000E+00 0. -1.
         13    1    3    3    0    0  0.30839943722E+02 -0.27424762978E+02 -0.25670400397E+02  0.48602358068E+02  0.00000000000E+00 0.  1.
          4    1    1    2  501    0 -0.66600661063E+01 -0.21432291761E+02  0.21779762154E+02  0.31273913253E+02  0.00000000000E+00 0. -1.
<scales pt_clust_5="13000.00000" pt_clust_6="13000.00000" pt_clust_7="13000.00000" pt_clust_8="13000.00000" pt_clust_9="22.44326"></scales>
<clustering>
<clus scale="   22.443">  1  9  2 -1</clus>
<clus scale="   80.513">  5  6 -1 -1</clus>
<clus scale="   83.318">  1  5  2 -1</clus>
<clus scale="   90.570">  7  8 -1 -1</clus>
<clus scale="   22.443">  1  5  2 -1</clus>
</clustering>
</event>
<event>
 9    1  0.4664604E-005  0.2066920E+03  0.7546771E-02  0.1177557E+00
          1   -1    0    0  502    0 -0.00000000000E+00  0.00000000000E+00  0.16115207059E+03  0.16115207059E+03  0.00000000000E+00 0. -1.
         21   -1    0    0  501  502  0.00000000000E+00 -0.00000000000E+00 -0.39455499955E+03  0.39455499955E+03  0.00000000000E+00 0.  1.
         23    2    1    2    0    0  0.10703512893E+02  0.28302480450E+02 -0.21629251544E+02  0.97634282127E+02  0.90271994197E+02 0.  0.
        -24    2    1    2    0    0  0.15987066810E+03  0.84534971813E+02 -0.13596125406E+03  0.23995500930E+03  0.79925915091E+02 0.  0.
         13    1    4    4    0    0  0.61946853613E+02 -0.41678387428E+01 -0.65363363837E+02  0.90150723150E+02  0.00000000000E+00 0. -1.
        -14    1    4    4    0    0  0.97923814489E+02  0.88702810555E+02 -0.70597890220E+02  0.14980428615E+03  0.00000000000E+00 0.  1.
        -11    1    3    3    0    0  0.22489509274E+02 -0.25705302297E+02  0.77649721801E+01  0.35026209994E+02  0.00000000000E+00 0. -1.
         11    1    3    3    0    0 -0.11785996381E+02  0.54007782747E+02 -0.29394223724E+02  0.62608072134E+02  0.00000000000E+00 0.  1.
          2    1    1    2  501    0 -0.17057418099E+03 -0.11283745226E+03 -0.75812423356E+02  0.21811777871E+03  0.00000000000E+00 0. -1.
<scales pt_clust_5="13000.00000" pt_clust_6="13000.00000" pt_clust_7="13000.00000" pt_clust_8="13000.00000" pt_clust_9="190.61336"></scales>
<clustering>
<clus scale="   79.926">  5  6 -1 -1</clus>
<clus scale="   90.272">  7  8 -1 -1</clus>
<clus scale="   95.208">  1  7  2 -1</clus>
<clus scale="  190.613">  2  9  1 -1</clus>
<clus scale="  190.613">  2  5  1 -1</clus>
</clustering>
</event>
<event>
 9    1  0.4664604E-005  0.1270864E+03  0.7546771E-02  0.1238457E+00
          1   -1    0    0  502    0 -0.00000000000E+00  0.00000000000E+00  0.15914842541E+04  0.15914842541E+04  0.00000000000E+00 0. -1.
         21   -1    0    0  501  502  0.00000000000E+00 -0.00000000000E+00 -0.55746877362E+02  0.55746877362E+02  0.00000000000E+00 0. -1.
        -24    2    1    2    0    0  0.36563006990E+02 -0.71093272522E+02  0.35619075036E+03  0.37308426615E+03  0.76999429422E+02 0.  0.
         23    2    1    2    0    0 -0.17803281072E+02 -0.80821624957E+02  0.48970249594E+02  0.13325554396E+03  0.92248917460E+02 0.  0.
         13    1    3    3    0    0  0.48021670659E+02 -0.78872865147E+02  0.33696916868E+03  0.34939265927E+03  0.00000000000E+00 0. -1.
        -14    1    3    3    0    0 -0.11458663670E+02  0.77795926249E+01  0.19221581675E+02  0.23691606881E+02  0.00000000000E+00 0.  1.
        -11    1    4    4    0    0 -0.21353882130E+02 -0.18268183698E+02 -0.24086600635E+02  0.37011878469E+02  0.00000000000E+00 0. -1.
         11    1    4    4    0    0  0.35506010578E+01 -0.62553441259E+02  0.73056850229E+02  0.96243665489E+02  0.00000000000E+00 0.  1.
          2    1    1    2  501    0 -0.18759725917E+02  0.15191489748E+03  0.11305763767E+04  0.11408913213E+04  0.00000000000E+00 0. -1.
<scales pt_clust_5="13000.00000" pt_clust_6="13000.00000" pt_clust_7="13000.00000" pt_clust_8="13000.00000" pt_clust_9="87.41344"></scales>
<clustering>
<clus scale="   76.999">  5  6 -1 -1</clus>
<clus scale="   92.249">  7  8 -1 -1</clus>
<clus scale="  110.996">  1  5  2 -1</clus>
<clus scale="   87.413">  2  9  1 -1</clus>
<clus scale="   87.413">  2  5  1 -1</clus>
</clustering>
</event>
<event>
 9    1  0.4664604E-005  0.1508357E+03  0.7546771E-02  0.1202376E+00
         21   -1    0    0  501  502  0.00000000000E+00  0.00000000000E+00  0.91281440929E+02  0.91281440929E+02  0.00000000000E+00 0. -1.
          1   -1    0    0  502    0 -0.00000000000E+00 -0.00000000000E+00 -0.93784975106E+03  0.93784975106E+03  0.00000000000E+00 0. -1.
        -24    2    1    2    0    0 -0.55239446428E+02  0.15414466592E+03 -0.67162396808E+03  0.69589215224E+03  0.79844590187E+02 0.  0.
         23    2    1    2    0    0  0.14724885656E+02 -0.57613920915E+02 -0.19650168012E+03  0.22635436736E+03  0.95326823045E+02 0.  0.
         13    1    3    3    0    0 -0.48344360010E+01  0.22822652475E+02 -0.25199344282E+02  0.34340241549E+02  0.00000000000E+00 0. -1.
        -14    1    3    3    0    0 -0.50405010427E+02  0.13132201345E+03 -0.64642462380E+03  0.66155191069E+03  0.00000000000E+00 0.  1.
        -13    1    4    4    0    0 -0.39662244681E+02 -0.31051298625E+02 -0.10756791355E+03  0.11877766131E+03  0.00000000000E+00 0.  1.
         13    1    4    4    0    0  0.54387130337E+02 -0.26562622290E+02 -0.88933766565E+02  0.10757670605E+03  0.00000000000E+00 0. -1.
          2    1    1    2  501    0  0.40514560772E+02 -0.96530745010E+02  0.21557338068E+02  0.10688467239E+03  0.00000000000E+00 0. -1.
<scales pt_clust_5="13000.00000" pt_clust_6="13000.00000" pt_clust_7="13000.00000" pt_clust_8="13000.00000" pt_clust_9="104.68818"></scales>
<clustering>
<clus scale="   79.845">  5  6 -1 -1</clus>
<clus scale="   95.327">  7  8 -1 -1</clus>
<clus scale="  104.688">  1  9  2 -1</clus>
<clus scale="  141.560">  2  5  1 -1</clus>
<clus scale="  104.688">  1  5  2 -1</clus>
</clustering>
</event>
<event>
 9    1  0.4664604E-005  0.9147306E+02  0.7546771E-02  0.1305729E+00
         21   -1    0    0  501  502  0.00000000000E+00  0.00000000000E+00  0.26993598595E+02  0.26993598595E+02  0.00000000000E+00 0. -1.
          1   -1    0    0  502    0 -0.00000000000E+00 -0.00000000000E+00 -0.69971700447E+03  0.69971700447E+03  0.00000000000E+00 0. -1.
         23    2    1    2    0    0 -0.11545088838E+02 -0.10849698058E+02 -0.38647290203E+03  0.39738972329E+03  0.91138812532E+02 0.  0.
        -24    2    1    2    0    0 -0.37926470156E+02 -0.18189883796E+02 -0.23615505452E+03  0.25316126773E+03  0.80945220324E+02 0.  0.
         13    1    4    4    0    0 -0.33053432584E+02  0.73600505420E+01 -0.29603733524E+02  0.44978670369E+02  0.00000000000E+00 0. -1.
        -14    1    4    4    0    0 -0.48730375719E+01 -0.25549934338E+02 -0.20655132099E+03  0.20818259736E+03  0.00000000000E+00 0.  1.
        -11    1    3    3    0    0 -0.50125918599E+02  0.55126236163E+01 -0.19900124118E+03  0.20529123392E+03  0.00000000000E+00 0. -1.
         11    1    3    3    0    0  0.38580829761E+02 -0.16362321674E+02 -0.18747166085E+03  0.19209848937E+03  0.00000000000E+00 0.  1.
          2    1    1    2  501    0  0.49471558993E+02  0.29039581853E+02 -0.50095449330E+02  0.76159612046E+02  0.00000000000E+00 0. -1.
<scales pt_clust_5="13000.00000" pt_clust_6="13000.00000" pt_clust_7="13000.00000" pt_clust_8="13000.00000" pt_clust_9="57.36491"></scales>
<clustering>
<clus scale="   57.365">  1  9  2 -1</clus>
<clus scale="   80.945">  5  6 -1 -1</clus>
<clus scale="   81.321">  1  5  2 -1</clus>
<clus scale="   91.139">  7  8 -1 -1</clus>
<clus scale="   57.365">  1  5  2 -1</clus>
</clustering>
</event>
<event>
 9    1  0.4664604E-005  0.1002974E+03  0.7546771E-02  0.1284895E+00
         21   -1    0    0  501  502  0.00000000000E+00  0.00000000000E+00  0.19696642378E+03  0.19696642378E+03  0.00000000000E+00 0.  1.
          3   -1    0    0  502    0 -0.00000000000E+00 -0.00000000000E+00 -0.15668648759E+03  0.15668648759E+03  0.00000000000E+00 0. -1.
        -24    2    1    2    0    0 -0.31162987895E+02 -0.27435523375E+02 -0.11661786143E+03  0.14776032592E+03  0.80681773362E+02 0.  0.
         23    2    1    2    0    0  0.49569282805E+02  0.91930688880E+01  0.14156094831E+03  0.17577950218E+03  0.91199259777E+02 0.  0.
         13    1    3    3    0    0 -0.26026820494E+02 -0.27465429549E+02 -0.12895764743E+03  0.13439427084E+03  0.00000000000E+00 0. -1.
        -14    1    3    3    0    0 -0.51361674003E+01  0.29906173996E-01  0.12339785993E+02  0.13366055076E+02  0.00000000000E+00 0.  1.
        -13    1    4    4    0    0  0.12851878893E+02 -0.38263275469E+02  0.81148575363E+02  0.90632997987E+02  0.00000000000E+00 0.  1.
         13    1    4    4    0    0  0.36717403912E+02  0.47456344357E+02  0.60412372951E+02  0.85146504188E+02  0.00000000000E+00 0. -1.
          4    1    1    2  501    0 -0.18406294910E+02  0.18242454487E+02  0.15336849309E+02  0.30113083282E+02  0.00000000000E+00 0. -1.
<scales pt_clust_5="13000.00000" pt_clust_6="13000.00000" pt_clust_7="13000.00000" pt_clust_8="13000.00000" pt_clust_9="25.91484"></scales>
<clustering>
<clus scale="   25.915">  1  9  2 -1</clus>
<clus scale="   80.682">  5  6 -1 -1</clus>
<clus scale="   90.840">  2  5  1 -1</clus>
<clus scale="   91.199">  7  8 -1 -1</clus>
<clus scale="   25.915">  1  5  2 -1</clus>
</clustering>
</event>
<event>
 9    1  0.4664604E-005  0.9483135E+02  0.7546771E-02  0.1297703E+00
         -2   -1    0    0    0  501 -0.00000000000E+00  0.00000000000E+00  0.84769971508E+02  0.84769971508E+02  0.00000000000E+00 0.  1.
         21   -1    0    0  501  502  0.00000000000E+00 -0.00000000000E+00 -0.16278688559E+03  0.16278688559E+03  0.00000000000E+00 0.  1.
         23    2    1    2    0    0  0.80261429167E+01  0.20742224812E+02 -0.74466797931E+01  0.93604995713E+02  0.90618890537E+02 0.  0.
        -24    2    1    2    0    0  0.31073338350E+02 -0.33665970051E+02 -0.31788048254E+02  0.97384639603E+02  0.79839452172E+02 0.  0.
         13    1    4    4    0    0  0.48165445226E+02 -0.87307903629E+01  0.56382840992E+01  0.49273999856E+02  0.00000000000E+00 0. -1.
        -14    1    4    4    0    0 -0.17092106876E+02 -0.24935179688E+02 -0.37426332353E+02  0.48110639747E+02  0.00000000000E+00 0.  1.
        -11    1    3    3    0    0 -0.17515143090E+02 -0.30974524606E+02 -0.14359885901E+01  0.35612686999E+02  0.00000000000E+00 0. -1.
         11    1    3    3    0    0  0.25541286007E+02  0.51716749418E+02 -0.60106912030E+01  0.57992308714E+02  0.00000000000E+00 0.  1.
         -1    1    1    2    0  502 -0.39099481267E+02  0.12923745239E+02 -0.38782186034E+02  0.56567221780E+02  0.00000000000E+00 0.  1.
<scales pt_clust_5="13000.00000" pt_clust_6="13000.00000" pt_clust_7="13000.00000" pt_clust_8="13000.00000" pt_clust_9="41.18000"></scales>
<clustering>
<clus scale="   41.180">  2  9  1 -1</clus>
<clus scale="   79.839">  5  6 -1 -1</clus>
<clus scale="   84.590">  2  5  1 -1</clus>
<clus scale="   90.619">  7  8 -1 -1</clus>
<clus scale="   41.180">  2  5  1 -1</clus>
</clustering>
</event>
<event>
 9    1  0.4664604E-005  0.1007413E+03  0.7546771E-02  0.1283988E+00
         21   -1    0    0  501  502  0.00000000000E+00  0.00000000000E+00  0.34549575249E+02  0.34549575249E+02  0.00000000000E+00 0. -1.
          1   -1    0    0  502    0 -0.00000000000E+00 -0.00000000000E+00 -0.82438744032E+03  0.82438744032E+03  0.00000000000E+00 0. -1.
        -24    2    1    2    0    0  0.29432769175E+02  0.24447868698E+02 -0.52861445795E+03  0.53590705057E+03  0.79367093350E+02 0.  0.
         23    2    1    2    0    0 -0.36863717066E+02 -0.56883537328E+02 -0.26644904246E+03  0.28934615805E+03  0.90174478044E+02 0.  0.
         13    1    3    3    0    0 -0.23558304924E+02 -0.83461328261E+01 -0.12076507707E+03  0.12332418864E+03  0.00000000000E+00 0. -1.
        -14    1    3    3    0    0  0.52991074099E+02  0.32794001524E+02 -0.40784938088E+03  0.41258286193E+03  0.00000000000E+00 0.  1.
        -13    1    4    4    0    0  0.21538022943E+02 -0.91595398557E+01 -0.14131821255E+03  0.14324322253E+03  0.00000000000E+00 0.  1.
         13    1    4    4    0    0 -0.58401740009E+02 -0.47723997472E+02 -0.12513082991E+03  0.14610293551E+03  0.00000000000E+00 0. -1.
          2    1    1    2  501    0  0.74309478916E+01  0.32435668630E+02  0.52256353498E+01  0.33683806953E+02  0.00000000000E+00 0. -1.
<scales pt_clust_5="13000.00000" pt_clust_6="13000.00000" pt_clust_7="13000.00000" pt_clust_8="13000.00000" pt_clust_9="33.27599"></scales>
<clustering>
<clus scale="   33.276">  1  9  2 -1</clus>
<clus scale="   79.367">  5  6 -1 -1</clus>
<clus scale="   90.174">  7  8 -1 -1</clus>
<clus scale="   91.195">  2  5  1 -1</clus>
<clus scale="   33.276">  1  5  2 -1</clus>
</clustering>
</event>
<event>
 9    1  0.4664604E-005  0.2320139E+03  0.7546771E-02  0.1158852E+00
         21   -1    0    0  501  502  0.00000000000E+00  0.00000000000E+00  0.32232094588E+03  0.32232094588E+03  0.00000000000E+00 0.  1.
          1   -1    0    0  502    0 -0.00000000000E+00 -0.00000000000E+00 -0.46485384061E+03  0.46485384061E+03  0.00000000000E+00 0. -1.
         23    2    1    2    0    0 -0.42456021462E+02  0.83145441024E+01 -0.22723641696E+03  0.24965480271E+03  0.93912118088E+02 0.  0.
        -24    2    1    2    0    0 -0.19223030071E+03  0.75818460534E+02  0.16373550756E+03  0.27598205730E+03  0.81583405486E+02 0.  0.
         11    1    4    4    0    0 -0.68137876232E+02  0.58281071229E+02  0.34814799002E+02  0.96184841168E+02  0.00000000000E+00 0. -1.
        -12    1    4    4    0    0 -0.12409242448E+03  0.17537389306E+02  0.12892070855E+03  0.17979721613E+03  0.00000000000E+00 0.  1.
        -11    1    3    3    0    0  0.14398768760E+02  0.34432091820E+02 -0.55548238901E+02  0.66921598412E+02  0.00000000000E+00 0.  1.
         11    1    3    3    0    0 -0.56854790222E+02 -0.26117547718E+02 -0.17168817805E+03  0.18273320430E+03  0.00000000000E+00 0. -1.
          2    1    1    2  501    0  0.23468632217E+03 -0.84133004637E+02 -0.79031985324E+02  0.26153792648E+03  0.00000000000E+00 0. -1.
<scales pt_clust_5="13000.00000" pt_clust_6="13000.00000" pt_clust_7="13000.00000" pt_clust_8="13000.00000" pt_clust_9="217.19729"></scales>
<clustering>
<clus scale="   81.583">  5  6 -1 -1</clus>
<clus scale="   93.912">  7  8 -1 -1</clus>
<clus scale="  103.398">  2  7  1 -1</clus>
<clus scale="  217.197">  1  9  2 -1</clus>
<clus scale="  217.197">  1  5  2 -1</clus>
</clustering>
</event>
<event>
 9    1  0.4664604E-005  0.9411387E+02  0.7546771E-02  0.1294847E+00
         21   -1    0    0  501  502  0.00000000000E+00  0.00000000000E+00  0.32522310970E+03  0.32522310970E+03  0.00000000000E+00 0. -1.
          3   -1    0    0  502    0 -0.00000000000E+00 -0.00000000000E+00 -0.17112502205E+03  0.17112502205E+03  0.00000000000E+00 0. -1.
         23    2    1    2    0    0 -0.10467945100E+02 -0.19394941292E+02 -0.12429544175E+03  0.15508744666E+03  0.90094492888E+02 0.  0.
        -24    2    1    2    0    0  0.59896472935E+01  0.87753310498E+02  0.14023325691E+03  0.18704919822E+03  0.87094872591E+02 0.  0.
         11    1    4    4    0    0  0.62232163264E+01  0.94666827012E+02  0.73639417028E+02  0.12009704534E+03  0.00000000000E+00 0. -1.
        -12    1    4    4    0    0 -0.23356903287E+00 -0.69135165142E+01  0.66593839886E+02  0.66952152884E+02  0.00000000000E+00 0.  1.
        -11    1    3    3    0    0 -0.32181982382E+01  0.19865004780E+02  0.41785024641E+01  0.20553225967E+02  0.00000000000E+00 0.  1.
         11    1    3    3    0    0 -0.72497468618E+01 -0.39259946071E+02 -0.12847394421E+03  0.13453422069E+03  0.00000000000E+00 0. -1.
          4    1    1    2  501    0  0.44782978064E+01 -0.68358369206E+02  0.13816027249E+03  0.15421148688E+03  0.00000000000E+00 0. -1.
<scales pt_clust_5="13000.00000" pt_clust_6="13000.00000" pt_clust_7="13000.00000" pt_clust_8="13000.00000" pt_clust_9="68.50490"></scales>
<clustering>
<clus scale="   68.505">  1  9  2 -1</clus>
<clus scale="   87.095">  5  6 -1 -1</clus>
<clus scale="   90.094">  7  8 -1 -1</clus>
<clus scale="   91.246">  1  5  2 -1</clus>
<clus scale="   68.505">  1  5  2 -1</clus>
</clustering>
</event>
<event>
 9    1  0.4664604E-005  0.9544814E+02  0.7546771E-02  0.1290843E+00
          1   -1    0    0  502    0 -0.00000000000E+00  0.00000000000E+00  0.10468428301E+04  0.10468428301E+04  0.00000000000E+00 0. -1.
         21   -1    0    0  501  502  0.00000000000E+00 -0.00000000000E+00 -0.36854887840E+02  0.36854887840E+02  0.00000000000E+00 0. -1.
         23    2    1    2    0    0  0.30576283700E+02  0.41284357613E+00  0.47783451566E+03  0.48604453745E+03  0.83536749197E+02 0.  0.
        -24    2    1    2    0    0 -0.50783353079E+02 -0.67238265222E+02  0.51147492367E+03  0.52484134685E+03  0.82169997962E+02 0.  0.
         13    1    4    4    0    0 -0.35083336356E+02 -0.82284668757E+02  0.32440807534E+03  0.33651479395E+03  0.00000000000E+00 0. -1.
        -14    1    4    4    0    0 -0.15700016723E+02  0.15046403534E+02  0.18706684833E+03  0.18832655290E+03  0.00000000000E+00 0.  1.
        -11    1    3    3    0    0  0.55408278825E+02  0.18300662271E+02  0.31474326321E+03  0.32010672180E+03  0.00000000000E+00 0.  1.
         11    1    3    3    0    0 -0.24831995125E+02 -0.17887818695E+02  0.16309125245E+03  0.16593781566E+03  0.00000000000E+00 0. -1.
          2    1    1    2  501    0  0.20207069380E+02  0.66825421646E+02  0.20678502906E+02  0.72811833609E+02  0.00000000000E+00 0. -1.
<scales pt_clust_5="13000.00000" pt_clust_6="13000.00000" pt_clust_7="13000.00000" pt_clust_8="13000.00000" pt_clust_9="69.81377"></scales>
<clustering>
<clus scale="   69.814">  2  9  1 -1</clus>
<clus scale="   82.170">  5  6 -1 -1</clus>
<clus scale="   83.537">  7  8 -1 -1</clus>
<clus scale="   94.254">  2  5  1 -1</clus>
<clus scale="   69.814">  2  5  1 -1</clus>
</clustering>
</event>
<event>
 9    1  0.4664604E-005  0.1053189E+03  0.7546771E-02  0.1275049E+00
         -2   -1    0    0    0  501 -0.00000000000E+00  0.00000000000E+00  0.52229836296E+02  0.52229836296E+02  0.00000000000E+00 0.  1.
         21   -1    0    0  501  502  0.00000000000E+00 -0.00000000000E+00 -0.31578073231E+03  0.31578073231E+03  0.00000000000E+00 0. -1.
        -24    2    1    2    0    0  0.48296663044E+02 -0.20749161554E+02 -0.24910769010E+02  0.10033938133E+03  0.81757872198E+02 0.  0.
         23    2    1    2    0    0 -0.26928211576E+02  0.17899785794E+02 -0.18793704882E+03  0.21257552685E+03  0.93928107547E+02 0.  0.
         13    1    3    3    0    0 -0.59303722689E+00  0.26609271485E+02  0.29764261859E+01  0.26781787374E+02  0.00000000000E+00 0. -1.
        -14    1    3    3    0    0  0.48889700270E+02 -0.47358433039E+02 -0.27887195196E+02  0.73557593954E+02  0.00000000000E+00 0.  1.
        -13    1    4    4    0    0  0.68071158823E+01 -0.35476929001E+02 -0.72265600959E+02  0.80791499553E+02  0.00000000000E+00 0.  1.
         13    1    4    4    0    0 -0.33735327458E+02  0.53376714796E+02 -0.11567144786E+03  0.13178402730E+03  0.00000000000E+00 0. -1.
         -1    1    1    2    0  502 -0.21368451468E+02  0.28493757602E+01 -0.50703078189E+02  0.55095660430E+02  0.00000000000E+00 0.  1.
<scales pt_clust_5="13000.00000" pt_clust_6="13000.00000" pt_clust_7="13000.00000" pt_clust_8="13000.00000" pt_clust_9="21.55759"></scales>
<clustering>
<clus scale="   21.558">  2  9  1 -1</clus>
<clus scale="   81.758">  5  6 -1 -1</clus>
<clus scale="   93.928">  7  8 -1 -1</clus>
<clus scale="   94.625">  1  5  2 -1</clus>
<clus scale="   21.558">  2  5  1 -1</clus>
</clustering>
</event>
<event>
 9    1  0.4664604E-005  0.2210182E+03  0.7546771E-02  0.1133862E+00
          1   -1    0    0  502    0 -0.00000000000E+00  0.00000000000E+00  0.30083638588E+03  0.30083638588E+03  0.00000000000E+00 0. -1.
         21   -1    0    0  501  502  0.00000000000E+00 -0.00000000000E+00 -0.18242465247E+03  0.18242465247E+03  0.00000000000E+00 0. -1.
        -24    2    1    2    0    0 -0.19190194786E+03 -0.16623478262E+02  0.55913665512E+02  0.21606304030E+03  0.80338046852E+02 0.  0.
         23    2    1    2    0    0  0.21101022547E+03  0.28006401715E+02  0.38463586233E+02  0.23445118861E+03  0.90433614228E+02 0.  0.
         13    1    3    3    0    0 -0.19552424044E+03 -0.40886671470E+01  0.50872846683E+02  0.20207546197E+03  0.00000000000E+00 0. -1.
        -14    1    3    3    0    0  0.36222925822E+01 -0.12534811115E+02  0.50408188295E+01  0.13987578336E+02  0.00000000000E+00 0.  1.
        -11    1    4    4    0    0  0.50340194381E+02 -0.30559155214E+02 -0.11949043461E+01  0.58901824540E+02  0.00000000000E+00 0.  1.
         11    1    4    4    0    0  0.16067003109E+03  0.58565556929E+02  0.39658490579E+02  0.17554936407E+03  0.00000000000E+00 0. -1.
          2    1    1    2  501    0 -0.19108277614E+02 -0.11382923453E+02  0.24034481662E+02  0.32746809439E+02  0.00000000000E+00 0. -1.
<scales pt_clust_5="13000.00000" pt_clust_6="13000.00000" pt_clust_7="13000.00000" pt_clust_8="13000.00000" pt_clust_9="22.24180"></scales>
<clustering>
<clus scale="   22.242">  2  9  1 -1</clus>
<clus scale="   80.338">  5  6 -1 -1</clus>
<clus scale="   90.434">  7  8 -1 -1</clus>
<clus scale="  217.083">  1  5  2 -1</clus>
<clus scale="   22.242">  2  5  1 -1</clus>
</clustering>
</event>
<event>
 9    1  0.4664604E-005  0.1740161E+03  0.7546771E-02  0.1189415E+00
         -2   -1    0    0    0  501 -0.00000000000E+00  0.00000000000E+00  0.99551930926E+03  0.99551930926E+03  0.00000000000E+00 0.  1.
         21   -1    0    0  501  502  0.00000000000E+00 -0.00000000000E+00 -0.57557675821E+02  0.57557675821E+02  0.00000000000E+00 0. -1.
         23    2    1    2    0    0  0.17555212628E+02 -0.80437459762E+02  0.31977896072E+03  0.34240686731E+03  0.90584262624E+02 0.  0.
        -24    2    1    2    0    0  0.93981060592E+02  0.16633203075E+03  0.41223784731E+03  0.46120771844E+03  0.79206897383E+02 0.  0.
         13    1    4    4    0    0  0.10332473535E+03  0.13175368659E+03  0.36789790688E+03  0.40420774949E+03  0.00000000000E+00 0. -1.
        -14    1    4    4    0    0 -0.93436747545E+01  0.34578344161E+02  0.44339940428E+02  0.56999968947E+02  0.00000000000E+00 0.  1.
        -13    1    3    3    0    0  0.47456993208E+02 -0.48895395327E+02  0.25816604725E+03  0.26700680486E+03  0.00000000000E+00 0.  1.
         13    1    3    3    0    0 -0.29901780580E+02 -0.31542064435E+02  0.61612913476E+02  0.75400062452E+02  0.00000000000E+00 0. -1.
         -1    1    1    2    0  502 -0.11153627322E+03 -0.85894570985E+02  0.20594482541E+03  0.24946239933E+03  0.00000000000E+00 0.  1.
<scales pt_clust_5="13000.00000" pt_clust_6="13000.00000" pt_clust_7="13000.00000" pt_clust_8="13000.00000" pt_clust_9="154.94475"></scales>
<clustering>
<clus scale="   79.207">  5  6 -1 -1</clus>
<clus scale="   90.584">  7  8 -1 -1</clus>
<clus scale="  122.409">  1  7  2 -1</clus>
<clus scale="  154.945">  2  9  1 -1</clus>
<clus scale="  154.945">  2  5  1 -1</clus>
</clustering>
</event>
<event>
 9    1  0.4664604E-005  0.9416262E+02  0.7546771E-02  0.1300388E+00
         -2   -1    0    0    0  501 -0.00000000000E+00  0.00000000000E+00  0.83285890772E+03  0.83285890772E+03  0.00000000000E+00 0.  1.
         21   -1    0    0  501  502  0.00000000000E+00 -0.00000000000E+00 -0.30036294224E+02  0.30036294224E+02  0.00000000000E+00 0.  1.
        -24    2    1    2    0    0  0.12977990540E+02 -0.18237365817E+02  0.62576792439E+03  0.63128695959E+03  0.80229049569E+02 0.  0.
         23    2    1    2    0    0  0.16355171783E+02  0.86695444955E+01  0.17724849828E+03  0.20075349915E+03  0.92424480689E+02 0.  0.
         11    1    3    3    0    0  0.76103835798E+01  0.22648274989E+02  0.69491726011E+02  0.73484435646E+02  0.00000000000E+00 0. -1.
        -12    1    3    3    0    0  0.53676069597E+01 -0.40885640806E+02  0.55627619838E+03  0.55780252394E+03  0.00000000000E+00 0.  1.
        -13    1    4    4    0    0  0.46478947534E+02 -0.18016609996E+02  0.67893577678E+02  0.84228431598E+02  0.00000000000E+00 0.  1.
         13    1    4    4    0    0 -0.30123775750E+02  0.26686154491E+02  0.10935492060E+03  0.11652506755E+03  0.00000000000E+00 0. -1.
         -1    1    1    2    0  502 -0.29333162323E+02  0.95678213214E+01 -0.19380917770E+00  0.30854743212E+02  0.00000000000E+00 0.  1.
<scales pt_clust_5="13000.00000" pt_clust_6="13000.00000" pt_clust_7="13000.00000" pt_clust_8="13000.00000" pt_clust_9="30.85413"></scales>
<clustering>
<clus scale="   30.854">  2  9  1 -1</clus>
<clus scale="   80.229">  5  6 -1 -1</clus>
<clus scale="   82.225">  1  5  2 -1</clus>
<clus scale="   92.424">  7  8 -1 -1</clus>
<clus scale="   30.854">  2  5  1 -1</clus>
</clustering>
</event>
<event>
 9    1  0.4664604E-005  0.1068557E+03  0.7546771E-02  0.1270834E+00
          1   -1    0    0  502    0 -0.00000000000E+00  0.00000000000E+00  0.21961935674E+03  0.21961935674E+03  0.00000000000E+00 0. -1.
         21   -1    0    0  501  502  0.00000000000E+00 -0.00000000000E+00 -0.12685873481E+03  0.12685873481E+03  0.00000000000E+00 0.  1.
         23    2    1    2    0    0  0.21688153441E+02 -0.57824929357E+02  0.16291514551E+03  0.19661838720E+03  0.91122703501E+02 0.  0.
        -24    2    1    2    0    0 -0.28645006219E+02  0.16347295585E+02 -0.61775960082E+02  0.10697623165E+03  0.80869490166E+02 0.  0.
         13    1    4    4    0    0  0.21952180564E+02  0.46251235806E+00  0.41725018279E+01  0.22349987040E+02  0.00000000000E+00 0. -1.
        -14    1    4    4    0    0 -0.50597186783E+02  0.15884783227E+02 -0.65948461910E+02  0.84626244610E+02  0.00000000000E+00 0.  1.
        -13    1    3    3    0    0  0.15686120096E+02  0.15175771948E+02  0.47796622936E+01  0.22342864398E+02  0.00000000000E+00 0.  1.
         13    1    3    3    0    0  0.60020333451E+01 -0.73000701305E+02  0.15813548322E+03  0.17427552280E+03  0.00000000000E+00 0. -1.
          2    1    1    2  501    0  0.69568527781E+01  0.41477633772E+02 -0.83785635044E+01  0.42883472694E+02  0.00000000000E+00 0. -1.
<scales pt_clust_5="13000.00000" pt_clust_6="13000.00000" pt_clust_7="13000.00000" pt_clust_8="13000.00000" pt_clust_9="42.05701"></scales>
<clustering>
<clus scale="   42.057">  2  9  1 -1</clus>
<clus scale="   80.869">  5  6 -1 -1</clus>
<clus scale="   91.123">  7  8 -1 -1</clus>
<clus scale="   98.258">  2  5  1 -1</clus>
<clus scale="   42.057">  2  5  1 -1</clus>
</clustering>
</event>
<event>
 9    1  0.4664604E-005  0.1029463E+03  0.7546771E-02  0.1280481E+00
         21   -1    0    0  501  502  0.00000000000E+00  0.00000000000E+00  0.14154455782E+03  0.14154455782E+03  0.00000000000E+00 0.  1.
          1   -1    0    0  502    0 -0.00000000000E+00 -0.00000000000E+00 -0.12361556060E+03  0.12361556060E+03  0.00000000000E+00 0. -1.
         23    2    1    2    0    0  0.33556836552E+02 -0.38110480374E+02  0.78536272998E+01  0.10623318703E+03  0.92980323573E+02 0.  0.
        -24    2    1    2    0    0 -0.52649729766E+02 -0.18529197076E+02  0.16246315595E+02  0.98838062169E+02  0.79935565140E+02 0.  0.
         13    1    4    4    0    0 -0.50941512443E+02 -0.23017523620E+01  0.43530765086E+02  0.67046724475E+02  0.00000000000E+00 0. -1.
        -14    1    4    4    0    0 -0.17082173229E+01 -0.16227444714E+02 -0.27284449491E+02  0.31791337694E+02  0.00000000000E+00 0.  1.
        -13    1    3    3    0    0 -0.22470183415E+02 -0.41747349092E+02 -0.75635381872E+01  0.48009971972E+02  0.00000000000E+00 0. -1.
         13    1    3    3    0    0  0.56027019966E+02  0.36368687179E+01  0.15417165487E+02  0.58223215061E+02  0.00000000000E+00 0.  1.
          2    1    1    2  501    0  0.19092893214E+02  0.56639677450E+02 -0.61709456776E+01  0.60088869215E+02  0.00000000000E+00 0. -1.
<scales pt_clust_5="13000.00000" pt_clust_6="13000.00000" pt_clust_7="13000.00000" pt_clust_8="13000.00000" pt_clust_9="59.77119"></scales>
<clustering>
<clus scale="   59.771">  1  9  2 -1</clus>
<clus scale="   79.936">  5  6 -1 -1</clus>
<clus scale="   91.336">  1  5  2 -1</clus>
<clus scale="   92.980">  7  8 -1 -1</clus>
<clus scale="   59.771">  1  5  2 -1</clus>
</clustering>
</event>
<event>
 9    1  0.4664604E-005  0.1078061E+03  0.7546771E-02  0.1270599E+00
          1   -1    0    0  502    0 -0.00000000000E+00  0.00000000000E+00  0.93197059088E+03  0.93197059088E+03  0.00000000000E+00 0. -1.
         21   -1    0    0  501  502  0.00000000000E+00 -0.00000000000E+00 -0.20314600601E+02  0.20314600601E+02  0.00000000000E+00 0. -1.
        -24    2    1    2    0    0  0.52480041410E+02 -0.61886549034E+00  0.58138869933E+03  0.58882407429E+03  0.77113118354E+02 0.  0.
         23    2    1    2    0    0 -0.76629407785E+02  0.12319026743E+02  0.22595419276E+03  0.25575174840E+03  0.91267929893E+02 0.  0.
         11    1    3    3    0    0  0.62471983859E+02  0.15974273059E+02  0.30418192594E+03  0.31094142573E+03  0.00000000000E+00 0. -1.
        -12    1    3    3    0    0 -0.99919424493E+01 -0.16593138550E+02  0.27720677338E+03  0.27788264856E+03  0.00000000000E+00 0.  1.
        -13    1    4    4    0    0 -0.38565537556E+02  0.10048144832E+02  0.16967289574E+02  0.43314602816E+02  0.00000000000E+00 0. -1.
         13    1    4    4    0    0 -0.38063870228E+02  0.22708819116E+01  0.20898690318E+03  0.21243714558E+03  0.00000000000E+00 0.  1.
          2    1    1    2  501    0  0.24149366375E+02 -0.11700161253E+02  0.10431309820E+03  0.10770936879E+03  0.00000000000E+00 0. -1.
<scales pt_clust_5="13000.00000" pt_clust_6="13000.00000" pt_clust_7="13000.00000" pt_clust_8="13000.00000" pt_clust_9="26.83443"></scales>
<clustering>
<clus scale="   26.834">  2  9  1 -1</clus>
<clus scale="   77.113">  5  6 -1 -1</clus>
<clus scale="   91.268">  7  8 -1 -1</clus>
<clus scale="   96.118">  1  5  2 -1</clus>
<clus scale="   26.834">  2  5  1 -1</clus>
</clustering>
</event>
<event>
 9    1  0.4664604E-005  0.3008003E+03  0.7546771E-02  0.1085358E+00
          1   -1    0    0  502    0 -0.00000000000E+00  0.00000000000E+00  0.13576870404E+04  0.13576870404E+04  0.00000000000E+00 0. -1.
         21   -1    0    0  501  502  0.00000000000E+00 -0.00000000000E+00 -0.11471300376E+03  0.11471300376E+03  0.00000000000E+00 0. -1.
         23    2    1    2    0    0  0.28223502944E+03 -0.20677466972E+02  0.99262115661E+03  0.10364409170E+04  0.93961931087E+02 0.  0.
        -24    2    1    2    0    0 -0.29783513093E+03 -0.89911325103E+00  0.17170968448E+03  0.35293103435E+03  0.79809308014E+02 0.  0.
         13    1    4    4    0    0 -0.21436477354E+03  0.32607075201E+02  0.10479898550E+03  0.24082837219E+03  0.00000000000E+00 0. -1.
        -14    1    4    4    0    0 -0.83470357390E+02 -0.33506188452E+02  0.66910698976E+02  0.11210266217E+03  0.00000000000E+00 0.  1.
        -13    1    3    3    0    0  0.11002134216E+03 -0.14336314345E+02  0.24094679103E+03  0.26526511597E+03  0.00000000000E+00 0.  1.
         13    1    3    3    0    0  0.17221368727E+03 -0.63411526265E+01  0.75167436557E+03  0.77117580107E+03  0.00000000000E+00 0. -1.
          2    1    1    2  501    0  0.15600101493E+02  0.21576580223E+02  0.78643195515E+02  0.83028092725E+02  0.00000000000E+00 0. -1.
<scales pt_clust_5="13000.00000" pt_clust_6="13000.00000" pt_clust_7="13000.00000" pt_clust_8="13000.00000" pt_clust_9="26.62541"></scales>
<clustering>
<clus scale="   26.625">  2  9  1 -1</clus>
<clus scale="   79.809">  5  6 -1 -1</clus>
<clus scale="   93.962">  7  8 -1 -1</clus>
<clus scale="  296.684">  2  5  1 -1</clus>
<clus scale="   26.625">  2  5  1 -1</clus>
</clustering>
</event>
<event>
 9    1  0.4664604E-005  0.9586380E+02  0.7546771E-02  0.1293942E+00
          1   -1    0    0  502    0 -0.00000000000E+00  0.00000000000E+00  0.99677642092E+02  0.99677642092E+02  0.00000000000E+00 0. -1.
         21   -1    0    0  501  502  0.00000000000E+00 -0.00000000000E+00 -0.20735924167E+03  0.20735924167E+03  0.00000000000E+00 0.  1.
         23    2    1    2    0    0 -0.70190641450E+01  0.37224545277E+02  0.17262639851E+02  0.10088648352E+03  0.91897496097E+02 0.  0.
        -24    2    1    2    0    0 -0.26273401026E+02 -0.12191002367E+02 -0.16349577320E+02  0.89841040578E+02  0.83457724348E+02 0.  0.
         11    1    4    4    0    0  0.28070311120E+02  0.59441145946E+01 -0.15353994583E+02  0.32542587701E+02  0.00000000000E+00 0. -1.
        -12    1    4    4    0    0 -0.54343712146E+02 -0.18135116962E+02 -0.99558273784E+00  0.57298452876E+02  0.00000000000E+00 0.  1.
        -11    1    3    3    0    0  0.39461359634E+02  0.34900817647E+02  0.12186773740E+02  0.54072020776E+02  0.00000000000E+00 0. -1.
         11    1    3    3    0    0 -0.46480423779E+02  0.23237276293E+01  0.50758661115E+01  0.46814462739E+02  0.00000000000E+00 0.  1.
          2    1    1    2  501    0  0.33292465171E+02 -0.25033542909E+02 -0.10859466211E+03  0.11630935967E+03  0.00000000000E+00 0. -1.
<scales pt_clust_5="13000.00000" pt_clust_6="13000.00000" pt_clust_7="13000.00000" pt_clust_8="13000.00000" pt_clust_9="41.65413"></scales>
<clustering>
<clus scale="   41.654">  2  9  1 -1</clus>
<clus scale="   83.458">  5  6 -1 -1</clus>
<clus scale="   87.806">  2  5  1 -1</clus>
<clus scale="   91.897">  7  8 -1 -1</clus>
<clus scale="   41.654">  2  5  1 -1</clus>
</clustering>
</event>
<event>
 9    1  0.4664604E-005  0.9498078E+02  0.7546771E-02  0.1299075E+00
         21   -1    0    0  501  502  0.00000000000E+00  0.00000000000E+00  0.10531726348E+03  0.10531726348E+03  0.00000000000E+00 0. -1.
         -4   -1    0    0    0  501 -0.00000000000E+00 -0.00000000000E+00 -0.12387746450E+03  0.12387746450E+03  0.00000000000E+00 0.  1.
         23    2    1    2    0    0  0.72500498442E+01  0.12729309123E+02  0.60959477079E+01  0.93861744995E+02  0.92510907798E+02 0.  0.
        -24    2    1    2    0    0 -0.32579206688E+02 -0.42524553459E+01  0.15459315349E+02  0.87138857890E+02  0.79213016850E+02 0.  0.
         13    1    4    4    0    0 -0.38561065036E+02  0.78976155401E+01  0.41864837409E+02  0.57462967894E+02  0.00000000000E+00 0. -1.
        -14    1    4    4    0    0  0.59818583474E+01 -0.12150070886E+02 -0.26405522060E+02  0.29675889997E+02  0.00000000000E+00 0.  1.
        -13    1    3    3    0    0 -0.27707392144E+02 -0.27923559251E+02 -0.31142487022E+01  0.39460401489E+02  0.00000000000E+00 0.  1.
         13    1    3    3    0    0  0.34957441988E+02  0.40652868374E+02  0.92101964101E+01  0.54401343506E+02  0.00000000000E+00 0. -1.
         -3    1    1    2    0  502  0.25329156844E+02 -0.84768537768E+01 -0.40115464069E+02  0.48194125097E+02  0.00000000000E+00 0.  1.
<scales pt_clust_5="13000.00000" pt_clust_6="13000.00000" pt_clust_7="13000.00000" pt_clust_8="13000.00000" pt_clust_9="26.71000"></scales>
<clustering>
<clus scale="   26.710">  1  9  2 -1</clus>
<clus scale="   79.213">  5  6 -1 -1</clus>
<clus scale="   82.084">  1  5  2 -1</clus>
<clus scale="   92.511">  7  8 -1 -1</clus>
<clus scale="   26.710">  1  5  2 -1</clus>
</clustering>
</event>
<event>
 9    1  0.4664604E-005  0.1421146E+03  0.7546771E-02  0.1212270E+00
         21   -1    0    0  501  502  0.00000000000E+00  0.00000000000E+00  0.66407477155E+02  0.66407477155E+02  0.00000000000E+00 0. -1.
          1   -1    0    0  502    0 -0.00000000000E+00 -0.00000000000E+00 -0.49360837087E+03  0.49360837087E+03  0.00000000000E+00 0. -1.
         23    2    1    2    0    0  0.62655590143E+02  0.82696921716E+02 -0.17592171411E+03  0.22283190509E+03  0.89112875577E+02 0.  0.
        -24    2    1    2    0    0 -0.41459686149E+02 -0.11919368801E+03 -0.99748397419E+02  0.17988531533E+03  0.80516725262E+02 0.  0.
         11    1    4    4    0    0 -0.25477294881E+02 -0.78029576454E+02 -0.13770408634E+02  0.83230592392E+02  0.00000000000E+00 0. -1.
        -12    1    4    4    0    0 -0.15982391268E+02 -0.41164111557E+02 -0.85977988784E+02  0.96654722939E+02  0.00000000000E+00 0.  1.
        -11    1    3    3    0    0 -0.19199601724E+02  0.31694254695E+02 -0.28870167284E+02  0.46974855466E+02  0.00000000000E+00 0.  1.
         11    1    3    3    0    0  0.81855191867E+02  0.51002667020E+02 -0.14705154683E+03  0.17585704963E+03  0.00000000000E+00 0. -1.
          2    1    1    2  501    0 -0.21195903994E+02  0.36496766296E+02 -0.15153078218E+03  0.15729862760E+03  0.00000000000E+00 0. -1.
<scales pt_clust_5="13000.00000" pt_clust_6="13000.00000" pt_clust_7="13000.00000" pt_clust_8="13000.00000" pt_clust_9="42.20524"></scales>
<clustering>
<clus scale="   42.205">  1  9  2 -1</clus>
<clus scale="   80.517">  5  6 -1 -1</clus>
<clus scale="   89.113">  7  8 -1 -1</clus>
<clus scale="  136.888">  1  5  2 -1</clus>
<clus scale="   42.205">  1  5  2 -1</clus>
</clustering>
</event>
<event>
 9    1  0.4664604E-005  0.1649254E+03  0.7546771E-02  0.1192670E+00
         21   -1    0    0  501  502  0.00000000000E+00  0.00000000000E+00  0.14113187634E+03  0.14113187634E+03  0.00000000000E+00 0. -1.
          1   -1    0    0  502    0 -0.00000000000E+00 -0.00000000000E+00 -0.37978620552E+03  0.37978620552E+03  0.00000000000E+00 0. -1.
        -24    2    1    2    0    0  0.54865159883E+02 -0.92609972277E+02 -0.39719525999E+02  0.13959380717E+03  0.79510989929E+02 0.  0.
         23    2    1    2    0    0 -0.36577629520E+02 -0.94365596182E+02 -0.96163442688E+02  0.16718355110E+03  0.91979037414E+02 0.  0.
         11    1    3    3    0    0  0.69107998474E+02 -0.43388083467E+02 -0.32557391105E+02  0.87854567073E+02  0.00000000000E+00 0. -1.
        -12    1    3    3    0    0 -0.14242838591E+02 -0.49221888809E+02 -0.71621348934E+01  0.51739240092E+02  0.00000000000E+00 0.  1.
        -11    1    4    4    0    0  0.25020147773E+02 -0.20848025019E+01 -0.11474251563E+02  0.27604576523E+02  0.00000000000E+00 0.  1.
         11    1    4    4    0    0 -0.61597777294E+02 -0.92280793680E+02 -0.84689191125E+02  0.13957897457E+03  0.00000000000E+00 0. -1.
          2    1    1    2  501    0 -0.18287530363E+02  0.18697556846E+03 -0.10277136049E+03  0.21414072360E+03  0.00000000000E+00 0. -1.
<scales pt_clust_5="13000.00000" pt_clust_6="13000.00000" pt_clust_7="13000.00000" pt_clust_8="13000.00000" pt_clust_9="136.89509"></scales>
<clustering>
<clus scale="   79.511">  5  6 -1 -1</clus>
<clus scale="   91.979">  7  8 -1 -1</clus>
<clus scale="  133.824">  2  5  1 -1</clus>
<clus scale="  136.895">  1  9  2 -1</clus>
<clus scale="  136.895">  1  5  2 -1</clus>
</clustering>
</event>
<event>
 9    1  0.4664604E-005  0.1725456E+03  0.7546771E-02  0.1194583E+00
         21   -1    0    0  501  502  0.00000000000E+00  0.00000000000E+00  0.74010687470E+02  0.74010687470E+02  0.00000000000E+00 0. -1.
          1   -1    0    0  502    0 -0.00000000000E+00 -0.00000000000E+00 -0.67942103542E+03  0.67942103542E+03  0.00000000000E+00 0. -1.
         23    2    1    2    0    0  0.16187941924E+02  0.57155687319E+02 -0.17758345768E+03  0.20998312450E+03  0.95016872597E+02 0.  0.
        -24    2    1    2    0    0  0.56157361759E+02 -0.17263980223E+03 -0.26450552600E+03  0.33074154211E+03  0.80427879497E+02 0.  0.
         13    1    4    4    0    0  0.19836363817E+02 -0.15794376025E+03 -0.21795209577E+03  0.26989410661E+03  0.00000000000E+00 0. -1.
        -14    1    4    4    0    0  0.36320997942E+02 -0.14696041985E+02 -0.46553430228E+02  0.60847435505E+02  0.00000000000E+00 0.  1.
        -11    1    3    3    0    0 -0.37926384428E+02  0.36090318145E+02 -0.66485057444E+02  0.84623782490E+02  0.00000000000E+00 0.  1.
         11    1    3    3    0    0  0.54114326353E+02  0.21065369175E+02 -0.11109840024E+03  0.12535934201E+03  0.00000000000E+00 0. -1.
          2    1    1    2  501    0 -0.72345303684E+02  0.11548411491E+03 -0.16332136427E+03  0.21270705628E+03  0.00000000000E+00 0. -1.
<scales pt_clust_5="13000.00000" pt_clust_6="13000.00000" pt_clust_7="13000.00000" pt_clust_8="13000.00000" pt_clust_9="152.65436"></scales>
<clustering>
<clus scale="   80.428">  5  6 -1 -1</clus>
<clus scale="   95.017">  7  8 -1 -1</clus>
<clus scale="  112.058">  2  7  1 -1</clus>
<clus scale="  152.654">  1  9  2 -1</clus>
<clus scale="  152.654">  1  5  2 -1</clus>
</clustering>
</event>
<event>
 9    1  0.4664604E-005  0.9166160E+02  0.7546771E-02  0.1301503E+00
          3   -1    0    0  502    0 -0.00000000000E+00  0.00000000000E+00  0.21714356467E+03  0.21714356467E+03  0.00000000000E+00 0. -1.
         21   -1    0    0  501  502  0.00000000000E+00 -0.00000000000E+00 -0.60494599886E+02  0.60494599886E+02  0.00000000000E+00 0. -1.
         23    2    1    2    0    0  0.25571348517E+02  0.10248390779E+02  0.12468410092E+03  0.15513728778E+03  0.88105219242E+02 0.  0.
        -24    2    1    2    0    0 -0.24614668379E+02  0.18200608867E+02  0.30114474428E+02  0.93975716679E+02  0.83590727313E+02 0.  0.
         13    1    4    4    0    0  0.10842502030E+01  0.48165144403E+02  0.83422833864E+01  0.48894278049E+02  0.00000000000E+00 0. -1.
        -14    1    4    4    0    0 -0.25698918582E+02 -0.29964535536E+02  0.21772191042E+02  0.45081438630E+02  0.00000000000E+00 0.  1.
        -11    1    3    3    0    0  0.45110975246E+02  0.29914517909E+02  0.11252157096E+03  0.12486385546E+03  0.00000000000E+00 0. -1.
         11    1    3    3    0    0 -0.19539626730E+02 -0.19666127130E+02  0.12162529960E+02  0.30273432314E+02  0.00000000000E+00 0.  1.
          4    1    1    2  501    0 -0.95668013766E+00 -0.28448999647E+02  0.18503894353E+01  0.28525160102E+02  0.00000000000E+00 0. -1.
<scales pt_clust_5="13000.00000" pt_clust_6="13000.00000" pt_clust_7="13000.00000" pt_clust_8="13000.00000" pt_clust_9="28.46508"></scales>
<clustering>
<clus scale="   28.465">  2  9  1 -1</clus>
<clus scale="   83.591">  5  6 -1 -1</clus>
<clus scale="   87.331">  2  5  1 -1</clus>
<clus scale="   88.105">  7  8 -1 -1</clus>
<clus scale="   28.465">  2  5  1 -1</clus>
</clustering>
</event>
<event>
 9    1  0.4664604E-005  0.6514109E+03  0.7546771E-02  0.9804773E-01
         21   -1    0    0  501  502  0.00000000000E+00  0.00000000000E+00  0.18948783638E+03  0.18948783638E+03  0.00000000000E+00 0. -1.
          1   -1    0    0  502    0 -0.00000000000E+00 -0.00000000000E+00 -0.26245066138E+04  0.26245066138E+04  0.00000000000E+00 0. -1.
        -24    2    1    2    0    0 -0.59055486085E+03  0.24364962839E+03 -0.15041021332E+04  0.16361173826E+04  0.80228906201E+02 0.  0.
         23    2    1    2    0    0  0.62034074652E+03 -0.21676246119E+03 -0.79102995003E+03  0.10323490430E+04  0.90595575355E+02 0.  0.
         13    1    3    3    0    0 -0.42483262116E+03  0.13840116946E+03 -0.10802657511E+04  0.11690216990E+04  0.00000000000E+00 0. -1.
        -14    1    3    3    0    0 -0.16572223969E+03  0.10524845893E+03 -0.42383638211E+03  0.46709568360E+03  0.00000000000E+00 0.  1.
        -11    1    4    4    0    0  0.57500493381E+03 -0.17676792261E+03 -0.73632616860E+03  0.95081743722E+03  0.00000000000E+00 0. -1.
         11    1    4    4    0    0  0.45335812714E+02 -0.39994538577E+02 -0.54703781435E+02  0.81531605735E+02  0.00000000000E+00 0.  1.
          2    1    1    2  501    0 -0.29785885672E+02 -0.26887167207E+02 -0.13988669415E+03  0.14552802460E+03  0.00000000000E+00 0. -1.
<scales pt_clust_5="13000.00000" pt_clust_6="13000.00000" pt_clust_7="13000.00000" pt_clust_8="13000.00000" pt_clust_9="40.12631"></scales>
<clustering>
<clus scale="   40.126">  1  9  2 -1</clus>
<clus scale="   80.229">  5  6 -1 -1</clus>
<clus scale="   90.596">  7  8 -1 -1</clus>
<clus scale="  650.050">  2  5  1 -1</clus>
<clus scale="   40.126">  1  5  2 -1</clus>
</clustering>
</event>
<event>
 9    1  0.4664604E-005  0.1215893E+03  0.7546771E-02  0.1244141E+00
         21   -1    0    0  501  502  0.00000000000E+00  0.00000000000E+00  0.33571695201E+03  0.33571695201E+03  0.00000000000E+00 0.  1.
          1   -1    0    0  502    0 -0.00000000000E+00 -0.00000000000E+00 -0.14867763318E+03  0.14867763318E+03  0.00000000000E+00 0. -1.
         23    2    1    2    0    0 -0.46494395664E+02 -0.72042448560E+02 -0.10332285839E+03  0.16277046493E+03  0.92015042060E+02 0.  0.
        -24    2    1    2    0    0  0.18740419016E+02  0.30526714817E+02  0.19796394096E+03  0.21659425103E+03  0.80251255666E+02 0.  0.
         11    1    4    4    0    0  0.36339667312E+02 -0.14801110153E+02  0.86130293959E+02  0.94647090920E+02  0.00000000000E+00 0. -1.
        -12    1    4    4    0    0 -0.17599248297E+02  0.45327824970E+02  0.11183364700E+03  0.12194716011E+03  0.00000000000E+00 0.  1.
        -11    1    3    3    0    0  0.17299719884E+02 -0.56154864854E+02 -0.37302833015E+02  0.69599931794E+02  0.00000000000E+00 0.  1.
         11    1    3    3    0    0 -0.63794115547E+02 -0.15887583706E+02 -0.66020025376E+02  0.93170533138E+02  0.00000000000E+00 0. -1.
          2    1    1    2  501    0  0.27753976648E+02  0.41515733743E+02  0.92398236249E+02  0.10502986923E+03  0.00000000000E+00 0. -1.
<scales pt_clust_5="13000.00000" pt_clust_6="13000.00000" pt_clust_7="13000.00000" pt_clust_8="13000.00000" pt_clust_9="49.93836"></scales>
<clustering>
<clus scale="   49.938">  1  9  2 -1</clus>
<clus scale="   80.251">  5  6 -1 -1</clus>
<clus scale="   92.015">  7  8 -1 -1</clus>
<clus scale="  112.949">  1  5  2 -1</clus>
<clus scale="   49.938">  1  5  2 -1</clus>
</clustering>
</event>
<event>
 9    1  0.4664604E-005  0.1126014E+03  0.7546771E-02  0.1259658E+00
         21   -1    0    0  501  502  0.00000000000E+00  0.00000000000E+00  0.16781371659E+03  0.16781371659E+03  0.00000000000E+00 0.  1.
          1   -1    0    0  502    0 -0.00000000000E+00 -0.00000000000E+00 -0.28941835725E+03  0.28941835725E+03  0.00000000000E+00 0. -1.
         23    2    1    2    0    0 -0.35546289082E+02 -0.51586422605E+02 -0.23047387040E+03  0.25665343317E+03  0.93957874373E+02 0.  0.
        -24    2    1    2    0    0  0.50166163831E+02  0.36722810720E+02  0.16356276437E+02  0.10574555455E+03  0.83960619978E+02 0.  0.
         13    1    4    4    0    0 -0.14980611006E+02  0.18807541636E+02 -0.17915685606E+02  0.29985231685E+02  0.00000000000E+00 0. -1.
        -14    1    4    4    0    0  0.65146774837E+02  0.17915269084E+02  0.34271962043E+02  0.75760322863E+02  0.00000000000E+00 0.  1.
        -13    1    3    3    0    0 -0.46756780923E+02  0.11856522795E+02 -0.90047622943E+02  0.10215355154E+03  0.00000000000E+00 0. -1.
         13    1    3    3    0    0  0.11210491842E+02 -0.63442945400E+02 -0.14042624745E+03  0.15449988163E+03  0.00000000000E+00 0.  1.
          2    1    1    2  501    0 -0.14619874749E+02  0.14863611885E+02  0.92512953303E+02  0.94833086129E+02  0.00000000000E+00 0. -1.
<scales pt_clust_5="13000.00000" pt_clust_6="13000.00000" pt_clust_7="13000.00000" pt_clust_8="13000.00000" pt_clust_9="20.84869"></scales>
<clustering>
<clus scale="   20.849">  1  9  2 -1</clus>
<clus scale="   83.961">  5  6 -1 -1</clus>
<clus scale="   93.958">  7  8 -1 -1</clus>
<clus scale="  104.405">  1  5  2 -1</clus>
<clus scale="   20.849">  1  5  2 -1</clus>
</clustering>
</event>
<event>
 9    1  0.4664604E-005  0.1579909E+03  0.7546771E-02  0.1192303E+00
          1   -1    0    0  502    0 -0.00000000000E+00  0.00000000000E+00  0.44708026182E+03  0.44708026182E+03  0.00000000000E+00 0. -1.
         21   -1    0    0  501  502  0.00000000000E+00 -0.00000000000E+00 -0.18573714294E+03  0.18573714294E+03  0.00000000000E+00 0.  1.
         23    2    1    2    0    0 -0.82650926256E+02  0.10519223529E+03  0.38550224470E+03  0.41758615561E+03  0.88710961599E+02 0.  0.
        -24    2    1    2    0    0  0.87755110967E+02 -0.66068261390E+02 -0.91422401837E+02  0.16396302182E+03  0.80373144171E+02 0.  0.
         13    1    4    4    0    0  0.59666801500E+02 -0.17712495066E+01 -0.17867572305E+02  0.62309828006E+02  0.00000000000E+00 0. -1.
        -14    1    4    4    0    0  0.28088309467E+02 -0.64297011883E+02 -0.73554829532E+02  0.10165319382E+03  0.00000000000E+00 0.  1.
        -11    1    3    3    0    0 -0.48974375726E+02  0.91860629673E+02  0.35588920540E+03  0.37080182211E+03  0.00000000000E+00 0. -1.
         11    1    3    3    0    0 -0.33676550530E+02  0.13331605617E+02  0.29613039308E+02  0.46784333500E+02  0.00000000000E+00 0.  1.
          2    1    1    2  501    0 -0.51041847114E+01 -0.39123973901E+02 -0.32736723989E+02  0.51268227323E+02  0.00000000000E+00 0. -1.
<scales pt_clust_5="13000.00000" pt_clust_6="13000.00000" pt_clust_7="13000.00000" pt_clust_8="13000.00000" pt_clust_9="39.45552"></scales>
<clustering>
<clus scale="   39.456">  2  9  1 -1</clus>
<clus scale="   80.373">  5  6 -1 -1</clus>
<clus scale="   88.711">  7  8 -1 -1</clus>
<clus scale="  153.464">  2  5  1 -1</clus>
<clus scale="   39.456">  2  5  1 -1</clus>
</clustering>
</event>
<event>
 9    1  0.4664604E-005  0.1191501E+03  0.7546771E-02  0.1258967E+00
         21   -1    0    0  501  502  0.00000000000E+00  0.00000000000E+00  0.36036463954E+02  0.36036463954E+02  0.00000000000E+00 0. -1.
          1   -1    0    0  502    0 -0.00000000000E+00 -0.00000000000E+00 -0.65927963653E+03  0.65927963653E+03  0.00000000000E+00 0. -1.
        -24    2    1    2    0    0 -0.42232176302E+02 -0.55068833677E+01 -0.99771836111E+02  0.13391619849E+03  0.78519083393E+02 0.  0.
         23    2    1    2    0    0 -0.37298902304E+02 -0.37741386252E+02 -0.35457858337E+03  0.36977431045E+03  0.90506621476E+02 0.  0.
         13    1    3    3    0    0 -0.64557814766E+02 -0.10694583992E+02 -0.64728006553E+02  0.92042383751E+02  0.00000000000E+00 0. -1.
        -14    1    3    3    0    0  0.22325638464E+02  0.51877006240E+01 -0.35043829557E+02  0.41873814737E+02  0.00000000000E+00 0.  1.
        -13    1    4    4    0    0 -0.98697909620E+01 -0.65168165697E+02 -0.21161901724E+03  0.22164591369E+03  0.00000000000E+00 0. -1.
         13    1    4    4    0    0 -0.27429111342E+02  0.27426779445E+02 -0.14295956613E+03  0.14812839676E+03  0.00000000000E+00 0.  1.
          2    1    1    2  501    0  0.79531078606E+02  0.43248269620E+02 -0.16889275309E+03  0.19162559155E+03  0.00000000000E+00 0. -1.
<scales pt_clust_5="13000.00000" pt_clust_6="13000.00000" pt_clust_7="13000.00000" pt_clust_8="13000.00000" pt_clust_9="77.49382"></scales>
<clustering>
<clus scale="   78.519">  5  6 -1 -1</clus>
<clus scale="   89.326">  2  5  1 -1</clus>
<clus scale="   77.494">  1  9  2 -1</clus>
<clus scale="   90.507">  7  8 -1 -1</clus>
<clus scale="   77.494">  1  5  2 -1</clus>
</clustering>
</event>
<event>
 9    1  0.4664604E-005  0.1184549E+03  0.7546771E-02  0.1247801E+00
         21   -1    0    0  501  502  0.00000000000E+00  0.00000000000E+00  0.36682186862E+03  0.36682186862E+03  0.00000000000E+00 0. -1.
          1   -1    0    0  502    0 -0.00000000000E+00 -0.00000000000E+00 -0.93816014008E+02  0.93816014008E+02  0.00000000000E+00 0. -1.
        -24    2    1    2    0    0  0.54697420861E+02  0.56607153359E+02 -0.26585190584E+02  0.11856572159E+03  0.84586525624E+02 0.  0.
         23    2    1    2    0    0 -0.38425246977E+02 -0.39523021983E+02  0.30013218667E+03  0.31847249956E+03  0.91141837978E+02 0.  0.
         11    1    3    3    0    0  0.64847283629E+02  0.69885640042E+02 -0.32669488666E+02  0.10077930526E+03  0.00000000000E+00 0. -1.
        -12    1    3    3    0    0 -0.10149862768E+02 -0.13278486684E+02  0.60842980818E+01  0.17786416333E+02  0.00000000000E+00 0.  1.
        -11    1    4    4    0    0 -0.18388296265E+01  0.24742526100E+02  0.13879138252E+03  0.14099156625E+03  0.00000000000E+00 0.  1.
         11    1    4    4    0    0 -0.36586417351E+02 -0.64265548083E+02  0.16134080415E+03  0.17748093331E+03  0.00000000000E+00 0. -1.
          2    1    1    2  501    0 -0.16272173884E+02 -0.17084131376E+02 -0.54114147360E+00  0.23599661478E+02  0.00000000000E+00 0. -1.
<scales pt_clust_5="13000.00000" pt_clust_6="13000.00000" pt_clust_7="13000.00000" pt_clust_8="13000.00000" pt_clust_9="23.59347"></scales>
<clustering>
<clus scale="   23.593">  1  9  2 -1</clus>
<clus scale="   84.587">  5  6 -1 -1</clus>
<clus scale="   91.142">  7  8 -1 -1</clus>
<clus scale="  113.488">  2  5  1 -1</clus>
<clus scale="   23.593">  1  5  2 -1</clus>
</clustering>
</event>
<event>
 9    1  0.4664604E-005  0.2357311E+03  0.7546771E-02  0.1134959E+00
          3   -1    0    0  502    0 -0.00000000000E+00  0.00000000000E+00  0.27565307660E+03  0.27565307660E+03  0.00000000000E+00 0. -1.
         21   -1    0    0  501  502  0.00000000000E+00 -0.00000000000E+00 -0.77099724283E+03  0.77099724283E+03  0.00000000000E+00 0. -1.
         23    2    1    2    0    0 -0.73109589188E+02 -0.12585201934E+03  0.12185988927E+03  0.21259508536E+03  0.95724056015E+02 0.  0.
        -24    2    1    2    0    0 -0.19832226813E+03  0.76713173997E+02 -0.46769620226E+03  0.52029979194E+03  0.82191865661E+02 0.  0.
         11    1    4    4    0    0 -0.15652208382E+03  0.25588022369E+02 -0.36792790435E+03  0.40065552837E+03  0.00000000000E+00 0. -1.
        -12    1    4    4    0    0 -0.41800184316E+02  0.51125151628E+02 -0.99768297909E+02  0.11964426357E+03  0.00000000000E+00 0.  1.
        -11    1    3    3    0    0 -0.54631667876E+02 -0.23191117228E+02  0.81340072172E+02  0.10069088536E+03  0.00000000000E+00 0. -1.
         11    1    3    3    0    0 -0.18477921312E+02 -0.10266090212E+03  0.40519817098E+02  0.11190420000E+03  0.00000000000E+00 0.  1.
          4    1    1    2  501    0  0.27143185732E+03  0.49138845348E+02 -0.14950785324E+03  0.31375544214E+03  0.00000000000E+00 0. -1.
<scales pt_clust_5="13000.00000" pt_clust_6="13000.00000" pt_clust_7="13000.00000" pt_clust_8="13000.00000" pt_clust_9="220.93824"></scales>
<clustering>
<clus scale="   82.192">  5  6 -1 -1</clus>
<clus scale="   95.724">  7  8 -1 -1</clus>
<clus scale="  174.203">  1  7  2 -1</clus>
<clus scale="  220.938">  2  9  1 -1</clus>
<clus scale="  220.938">  2  5  1 -1</clus>
</clustering>
</event>
<event>
 9    1  0.4664604E-005  0.1402454E+03  0.7546771E-02  0.1214823E+00
          1   -1    0    0  502    0 -0.00000000000E+00  0.00000000000E+00  0.99208169596E+03  0.99208169596E+03  0.00000000000E+00 0. -1.
         21   -1    0    0  501  502  0.00000000000E+00 -0.00000000000E+00 -0.41848353986E+02  0.41848353986E+02  0.00000000000E+00 0. -1.
        -24    2    1    2    0    0 -0.62291477402E+02  0.80399375931E+02  0.30845199404E+03  0.33501545299E+03  0.82148848498E+02 0.  0.
         23    2    1    2    0    0  0.15049419742E+03 -0.24821339571E+02  0.34072798788E+03  0.38032118280E+03  0.72691388782E+02 0.  0.
         13    1    3    3    0    0 -0.17149028213E+02  0.23656462775E+02  0.15206913718E+02  0.32938846740E+02  0.00000000000E+00 0. -1.
        -14    1    3    3    0    0 -0.45142449188E+02  0.56742913155E+02  0.29324508032E+03  0.30207660625E+03  0.00000000000E+00 0.  1.
        -11    1    4    4    0    0  0.20171010166E+01 -0.20152680811E+02  0.46502246852E+02  0.50721378162E+02  0.00000000000E+00 0.  1.
         11    1    4    4    0    0  0.14847709640E+03 -0.46686587607E+01  0.29422574103E+03  0.32959980464E+03  0.00000000000E+00 0. -1.
          2    1    1    2  501    0 -0.88202720020E+02 -0.55578036359E+02  0.30105336006E+03  0.31859341416E+03  0.00000000000E+00 0. -1.
<scales pt_clust_5="13000.00000" pt_clust_6="13000.00000" pt_clust_7="13000.00000" pt_clust_8="13000.00000" pt_clust_9="104.25281"></scales>
<clustering>
<clus scale="   72.691">  7  8 -1 -1</clus>
<clus scale="   82.149">  5  6 -1 -1</clus>
<clus scale="  104.253">  2  9  1 -1</clus>
<clus scale="  134.924">  2  7  1 -1</clus>
<clus scale="  104.253">  2  5  1 -1</clus>
</clustering>
</event>
<event>
 9    1  0.4664604E-005  0.1046450E+03  0.7546771E-02  0.1283791E+00
          1   -1    0    0  502    0 -0.00000000000E+00  0.00000000000E+00  0.39569620933E+03  0.39569620933E+03  0.00000000000E+00 0. -1.
         21   -1    0    0  501  502  0.00000000000E+00 -0.00000000000E+00 -0.55687911197E+02  0.55687911197E+02  0.00000000000E+00 0.  1.
         23    2    1    2    0    0  0.51931853993E+02  0.25403221892E+02  0.33579170251E+03  0.35263523049E+03  0.90847659102E+02 0.  0.
        -24    2    1    2    0    0 -0.24884067601E+02 -0.13659478977E+02  0.15700400059E+01  0.69143105083E+02  0.63027817419E+02 0.  0.
         11    1    4    4    0    0  0.59336136271E+01 -0.26362166412E+02  0.17505854816E+02  0.32196685256E+02  0.00000000000E+00 0. -1.
        -12    1    4    4    0    0 -0.30817681228E+02  0.12702687436E+02 -0.15935814810E+02  0.36946419827E+02  0.00000000000E+00 0.  1.
        -11    1    3    3    0    0  0.49740886568E+02 -0.19047577259E+02  0.25394920941E+03  0.25947479060E+03  0.00000000000E+00 0. -1.
         11    1    3    3    0    0  0.21909674247E+01  0.44450799150E+02  0.81842493098E+02  0.93160439887E+02  0.00000000000E+00 0.  1.
          2    1    1    2  501    0 -0.27047786392E+02 -0.11743742915E+02  0.26465556188E+01  0.29605784959E+02  0.00000000000E+00 0. -1.
<scales pt_clust_5="13000.00000" pt_clust_6="13000.00000" pt_clust_7="13000.00000" pt_clust_8="13000.00000" pt_clust_9="29.48726"></scales>
<clustering>
<clus scale="   29.487">  2  9  1 -1</clus>
<clus scale="   63.028">  5  6 -1 -1</clus>
<clus scale="   81.669">  2  5  1 -1</clus>
<clus scale="   90.848">  7  8 -1 -1</clus>
<clus scale="   29.487">  2  5  1 -1</clus>
</clustering>
</event>
<event>
 9    1  0.4664604E-005  0.9389459E+02  0.7546771E-02  0.1300224E+00
         21   -1    0    0  501  502  0.00000000000E+00  0.00000000000E+00  0.14155524600E+03  0.14155524600E+03  0.00000000000E+00 0. -1.
          1   -1    0    0  502    0 -0.00000000000E+00 -0.00000000000E+00 -0.32651772515E+03  0.32651772515E+03  0.00000000000E+00 0. -1.
         23    2    1    2    0    0  0.78022076108E+01 -0.34226683224E+02 -0.22365787220E+03  0.24392658402E+03  0.90801951009E+02 0.  0.
        -24    2    1    2    0    0 -0.66932942625E+01  0.26693737455E+01 -0.72860337790E+02  0.10820771992E+03  0.79676571729E+02 0.  0.
         11    1    4    4    0    0  0.15899528519E+02 -0.29026704236E+02 -0.10546036594E+02  0.34735622259E+02  0.00000000000E+00 0. -1.
        -12    1    4    4    0    0 -0.22592822781E+02  0.31696077981E+02 -0.62314301197E+02  0.73472097658E+02  0.00000000000E+00 0.  1.
        -13    1    3    3    0    0  0.45563240981E+02 -0.38096996945E+02 -0.13696305344E+03  0.14928586039E+03  0.00000000000E+00 0.  1.
         13    1    3    3    0    0 -0.37761033370E+02  0.38703137213E+01 -0.86694818762E+02  0.94640723632E+02  0.00000000000E+00 0. -1.
          2    1    1    2  501    0 -0.11089133483E+01  0.31557309478E+02  0.11155573084E+03  0.11593866721E+03  0.00000000000E+00 0. -1.
<scales pt_clust_5="13000.00000" pt_clust_6="13000.00000" pt_clust_7="13000.00000" pt_clust_8="13000.00000" pt_clust_9="31.57679"></scales>
<clustering>
<clus scale="   31.577">  1  9  2 -1</clus>
<clus scale="   79.677">  5  6 -1 -1</clus>
<clus scale="   83.184">  1  5  2 -1</clus>
<clus scale="   90.802">  7  8 -1 -1</clus>
<clus scale="   31.577">  1  5  2 -1</clus>
</clustering>
</event>
<event>
 9    1  0.4664604E-005  0.1098181E+03  0.7546771E-02  0.1269419E+00
         -2   -1    0    0    0  501 -0.00000000000E+00  0.00000000000E+00  0.11389398807E+03  0.11389398807E+03  0.00000000000E+00 0.  1.
         21   -1    0    0  501  502  0.00000000000E+00 -0.00000000000E+00 -0.19979184318E+03  0.19979184318E+03  0.00000000000E+00 0.  1.
         23    2    1    2    0    0 -0.99370158681E+01 -0.15434914869E+02 -0.13410716830E+02  0.93991643514E+02  0.91200881811E+02 0.  0.
        -24    2    1    2    0    0  0.39295192490E+02 -0.74399141504E+02 -0.68954183819E+01  0.10465361255E+03  0.61850524789E+02 0.  0.
         13    1    4    4    0    0 -0.50000659587E+01 -0.20231237376E+02  0.20758112383E+02  0.29414330777E+02  0.00000000000E+00 0. -1.
        -14    1    4    4    0    0  0.44295258449E+02 -0.54167904129E+02 -0.27653530764E+02  0.75239281778E+02  0.00000000000E+00 0.  1.
        -13    1    3    3    0    0 -0.47709456514E+02 -0.23263752699E+02  0.21825133529E+00  0.53079582366E+02  0.00000000000E+00 0.  1.
         13    1    3    3    0    0  0.37772440646E+02  0.78288378292E+01 -0.13628968165E+02  0.40912061148E+02  0.00000000000E+00 0. -1.
         -1    1    1    2    0  502 -0.29358176622E+02  0.89834056374E+02 -0.65591719902E+02  0.11504057518E+03  0.00000000000E+00 0.  1.
<scales pt_clust_5="13000.00000" pt_clust_6="13000.00000" pt_clust_7="13000.00000" pt_clust_8="13000.00000" pt_clust_9="90.74434"></scales>
<clustering>
<clus scale="   61.851">  5  6 -1 -1</clus>
<clus scale="   91.201">  7  8 -1 -1</clus>
<clus scale="   93.030">  1  7  2 -1</clus>
<clus scale="   90.744">  2  9  1 -1</clus>
<clus scale="   90.744">  2  5  1 -1</clus>
</clustering>
</event>
<event>
 9    1  0.4664604E-005  0.2685120E+03  0.7546771E-02  0.1102134E+00
          1   -1    0    0  502    0 -0.00000000000E+00  0.00000000000E+00  0.53550745894E+03  0.53550745894E+03  0.00000000000E+00 0. -1.
         21   -1    0    0  501  502  0.00000000000E+00 -0.00000000000E+00 -0.15976616353E+03  0.15976616353E+03  0.00000000000E+00 0. -1.
        -24    2    1    2    0    0  0.96771482157E+02 -0.11361618170E+03  0.31173026884E+03  0.35487488239E+03  0.80542318953E+02 0.  0.
         23    2    1    2    0    0  0.22760916846E+02 -0.14861910355E+02  0.12229046596E+03  0.15549036384E+03  0.92105154401E+02 0.  0.
         11    1    3    3    0    0  0.39753691800E+02 -0.10450819475E+03  0.20894685251E+03  0.23698334531E+03  0.00000000000E+00 0. -1.
        -12    1    3    3    0    0  0.57017790357E+02 -0.91079869458E+01  0.10278341633E+03  0.11789153708E+03  0.00000000000E+00 0.  1.
        -13    1    4    4    0    0 -0.25251997931E+02 -0.11034508435E+01  0.21329313858E+01  0.25365929898E+02  0.00000000000E+00 0.  1.
         13    1    4    4    0    0  0.48012914778E+02 -0.13758459512E+02  0.12015753458E+03  0.13012443394E+03  0.00000000000E+00 0. -1.
          2    1    1    2  501    0 -0.11953239900E+03  0.12847809205E+03 -0.58279439389E+02  0.18490837624E+03  0.00000000000E+00 0. -1.
<scales pt_clust_5="13000.00000" pt_clust_6="13000.00000" pt_clust_7="13000.00000" pt_clust_8="13000.00000" pt_clust_9="175.48394"></scales>
<clustering>
<clus scale="   80.542">  5  6 -1 -1</clus>
<clus scale="   92.105">  7  8 -1 -1</clus>
<clus scale="   93.207">  5  7 -1 -1</clus>
<clus scale="  175.484">  2  9  1 -1</clus>
<clus scale="  175.484">  2  5  1 -1</clus>
</clustering>
</event>
<event>
 9    1  0.4664604E-005  0.1102649E+03  0.7546771E-02  0.1263922E+00
         21   -1    0    0  501  502  0.00000000000E+00  0.00000000000E+00  0.37520418819E+02  0.37520418819E+02  0.00000000000E+00 0. -1.
          1   -1    0    0  502    0 -0.00000000000E+00 -0.00000000000E+00 -0.10651482210E+04  0.10651482210E+04  0.00000000000E+00 0. -1.
        -24    2    1    2    0    0 -0.68526594299E+02  0.19605693958E+02 -0.73361035559E+03  0.74156342275E+03  0.81559050756E+02 0.  0.
         23    2    1    2    0    0  0.32907971838E+02 -0.31888019339E+02 -0.30514924167E+03  0.32181834089E+03  0.91384924621E+02 0.  0.
         13    1    3    3    0    0 -0.11858239471E+02  0.34717766298E+02 -0.12900643730E+03  0.13412159410E+03  0.00000000000E+00 0. -1.
        -14    1    3    3    0    0 -0.56668354828E+02 -0.15112072341E+02 -0.60460391829E+03  0.60744182864E+03  0.00000000000E+00 0.  1.
        -13    1    4    4    0    0 -0.24438997480E+02  0.11891186795E+02 -0.53168277352E+02  0.59712064424E+02  0.00000000000E+00 0.  1.
         13    1    4    4    0    0  0.57346969318E+02 -0.43779206134E+02 -0.25198096432E+03  0.26210627646E+03  0.00000000000E+00 0. -1.
          2    1    1    2  501    0  0.35618622460E+02  0.12282325381E+02  0.11131795046E+02  0.39286876227E+02  0.00000000000E+00 0. -1.
<scales pt_clust_5="13000.00000" pt_clust_6="13000.00000" pt_clust_7="13000.00000" pt_clust_8="13000.00000" pt_clust_9="37.67681"></scales>
<clustering>
<clus scale="   37.677">  1  9  2 -1</clus>
<clus scale="   81.559">  5  6 -1 -1</clus>
<clus scale="   91.385">  7  8 -1 -1</clus>
<clus scale="  102.269">  2  5  1 -1</clus>
<clus scale="   37.677">  1  5  2 -1</clus>
</clustering>
</event>
<event>
 9    1  0.4664604E-005  0.9621713E+02  0.7546771E-02  0.1293752E+00
          3   -1    0    0  502    0 -0.00000000000E+00  0.00000000000E+00  0.10054430933E+03  0.10054430933E+03  0.00000000000E+00 0. -1.
         21   -1    0    0  501  502  0.00000000000E+00 -0.00000000000E+00 -0.32187928268E+03  0.32187928268E+03  0.00000000000E+00 0. -1.
         23    2    1    2    0    0  0.51779447939E+01  0.50858108450E+02  0.35340698422E+02  0.10941010827E+03  0.90045813448E+02 0.  0.
        -24    2    1    2    0    0  0.20988577271E+02 -0.10730659201E+01 -0.45847031092E+02  0.94811849773E+02  0.80284897404E+02 0.  0.
         11    1    4    4    0    0 -0.44467291844E+01  0.31457387853E+02  0.17257652686E+01  0.31816959577E+02  0.00000000000E+00 0. -1.
        -12    1    4    4    0    0  0.25435306456E+02 -0.32530453773E+02 -0.47572796361E+02  0.62994890196E+02  0.00000000000E+00 0.  1.
        -11    1    3    3    0    0  0.19764931723E+02 -0.14623592986E+02 -0.11943823589E+02  0.27334171283E+02  0.00000000000E+00 0.  1.
         11    1    3    3    0    0 -0.14586986929E+02  0.65481701436E+02  0.47284522011E+02  0.82075936988E+02  0.00000000000E+00 0. -1.
          4    1    1    2  501    0 -0.26166522065E+02 -0.49785042530E+02 -0.21082864068E+03  0.21820163397E+03  0.00000000000E+00 0. -1.
<scales pt_clust_5="13000.00000" pt_clust_6="13000.00000" pt_clust_7="13000.00000" pt_clust_8="13000.00000" pt_clust_9="56.24266"></scales>
<clustering>
<clus scale="   56.243">  2  9  1 -1</clus>
<clus scale="   80.285">  5  6 -1 -1</clus>
<clus scale="   87.150">  2  5  1 -1</clus>
<clus scale="   90.046">  7  8 -1 -1</clus>
<clus scale="   56.243">  2  5  1 -1</clus>
</clustering>
</event>
<event>
 9    1  0.4664604E-005  0.9939547E+02  0.7546771E-02  0.1291023E+00
         -2   -1    0    0    0  501 -0.00000000000E+00  0.00000000000E+00  0.35702073249E+03  0.35702073249E+03  0.00000000000E+00 0.  1.
         21   -1    0    0  501  502  0.00000000000E+00 -0.00000000000E+00 -0.47315466737E+02  0.47315466737E+02  0.00000000000E+00 0. -1.
        -24    2    1    2    0    0  0.98473906131E+01 -0.23685788212E+02  0.17854533898E+03  0.19667323673E+03  0.78383265490E+02 0.  0.
         23    2    1    2    0    0  0.13604975965E+02  0.35217076694E+02  0.14535300828E+03  0.17792363374E+03  0.95414802662E+02 0.  0.
         13    1    3    3    0    0  0.35421991123E+02 -0.27763389482E+02  0.15591646548E+03  0.16228206142E+03  0.00000000000E+00 0. -1.
        -14    1    3    3    0    0 -0.25574600510E+02  0.40776012704E+01  0.22628873501E+02  0.34391175311E+02  0.00000000000E+00 0.  1.
        -11    1    4    4    0    0 -0.35965708756E+02  0.15486028888E+02  0.25492524335E+02  0.46724919412E+02  0.00000000000E+00 0.  1.
         11    1    4    4    0    0  0.49570684721E+02  0.19731047806E+02  0.11986048394E+03  0.13119871433E+03  0.00000000000E+00 0. -1.
         -1    1    1    2    0  502 -0.23452366578E+02 -0.11531288482E+02 -0.14193081505E+02  0.29739328755E+02  0.00000000000E+00 0.  1.
<scales pt_clust_5="13000.00000" pt_clust_6="13000.00000" pt_clust_7="13000.00000" pt_clust_8="13000.00000" pt_clust_9="26.13396"></scales>
<clustering>
<clus scale="   26.134">  2  9  1 -1</clus>
<clus scale="   78.383">  5  6 -1 -1</clus>
<clus scale="   83.183">  1  5  2 -1</clus>
<clus scale="   95.415">  7  8 -1 -1</clus>
<clus scale="   26.134">  2  5  1 -1</clus>
</clustering>
</event>
