<event>
 9    1  0.6675710E-005  0.1544477E+03  0.7546771E-02  0.1197314E+00
          1   -1    0    0  502    0 -0.00000000000E+00  0.00000000000E+00  0.24848317175E+03  0.24848317175E+03  0.00000000000E+00 0. -1.
         21   -1    0    0  501  502  0.00000000000E+00 -0.00000000000E+00 -0.17220387114E+03  0.17220387114E+03  0.00000000000E+00 0. -1.
         23    2    1    2    0    0 -0.14801833037E+03 -0.19837273989E+01  0.88035066779E+02  0.19581128983E+03  0.93158611740E+02 0.  0.
        -24    2    1    2    0    0  0.88751498267E+02 -0.60486135245E+02  0.14037791328E+02  0.13498499306E+03  0.80551149988E+02 0.  0.
         11    1    4    4    0    0  0.51293824344E+02 -0.53379876806E+02 -0.27157736914E+02  0.78854361566E+02  0.00000000000E+00 0. -1.
        -12    1    4    4    0    0  0.37457673923E+02 -0.71062584387E+01  0.41195528242E+02  0.56130631493E+02  0.00000000000E+00 0.  1.
        -13    1    3    3    0    0 -0.82362599596E+02  0.16405677901E+02 -0.60335245677E+00  0.83982784627E+02  0.00000000000E+00 0.  1.
         13    1    3    3    0    0 -0.65655730773E+02 -0.18389405300E+02  0.88638419235E+02  0.11182850520E+03  0.00000000000E+00 0. -1.
          2    1    1    2  501    0  0.59266832102E+02  0.62469862644E+02 -0.25793557494E+02  0.89890760005E+02  0.00000000000E+00 0. -1.
<scales pt_clust_5="13000.00000" pt_clust_6="13000.00000" pt_clust_7="13000.00000" pt_clust_8="13000.00000" pt_clust_9="86.11063"></scales>
<clustering>
<clus scale="   80.551">  5  6 -1 -1</clus>
<clus scale="   86.111">  2  9  1 -1</clus>
<clus scale="   93.159">  7  8 -1 -1</clus>
<clus scale="  147.187">  2  5  1 -1</clus>
<clus scale="   86.111">  2  5  1 -1</clus>
</clustering>
</event>
<event>
 9    1  0.6675710E-005  0.1045722E+03  0.7546771E-02  0.1277088E+00
         -4   -1    0    0    0  501 -0.00000000000E+00  0.00000000000E+00  0.62419776956E+03  0.62419776956E+03  0.00000000000E+00 0.  1.
         21   -1    0    0  501  502  0.00000000000E+00 -0.00000000000E+00 -0.32031706015E+02  0.32031706015E+02  0.00000000000E+00 0. -1.
         23    2    1    2    0    0 -0.20008277484E+02 -0.37949298926E+02  0.31041638726E+03  0.32670082469E+03  0.92382979612E+02 0.  0.
        -24    2    1    2    0    0  0.75572200537E+02  0.13438129496E+02  0.17948313860E+03  0.21058920535E+03  0.79005541264E+02 0.  0.
         11    1    4    4    0    0  0.74959583366E+02  0.15511262756E+01  0.77200317325E+02  0.10761614250E+03  0.00000000000E+00 0. -1.
        -12    1    4    4    0    0  0.61261717062E+00  0.11887003220E+02  0.10228282127E+03  0.10297306285E+03  0.00000000000E+00 0.  1.
        -13    1    3    3    0    0  0.29982676463E+02  0.28414498012E+01  0.16335503422E+03  0.16610810315E+03  0.00000000000E+00 0.  1.
         13    1    3    3    0    0 -0.49990953947E+02 -0.40790748727E+02  0.14706135303E+03  0.16059272155E+03  0.00000000000E+00 0. -1.
         -3    1    1    2    0  502 -0.55563923053E+02  0.24511169430E+02  0.10226653769E+03  0.11893944553E+03  0.00000000000E+00 0.  1.
<scales pt_clust_5="13000.00000" pt_clust_6="13000.00000" pt_clust_7="13000.00000" pt_clust_8="13000.00000" pt_clust_9="60.73012"></scales>
<clustering>
<clus scale="   60.730">  2  9  1 -1</clus>
<clus scale="   79.006">  5  6 -1 -1</clus>
<clus scale="   92.383">  7  8 -1 -1</clus>
<clus scale="   92.966">  2  5  1 -1</clus>
<clus scale="   60.730">  2  5  1 -1</clus>
</clustering>
</event>
<event>
 9    1  0.6675710E-005  0.2236921E+03  0.7546771E-02  0.1166275E+00
         21   -1    0    0  501  502  0.00000000000E+00  0.00000000000E+00  0.11240765136E+03  0.11240765136E+03  0.00000000000E+00 0. -1.
          1   -1    0    0  502    0 -0.00000000000E+00 -0.00000000000E+00 -0.64147985170E+03  0.64147985170E+03  0.00000000000E+00 0. -1.
         23    2    1    2    0    0 -0.24881515902E+02 -0.15173344739E+02 -0.49613233555E+02  0.10907540480E+03  0.92664182748E+02 0.  0.
        -24    2    1    2    0    0 -0.28402068869E+02 -0.19441401845E+03 -0.25297027817E+03  0.33166176809E+03  0.86035333952E+02 0.  0.
         13    1    4    4    0    0  0.10102327186E+02 -0.16679145363E+03 -0.19620941740E+03  0.25771996721E+03  0.00000000000E+00 0. -1.
        -14    1    4    4    0    0 -0.38504396056E+02 -0.27622564820E+02 -0.56760860770E+02  0.73941800886E+02  0.00000000000E+00 0.  1.
        -13    1    3    3    0    0  0.18688788451E+02 -0.20646684325E+02  0.14475052816E+02  0.31386040550E+02  0.00000000000E+00 0. -1.
         13    1    3    3    0    0 -0.43570304353E+02  0.54733395868E+01 -0.64088286370E+02  0.77689364250E+02  0.00000000000E+00 0.  1.
          2    1    1    2  501    0  0.53283584771E+02  0.20958736319E+03 -0.22648868862E+03  0.31315033017E+03  0.00000000000E+00 0. -1.
<scales pt_clust_5="13000.00000" pt_clust_6="13000.00000" pt_clust_7="13000.00000" pt_clust_8="13000.00000" pt_clust_9="206.48508"></scales>
<clustering>
<clus scale="   86.035">  5  6 -1 -1</clus>
<clus scale="   92.664">  7  8 -1 -1</clus>
<clus scale="   97.139">  2  7  1 -1</clus>
<clus scale="  206.485">  1  9  2 -1</clus>
<clus scale="  206.485">  1  5  2 -1</clus>
</clustering>
</event>
<event>
 9    1  0.6675710E-005  0.1310591E+03  0.7546771E-02  0.1238426E+00
         21   -1    0    0  501  502  0.00000000000E+00  0.00000000000E+00  0.14780733588E+03  0.14780733588E+03  0.00000000000E+00 0. -1.
          1   -1    0    0  502    0 -0.00000000000E+00 -0.00000000000E+00 -0.24088801735E+03  0.24088801735E+03  0.00000000000E+00 0. -1.
        -24    2    1    2    0    0  0.49914466209E+02  0.31807537399E+02 -0.35767229906E+02  0.10739926077E+03  0.82171364271E+02 0.  0.
         23    2    1    2    0    0  0.47667844968E+02  0.16805228268E+00 -0.12179367011E+03  0.16004245592E+03  0.92236857776E+02 0.  0.
         13    1    3    3    0    0  0.35322492623E+02 -0.21541952431E+02 -0.31359451103E+02  0.51914828066E+02  0.00000000000E+00 0. -1.
        -14    1    3    3    0    0  0.14591973586E+02  0.53349489831E+02 -0.44077788030E+01  0.55484432703E+02  0.00000000000E+00 0.  1.
        -13    1    4    4    0    0  0.72420589829E+02  0.16265234968E+02 -0.89839862379E+02  0.11653540480E+03  0.00000000000E+00 0. -1.
         13    1    4    4    0    0 -0.24752744861E+02 -0.16097182685E+02 -0.31953807730E+02  0.43507051118E+02  0.00000000000E+00 0.  1.
          2    1    1    2  501    0 -0.97582311177E+02 -0.31975589682E+02  0.64480218545E+02  0.12125363654E+03  0.00000000000E+00 0. -1.
<scales pt_clust_5="13000.00000" pt_clust_6="13000.00000" pt_clust_7="13000.00000" pt_clust_8="13000.00000" pt_clust_9="93.10663"></scales>
<clustering>
<clus scale="   82.171">  5  6 -1 -1</clus>
<clus scale="   92.237">  7  8 -1 -1</clus>
<clus scale="  101.268">  2  5  1 -1</clus>
<clus scale="   93.107">  1  9  2 -1</clus>
<clus scale="   93.107">  1  5  2 -1</clus>
</clustering>
</event>
<event>
 9    1  0.6675710E-005  0.1109818E+03  0.7546771E-02  0.1263268E+00
          1   -1    0    0  502    0 -0.00000000000E+00  0.00000000000E+00  0.28638539017E+03  0.28638539017E+03  0.00000000000E+00 0. -1.
         21   -1    0    0  501  502  0.00000000000E+00 -0.00000000000E+00 -0.20850527575E+03  0.20850527575E+03  0.00000000000E+00 0. -1.
         23    2    1    2    0    0  0.35327633769E+02  0.54948334614E+02  0.23850609073E+03  0.26394576523E+03  0.92275947483E+02 0.  0.
        -24    2    1    2    0    0 -0.52600273882E+02 -0.11054036271E+02 -0.46722243282E+02  0.10766021421E+03  0.80738919842E+02 0.  0.
         13    1    4    4    0    0 -0.45128685051E+02 -0.25818493893E+02 -0.64848086889E+02  0.83117189645E+02  0.00000000000E+00 0. -1.
        -14    1    4    4    0    0 -0.74715888306E+01  0.14764457623E+02  0.18125843607E+02  0.24543024569E+02  0.00000000000E+00 0.  1.
        -13    1    3    3    0    0 -0.20769483525E+02  0.52301291459E+02  0.13322669110E+03  0.14462416035E+03  0.00000000000E+00 0.  1.
         13    1    3    3    0    0  0.56097117294E+02  0.26470431547E+01  0.10527939962E+03  0.11932160488E+03  0.00000000000E+00 0. -1.
          2    1    1    2  501    0  0.17272640113E+02 -0.43894298343E+02 -0.11390373302E+03  0.12328468648E+03  0.00000000000E+00 0. -1.
<scales pt_clust_5="13000.00000" pt_clust_6="13000.00000" pt_clust_7="13000.00000" pt_clust_8="13000.00000" pt_clust_9="47.17047"></scales>
<clustering>
<clus scale="   47.170">  2  9  1 -1</clus>
<clus scale="   80.739">  5  6 -1 -1</clus>
<clus scale="   92.276">  7  8 -1 -1</clus>
<clus scale="  101.592">  2  5  1 -1</clus>
<clus scale="   47.170">  2  5  1 -1</clus>
</clustering>
</event>
<event>
 9    1  0.6675710E-005  0.8879088E+02  0.7546771E-02  0.1311314E+00
         21   -1    0    0  501  502  0.00000000000E+00  0.00000000000E+00  0.15764565451E+03  0.15764565451E+03  0.00000000000E+00 0.  1.
         -2   -1    0    0    0  501 -0.00000000000E+00 -0.00000000000E+00 -0.93374007466E+02  0.93374007466E+02  0.00000000000E+00 0.  1.
         23    2    1    2    0    0 -0.53811160973E+01  0.68115333727E+01 -0.51894220685E+01  0.89316069147E+02  0.88741628953E+02 0.  0.
        -24    2    1    2    0    0 -0.23288783412E+02  0.14005963602E+02  0.87612683567E+02  0.12189389018E+03  0.80272060470E+02 0.  0.
         13    1    4    4    0    0  0.17157013957E+02  0.24919727118E+02  0.70125307903E+01  0.31056907697E+02  0.00000000000E+00 0. -1.
        -14    1    4    4    0    0 -0.40445797370E+02 -0.10913763516E+02  0.80600152777E+02  0.90836982483E+02  0.00000000000E+00 0.  1.
        -13    1    3    3    0    0  0.35471102574E+02 -0.17865464895E+02  0.63331123474E+01  0.40217934628E+02  0.00000000000E+00 0. -1.
         13    1    3    3    0    0 -0.40852218672E+02  0.24676998268E+02 -0.11522534416E+02  0.49098134519E+02  0.00000000000E+00 0.  1.
         -1    1    1    2    0  502  0.28669899510E+02 -0.20817496975E+02 -0.18151614450E+02  0.39809702653E+02  0.00000000000E+00 0.  1.
<scales pt_clust_5="13000.00000" pt_clust_6="13000.00000" pt_clust_7="13000.00000" pt_clust_8="13000.00000" pt_clust_9="35.43067"></scales>
<clustering>
<clus scale="   35.431">  1  9  2 -1</clus>
<clus scale="   80.272">  5  6 -1 -1</clus>
<clus scale="   80.327">  1  5  2 -1</clus>
<clus scale="   88.742">  7  8 -1 -1</clus>
<clus scale="   35.431">  1  5  2 -1</clus>
</clustering>
</event>
<event>
 9    1  0.6675710E-005  0.8630163E+02  0.7546771E-02  0.1313787E+00
         21   -1    0    0  501  502  0.00000000000E+00  0.00000000000E+00  0.35830931089E+02  0.35830931089E+02  0.00000000000E+00 0.  1.
          1   -1    0    0  502    0 -0.00000000000E+00 -0.00000000000E+00 -0.34380989010E+03  0.34380989010E+03  0.00000000000E+00 0. -1.
         23    2    1    2    0    0 -0.32096808236E+02  0.19851751281E+02 -0.14298252341E+03  0.16924752889E+03  0.82319055548E+02 0.  0.
        -24    2    1    2    0    0  0.18342418731E+02  0.22876432859E+02 -0.95906004160E+02  0.12800173528E+03  0.79540600304E+02 0.  0.
         11    1    4    4    0    0  0.19537862747E+02  0.40255547450E+02 -0.10047831546E+03  0.10999149539E+03  0.00000000000E+00 0. -1.
        -12    1    4    4    0    0 -0.11954440168E+01 -0.17379114591E+02  0.45723112989E+01  0.18010239892E+02  0.00000000000E+00 0.  1.
        -13    1    3    3    0    0 -0.44384435548E+02  0.44534809919E+02 -0.95489080868E+02  0.11433062572E+03  0.00000000000E+00 0.  1.
         13    1    3    3    0    0  0.12287627312E+02 -0.24683058638E+02 -0.47493442538E+02  0.54916903161E+02  0.00000000000E+00 0. -1.
          2    1    1    2  501    0  0.13754389505E+02 -0.42728184140E+02 -0.69090431440E+02  0.82391557014E+02  0.00000000000E+00 0. -1.
<scales pt_clust_5="13000.00000" pt_clust_6="13000.00000" pt_clust_7="13000.00000" pt_clust_8="13000.00000" pt_clust_9="44.88745"></scales>
<clustering>
<clus scale="   44.887">  1  9  2 -1</clus>
<clus scale="   79.541">  5  6 -1 -1</clus>
<clus scale="   82.319">  7  8 -1 -1</clus>
<clus scale="   83.656">  1  5  2 -1</clus>
<clus scale="   44.887">  1  5  2 -1</clus>
</clustering>
</event>
<event>
 9    1  0.8320130E-005  0.1063980E+03  0.7546771E-02  0.1269537E+00
         21   -1    0    0  501  502  0.00000000000E+00  0.00000000000E+00  0.32810756629E+03  0.32810756629E+03  0.00000000000E+00 0.  1.
          1   -1    0    0  502    0 -0.00000000000E+00 -0.00000000000E+00 -0.18811847855E+03  0.18811847855E+03  0.00000000000E+00 0. -1.
         23    2    1    2    0    0  0.39863601314E+02 -0.48626916169E+02 -0.16053677258E+03  0.19305522280E+03  0.86859541887E+02 0.  0.
        -24    2    1    2    0    0 -0.35712923879E+02  0.21906157358E+02  0.23916471239E+03  0.25611549004E+03  0.81486759189E+02 0.  0.
         13    1    4    4    0    0 -0.32510727037E+01  0.49110543409E+02  0.12413478743E+03  0.13353598915E+03  0.00000000000E+00 0. -1.
        -14    1    4    4    0    0 -0.32461851176E+02 -0.27204386051E+02  0.11502992496E+03  0.12257950089E+03  0.00000000000E+00 0.  1.
        -11    1    3    3    0    0 -0.16027499373E+02 -0.43525401283E+02 -0.45079980563E+02  0.64680336584E+02  0.00000000000E+00 0.  1.
         11    1    3    3    0    0  0.55891100687E+02 -0.51015148861E+01 -0.11545679201E+03  0.12837488622E+03  0.00000000000E+00 0. -1.
          2    1    1    2  501    0 -0.41506774348E+01  0.26720758811E+02  0.61361147923E+02  0.67055331996E+02  0.00000000000E+00 0. -1.
<scales pt_clust_5="13000.00000" pt_clust_6="13000.00000" pt_clust_7="13000.00000" pt_clust_8="13000.00000" pt_clust_9="27.04121"></scales>
<clustering>
<clus scale="   27.041">  1  9  2 -1</clus>
<clus scale="   81.487">  5  6 -1 -1</clus>
<clus scale="   86.860">  7  8 -1 -1</clus>
<clus scale="  102.059">  1  5  2 -1</clus>
<clus scale="   27.041">  1  5  2 -1</clus>
</clustering>
</event>
<event>
 9    1  0.6675710E-005  0.1067186E+03  0.7546771E-02  0.1277169E+00
          1   -1    0    0  502    0 -0.00000000000E+00  0.00000000000E+00  0.52924671637E+03  0.52924671637E+03  0.00000000000E+00 0. -1.
         21   -1    0    0  501  502  0.00000000000E+00 -0.00000000000E+00 -0.27006289993E+02  0.27006289993E+02  0.00000000000E+00 0. -1.
        -24    2    1    2    0    0 -0.22155314324E+02  0.44112897106E+02  0.23537100644E+03  0.25244228999E+03  0.76751504584E+02 0.  0.
         23    2    1    2    0    0  0.25023923557E+02 -0.15939988926E+02  0.13864951908E+03  0.17250083613E+03  0.98247490188E+02 0.  0.
         11    1    3    3    0    0  0.22102780284E+02  0.29715813383E+02  0.15686555825E+03  0.16117805628E+03  0.00000000000E+00 0. -1.
        -12    1    3    3    0    0 -0.44258094608E+02  0.14397083724E+02  0.78505448195E+02  0.91264233708E+02  0.00000000000E+00 0.  1.
        -11    1    4    4    0    0  0.56615282404E+02 -0.33547694364E+02  0.98529650471E+02  0.11848556883E+03  0.00000000000E+00 0.  1.
         11    1    4    4    0    0 -0.31591358848E+02  0.17607705438E+02  0.40119868607E+02  0.54015267302E+02  0.00000000000E+00 0. -1.
          2    1    1    2  501    0 -0.28686092327E+01 -0.28172908181E+02  0.12821990086E+03  0.13130988025E+03  0.00000000000E+00 0. -1.
<scales pt_clust_5="13000.00000" pt_clust_6="13000.00000" pt_clust_7="13000.00000" pt_clust_8="13000.00000" pt_clust_9="28.31859"></scales>
<clustering>
<clus scale="   28.319">  2  9  1 -1</clus>
<clus scale="   76.752">  5  6 -1 -1</clus>
<clus scale="   87.333">  1  5  2 -1</clus>
<clus scale="   98.247">  7  8 -1 -1</clus>
<clus scale="   28.319">  2  5  1 -1</clus>
</clustering>
</event>
<event>
 9    1  0.6675710E-005  0.1095498E+03  0.7546771E-02  0.1272416E+00
         21   -1    0    0  501  502  0.00000000000E+00  0.00000000000E+00  0.44941560038E+02  0.44941560038E+02  0.00000000000E+00 0. -1.
          1   -1    0    0  502    0 -0.00000000000E+00 -0.00000000000E+00 -0.44069746269E+03  0.44069746269E+03  0.00000000000E+00 0. -1.
        -24    2    1    2    0    0  0.38942293078E+02 -0.10685482923E+02 -0.17228343586E+03  0.19402673414E+03  0.79587119277E+02 0.  0.
         23    2    1    2    0    0 -0.19779634177E+02  0.39815341884E+02 -0.64860478993E+02  0.12921303104E+03  0.10253111858E+03 0.  0.
         11    1    3    3    0    0 -0.69723049122E+01 -0.35638029161E+02 -0.82588361384E+02  0.90219286156E+02  0.00000000000E+00 0. -1.
        -12    1    3    3    0    0  0.45914597990E+02  0.24952546238E+02 -0.89695074474E+02  0.10380744799E+03  0.00000000000E+00 0.  1.
        -11    1    4    4    0    0 -0.58427409856E+02  0.29319399496E+02 -0.18475433232E+02  0.67931811712E+02  0.00000000000E+00 0. -1.
         11    1    4    4    0    0  0.38647775679E+02  0.10495942388E+02 -0.46385045761E+02  0.61281219324E+02  0.00000000000E+00 0.  1.
          2    1    1    2  501    0 -0.19162658901E+02 -0.29129858961E+02 -0.15861198780E+03  0.16239925756E+03  0.00000000000E+00 0. -1.
<scales pt_clust_5="13000.00000" pt_clust_6="13000.00000" pt_clust_7="13000.00000" pt_clust_8="13000.00000" pt_clust_9="34.86771"></scales>
<clustering>
<clus scale="   34.868">  1  9  2 -1</clus>
<clus scale="   79.587">  5  6 -1 -1</clus>
<clus scale="   88.446">  2  5  1 -1</clus>
<clus scale="  102.531">  7  8 -1 -1</clus>
<clus scale="   34.868">  1  5  2 -1</clus>
</clustering>
</event>
<event>
 9    1  0.6675710E-005  0.9285360E+02  0.7546771E-02  0.1303259E+00
         -2   -1    0    0    0  501 -0.00000000000E+00  0.00000000000E+00  0.52025942307E+03  0.52025942307E+03  0.00000000000E+00 0.  1.
         21   -1    0    0  501  502  0.00000000000E+00 -0.00000000000E+00 -0.48533147650E+02  0.48533147650E+02  0.00000000000E+00 0.  1.
        -24    2    1    2    0    0  0.26604054826E+02 -0.42202315232E+02  0.24048100242E+03  0.25761065592E+03  0.77738834394E+02 0.  0.
         23    2    1    2    0    0 -0.17313669330E+02 -0.37760088720E+02  0.20313463949E+03  0.22591465834E+03  0.89711558040E+02 0.  0.
         13    1    3    3    0    0 -0.21672608974E+02 -0.93170803919E+01  0.13490980293E+03  0.13695679937E+03  0.00000000000E+00 0. -1.
        -14    1    3    3    0    0  0.48276663801E+02 -0.32885234840E+02  0.10557119949E+03  0.12065385655E+03  0.00000000000E+00 0.  1.
        -13    1    4    4    0    0 -0.45285920894E+02 -0.85515453431E+01  0.52096012328E+02  0.69555287789E+02  0.00000000000E+00 0.  1.
         13    1    4    4    0    0  0.27972251564E+02 -0.29208543377E+02  0.15103862716E+03  0.15635937055E+03  0.00000000000E+00 0. -1.
         -1    1    1    2    0  502 -0.92903854958E+01  0.79962403952E+02  0.28110633510E+02  0.85267256463E+02  0.00000000000E+00 0.  1.
<scales pt_clust_5="13000.00000" pt_clust_6="13000.00000" pt_clust_7="13000.00000" pt_clust_8="13000.00000" pt_clust_9="80.50029"></scales>
<clustering>
<clus scale="   77.739">  5  6 -1 -1</clus>
<clus scale="   80.500">  2  9  1 -1</clus>
<clus scale="   81.345">  1  5  2 -1</clus>
<clus scale="   89.712">  7  8 -1 -1</clus>
<clus scale="   80.500">  2  5  1 -1</clus>
</clustering>
</event>
<event>
 9    1  0.6675710E-005  0.1271774E+03  0.7546771E-02  0.1253374E+00
         21   -1    0    0  501  502  0.00000000000E+00  0.00000000000E+00  0.25838558319E+02  0.25838558319E+02  0.00000000000E+00 0. -1.
          1   -1    0    0  502    0 -0.00000000000E+00 -0.00000000000E+00 -0.12168143098E+04  0.12168143098E+04  0.00000000000E+00 0. -1.
        -24    2    1    2    0    0 -0.15812453248E+02  0.80175605091E+01 -0.63117349263E+03  0.63648389267E+03  0.80109006252E+02 0.  0.
         23    2    1    2    0    0 -0.61168060775E+02  0.44840221315E+02 -0.43189365148E+03  0.44780055536E+03  0.90780141504E+02 0.  0.
         13    1    3    3    0    0 -0.40919828384E+01 -0.33628527878E+02 -0.17394545547E+03  0.17721355391E+03  0.00000000000E+00 0. -1.
        -14    1    3    3    0    0 -0.11720470410E+02  0.41646088387E+02 -0.45722803716E+03  0.45927033876E+03  0.00000000000E+00 0.  1.
        -11    1    4    4    0    0 -0.64048553846E+02 -0.78592385853E+01 -0.26592281576E+03  0.27364014476E+03  0.00000000000E+00 0. -1.
         11    1    4    4    0    0  0.28804930713E+01  0.52699459900E+02 -0.16597083571E+03  0.17416041060E+03  0.00000000000E+00 0.  1.
          2    1    1    2  501    0  0.76980514023E+02 -0.52857781824E+02 -0.12790860738E+03  0.15836842009E+03  0.00000000000E+00 0. -1.
<scales pt_clust_5="13000.00000" pt_clust_6="13000.00000" pt_clust_7="13000.00000" pt_clust_8="13000.00000" pt_clust_9="89.06769"></scales>
<clustering>
<clus scale="   80.109">  5  6 -1 -1</clus>
<clus scale="   82.047">  2  5  1 -1</clus>
<clus scale="   89.068">  1  9  2 -1</clus>
<clus scale="   90.780">  7  8 -1 -1</clus>
<clus scale="   89.068">  1  5  2 -1</clus>
</clustering>
</event>
<event>
 9    1  0.6675710E-005  0.1210711E+03  0.7546771E-02  0.1257964E+00
          1   -1    0    0  502    0 -0.00000000000E+00  0.00000000000E+00  0.31881794177E+03  0.31881794177E+03  0.00000000000E+00 0. -1.
         21   -1    0    0  501  502  0.00000000000E+00 -0.00000000000E+00 -0.62857648744E+02  0.62857648744E+02  0.00000000000E+00 0. -1.
        -24    2    1    2    0    0 -0.15238541752E+02 -0.40951490972E+02  0.10567718965E+03  0.14070480100E+03  0.81981307905E+02 0.  0.
         23    2    1    2    0    0  0.13333965365E+02 -0.11521151332E+02  0.52575604071E+02  0.13004846975E+03  0.11763451356E+03 0.  0.
         13    1    3    3    0    0 -0.41088140593E+02 -0.72409539081E+01  0.82166878466E+02  0.92152388074E+02  0.00000000000E+00 0. -1.
        -14    1    3    3    0    0  0.25849598841E+02 -0.33710537064E+02  0.23510311184E+02  0.48552412930E+02  0.00000000000E+00 0.  1.
        -13    1    4    4    0    0 -0.29189404484E+02  0.39321417240E+02  0.38490061657E+02  0.62287077586E+02  0.00000000000E+00 0.  1.
         13    1    4    4    0    0  0.42523369849E+02 -0.50842568572E+02  0.14085542415E+02  0.67761392160E+02  0.00000000000E+00 0. -1.
          2    1    1    2  501    0  0.19045763874E+01  0.52472642304E+02  0.97707499301E+02  0.11092231976E+03  0.00000000000E+00 0. -1.
<scales pt_clust_5="13000.00000" pt_clust_6="13000.00000" pt_clust_7="13000.00000" pt_clust_8="13000.00000" pt_clust_9="52.50722"></scales>
<clustering>
<clus scale="   52.507">  2  9  1 -1</clus>
<clus scale="   81.981">  5  6 -1 -1</clus>
<clus scale="   86.840">  1  5  2 -1</clus>
<clus scale="  117.635">  7  8 -1 -1</clus>
<clus scale="   52.507">  2  5  1 -1</clus>
</clustering>
</event>
<event>
 9    1  0.6675710E-005  0.1149276E+03  0.7546771E-02  0.1256279E+00
         21   -1    0    0  501  502  0.00000000000E+00  0.00000000000E+00  0.70758756663E+02  0.70758756663E+02  0.00000000000E+00 0. -1.
          1   -1    0    0  502    0 -0.00000000000E+00 -0.00000000000E+00 -0.35443126909E+03  0.35443126909E+03  0.00000000000E+00 0. -1.
        -24    2    1    2    0    0  0.98046539593E+02  0.15981587258E+02 -0.13426150217E+03  0.18555229912E+03  0.80839159370E+02 0.  0.
         23    2    1    2    0    0 -0.31250643685E+02  0.30600476115E+02 -0.62840972743E+02  0.12078507948E+03  0.93418711731E+02 0.  0.
         13    1    3    3    0    0  0.93414129127E+02  0.30163344608E+02 -0.13875821205E+03  0.16997019824E+03  0.00000000000E+00 0. -1.
        -14    1    3    3    0    0  0.46324104664E+01 -0.14181757350E+02  0.44967098782E+01  0.15582100885E+02  0.00000000000E+00 0.  1.
        -13    1    4    4    0    0 -0.27392507211E+02  0.51326822475E+02 -0.40401700298E+01  0.58319080331E+02  0.00000000000E+00 0. -1.
         13    1    4    4    0    0 -0.38581364737E+01 -0.20726346360E+02 -0.58800802714E+02  0.62465999154E+02  0.00000000000E+00 0.  1.
          2    1    1    2  501    0 -0.66795895908E+02 -0.46582063372E+02 -0.86570037512E+02  0.11885264714E+03  0.00000000000E+00 0. -1.
<scales pt_clust_5="13000.00000" pt_clust_6="13000.00000" pt_clust_7="13000.00000" pt_clust_8="13000.00000" pt_clust_9="81.43456"></scales>
<clustering>
<clus scale="   80.839">  5  6 -1 -1</clus>
<clus scale="   81.435">  1  9  2 -1</clus>
<clus scale="   93.419">  7  8 -1 -1</clus>
<clus scale="  104.958">  2  5  1 -1</clus>
<clus scale="   81.435">  1  5  2 -1</clus>
</clustering>
</event>
<event>
 9    1  0.6675710E-005  0.1300314E+03  0.7546771E-02  0.1242381E+00
          3   -1    0    0  502    0 -0.00000000000E+00  0.00000000000E+00  0.43158599515E+03  0.43158599515E+03  0.00000000000E+00 0. -1.
         21   -1    0    0  501  502  0.00000000000E+00 -0.00000000000E+00 -0.59634297172E+02  0.59634297172E+02  0.00000000000E+00 0. -1.
        -24    2    1    2    0    0  0.10243780875E+01  0.50977972554E+02  0.74996241891E+02  0.12157735743E+03  0.80974159489E+02 0.  0.
         23    2    1    2    0    0 -0.57848207140E+02  0.31241261086E+02  0.17994217700E+03  0.21575642668E+03  0.99243222068E+02 0.  0.
         11    1    3    3    0    0 -0.22711306285E+02 -0.10760582326E+02  0.56783666479E+01  0.25765042459E+02  0.00000000000E+00 0. -1.
        -12    1    3    3    0    0  0.23735684372E+02  0.61738554879E+02  0.69317875244E+02  0.95812314968E+02  0.00000000000E+00 0.  1.
        -11    1    4    4    0    0  0.21901637681E+02  0.25706026330E+02  0.86064745055E+02  0.92453349665E+02  0.00000000000E+00 0. -1.
         11    1    4    4    0    0 -0.79749844821E+02  0.55352347562E+01  0.93877431947E+02  0.12330307702E+03  0.00000000000E+00 0.  1.
          4    1    1    2  501    0  0.56823829052E+02 -0.82219233640E+02  0.11701327909E+03  0.15388650822E+03  0.00000000000E+00 0. -1.
<scales pt_clust_5="13000.00000" pt_clust_6="13000.00000" pt_clust_7="13000.00000" pt_clust_8="13000.00000" pt_clust_9="84.01764"></scales>
<clustering>
<clus scale="   80.974">  5  6 -1 -1</clus>
<clus scale="   95.690">  1  5  2 -1</clus>
<clus scale="   84.018">  2  9  1 -1</clus>
<clus scale="   99.243">  7  8 -1 -1</clus>
<clus scale="   84.018">  2  5  1 -1</clus>
</clustering>
</event>
<event>
 9    1  0.6675710E-005  0.1056247E+03  0.7546771E-02  0.1273473E+00
         21   -1    0    0  501  502  0.00000000000E+00  0.00000000000E+00  0.18044177296E+03  0.18044177296E+03  0.00000000000E+00 0.  1.
          1   -1    0    0  502    0 -0.00000000000E+00 -0.00000000000E+00 -0.11050481953E+03  0.11050481953E+03  0.00000000000E+00 0. -1.
         23    2    1    2    0    0 -0.48200561736E+02 -0.49006839120E+02 -0.27195586832E+02  0.11697196789E+03  0.90652506291E+02 0.  0.
        -24    2    1    2    0    0  0.39216601645E+02  0.58077209412E+01  0.31182264685E+02  0.94625307022E+02  0.80062123573E+02 0.  0.
         13    1    4    4    0    0  0.40741127224E+02  0.36759116112E+02  0.70006284982E+01  0.55317997652E+02  0.00000000000E+00 0. -1.
        -14    1    4    4    0    0 -0.15245255789E+01 -0.30951395171E+02  0.24181636187E+02  0.39307309371E+02  0.00000000000E+00 0.  1.
        -13    1    3    3    0    0 -0.22203182835E+02  0.43917452945E+01  0.27923929536E+02  0.35944604539E+02  0.00000000000E+00 0. -1.
         13    1    3    3    0    0 -0.25997378901E+02 -0.53398584414E+02 -0.55119516367E+02  0.81027363352E+02  0.00000000000E+00 0.  1.
          2    1    1    2  501    0  0.89839600913E+01  0.43199118178E+02  0.65950275576E+02  0.79349317570E+02  0.00000000000E+00 0. -1.
<scales pt_clust_5="13000.00000" pt_clust_6="13000.00000" pt_clust_7="13000.00000" pt_clust_8="13000.00000" pt_clust_9="44.12341"></scales>
<clustering>
<clus scale="   44.123">  1  9  2 -1</clus>
<clus scale="   80.062">  5  6 -1 -1</clus>
<clus scale="   90.653">  7  8 -1 -1</clus>
<clus scale="   96.688">  1  5  2 -1</clus>
<clus scale="   44.123">  1  5  2 -1</clus>
</clustering>
</event>
<event>
 9    1  0.6675710E-005  0.1909162E+03  0.7546771E-02  0.1187888E+00
          1   -1    0    0  502    0 -0.00000000000E+00  0.00000000000E+00  0.19018102199E+03  0.19018102199E+03  0.00000000000E+00 0. -1.
         21   -1    0    0  501  502  0.00000000000E+00 -0.00000000000E+00 -0.63617577870E+03  0.63617577870E+03  0.00000000000E+00 0. -1.
        -24    2    1    2    0    0  0.36640137764E+02  0.36603123226E+02  0.11656091057E+03  0.15092904187E+03  0.80689785485E+02 0.  0.
         23    2    1    2    0    0  0.37042694590E+02  0.14632628386E+03 -0.30085403667E+03  0.34773877330E+03  0.87324455347E+02 0.  0.
         11    1    3    3    0    0  0.13007412842E+02  0.24098385536E+02  0.12079367493E+03  0.12385893943E+03  0.00000000000E+00 0. -1.
        -12    1    3    3    0    0  0.23632724922E+02  0.12504737690E+02 -0.42327643578E+01  0.27070102439E+02  0.00000000000E+00 0.  1.
        -11    1    4    4    0    0 -0.24868044012E+02  0.14737637203E+02 -0.53032905715E+02  0.60399558375E+02  0.00000000000E+00 0.  1.
         11    1    4    4    0    0  0.61910738602E+02  0.13158864666E+03 -0.24782113096E+03  0.28733921492E+03  0.00000000000E+00 0. -1.
          2    1    1    2  501    0 -0.73682832354E+02 -0.18292940709E+03 -0.26170163061E+03  0.32768898551E+03  0.00000000000E+00 0. -1.
<scales pt_clust_5="13000.00000" pt_clust_6="13000.00000" pt_clust_7="13000.00000" pt_clust_8="13000.00000" pt_clust_9="169.77474"></scales>
<clustering>
<clus scale="   80.690">  5  6 -1 -1</clus>
<clus scale="   87.324">  7  8 -1 -1</clus>
<clus scale="   95.881">  1  5  2 -1</clus>
<clus scale="  169.775">  2  9  1 -1</clus>
<clus scale="  169.775">  2  5  1 -1</clus>
</clustering>
</event>
<event>
 9    1  0.6675710E-005  0.1603934E+03  0.7546771E-02  0.1214180E+00
          1   -1    0    0  502    0 -0.00000000000E+00  0.00000000000E+00  0.49896756104E+03  0.49896756104E+03  0.00000000000E+00 0. -1.
         21   -1    0    0  501  502  0.00000000000E+00 -0.00000000000E+00 -0.23802300883E+03  0.23802300883E+03  0.00000000000E+00 0. -1.
        -24    2    1    2    0    0 -0.66868457854E+02  0.46859602798E+01  0.30192722251E+03  0.31546848078E+03  0.62184932216E+02 0.  0.
         23    2    1    2    0    0 -0.33282888003E+02 -0.10644136698E+03  0.13572173482E+03  0.19434616243E+03  0.83141603953E+02 0.  0.
         11    1    3    3    0    0 -0.57739595589E+02  0.26687863581E+02  0.17220666576E+03  0.18357897127E+03  0.00000000000E+00 0. -1.
        -12    1    3    3    0    0 -0.91288622652E+01 -0.22001903301E+02  0.12972055675E+03  0.13188950951E+03  0.00000000000E+00 0.  1.
        -13    1    4    4    0    0  0.48882978376E+01 -0.87015264863E+02  0.12087085257E+03  0.14901447841E+03  0.00000000000E+00 0. -1.
         13    1    4    4    0    0 -0.38171185841E+02 -0.19426102121E+02  0.14850882250E+02  0.45331684016E+02  0.00000000000E+00 0.  1.
          2    1    1    2  501    0  0.10015134586E+03  0.10175540670E+03 -0.17670440512E+03  0.22717592667E+03  0.00000000000E+00 0. -1.
<scales pt_clust_5="13000.00000" pt_clust_6="13000.00000" pt_clust_7="13000.00000" pt_clust_8="13000.00000" pt_clust_9="137.16240"></scales>
<clustering>
<clus scale="   62.185">  5  6 -1 -1</clus>
<clus scale="   83.142">  7  8 -1 -1</clus>
<clus scale="   91.435">  1  5  2 -1</clus>
<clus scale="  137.162">  2  9  1 -1</clus>
<clus scale="  137.162">  2  5  1 -1</clus>
</clustering>
</event>
<event>
 9    1  0.6675710E-005  0.4422347E+03  0.7546771E-02  0.1030273E+00
          1   -1    0    0  502    0 -0.00000000000E+00  0.00000000000E+00  0.79644402069E+03  0.79644402069E+03  0.00000000000E+00 0. -1.
         21   -1    0    0  501  502  0.00000000000E+00 -0.00000000000E+00 -0.35293868224E+03  0.35293868224E+03  0.00000000000E+00 0. -1.
        -24    2    1    2    0    0  0.38926600998E+03  0.13521040191E+03  0.25776230888E+03  0.49182486931E+03  0.75102695545E+02 0.  0.
         23    2    1    2    0    0 -0.47695422628E+03 -0.19680343663E+02  0.14157164775E+03  0.50594144728E+03  0.89786227932E+02 0.  0.
         13    1    3    3    0    0  0.25661239552E+03  0.80917259347E+02  0.20802689027E+03  0.34010691182E+03  0.00000000000E+00 0. -1.
        -14    1    3    3    0    0  0.13265361446E+03  0.54293142567E+02  0.49735418614E+02  0.15171795748E+03  0.00000000000E+00 0.  1.
        -13    1    4    4    0    0 -0.10484887925E+03 -0.16472232369E+02  0.69616089058E+02  0.12692919985E+03  0.00000000000E+00 0. -1.
         13    1    4    4    0    0 -0.37210534704E+03 -0.32081112939E+01  0.71955558695E+02  0.37901224743E+03  0.00000000000E+00 0.  1.
          2    1    1    2  501    0  0.87688216304E+02 -0.11553005825E+03  0.44171381814E+02  0.15161638635E+03  0.00000000000E+00 0. -1.
<scales pt_clust_5="13000.00000" pt_clust_6="13000.00000" pt_clust_7="13000.00000" pt_clust_8="13000.00000" pt_clust_9="145.03937"></scales>
<clustering>
<clus scale="   75.103">  5  6 -1 -1</clus>
<clus scale="   89.786">  7  8 -1 -1</clus>
<clus scale="  145.039">  2  9  1 -1</clus>
<clus scale="  439.489">  1  5  2 -1</clus>
<clus scale="  145.039">  2  5  1 -1</clus>
</clustering>
</event>
<event>
 9    1  0.6675710E-005  0.1845448E+03  0.7546771E-02  0.1192264E+00
         21   -1    0    0  501  502  0.00000000000E+00  0.00000000000E+00  0.42679318324E+02  0.42679318324E+02  0.00000000000E+00 0.  1.
          1   -1    0    0  502    0 -0.00000000000E+00 -0.00000000000E+00 -0.13350572916E+04  0.13350572916E+04  0.00000000000E+00 0. -1.
         23    2    1    2    0    0  0.15060239728E+02 -0.27006035110E+02 -0.14249645403E+03  0.17202891414E+03  0.91282918085E+02 0.  0.
        -24    2    1    2    0    0 -0.55549294347E+02 -0.14761231065E+03 -0.45956474650E+03  0.49249792514E+03  0.80494295961E+02 0.  0.
         11    1    4    4    0    0  0.55867846340E+00 -0.61266999683E+02 -0.90151367518E+02  0.10900103870E+03  0.00000000000E+00 0. -1.
        -12    1    4    4    0    0 -0.56107972810E+02 -0.86345310963E+02 -0.36941337898E+03  0.38349688644E+03  0.00000000000E+00 0.  1.
        -11    1    3    3    0    0  0.41175867703E+02 -0.27301023626E+02 -0.32883558761E+02  0.59347505499E+02  0.00000000000E+00 0.  1.
         11    1    3    3    0    0 -0.26115627975E+02  0.29498851643E+00 -0.10961289527E+03  0.11268140864E+03  0.00000000000E+00 0. -1.
          2    1    1    2  501    0  0.40489054619E+02  0.17461834576E+03 -0.69031677271E+03  0.71320977061E+03  0.00000000000E+00 0. -1.
<scales pt_clust_5="13000.00000" pt_clust_6="13000.00000" pt_clust_7="13000.00000" pt_clust_8="13000.00000" pt_clust_9="166.06471"></scales>
<clustering>
<clus scale="   80.494">  5  6 -1 -1</clus>
<clus scale="   91.283">  7  8 -1 -1</clus>
<clus scale="   96.378">  2  7  1 -1</clus>
<clus scale="  166.065">  1  9  2 -1</clus>
<clus scale="  166.065">  1  5  2 -1</clus>
</clustering>
</event>
<event>
 9    1  0.6675710E-005  0.1427721E+03  0.7546771E-02  0.1231588E+00
         21   -1    0    0  501  502  0.00000000000E+00  0.00000000000E+00  0.23744638984E+02  0.23744638984E+02  0.00000000000E+00 0. -1.
          1   -1    0    0  502    0 -0.00000000000E+00 -0.00000000000E+00 -0.17946993431E+04  0.17946993431E+04  0.00000000000E+00 0. -1.
        -24    2    1    2    0    0  0.36636241518E+02  0.15615306717E+02 -0.40677822819E+03  0.41663867862E+03  0.80828272246E+02 0.  0.
         23    2    1    2    0    0  0.99957625117E+02 -0.17094034353E+02 -0.31014132366E+03  0.33895527959E+03  0.91756787713E+02 0.  0.
         13    1    3    3    0    0  0.21004228855E+02 -0.89330451357E+01 -0.25388580238E+02  0.34140253831E+02  0.00000000000E+00 0. -1.
        -14    1    3    3    0    0  0.15632012663E+02  0.24548351853E+02 -0.38138964796E+03  0.38249842479E+03  0.00000000000E+00 0.  1.
        -13    1    4    4    0    0 -0.54076660534E+01 -0.29850343755E+02 -0.60151261312E+02  0.67368094169E+02  0.00000000000E+00 0.  1.
         13    1    4    4    0    0  0.10536529117E+03  0.12756309402E+02 -0.24999006234E+03  0.27158718542E+03  0.00000000000E+00 0. -1.
          2    1    1    2  501    0 -0.13659386664E+03  0.14787276362E+01 -0.10540351523E+04  0.10628500239E+04  0.00000000000E+00 0. -1.
<scales pt_clust_5="13000.00000" pt_clust_6="13000.00000" pt_clust_7="13000.00000" pt_clust_8="13000.00000" pt_clust_9="109.38270"></scales>
<clustering>
<clus scale="   80.828">  5  6 -1 -1</clus>
<clus scale="   90.107">  2  5  1 -1</clus>
<clus scale="   91.757">  7  8 -1 -1</clus>
<clus scale="  109.383">  1  9  2 -1</clus>
<clus scale="  109.383">  1  5  2 -1</clus>
</clustering>
</event>
<event>
 9    1  0.6675710E-005  0.9197338E+02  0.7546771E-02  0.1307131E+00
         21   -1    0    0  501  502  0.00000000000E+00  0.00000000000E+00  0.13862234825E+03  0.13862234825E+03  0.00000000000E+00 0.  1.
          3   -1    0    0  502    0 -0.00000000000E+00 -0.00000000000E+00 -0.97537063015E+02  0.97537063015E+02  0.00000000000E+00 0. -1.
         23    2    1    2    0    0  0.12283792813E+01 -0.19646315072E+01  0.10222456340E+02  0.90524661347E+02  0.89915777290E+02 0.  0.
        -24    2    1    2    0    0 -0.30362925403E+02  0.32473747624E+02  0.48192223200E+02  0.10002843621E+03  0.75543008605E+02 0.  0.
         13    1    4    4    0    0  0.23761873395E+02  0.83675846960E+01  0.27165711744E+01  0.25338170018E+02  0.00000000000E+00 0. -1.
        -14    1    4    4    0    0 -0.54124798798E+02  0.24106162928E+02  0.45475652026E+02  0.74690266188E+02  0.00000000000E+00 0.  1.
        -13    1    3    3    0    0  0.36036428842E+02  0.93080457240E+00 -0.22639037579E+02  0.42567788566E+02  0.00000000000E+00 0.  1.
         13    1    3    3    0    0 -0.34808049561E+02 -0.28954360796E+01  0.32861493919E+02  0.47956872781E+02  0.00000000000E+00 0. -1.
          4    1    1    2  501    0  0.29134546122E+02 -0.30509116117E+02 -0.17329394301E+02  0.45606313716E+02  0.00000000000E+00 0. -1.
<scales pt_clust_5="13000.00000" pt_clust_6="13000.00000" pt_clust_7="13000.00000" pt_clust_8="13000.00000" pt_clust_9="42.18566"></scales>
<clustering>
<clus scale="   42.186">  1  9  2 -1</clus>
<clus scale="   75.543">  5  6 -1 -1</clus>
<clus scale="   77.981">  1  5  2 -1</clus>
<clus scale="   89.916">  7  8 -1 -1</clus>
<clus scale="   42.186">  1  5  2 -1</clus>
</clustering>
</event>
<event>
 9    1  0.6675710E-005  0.1269842E+03  0.7546771E-02  0.1245283E+00
         -2   -1    0    0    0  501 -0.00000000000E+00  0.00000000000E+00  0.21183162472E+03  0.21183162472E+03  0.00000000000E+00 0.  1.
         21   -1    0    0  501  502  0.00000000000E+00 -0.00000000000E+00 -0.15545190157E+03  0.15545190157E+03  0.00000000000E+00 0. -1.
         23    2    1    2    0    0  0.26897275581E+02  0.22130526379E+02 -0.50394213485E+02  0.10922201903E+03  0.90424825450E+02 0.  0.
        -24    2    1    2    0    0  0.65609544768E+02  0.51250620948E+02  0.38850171804E+02  0.12184130896E+03  0.80029558334E+02 0.  0.
         13    1    4    4    0    0  0.77730953411E+02  0.18922645803E+02  0.34196835608E+02  0.87003397680E+02  0.00000000000E+00 0. -1.
        -14    1    4    4    0    0 -0.12121408642E+02  0.32327975145E+02  0.46533361966E+01  0.34837911278E+02  0.00000000000E+00 0.  1.
        -11    1    3    3    0    0 -0.30298668973E+02 -0.76070496365E+01 -0.86237436174E+01  0.32407491413E+02  0.00000000000E+00 0.  1.
         11    1    3    3    0    0  0.57195944554E+02  0.29737576015E+02 -0.41770469868E+02  0.76814527621E+02  0.00000000000E+00 0. -1.
         -1    1    1    2    0  502 -0.92506820349E+02 -0.73381147327E+02  0.67923764833E+02  0.13622019829E+03  0.00000000000E+00 0.  1.
<scales pt_clust_5="13000.00000" pt_clust_6="13000.00000" pt_clust_7="13000.00000" pt_clust_8="13000.00000" pt_clust_9="98.59140"></scales>
<clustering>
<clus scale="   80.030">  5  6 -1 -1</clus>
<clus scale="   90.425">  7  8 -1 -1</clus>
<clus scale="   96.901">  1  7  2 -1</clus>
<clus scale="   98.591">  2  9  1 -1</clus>
<clus scale="   98.591">  2  5  1 -1</clus>
</clustering>
</event>
<event>
 9    1  0.6675710E-005  0.1032151E+03  0.7546771E-02  0.1280445E+00
         21   -1    0    0  501  502  0.00000000000E+00  0.00000000000E+00  0.12202704923E+03  0.12202704923E+03  0.00000000000E+00 0.  1.
          1   -1    0    0  502    0 -0.00000000000E+00 -0.00000000000E+00 -0.29798610922E+03  0.29798610922E+03  0.00000000000E+00 0. -1.
         23    2    1    2    0    0 -0.17698884919E+01 -0.44931704899E+02 -0.24614120103E+03  0.26800343996E+03  0.96012303258E+02 0.  0.
        -24    2    1    2    0    0 -0.92626762128E+01  0.48893731916E+01  0.17428333776E+02  0.84867555917E+02  0.82395704308E+02 0.  0.
         11    1    4    4    0    0  0.13190606087E+02  0.34245825001E+02  0.28300139948E+02  0.46342923300E+02  0.00000000000E+00 0. -1.
        -12    1    4    4    0    0 -0.22453282300E+02 -0.29356451809E+02 -0.10871806171E+02  0.38524632617E+02  0.00000000000E+00 0.  1.
        -11    1    3    3    0    0  0.31687995817E+02 -0.16839384228E+02 -0.20458454751E+03  0.20770780202E+03  0.00000000000E+00 0. -1.
         11    1    3    3    0    0 -0.33457884309E+02 -0.28092320671E+02 -0.41556653520E+02  0.60295637942E+02  0.00000000000E+00 0.  1.
          2    1    1    2  501    0  0.11032564705E+02  0.40042331708E+02  0.52753807265E+02  0.67142162562E+02  0.00000000000E+00 0. -1.
<scales pt_clust_5="13000.00000" pt_clust_6="13000.00000" pt_clust_7="13000.00000" pt_clust_8="13000.00000" pt_clust_9="41.53439"></scales>
<clustering>
<clus scale="   41.534">  1  9  2 -1</clus>
<clus scale="   82.396">  5  6 -1 -1</clus>
<clus scale="   90.687">  1  5  2 -1</clus>
<clus scale="   96.012">  7  8 -1 -1</clus>
<clus scale="   41.534">  1  5  2 -1</clus>
</clustering>
</event>
<event>
 9    1  0.6675710E-005  0.2359714E+03  0.7546771E-02  0.1151345E+00
         21   -1    0    0  501  502  0.00000000000E+00  0.00000000000E+00  0.65215807661E+02  0.65215807661E+02  0.00000000000E+00 0.  1.
          3   -1    0    0  502    0 -0.00000000000E+00 -0.00000000000E+00 -0.13204989132E+04  0.13204989132E+04  0.00000000000E+00 0. -1.
        -24    2    1    2    0    0  0.68598986692E+02 -0.52398631478E+02 -0.26056813960E+03  0.28572447215E+03  0.79317596135E+02 0.  0.
         23    2    1    2    0    0  0.17132017514E+03  0.10532575787E+03 -0.41625832900E+03  0.47152022894E+03  0.92823553921E+02 0.  0.
         13    1    3    3    0    0  0.21985503529E+02 -0.56269444179E+02 -0.20160541952E+03  0.21046224815E+03  0.00000000000E+00 0. -1.
        -14    1    3    3    0    0  0.46613483163E+02  0.38708127013E+01 -0.58962720075E+02  0.75262224005E+02  0.00000000000E+00 0.  1.
        -13    1    4    4    0    0  0.17342305016E+03  0.71630900756E+02 -0.35777651704E+03  0.40399328759E+03  0.00000000000E+00 0.  1.
         13    1    4    4    0    0 -0.21028750213E+01  0.33694857110E+02 -0.58481811955E+02  0.67526941354E+02  0.00000000000E+00 0. -1.
          4    1    1    2  501    0 -0.23991916183E+03 -0.52927126388E+02 -0.57845663693E+03  0.62847001975E+03  0.00000000000E+00 0. -1.
<scales pt_clust_5="13000.00000" pt_clust_6="13000.00000" pt_clust_7="13000.00000" pt_clust_8="13000.00000" pt_clust_9="216.94782"></scales>
<clustering>
<clus scale="   79.318">  5  6 -1 -1</clus>
<clus scale="   92.824">  7  8 -1 -1</clus>
<clus scale="  117.229">  2  5  1 -1</clus>
<clus scale="  216.948">  1  9  2 -1</clus>
<clus scale="  216.948">  1  5  2 -1</clus>
</clustering>
</event>
<event>
 9    1  0.6675710E-005  0.1127443E+03  0.7546771E-02  0.1271228E+00
         21   -1    0    0  501  502  0.00000000000E+00  0.00000000000E+00  0.91180173154E+02  0.91180173154E+02  0.00000000000E+00 0.  1.
         -2   -1    0    0    0  501 -0.00000000000E+00 -0.00000000000E+00 -0.25969985800E+03  0.25969985800E+03  0.00000000000E+00 0.  1.
         23    2    1    2    0    0 -0.28768176735E+01 -0.30415868830E+02 -0.14827428285E+03  0.18831216058E+03  0.11199466822E+03 0.  0.
        -24    2    1    2    0    0  0.20506475981E+02 -0.21787415214E+02 -0.49332277870E+02  0.10026189924E+03  0.81997364468E+02 0.  0.
         13    1    4    4    0    0 -0.29906336306E+02 -0.77059747455E+01 -0.33531333808E+02  0.45586416233E+02  0.00000000000E+00 0. -1.
        -14    1    4    4    0    0  0.50412812287E+02 -0.14081440468E+02 -0.15800944062E+02  0.54675483003E+02  0.00000000000E+00 0.  1.
        -13    1    3    3    0    0 -0.23361975578E+02 -0.52288969764E+02 -0.26864175031E+02  0.63258218138E+02  0.00000000000E+00 0.  1.
         13    1    3    3    0    0  0.20485157905E+02  0.21873100934E+02 -0.12141010782E+03  0.12505394244E+03  0.00000000000E+00 0. -1.
         -1    1    1    2    0  502 -0.17629658307E+02  0.52203284044E+02  0.29086875872E+02  0.62305971343E+02  0.00000000000E+00 0.  1.
<scales pt_clust_5="13000.00000" pt_clust_6="13000.00000" pt_clust_7="13000.00000" pt_clust_8="13000.00000" pt_clust_9="55.09980"></scales>
<clustering>
<clus scale="   55.100">  1  9  2 -1</clus>
<clus scale="   81.997">  5  6 -1 -1</clus>
<clus scale="   83.018">  1  5  2 -1</clus>
<clus scale="  111.995">  7  8 -1 -1</clus>
<clus scale="   55.100">  1  5  2 -1</clus>
</clustering>
</event>
<event>
 9    1  0.6675710E-005  0.1245796E+03  0.7546771E-02  0.1244639E+00
          1   -1    0    0  502    0 -0.00000000000E+00  0.00000000000E+00  0.43390172885E+03  0.43390172885E+03  0.00000000000E+00 0. -1.
         21   -1    0    0  501  502  0.00000000000E+00 -0.00000000000E+00 -0.13040165897E+03  0.13040165897E+03  0.00000000000E+00 0.  1.
        -24    2    1    2    0    0 -0.54531968343E+02  0.59808346494E+02  0.19951832299E+03  0.22393057136E+03  0.61535076969E+02 0.  0.
         23    2    1    2    0    0  0.15899859298E+02 -0.12871194381E+03 -0.50438205636E+02  0.16692061178E+03  0.92189522418E+02 0.  0.
         13    1    3    3    0    0 -0.12206556557E+02  0.55128750942E+02  0.87983747319E+02  0.10454338332E+03  0.00000000000E+00 0. -1.
        -14    1    3    3    0    0 -0.42325411786E+02  0.46795955516E+01  0.11153457568E+03  0.11938718804E+03  0.00000000000E+00 0.  1.
        -13    1    4    4    0    0  0.37017983988E+02 -0.11165579086E+03 -0.66749753801E+02  0.13525116045E+03  0.00000000000E+00 0.  1.
         13    1    4    4    0    0 -0.21118124690E+02 -0.17056152957E+02  0.16311548165E+02  0.31669451332E+02  0.00000000000E+00 0. -1.
          2    1    1    2  501    0  0.38632109044E+02  0.68903597321E+02  0.15441995252E+03  0.17345220468E+03  0.00000000000E+00 0. -1.
<scales pt_clust_5="13000.00000" pt_clust_6="13000.00000" pt_clust_7="13000.00000" pt_clust_8="13000.00000" pt_clust_9="78.99463"></scales>
<clustering>
<clus scale="   61.535">  5  6 -1 -1</clus>
<clus scale="   78.995">  2  9  1 -1</clus>
<clus scale="   92.190">  7  8 -1 -1</clus>
<clus scale="  103.960">  1  5  2 -1</clus>
<clus scale="   78.995">  2  5  1 -1</clus>
</clustering>
</event>
<event>
 9    1  0.6675710E-005  0.9196696E+02  0.7546771E-02  0.1304010E+00
          1   -1    0    0  502    0 -0.00000000000E+00  0.00000000000E+00  0.56284831322E+03  0.56284831322E+03  0.00000000000E+00 0. -1.
         21   -1    0    0  501  502  0.00000000000E+00 -0.00000000000E+00 -0.18539587590E+02  0.18539587590E+02  0.00000000000E+00 0. -1.
         23    2    1    2    0    0 -0.11323004365E+01  0.11703851287E+02  0.23237362339E+03  0.24986381278E+03  0.91083268780E+02 0.  0.
        -24    2    1    2    0    0  0.19586517201E+02 -0.32723816695E+01  0.18748548498E+03  0.20543144338E+03  0.81590016031E+02 0.  0.
         13    1    4    4    0    0  0.50710317469E+02 -0.92578096227E+01  0.12883975109E+03  0.13876932225E+03  0.00000000000E+00 0. -1.
        -14    1    4    4    0    0 -0.31123800268E+02  0.59854279532E+01  0.58645733887E+02  0.66662121134E+02  0.00000000000E+00 0.  1.
        -13    1    3    3    0    0  0.32999985743E+02  0.36779513005E+02  0.13004166203E+03  0.13911349862E+03  0.00000000000E+00 0. -1.
         13    1    3    3    0    0 -0.34132286179E+02 -0.25075661718E+02  0.10233196136E+03  0.11075031416E+03  0.00000000000E+00 0.  1.
          2    1    1    2  501    0 -0.18454216764E+02 -0.84314696179E+01  0.12444961727E+03  0.12609264465E+03  0.00000000000E+00 0. -1.
<scales pt_clust_5="13000.00000" pt_clust_6="13000.00000" pt_clust_7="13000.00000" pt_clust_8="13000.00000" pt_clust_9="20.28912"></scales>
<clustering>
<clus scale="   20.289">  2  9  1 -1</clus>
<clus scale="   81.590">  5  6 -1 -1</clus>
<clus scale="   82.575">  2  5  1 -1</clus>
<clus scale="   91.083">  7  8 -1 -1</clus>
<clus scale="   20.289">  2  5  1 -1</clus>
</clustering>
</event>
<event>
 9    1  0.6675710E-005  0.1388451E+03  0.7546771E-02  0.1225685E+00
         21   -1    0    0  501  502  0.00000000000E+00  0.00000000000E+00  0.79942657201E+02  0.79942657201E+02  0.00000000000E+00 0. -1.
          1   -1    0    0  502    0 -0.00000000000E+00 -0.00000000000E+00 -0.48211390188E+03  0.48211390188E+03  0.00000000000E+00 0. -1.
         23    2    1    2    0    0 -0.42811899269E+02  0.43229547213E+02 -0.44958710033E+02  0.11948168276E+03  0.92482076293E+02 0.  0.
        -24    2    1    2    0    0 -0.85018308569E+02  0.84753604126E+00 -0.22589029698E+03  0.25408381179E+03  0.79393488606E+02 0.  0.
         13    1    4    4    0    0 -0.99462197609E+02 -0.72913706570E+01 -0.19203412593E+03  0.21638622498E+03  0.00000000000E+00 0. -1.
        -14    1    4    4    0    0  0.14443889041E+02  0.81389066982E+01 -0.33856171053E+02  0.37697586809E+02  0.00000000000E+00 0.  1.
        -13    1    3    3    0    0  0.79567617514E+01  0.40394914646E+02 -0.53929446596E+02  0.67848687511E+02  0.00000000000E+00 0. -1.
         13    1    3    3    0    0 -0.50768661021E+02  0.28346325668E+01  0.89707365628E+01  0.51632995246E+02  0.00000000000E+00 0.  1.
          2    1    1    2  501    0  0.12783020784E+03 -0.44077083254E+02 -0.13132223766E+03  0.18849106453E+03  0.00000000000E+00 0. -1.
<scales pt_clust_5="13000.00000" pt_clust_6="13000.00000" pt_clust_7="13000.00000" pt_clust_8="13000.00000" pt_clust_9="113.90630"></scales>
<clustering>
<clus scale="   79.393">  5  6 -1 -1</clus>
<clus scale="   92.482">  7  8 -1 -1</clus>
<clus scale="  110.700">  2  7  1 -1</clus>
<clus scale="  113.906">  1  9  2 -1</clus>
<clus scale="  113.906">  1  5  2 -1</clus>
</clustering>
</event>
<event>
 9    1  0.6675710E-005  0.1214301E+03  0.7546771E-02  0.1243863E+00
          1   -1    0    0  502    0 -0.00000000000E+00  0.00000000000E+00  0.47768412602E+03  0.47768412602E+03  0.00000000000E+00 0. -1.
         21   -1    0    0  501  502  0.00000000000E+00 -0.00000000000E+00 -0.11217795328E+03  0.11217795328E+03  0.00000000000E+00 0.  1.
         23    2    1    2    0    0 -0.52682400959E+02 -0.63324133050E+02  0.43171263011E+03  0.44882877516E+03  0.91027980414E+02 0.  0.
        -24    2    1    2    0    0  0.45006375766E+02  0.41900346179E+02 -0.51302985983E+02  0.11383011562E+03  0.80895525108E+02 0.  0.
         11    1    4    4    0    0  0.16679536810E+02  0.61644294072E+02 -0.19204226689E+02  0.66686042487E+02  0.00000000000E+00 0. -1.
        -12    1    4    4    0    0  0.28326838956E+02 -0.19743947893E+02 -0.32098759295E+02  0.47144073136E+02  0.00000000000E+00 0.  1.
        -13    1    3    3    0    0 -0.65592197479E+02 -0.19614679023E+02  0.33488180663E+03  0.34180827435E+03  0.00000000000E+00 0. -1.
         13    1    3    3    0    0  0.12909796521E+02 -0.43709454027E+02  0.96830823477E+02  0.10702050081E+03  0.00000000000E+00 0.  1.
          2    1    1    2  501    0  0.76760251927E+01  0.21423786872E+02 -0.14903471386E+02  0.27203188527E+02  0.00000000000E+00 0. -1.
<scales pt_clust_5="13000.00000" pt_clust_6="13000.00000" pt_clust_7="13000.00000" pt_clust_8="13000.00000" pt_clust_9="22.75742"></scales>
<clustering>
<clus scale="   22.757">  2  9  1 -1</clus>
<clus scale="   80.896">  5  6 -1 -1</clus>
<clus scale="   91.028">  7  8 -1 -1</clus>
<clus scale="  114.032">  2  5  1 -1</clus>
<clus scale="   22.757">  2  5  1 -1</clus>
</clustering>
</event>
<event>
 9    1  0.6675710E-005  0.1028086E+03  0.7546771E-02  0.1278736E+00
          1   -1    0    0  502    0 -0.00000000000E+00  0.00000000000E+00  0.17749575532E+03  0.17749575532E+03  0.00000000000E+00 0. -1.
         21   -1    0    0  501  502  0.00000000000E+00 -0.00000000000E+00 -0.17394203672E+03  0.17394203672E+03  0.00000000000E+00 0. -1.
        -24    2    1    2    0    0 -0.27697497018E+02 -0.20520917577E+02 -0.43580678499E+02  0.97448816625E+02  0.80054587151E+02 0.  0.
         23    2    1    2    0    0  0.79861073970E+02 -0.42841888000E+01 -0.58607646118E+02  0.13349950796E+03  0.89393048015E+02 0.  0.
         13    1    3    3    0    0 -0.27496775717E+02 -0.43013238286E+02 -0.31079117627E+01  0.51145581023E+02  0.00000000000E+00 0. -1.
        -14    1    3    3    0    0 -0.20072130108E+00  0.22492320709E+02 -0.40472766736E+02  0.46303235602E+02  0.00000000000E+00 0.  1.
        -11    1    4    4    0    0  0.18867205005E+02 -0.34142359996E+02  0.63531167299E+01  0.39522579154E+02  0.00000000000E+00 0.  1.
         11    1    4    4    0    0  0.60993868964E+02  0.29858171196E+02 -0.64960762848E+02  0.93976928808E+02  0.00000000000E+00 0. -1.
          2    1    1    2  501    0 -0.52163576952E+02  0.24805106377E+02  0.10574204321E+03  0.12048946745E+03  0.00000000000E+00 0. -1.
<scales pt_clust_5="13000.00000" pt_clust_6="13000.00000" pt_clust_7="13000.00000" pt_clust_8="13000.00000" pt_clust_9="57.76102"></scales>
<clustering>
<clus scale="   57.761">  2  9  1 -1</clus>
<clus scale="   80.055">  5  6 -1 -1</clus>
<clus scale="   89.393">  7  8 -1 -1</clus>
<clus scale="   94.801">  1  5  2 -1</clus>
<clus scale="   57.761">  2  5  1 -1</clus>
</clustering>
</event>
<event>
 9    1  0.6675710E-005  0.1231167E+03  0.7546771E-02  0.1240966E+00
         -2   -1    0    0    0  501 -0.00000000000E+00  0.00000000000E+00  0.11821628554E+03  0.11821628554E+03  0.00000000000E+00 0.  1.
         21   -1    0    0  501  502  0.00000000000E+00 -0.00000000000E+00 -0.19859520544E+03  0.19859520544E+03  0.00000000000E+00 0.  1.
        -24    2    1    2    0    0 -0.66655217260E+02  0.43163645555E+02  0.19050778419E+02  0.11475334628E+03  0.80618732550E+02 0.  0.
         23    2    1    2    0    0  0.62650738589E+02 -0.75381272997E+02 -0.10412368691E+03  0.16925502144E+03  0.90543187165E+02 0.  0.
         13    1    3    3    0    0  0.13488782571E+02  0.23737572044E+02  0.17198605261E+02  0.32267810659E+02  0.00000000000E+00 0. -1.
        -14    1    3    3    0    0 -0.80143999831E+02  0.19426073511E+02  0.18521731580E+01  0.82485535619E+02  0.00000000000E+00 0.  1.
        -11    1    4    4    0    0  0.51992475670E+02 -0.94224267601E+02 -0.68497140202E+02  0.12756679955E+03  0.00000000000E+00 0.  1.
         11    1    4    4    0    0  0.10658262918E+02  0.18842994604E+02 -0.35626546703E+02  0.41688221886E+02  0.00000000000E+00 0. -1.
         -1    1    1    2    0  502  0.40044786717E+01  0.32217627442E+02  0.46939885871E+01  0.32803123271E+02  0.00000000000E+00 0.  1.
<scales pt_clust_5="13000.00000" pt_clust_6="13000.00000" pt_clust_7="13000.00000" pt_clust_8="13000.00000" pt_clust_9="32.46556"></scales>
<clustering>
<clus scale="   32.466">  2  9  1 -1</clus>
<clus scale="   80.619">  5  6 -1 -1</clus>
<clus scale="   90.543">  7  8 -1 -1</clus>
<clus scale="  116.013">  1  5  2 -1</clus>
<clus scale="   32.466">  2  5  1 -1</clus>
</clustering>
</event>
<event>
 9    1  0.6675710E-005  0.3849779E+03  0.7546771E-02  0.1105190E+00
         21   -1    0    0  501  502  0.00000000000E+00  0.00000000000E+00  0.10493078619E+03  0.10493078619E+03  0.00000000000E+00 0. -1.
          1   -1    0    0  502    0 -0.00000000000E+00 -0.00000000000E+00 -0.24210536769E+04  0.24210536769E+04  0.00000000000E+00 0. -1.
        -24    2    1    2    0    0 -0.21636496347E+02  0.45056206236E+01 -0.78159059021E+03  0.78611368683E+03  0.81255395661E+02 0.  0.
         23    2    1    2    0    0 -0.13628899017E+03 -0.34595089372E+03 -0.11032745982E+04  0.11675871581E+04  0.88250909603E+02 0.  0.
         13    1    3    3    0    0  0.27948127535E+02 -0.98519781766E+00 -0.15211251820E+03  0.15466184611E+03  0.00000000000E+00 0. -1.
        -14    1    3    3    0    0 -0.49584623882E+02  0.54908184413E+01 -0.62947807201E+03  0.63145184072E+03  0.00000000000E+00 0.  1.
        -13    1    4    4    0    0 -0.14712778113E+03 -0.32496617972E+03 -0.10022878395E+04  0.10638752348E+04  0.00000000000E+00 0. -1.
         13    1    4    4    0    0  0.10838790959E+02 -0.20984714003E+02 -0.10098675868E+03  0.10371192333E+03  0.00000000000E+00 0.  1.
          2    1    1    2  501    0  0.15792548651E+03  0.34144527309E+03 -0.43125770229E+03  0.57228361814E+03  0.00000000000E+00 0. -1.
<scales pt_clust_5="13000.00000" pt_clust_6="13000.00000" pt_clust_7="13000.00000" pt_clust_8="13000.00000" pt_clust_9="374.72623"></scales>
<clustering>
<clus scale="   81.255">  5  6 -1 -1</clus>
<clus scale="   84.207">  2  5  1 -1</clus>
<clus scale="   88.251">  7  8 -1 -1</clus>
<clus scale="  374.726">  1  9  2 -1</clus>
<clus scale="  374.726">  1  5  2 -1</clus>
</clustering>
</event>
<event>
 9    1  0.6675710E-005  0.1158553E+03  0.7546771E-02  0.1255732E+00
         -2   -1    0    0    0  501 -0.00000000000E+00  0.00000000000E+00  0.85797528235E+02  0.85797528235E+02  0.00000000000E+00 0.  1.
         21   -1    0    0  501  502  0.00000000000E+00 -0.00000000000E+00 -0.26888252470E+03  0.26888252470E+03  0.00000000000E+00 0.  1.
        -24    2    1    2    0    0 -0.84343102142E+01 -0.56981721282E+02 -0.34778222433E+02  0.12501042997E+03  0.10535667372E+03 0.  0.
         23    2    1    2    0    0  0.50279806229E+02  0.19237864072E+02 -0.52625077323E+02  0.11862624685E+03  0.91676787406E+02 0.  0.
         11    1    3    3    0    0 -0.70706627605E+01 -0.67157307691E+02  0.19088111773E+02  0.70174455888E+02  0.00000000000E+00 0. -1.
        -12    1    3    3    0    0 -0.13636474538E+01  0.10175586409E+02 -0.53866334206E+02  0.54835974086E+02  0.00000000000E+00 0.  1.
        -11    1    4    4    0    0 -0.16822259198E+02  0.32333648546E+02 -0.90578856603E+01  0.37556604285E+02  0.00000000000E+00 0. -1.
         11    1    4    4    0    0  0.67102065427E+02 -0.13095784474E+02 -0.43567191663E+02  0.81069642561E+02  0.00000000000E+00 0.  1.
         -1    1    1    2    0  502 -0.41845496015E+02  0.37743857210E+02 -0.95681696705E+02  0.11104337611E+03  0.00000000000E+00 0.  1.
<scales pt_clust_5="13000.00000" pt_clust_6="13000.00000" pt_clust_7="13000.00000" pt_clust_8="13000.00000" pt_clust_9="56.35286"></scales>
<clustering>
<clus scale="   56.353">  2  9  1 -1</clus>
<clus scale="   91.677">  7  8 -1 -1</clus>
<clus scale="  103.571">  2  7  1 -1</clus>
<clus scale="  105.357">  5  6 -1 -1</clus>
<clus scale="   56.353">  2  5  1 -1</clus>
</clustering>
</event>
<event>
 9    1  0.6675710E-005  0.1078885E+03  0.7546771E-02  0.1269276E+00
          1   -1    0    0  502    0 -0.00000000000E+00  0.00000000000E+00  0.18443673166E+03  0.18443673166E+03  0.00000000000E+00 0. -1.
         21   -1    0    0  501  502  0.00000000000E+00 -0.00000000000E+00 -0.16136429310E+03  0.16136429310E+03  0.00000000000E+00 0. -1.
         23    2    1    2    0    0 -0.14016147276E+02  0.83017028371E+01  0.45109400397E+02  0.11442219499E+03  0.10388556226E+03 0.  0.
        -24    2    1    2    0    0 -0.33485272912E+02  0.77854155322E+02  0.27847494511E+02  0.12107164143E+03  0.81855521534E+02 0.  0.
         13    1    4    4    0    0  0.83909054085E+01  0.72895097379E+02  0.28969035565E+02  0.78887942913E+02  0.00000000000E+00 0. -1.
        -14    1    4    4    0    0 -0.41876178320E+02  0.49590579425E+01 -0.11215410547E+01  0.42183698519E+02  0.00000000000E+00 0.  1.
        -11    1    3    3    0    0 -0.11048232793E+02 -0.22656649895E+02 -0.26364167773E+02  0.36475424256E+02  0.00000000000E+00 0.  1.
         11    1    3    3    0    0 -0.29679144833E+01  0.30958352732E+02  0.71473568170E+02  0.77946770729E+02  0.00000000000E+00 0. -1.
          2    1    1    2  501    0  0.47501420188E+02 -0.86155858159E+02 -0.49884456354E+02  0.11030718835E+03  0.00000000000E+00 0. -1.
<scales pt_clust_5="13000.00000" pt_clust_6="13000.00000" pt_clust_7="13000.00000" pt_clust_8="13000.00000" pt_clust_9="98.38301"></scales>
<clustering>
<clus scale="   81.856">  5  6 -1 -1</clus>
<clus scale="   98.383">  2  9  1 -1</clus>
<clus scale="   98.383">  2  5  1 -1</clus>
<clus scale="  103.886">  7  8 -1 -1</clus>
<clus scale="   98.383">  2  5  1 -1</clus>
</clustering>
</event>
<event>
 9    1  0.6675710E-005  0.1004317E+03  0.7546771E-02  0.1285206E+00
         21   -1    0    0  501  502  0.00000000000E+00  0.00000000000E+00  0.37010835034E+02  0.37010835034E+02  0.00000000000E+00 0. -1.
          1   -1    0    0  502    0 -0.00000000000E+00 -0.00000000000E+00 -0.36884347946E+03  0.36884347946E+03  0.00000000000E+00 0. -1.
         23    2    1    2    0    0  0.14407508047E+02  0.20079537246E+02 -0.13616706281E+03  0.16546845511E+03  0.90705989534E+02 0.  0.
        -24    2    1    2    0    0 -0.44697897457E+02 -0.43489019236E+02 -0.15246296846E+03  0.18266257707E+03  0.78939619199E+02 0.  0.
         13    1    4    4    0    0 -0.60607260026E+02 -0.51338201456E+02 -0.10269474934E+03  0.12982704818E+03  0.00000000000E+00 0. -1.
        -14    1    4    4    0    0  0.15909362570E+02  0.78491822208E+01 -0.49768219124E+02  0.52835528896E+02  0.00000000000E+00 0.  1.
        -13    1    3    3    0    0 -0.12465508705E+02 -0.25565419520E+02 -0.92647215285E+02  0.96914839331E+02  0.00000000000E+00 0.  1.
         13    1    3    3    0    0  0.26873016752E+02  0.45644956766E+02 -0.43519847529E+02  0.68553615780E+02  0.00000000000E+00 0. -1.
          2    1    1    2  501    0  0.30290389409E+02  0.23409481990E+02 -0.43202613146E+02  0.57723282307E+02  0.00000000000E+00 0. -1.
<scales pt_clust_5="13000.00000" pt_clust_6="13000.00000" pt_clust_7="13000.00000" pt_clust_8="13000.00000" pt_clust_9="38.28200"></scales>
<clustering>
<clus scale="   38.282">  1  9  2 -1</clus>
<clus scale="   78.940">  5  6 -1 -1</clus>
<clus scale="   89.947">  1  5  2 -1</clus>
<clus scale="   90.706">  7  8 -1 -1</clus>
<clus scale="   38.282">  1  5  2 -1</clus>
</clustering>
</event>
<event>
 9    1  0.6675710E-005  0.3200497E+03  0.7546771E-02  0.1076074E+00
          1   -1    0    0  502    0 -0.00000000000E+00  0.00000000000E+00  0.89076887624E+03  0.89076887624E+03  0.00000000000E+00 0. -1.
         21   -1    0    0  501  502  0.00000000000E+00 -0.00000000000E+00 -0.23308081457E+03  0.23308081457E+03  0.00000000000E+00 0. -1.
        -24    2    1    2    0    0 -0.14068844659E+03 -0.25694041103E+03  0.41696422696E+03  0.51532408700E+03  0.76734179168E+02 0.  0.
         23    2    1    2    0    0  0.23907175411E+03  0.27149167543E+03  0.28547948726E+02  0.37419758354E+03  0.91355419694E+02 0.  0.
         13    1    3    3    0    0 -0.65613559321E+02 -0.19408455657E+03  0.28553461255E+03  0.35143131510E+03  0.00000000000E+00 0. -1.
        -14    1    3    3    0    0 -0.75074887270E+02 -0.62855854466E+02  0.13142961440E+03  0.16389277190E+03  0.00000000000E+00 0.  1.
        -11    1    4    4    0    0  0.64471793111E+02  0.10653195319E+03  0.47443717077E+02  0.13325380087E+03  0.00000000000E+00 0.  1.
         11    1    4    4    0    0  0.17459996100E+03  0.16495972224E+03 -0.18895768351E+02  0.24094378267E+03  0.00000000000E+00 0. -1.
          2    1    1    2  501    0 -0.98383307518E+02 -0.14551264398E+02  0.21217588598E+03  0.23432802027E+03  0.00000000000E+00 0. -1.
<scales pt_clust_5="13000.00000" pt_clust_6="13000.00000" pt_clust_7="13000.00000" pt_clust_8="13000.00000" pt_clust_9="99.45363"></scales>
<clustering>
<clus scale="   76.734">  5  6 -1 -1</clus>
<clus scale="   91.355">  7  8 -1 -1</clus>
<clus scale="   99.454">  2  9  1 -1</clus>
<clus scale="  316.187">  1  5  2 -1</clus>
<clus scale="   99.454">  2  5  1 -1</clus>
</clustering>
</event>
<event>
 9    1  0.6675710E-005  0.1018288E+03  0.7546771E-02  0.1290259E+00
         21   -1    0    0  501  502  0.00000000000E+00  0.00000000000E+00  0.92803453181E+02  0.92803453181E+02  0.00000000000E+00 0. -1.
          1   -1    0    0  502    0 -0.00000000000E+00 -0.00000000000E+00 -0.16902645923E+03  0.16902645923E+03  0.00000000000E+00 0. -1.
        -24    2    1    2    0    0  0.11006321573E+02 -0.36169569728E+02 -0.27409138725E+02  0.78643394948E+02  0.63278320098E+02 0.  0.
         23    2    1    2    0    0 -0.12820192028E+02  0.66782471857E+02  0.13129164671E+02  0.11406793013E+03  0.90635875058E+02 0.  0.
         13    1    3    3    0    0 -0.46811718898E+01 -0.21742610979E+02  0.17914741667E+02  0.28558579647E+02  0.00000000000E+00 0. -1.
        -14    1    3    3    0    0  0.15687493463E+02 -0.14426958749E+02 -0.45323880393E+02  0.50084815301E+02  0.00000000000E+00 0.  1.
        -11    1    4    4    0    0  0.24773435518E+02  0.31144095954E+02  0.39387438955E+02  0.55991500851E+02  0.00000000000E+00 0.  1.
         11    1    4    4    0    0 -0.37593627546E+02  0.35638375903E+02 -0.26258274284E+02  0.58076429276E+02  0.00000000000E+00 0. -1.
          2    1    1    2  501    0  0.18138704554E+01 -0.30612902129E+02 -0.61943031993E+02  0.69118587335E+02  0.00000000000E+00 0. -1.
<scales pt_clust_5="13000.00000" pt_clust_6="13000.00000" pt_clust_7="13000.00000" pt_clust_8="13000.00000" pt_clust_9="30.66661"></scales>
<clustering>
<clus scale="   30.667">  1  9  2 -1</clus>
<clus scale="   63.278">  5  6 -1 -1</clus>
<clus scale="   78.475">  2  5  1 -1</clus>
<clus scale="   90.636">  7  8 -1 -1</clus>
<clus scale="   30.667">  1  5  2 -1</clus>
</clustering>
</event>
<event>
 9    1  0.6675710E-005  0.2107597E+03  0.7546771E-02  0.1179391E+00
         21   -1    0    0  501  502  0.00000000000E+00  0.00000000000E+00  0.11806673796E+03  0.11806673796E+03  0.00000000000E+00 0. -1.
          1   -1    0    0  502    0 -0.00000000000E+00 -0.00000000000E+00 -0.92336657576E+03  0.92336657576E+03  0.00000000000E+00 0. -1.
        -24    2    1    2    0    0  0.13186950649E+02  0.31616000518E+02 -0.15906397682E+03  0.18090229117E+03  0.79062146908E+02 0.  0.
         23    2    1    2    0    0 -0.18925361464E+03 -0.43031715237E+02 -0.25380771952E+02  0.21509254347E+03  0.89173760150E+02 0.  0.
         11    1    3    3    0    0 -0.21917106472E+02 -0.12576787810E+02 -0.25481504353E+02  0.35886518524E+02  0.00000000000E+00 0. -1.
        -12    1    3    3    0    0  0.35104057120E+02  0.44192788328E+02 -0.13358247247E+03  0.14501577265E+03  0.00000000000E+00 0.  1.
        -11    1    4    4    0    0 -0.17601805859E+03 -0.14417388868E+02 -0.38814737957E+02  0.18082257031E+03  0.00000000000E+00 0. -1.
         11    1    4    4    0    0 -0.13235556054E+02 -0.28614326369E+02  0.13433966005E+02  0.34269973158E+02  0.00000000000E+00 0.  1.
          2    1    1    2  501    0  0.17606666400E+03  0.11415714719E+02 -0.62085508903E+03  0.64543847908E+03  0.00000000000E+00 0. -1.
<scales pt_clust_5="13000.00000" pt_clust_6="13000.00000" pt_clust_7="13000.00000" pt_clust_8="13000.00000" pt_clust_9="190.96526"></scales>
<clustering>
<clus scale="   79.062">  5  6 -1 -1</clus>
<clus scale="   86.164">  2  5  1 -1</clus>
<clus scale="   89.174">  7  8 -1 -1</clus>
<clus scale="  190.965">  1  9  2 -1</clus>
<clus scale="  190.965">  1  5  2 -1</clus>
</clustering>
</event>
<event>
 9    1  0.6675710E-005  0.9785075E+02  0.7546771E-02  0.1291758E+00
         21   -1    0    0  501  502  0.00000000000E+00  0.00000000000E+00  0.16407484776E+03  0.16407484776E+03  0.00000000000E+00 0. -1.
          1   -1    0    0  502    0 -0.00000000000E+00 -0.00000000000E+00 -0.13507432106E+03  0.13507432106E+03  0.00000000000E+00 0. -1.
        -24    2    1    2    0    0  0.18607402649E+01 -0.30109962009E+02 -0.34473001580E+02  0.91439911350E+02  0.79137837873E+02 0.  0.
         23    2    1    2    0    0 -0.68003630677E+02  0.11395398966E+02  0.10879825105E+01  0.11488106594E+03  0.91881046488E+02 0.  0.
         11    1    3    3    0    0 -0.17004981568E+02 -0.42249002995E+02  0.52250766707E+01  0.45841564964E+02  0.00000000000E+00 0. -1.
        -12    1    3    3    0    0  0.18865721833E+02  0.12139040985E+02 -0.39698078250E+02  0.45598346385E+02  0.00000000000E+00 0.  1.
        -11    1    4    4    0    0 -0.70814481673E+01 -0.27354628695E+02 -0.25379791270E+02  0.37981000831E+02  0.00000000000E+00 0.  1.
         11    1    4    4    0    0 -0.60922182510E+02  0.38750027661E+02  0.26467773781E+02  0.76900065113E+02  0.00000000000E+00 0. -1.
          2    1    1    2  501    0  0.66142890412E+02  0.18714563044E+02  0.62385545772E+02  0.92828191533E+02  0.00000000000E+00 0. -1.
<scales pt_clust_5="13000.00000" pt_clust_6="13000.00000" pt_clust_7="13000.00000" pt_clust_8="13000.00000" pt_clust_9="68.73949"></scales>
<clustering>
<clus scale="   68.739">  1  9  2 -1</clus>
<clus scale="   79.138">  5  6 -1 -1</clus>
<clus scale="   85.997">  2  5  1 -1</clus>
<clus scale="   91.881">  7  8 -1 -1</clus>
<clus scale="   68.739">  1  5  2 -1</clus>
</clustering>
</event>
<event>
 9    1  0.6675710E-005  0.1095550E+03  0.7546771E-02  0.1273786E+00
         21   -1    0    0  501  502  0.00000000000E+00  0.00000000000E+00  0.13684136018E+03  0.13684136018E+03  0.00000000000E+00 0. -1.
          1   -1    0    0  502    0 -0.00000000000E+00 -0.00000000000E+00 -0.23258585068E+03  0.23258585068E+03  0.00000000000E+00 0. -1.
        -24    2    1    2    0    0 -0.89145253584E+01  0.36417473055E+02 -0.17173924162E+03  0.19296984610E+03  0.79607118298E+02 0.  0.
         23    2    1    2    0    0 -0.27637830373E+02 -0.65831211890E+00  0.52954863432E+02  0.12037145989E+03  0.10450257294E+03 0.  0.
         13    1    3    3    0    0 -0.42241670749E+02  0.26083598044E+02 -0.12609679088E+03  0.13551794533E+03  0.00000000000E+00 0. -1.
        -14    1    3    3    0    0  0.33327145391E+02  0.10333875011E+02 -0.45642450739E+02  0.57451900770E+02  0.00000000000E+00 0.  1.
        -13    1    4    4    0    0  0.22634705370E+02  0.18147293327E+02 -0.15888081569E+02  0.33076959930E+02  0.00000000000E+00 0.  1.
         13    1    4    4    0    0 -0.50272535743E+02 -0.18805605446E+02  0.68842945001E+02  0.87294499957E+02  0.00000000000E+00 0. -1.
          2    1    1    2  501    0  0.36552355732E+02 -0.35759160936E+02  0.23039887693E+02  0.56085904872E+02  0.00000000000E+00 0. -1.
<scales pt_clust_5="13000.00000" pt_clust_6="13000.00000" pt_clust_7="13000.00000" pt_clust_8="13000.00000" pt_clust_9="51.13504"></scales>
<clustering>
<clus scale="   51.135">  1  9  2 -1</clus>
<clus scale="   79.607">  5  6 -1 -1</clus>
<clus scale="   86.132">  2  5  1 -1</clus>
<clus scale="  104.503">  7  8 -1 -1</clus>
<clus scale="   51.135">  1  5  2 -1</clus>
</clustering>
</event>
<event>
 9    1  0.6675710E-005  0.1838216E+03  0.7546771E-02  0.1165054E+00
         21   -1    0    0  501  502  0.00000000000E+00  0.00000000000E+00  0.15196089966E+03  0.15196089966E+03  0.00000000000E+00 0. -1.
          1   -1    0    0  502    0 -0.00000000000E+00 -0.00000000000E+00 -0.10537063462E+04  0.10537063462E+04  0.00000000000E+00 0. -1.
        -24    2    1    2    0    0  0.12441001085E+03 -0.88298788657E+02 -0.46276822486E+03  0.49496729600E+03  0.86969346844E+02 0.  0.
         23    2    1    2    0    0 -0.23932943751E+03 -0.11914548602E+02 -0.12634665194E+02  0.25791173992E+03  0.94542554957E+02 0.  0.
         13    1    3    3    0    0  0.56443686064E+02 -0.31663073971E+02 -0.84197141204E+02  0.10619603823E+03  0.00000000000E+00 0. -1.
        -14    1    3    3    0    0  0.67966324782E+02 -0.56635714686E+02 -0.37857108366E+03  0.38877125777E+03  0.00000000000E+00 0.  1.
        -13    1    4    4    0    0 -0.36115455299E+02 -0.27466909143E+02 -0.28343999040E+02  0.53498967195E+02  0.00000000000E+00 0.  1.
         13    1    4    4    0    0 -0.20321398221E+03  0.15552360540E+02  0.15709333846E+02  0.20441277272E+03  0.00000000000E+00 0. -1.
          2    1    1    2  501    0  0.11491942666E+03  0.10021333726E+03 -0.42634255651E+03  0.45278820996E+03  0.00000000000E+00 0. -1.
<scales pt_clust_5="13000.00000" pt_clust_6="13000.00000" pt_clust_7="13000.00000" pt_clust_8="13000.00000" pt_clust_9="152.47692"></scales>
<clustering>
<clus scale="   86.969">  5  6 -1 -1</clus>
<clus scale="   94.543">  7  8 -1 -1</clus>
<clus scale="  152.477">  1  9  2 -1</clus>
<clus scale="  180.044">  2  5  1 -1</clus>
<clus scale="  152.477">  1  5  2 -1</clus>
</clustering>
</event>
<event>
 9    1  0.6675710E-005  0.1042592E+03  0.7546771E-02  0.1278919E+00
          3   -1    0    0  502    0 -0.00000000000E+00  0.00000000000E+00  0.12296670253E+03  0.12296670253E+03  0.00000000000E+00 0. -1.
         21   -1    0    0  501  502  0.00000000000E+00 -0.00000000000E+00 -0.30138947168E+03  0.30138947168E+03  0.00000000000E+00 0. -1.
        -24    2    1    2    0    0 -0.45413349280E+02  0.23033732927E+02  0.58487390553E+02  0.10696039100E+03  0.73666988834E+02 0.  0.
         23    2    1    2    0    0  0.81563847670E+02  0.56243235453E+01 -0.24216948062E+03  0.27096515548E+03  0.89954232127E+02 0.  0.
         11    1    3    3    0    0 -0.24796421065E+02  0.42734753942E+02  0.60807528739E+02  0.78349711189E+02  0.00000000000E+00 0. -1.
        -12    1    3    3    0    0 -0.20616928215E+02 -0.19701021015E+02 -0.23201381853E+01  0.28610679811E+02  0.00000000000E+00 0.  1.
        -11    1    4    4    0    0 -0.74218465556E+01 -0.24436638635E+02 -0.33445301321E+02  0.42081127534E+02  0.00000000000E+00 0.  1.
         11    1    4    4    0    0  0.88985694226E+02  0.30060962180E+02 -0.20872417930E+03  0.22888402795E+03  0.00000000000E+00 0. -1.
          4    1    1    2  501    0 -0.36150498390E+02 -0.28658056472E+02  0.52593209265E+01  0.46430627728E+02  0.00000000000E+00 0. -1.
<scales pt_clust_5="13000.00000" pt_clust_6="13000.00000" pt_clust_7="13000.00000" pt_clust_8="13000.00000" pt_clust_9="46.13182"></scales>
<clustering>
<clus scale="   46.132">  2  9  1 -1</clus>
<clus scale="   73.667">  5  6 -1 -1</clus>
<clus scale="   89.954">  7  8 -1 -1</clus>
<clus scale="   90.582">  1  5  2 -1</clus>
<clus scale="   46.132">  2  5  1 -1</clus>
</clustering>
</event>
<event>
 9    1  0.6675710E-005  0.1066545E+03  0.7546771E-02  0.1278976E+00
          1   -1    0    0  502    0 -0.00000000000E+00  0.00000000000E+00  0.52941430211E+02  0.52941430211E+02  0.00000000000E+00 0. -1.
         21   -1    0    0  501  502  0.00000000000E+00 -0.00000000000E+00 -0.43534870098E+03  0.43534870098E+03  0.00000000000E+00 0.  1.
        -24    2    1    2    0    0 -0.32325104143E+02 -0.33100781051E+02 -0.22859110186E+02  0.91327642388E+02  0.75350018457E+02 0.  0.
         23    2    1    2    0    0  0.11006560428E+01 -0.90213582976E+01 -0.30644865271E+03  0.32233810593E+03  0.99541355425E+02 0.  0.
         11    1    3    3    0    0 -0.94640257278E+01 -0.22144345899E+02  0.26519192527E+02  0.35821884520E+02  0.00000000000E+00 0. -1.
        -12    1    3    3    0    0 -0.22861078415E+02 -0.10956435152E+02 -0.49378302714E+02  0.55505757867E+02  0.00000000000E+00 0.  1.
        -13    1    4    4    0    0 -0.29204456145E+02  0.27041612911E+02 -0.64083289473E+02  0.75437504448E+02  0.00000000000E+00 0. -1.
         13    1    4    4    0    0  0.30305112188E+02 -0.36062971209E+02 -0.24236536324E+03  0.24690060149E+03  0.00000000000E+00 0.  1.
          2    1    1    2  501    0  0.31224448100E+02  0.42122139349E+02 -0.53099507872E+02  0.74624382870E+02  0.00000000000E+00 0. -1.
<scales pt_clust_5="13000.00000" pt_clust_6="13000.00000" pt_clust_7="13000.00000" pt_clust_8="13000.00000" pt_clust_9="52.43323"></scales>
<clustering>
<clus scale="   52.433">  2  9  1 -1</clus>
<clus scale="   75.350">  5  6 -1 -1</clus>
<clus scale="   84.524">  1  5  2 -1</clus>
<clus scale="   99.541">  7  8 -1 -1</clus>
<clus scale="   52.433">  2  5  1 -1</clus>
</clustering>
</event>
<event>
 9    1  0.6675710E-005  0.1534339E+03  0.7546771E-02  0.1219651E+00
         -2   -1    0    0    0  501 -0.00000000000E+00  0.00000000000E+00  0.65953656482E+03  0.65953656482E+03  0.00000000000E+00 0.  1.
         21   -1    0    0  501  502  0.00000000000E+00 -0.00000000000E+00 -0.13352717970E+03  0.13352717970E+03  0.00000000000E+00 0.  1.
         23    2    1    2    0    0  0.67192964557E+01  0.15846866030E+02  0.15641346438E+03  0.18200283520E+03  0.91452654818E+02 0.  0.
        -24    2    1    2    0    0 -0.13208128687E+03  0.39234567075E+02  0.43338458964E+03  0.46000268482E+03  0.69249187082E+02 0.  0.
         11    1    4    4    0    0 -0.19532621779E+02 -0.19013312507E+02  0.67695900003E+02  0.72977833917E+02  0.00000000000E+00 0. -1.
        -12    1    4    4    0    0 -0.11254866509E+03  0.58247879583E+02  0.36568868963E+03  0.38702485090E+03  0.00000000000E+00 0.  1.
        -13    1    3    3    0    0  0.27187140125E+02  0.27163925074E+01  0.15527301645E+03  0.15765858370E+03  0.00000000000E+00 0. -1.
         13    1    3    3    0    0 -0.20467843670E+02  0.13130473523E+02  0.11404479249E+01  0.24344251496E+02  0.00000000000E+00 0.  1.
         -1    1    1    2    0  502  0.12536199041E+03 -0.55081433105E+02 -0.63788668896E+02  0.15105822451E+03  0.00000000000E+00 0.  1.
<scales pt_clust_5="13000.00000" pt_clust_6="13000.00000" pt_clust_7="13000.00000" pt_clust_8="13000.00000" pt_clust_9="136.91788"></scales>
<clustering>
<clus scale="   69.249">  5  6 -1 -1</clus>
<clus scale="   91.453">  7  8 -1 -1</clus>
<clus scale="   93.058">  1  7  2 -1</clus>
<clus scale="  136.918">  2  9  1 -1</clus>
<clus scale="  136.918">  2  5  1 -1</clus>
</clustering>
</event>
<event>
 9    1  0.6675710E-005  0.1232135E+03  0.7546771E-02  0.1259290E+00
         21   -1    0    0  501  502  0.00000000000E+00  0.00000000000E+00  0.10414058318E+03  0.10414058318E+03  0.00000000000E+00 0.  1.
         -2   -1    0    0    0  501 -0.00000000000E+00 -0.00000000000E+00 -0.59820876472E+03  0.59820876472E+03  0.00000000000E+00 0.  1.
        -24    2    1    2    0    0 -0.43508659742E+01 -0.16032578344E+01 -0.72063572468E+02  0.10786807007E+03  0.80130278887E+02 0.  0.
         23    2    1    2    0    0  0.35939767498E+01 -0.81249677076E+02 -0.47871528189E+03  0.49407568975E+03  0.91258092234E+02 0.  0.
         13    1    3    3    0    0 -0.34640610592E+02  0.96943614184E+01 -0.91226970251E+01  0.37110323988E+02  0.00000000000E+00 0. -1.
        -14    1    3    3    0    0  0.30289744618E+02 -0.11297619253E+02 -0.62940875443E+02  0.70757746087E+02  0.00000000000E+00 0.  1.
        -13    1    4    4    0    0  0.38478798258E+02 -0.23970178811E+02 -0.10467421336E+03  0.11406962054E+03  0.00000000000E+00 0. -1.
         13    1    4    4    0    0 -0.34884821509E+02 -0.57279498265E+02 -0.37404106853E+03  0.38000606921E+03  0.00000000000E+00 0.  1.
         -1    1    1    2    0  502  0.75688922446E+00  0.82852934911E+02  0.56710672823E+02  0.10040558807E+03  0.00000000000E+00 0.  1.
<scales pt_clust_5="13000.00000" pt_clust_6="13000.00000" pt_clust_7="13000.00000" pt_clust_8="13000.00000" pt_clust_9="82.78598"></scales>
<clustering>
<clus scale="   80.130">  5  6 -1 -1</clus>
<clus scale="   80.264">  2  5  1 -1</clus>
<clus scale="   82.786">  1  9  2 -1</clus>
<clus scale="   91.258">  7  8 -1 -1</clus>
<clus scale="   82.786">  1  5  2 -1</clus>
</clustering>
</event>
<event>
 9    1  0.6675710E-005  0.1121674E+03  0.7546771E-02  0.1258939E+00
         21   -1    0    0  501  502  0.00000000000E+00  0.00000000000E+00  0.22904853038E+03  0.22904853038E+03  0.00000000000E+00 0.  1.
         -2   -1    0    0    0  501 -0.00000000000E+00 -0.00000000000E+00 -0.12037144327E+03  0.12037144327E+03  0.00000000000E+00 0.  1.
        -24    2    1    2    0    0  0.20629991554E+02 -0.75782824192E+02 -0.41720171500E+02  0.12115090545E+03  0.82269898422E+02 0.  0.
         23    2    1    2    0    0  0.10771416370E+02  0.52892278074E+02  0.40111426639E+02  0.11133750594E+03  0.88732728980E+02 0.  0.
         11    1    3    3    0    0 -0.64267606065E+01 -0.45887183174E+02  0.17480814527E+02  0.49522880652E+02  0.00000000000E+00 0. -1.
        -12    1    3    3    0    0  0.27056752160E+02 -0.29895641018E+02 -0.59200986027E+02  0.71628024794E+02  0.00000000000E+00 0.  1.
        -11    1    4    4    0    0 -0.16170452545E+02  0.29293121917E+02 -0.21713184787E+02  0.39887754020E+02  0.00000000000E+00 0.  1.
         11    1    4    4    0    0  0.26941868915E+02  0.23599156157E+02  0.61824611426E+02  0.71449751924E+02  0.00000000000E+00 0. -1.
         -1    1    1    2    0  502 -0.31401407924E+02  0.22890546117E+02  0.11028583197E+03  0.11693156227E+03  0.00000000000E+00 0.  1.
<scales pt_clust_5="13000.00000" pt_clust_6="13000.00000" pt_clust_7="13000.00000" pt_clust_8="13000.00000" pt_clust_9="38.85905"></scales>
<clustering>
<clus scale="   38.859">  1  9  2 -1</clus>
<clus scale="   82.270">  5  6 -1 -1</clus>
<clus scale="   88.733">  7  8 -1 -1</clus>
<clus scale="  107.128">  2  5  1 -1</clus>
<clus scale="   38.859">  1  5  2 -1</clus>
</clustering>
</event>
<event>
 9    1  0.6675710E-005  0.1473616E+03  0.7546771E-02  0.1228310E+00
         21   -1    0    0  501  502  0.00000000000E+00  0.00000000000E+00  0.12972321112E+03  0.12972321112E+03  0.00000000000E+00 0. -1.
          1   -1    0    0  502    0 -0.00000000000E+00 -0.00000000000E+00 -0.77919787722E+03  0.77919787722E+03  0.00000000000E+00 0. -1.
        -24    2    1    2    0    0 -0.69907157265E+01 -0.29633706515E+02  0.88344758478E+02  0.12447378625E+03  0.82230775539E+02 0.  0.
         23    2    1    2    0    0 -0.79674866643E+02 -0.63436215195E+02 -0.44214106868E+03  0.46257990137E+03  0.90106618878E+02 0.  0.
         11    1    3    3    0    0 -0.16429478306E+02 -0.24364633745E+02  0.10251917208E+03  0.10664775563E+03  0.00000000000E+00 0. -1.
        -12    1    3    3    0    0  0.94387625798E+01 -0.52690727700E+01 -0.14174413607E+02  0.17826030629E+02  0.00000000000E+00 0.  1.
        -11    1    4    4    0    0 -0.22488923920E+02 -0.63485426243E+02 -0.32882565874E+03  0.33565229760E+03  0.00000000000E+00 0.  1.
         11    1    4    4    0    0 -0.57185942723E+02  0.49211048668E-01 -0.11331540994E+03  0.12692760377E+03  0.00000000000E+00 0. -1.
          2    1    1    2  501    0  0.86665582370E+02  0.93069921710E+02 -0.29567835590E+03  0.32186740071E+03  0.00000000000E+00 0. -1.
<scales pt_clust_5="13000.00000" pt_clust_6="13000.00000" pt_clust_7="13000.00000" pt_clust_8="13000.00000" pt_clust_9="116.60286"></scales>
<clustering>
<clus scale="   82.231">  5  6 -1 -1</clus>
<clus scale="   87.687">  2  5  1 -1</clus>
<clus scale="   90.107">  7  8 -1 -1</clus>
<clus scale="  116.603">  1  9  2 -1</clus>
<clus scale="  116.603">  1  5  2 -1</clus>
</clustering>
</event>
<event>
 9    1  0.6675710E-005  0.1397683E+03  0.7546771E-02  0.1215683E+00
         21   -1    0    0  501  502  0.00000000000E+00  0.00000000000E+00  0.71405678674E+02  0.71405678674E+02  0.00000000000E+00 0. -1.
         -2   -1    0    0    0  501 -0.00000000000E+00 -0.00000000000E+00 -0.67967657742E+03  0.67967657742E+03  0.00000000000E+00 0.  1.
        -24    2    1    2    0    0 -0.99420897885E+02 -0.27975499334E+02 -0.34964727446E+03  0.37355318046E+03  0.81373328507E+02 0.  0.
         23    2    1    2    0    0  0.90492484557E+02  0.10159405863E+03 -0.75859751505E+02  0.18029306972E+03  0.90778007142E+02 0.  0.
         13    1    3    3    0    0 -0.58326671364E+02  0.23856167256E+02 -0.20568989419E+03  0.21512659036E+03  0.00000000000E+00 0. -1.
        -14    1    3    3    0    0 -0.41094226521E+02 -0.51831666590E+02 -0.14395738027E+03  0.15842659009E+03  0.00000000000E+00 0.  1.
        -11    1    4    4    0    0  0.78731479938E+02  0.23929851450E+02 -0.55148591761E+02  0.99058825437E+02  0.00000000000E+00 0.  1.
         11    1    4    4    0    0  0.11761004618E+02  0.77664207177E+02 -0.20711159743E+02  0.81234244282E+02  0.00000000000E+00 0. -1.
         -1    1    1    2    0  502  0.89284133283E+01 -0.73618559293E+02 -0.18276387278E+03  0.19723600591E+03  0.00000000000E+00 0.  1.
<scales pt_clust_5="13000.00000" pt_clust_6="13000.00000" pt_clust_7="13000.00000" pt_clust_8="13000.00000" pt_clust_9="74.15804"></scales>
<clustering>
<clus scale="   74.158">  1  9  2 -1</clus>
<clus scale="   81.373">  5  6 -1 -1</clus>
<clus scale="   90.778">  7  8 -1 -1</clus>
<clus scale="  133.851">  2  5  1 -1</clus>
<clus scale="   74.158">  1  5  2 -1</clus>
</clustering>
</event>
<event>
 9    1  0.6675710E-005  0.9140764E+02  0.7546771E-02  0.1303486E+00
         21   -1    0    0  501  502  0.00000000000E+00  0.00000000000E+00  0.15016198584E+03  0.15016198584E+03  0.00000000000E+00 0.  1.
          3   -1    0    0  502    0 -0.00000000000E+00 -0.00000000000E+00 -0.11844802525E+03  0.11844802525E+03  0.00000000000E+00 0. -1.
        -24    2    1    2    0    0 -0.25012250765E+01 -0.11031996374E+02 -0.37869701993E+02  0.90205186317E+02  0.81085758544E+02 0.  0.
         23    2    1    2    0    0  0.24217463905E+02  0.51943130106E+02  0.13657067196E+02  0.10578871110E+03  0.87864450090E+02 0.  0.
         11    1    3    3    0    0 -0.35628820344E+02 -0.25337858673E+02 -0.10630055469E+02  0.44993532874E+02  0.00000000000E+00 0. -1.
        -12    1    3    3    0    0  0.33127595268E+02  0.14305862299E+02 -0.27239646524E+02  0.45211653443E+02  0.00000000000E+00 0.  1.
        -13    1    4    4    0    0  0.52366873037E+01  0.41357573601E+02  0.48977887812E+02  0.64317223841E+02  0.00000000000E+00 0.  1.
         13    1    4    4    0    0  0.18980776601E+02  0.10585556505E+02 -0.35320820616E+02  0.41471487264E+02  0.00000000000E+00 0. -1.
          4    1    1    2  501    0 -0.21716238828E+02 -0.40911133732E+02  0.55926595390E+02  0.72616113666E+02  0.00000000000E+00 0. -1.
<scales pt_clust_5="13000.00000" pt_clust_6="13000.00000" pt_clust_7="13000.00000" pt_clust_8="13000.00000" pt_clust_9="46.31755"></scales>
<clustering>
<clus scale="   46.318">  1  9  2 -1</clus>
<clus scale="   81.086">  5  6 -1 -1</clus>
<clus scale="   84.912">  2  5  1 -1</clus>
<clus scale="   87.864">  7  8 -1 -1</clus>
<clus scale="   46.318">  1  5  2 -1</clus>
</clustering>
</event>
<event>
 9    1  0.6675710E-005  0.1576889E+03  0.7546771E-02  0.1196120E+00
         21   -1    0    0  501  502  0.00000000000E+00  0.00000000000E+00  0.14658125781E+03  0.14658125781E+03  0.00000000000E+00 0.  1.
          1   -1    0    0  502    0 -0.00000000000E+00 -0.00000000000E+00 -0.23323393336E+03  0.23323393336E+03  0.00000000000E+00 0. -1.
         23    2    1    2    0    0 -0.96958137342E+02 -0.70050250673E+02 -0.12600470331E+03  0.20360328418E+03  0.10615646027E+03 0.  0.
        -24    2    1    2    0    0  0.10136891352E+03  0.47944025165E+02  0.92623248812E+01  0.13861496067E+03  0.80956966851E+02 0.  0.
         13    1    4    4    0    0 -0.45787613151E+01  0.24165455280E+02 -0.12930001044E+02  0.27787033146E+02  0.00000000000E+00 0. -1.
        -14    1    4    4    0    0  0.10594767484E+03  0.23778569885E+02  0.22192325925E+02  0.11082792753E+03  0.00000000000E+00 0.  1.
        -11    1    3    3    0    0 -0.10606680315E+03 -0.20821059717E+02 -0.99692866490E+02  0.14704540417E+03  0.00000000000E+00 0.  1.
         11    1    3    3    0    0  0.91086658067E+01 -0.49229190956E+02 -0.26311836822E+02  0.56557880016E+02  0.00000000000E+00 0. -1.
          2    1    1    2  501    0 -0.44107761816E+01  0.22106225508E+02  0.30089702885E+02  0.37596946318E+02  0.00000000000E+00 0. -1.
<scales pt_clust_5="13000.00000" pt_clust_6="13000.00000" pt_clust_7="13000.00000" pt_clust_8="13000.00000" pt_clust_9="22.54196"></scales>
<clustering>
<clus scale="   22.542">  1  9  2 -1</clus>
<clus scale="   80.957">  5  6 -1 -1</clus>
<clus scale="  106.156">  7  8 -1 -1</clus>
<clus scale="  141.953">  1  5  2 -1</clus>
<clus scale="   22.542">  1  5  2 -1</clus>
</clustering>
</event>
<event>
 9    1  0.6675710E-005  0.1127892E+03  0.7546771E-02  0.1259549E+00
          1   -1    0    0  502    0 -0.00000000000E+00  0.00000000000E+00  0.34553478524E+03  0.34553478524E+03  0.00000000000E+00 0. -1.
         21   -1    0    0  501  502  0.00000000000E+00 -0.00000000000E+00 -0.13992966811E+03  0.13992966811E+03  0.00000000000E+00 0. -1.
        -24    2    1    2    0    0  0.55505341129E+02  0.29092149184E+02  0.27898803950E+03  0.29709272753E+03  0.80638492864E+02 0.  0.
         23    2    1    2    0    0 -0.88901620203E+02 -0.45213586198E+02 -0.49023425883E+02  0.14400284870E+03  0.91573782802E+02 0.  0.
         11    1    3    3    0    0  0.68749860468E+02  0.37850610094E+01  0.15101956053E+03  0.16597523208E+03  0.00000000000E+00 0. -1.
        -12    1    3    3    0    0 -0.13244519339E+02  0.25307088175E+02  0.12796847897E+03  0.13111749545E+03  0.00000000000E+00 0.  1.
        -11    1    4    4    0    0 -0.28286418157E+02 -0.65579252001E+02 -0.24189807830E+02  0.75404950421E+02  0.00000000000E+00 0. -1.
         11    1    4    4    0    0 -0.60615202045E+02  0.20365665803E+02 -0.24833618053E+02  0.68597898278E+02  0.00000000000E+00 0.  1.
          2    1    1    2  501    0  0.33396279073E+02  0.16121437015E+02 -0.24359496486E+02  0.44368877115E+02  0.00000000000E+00 0. -1.
<scales pt_clust_5="13000.00000" pt_clust_6="13000.00000" pt_clust_7="13000.00000" pt_clust_8="13000.00000" pt_clust_9="37.08385"></scales>
<clustering>
<clus scale="   37.084">  2  9  1 -1</clus>
<clus scale="   80.638">  5  6 -1 -1</clus>
<clus scale="   91.574">  7  8 -1 -1</clus>
<clus scale="  104.107">  1  5  2 -1</clus>
<clus scale="   37.084">  2  5  1 -1</clus>
</clustering>
</event>
<event>
 9    1  0.6675710E-005  0.1955231E+03  0.7546771E-02  0.1155060E+00
         -2   -1    0    0    0  501 -0.00000000000E+00  0.00000000000E+00  0.69589922529E+03  0.69589922529E+03  0.00000000000E+00 0.  1.
         21   -1    0    0  501  502  0.00000000000E+00 -0.00000000000E+00 -0.25055597492E+03  0.25055597492E+03  0.00000000000E+00 0.  1.
        -24    2    1    2    0    0  0.55067171223E+02  0.15942049374E+03  0.56143175219E+03  0.59126509552E+03  0.77081214561E+02 0.  0.
         23    2    1    2    0    0 -0.47480696177E+02 -0.19244110077E+03  0.15596455856E+02  0.21921641912E+03  0.92328734431E+02 0.  0.
         11    1    3    3    0    0 -0.14646613375E+02  0.23658359300E+02  0.46460989907E+02  0.54155930712E+02  0.00000000000E+00 0. -1.
        -12    1    3    3    0    0  0.69713784598E+02  0.13576213444E+03  0.51497076228E+03  0.53710916481E+03  0.00000000000E+00 0.  1.
        -11    1    4    4    0    0 -0.30450358348E+00 -0.44901394253E+02  0.42700783275E+02  0.61964383485E+02  0.00000000000E+00 0. -1.
         11    1    4    4    0    0 -0.47176192594E+02 -0.14753970651E+03 -0.27104327419E+02  0.15725203563E+03  0.00000000000E+00 0.  1.
         -1    1    1    2    0  502 -0.75864750454E+01  0.33020607030E+02 -0.13168495767E+03  0.13597368557E+03  0.00000000000E+00 0.  1.
<scales pt_clust_5="13000.00000" pt_clust_6="13000.00000" pt_clust_7="13000.00000" pt_clust_8="13000.00000" pt_clust_9="33.88090"></scales>
<clustering>
<clus scale="   33.881">  2  9  1 -1</clus>
<clus scale="   77.081">  5  6 -1 -1</clus>
<clus scale="   92.329">  7  8 -1 -1</clus>
<clus scale="  188.802">  1  5  2 -1</clus>
<clus scale="   33.881">  2  5  1 -1</clus>
</clustering>
</event>
<event>
 9    1  0.6675710E-005  0.1417970E+03  0.7546771E-02  0.1217572E+00
         -2   -1    0    0    0  501 -0.00000000000E+00  0.00000000000E+00  0.13418587179E+03  0.13418587179E+03  0.00000000000E+00 0.  1.
         21   -1    0    0  501  502  0.00000000000E+00 -0.00000000000E+00 -0.19107866959E+03  0.19107866959E+03  0.00000000000E+00 0. -1.
         23    2    1    2    0    0  0.65240908437E+02  0.47902874105E+02 -0.48281823205E+02  0.14244753564E+03  0.10681340964E+03 0.  0.
        -24    2    1    2    0    0 -0.87405496477E+02 -0.58494096844E+02 -0.44171599563E+02  0.13959662848E+03  0.80466193496E+02 0.  0.
         13    1    4    4    0    0 -0.30133004213E+02  0.17784580417E+02 -0.23049645067E+02  0.41899586887E+02  0.00000000000E+00 0. -1.
        -14    1    4    4    0    0 -0.57272492264E+02 -0.76278677261E+02 -0.21121954496E+02  0.97697041596E+02  0.00000000000E+00 0.  1.
        -11    1    3    3    0    0  0.60826468481E+02 -0.75693763975E+01  0.97273728245E+01  0.62062682097E+02  0.00000000000E+00 0.  1.
         11    1    3    3    0    0  0.44144399552E+01  0.55472250502E+02 -0.58009196030E+02  0.80384853548E+02  0.00000000000E+00 0. -1.
         -1    1    1    2    0  502  0.22164588041E+02  0.10591222739E+02  0.35560624961E+02  0.43220377251E+02  0.00000000000E+00 0.  1.
<scales pt_clust_5="13000.00000" pt_clust_6="13000.00000" pt_clust_7="13000.00000" pt_clust_8="13000.00000" pt_clust_9="24.56509"></scales>
<clustering>
<clus scale="   24.565">  2  9  1 -1</clus>
<clus scale="   80.466">  5  6 -1 -1</clus>
<clus scale="  106.813">  7  8 -1 -1</clus>
<clus scale="  123.175">  2  5  1 -1</clus>
<clus scale="   24.565">  2  5  1 -1</clus>
</clustering>
</event>
<event>
 9    1  0.6675710E-005  0.1780181E+03  0.7546771E-02  0.1194609E+00
         21   -1    0    0  501  502  0.00000000000E+00  0.00000000000E+00  0.12672090435E+03  0.12672090435E+03  0.00000000000E+00 0. -1.
          1   -1    0    0  502    0 -0.00000000000E+00 -0.00000000000E+00 -0.94888955225E+03  0.94888955225E+03  0.00000000000E+00 0. -1.
        -24    2    1    2    0    0  0.41249799963E+02  0.50140573959E+02 -0.71739266913E+01  0.10223290829E+03  0.78641459547E+02 0.  0.
         23    2    1    2    0    0 -0.18128146869E+03 -0.44034366752E+02 -0.80481965966E+03  0.83284397263E+03  0.10532047199E+03 0.  0.
         11    1    3    3    0    0  0.33549745908E+02  0.12682719207E+02 -0.38632250588E+02  0.52715155339E+02  0.00000000000E+00 0. -1.
        -12    1    3    3    0    0  0.77000540557E+01  0.37457854753E+02  0.31458323897E+02  0.49517752953E+02  0.00000000000E+00 0.  1.
        -11    1    4    4    0    0 -0.35771161703E+02 -0.57137652367E+02 -0.28681239646E+03  0.29462796556E+03  0.00000000000E+00 0.  1.
         11    1    4    4    0    0 -0.14551030699E+03  0.13103285615E+02 -0.51800726321E+03  0.53821600707E+03  0.00000000000E+00 0. -1.
          2    1    1    2  501    0  0.14003166873E+03 -0.61062072072E+01 -0.10175061551E+02  0.14053357567E+03  0.00000000000E+00 0. -1.
<scales pt_clust_5="13000.00000" pt_clust_6="13000.00000" pt_clust_7="13000.00000" pt_clust_8="13000.00000" pt_clust_9="143.52017"></scales>
<clustering>
<clus scale="   78.641">  5  6 -1 -1</clus>
<clus scale="  101.981">  2  5  1 -1</clus>
<clus scale="  105.320">  7  8 -1 -1</clus>
<clus scale="  143.520">  1  9  2 -1</clus>
<clus scale="  143.520">  1  5  2 -1</clus>
</clustering>
</event>
<event>
 9    1  0.6675710E-005  0.9341940E+02  0.7546771E-02  0.1296134E+00
          1   -1    0    0  502    0 -0.00000000000E+00  0.00000000000E+00  0.25423621390E+03  0.25423621390E+03  0.00000000000E+00 0. -1.
         21   -1    0    0  501  502  0.00000000000E+00 -0.00000000000E+00 -0.12809887133E+03  0.12809887133E+03  0.00000000000E+00 0. -1.
         23    2    1    2    0    0 -0.12091041687E+02 -0.32361930569E+02  0.97838245811E+02  0.13845448897E+03  0.91672434967E+02 0.  0.
        -24    2    1    2    0    0  0.18329200382E+02 -0.58517948787E+02  0.88191455827E+02  0.13486150724E+03  0.81544977382E+02 0.  0.
         13    1    4    4    0    0  0.33169742979E+02 -0.69681562708E+02  0.48789652923E+02  0.91302695815E+02  0.00000000000E+00 0. -1.
        -14    1    4    4    0    0 -0.14840542597E+02  0.11163613921E+02  0.39401802904E+02  0.43558811421E+02  0.00000000000E+00 0.  1.
        -13    1    3    3    0    0 -0.47431116973E+02 -0.37862833446E+02  0.49463819331E+02  0.78294153273E+02  0.00000000000E+00 0. -1.
         13    1    3    3    0    0  0.35340075286E+02  0.55009028768E+01  0.48374426480E+02  0.60160335695E+02  0.00000000000E+00 0.  1.
          2    1    1    2  501    0 -0.62381586950E+01  0.90879879356E+02 -0.59892359068E+02  0.10901908902E+03  0.00000000000E+00 0. -1.
<scales pt_clust_5="13000.00000" pt_clust_6="13000.00000" pt_clust_7="13000.00000" pt_clust_8="13000.00000" pt_clust_9="91.09373"></scales>
<clustering>
<clus scale="   81.545">  5  6 -1 -1</clus>
<clus scale="   91.094">  2  9  1 -1</clus>
<clus scale="   91.094">  2  5  1 -1</clus>
<clus scale="   91.672">  7  8 -1 -1</clus>
<clus scale="   91.094">  2  5  1 -1</clus>
</clustering>
</event>
<event>
 9    1  0.6675710E-005  0.1469026E+03  0.7546771E-02  0.1206129E+00
         21   -1    0    0  501  502  0.00000000000E+00  0.00000000000E+00  0.40278234947E+03  0.40278234947E+03  0.00000000000E+00 0. -1.
          1   -1    0    0  502    0 -0.00000000000E+00 -0.00000000000E+00 -0.14453218279E+03  0.14453218279E+03  0.00000000000E+00 0. -1.
         23    2    1    2    0    0  0.10608958232E+03 -0.56104701808E+02 -0.64077606264E+02  0.16307984319E+03  0.89924182448E+02 0.  0.
        -24    2    1    2    0    0 -0.74156292768E+02  0.51521291919E+02  0.32965858351E+03  0.35115171139E+03  0.80493126744E+02 0.  0.
         11    1    4    4    0    0 -0.45828513392E+02  0.72255356331E+02  0.22223146704E+03  0.23813423546E+03  0.00000000000E+00 0. -1.
        -12    1    4    4    0    0 -0.28327779376E+02 -0.20734064412E+02  0.10742711647E+03  0.11301747593E+03  0.00000000000E+00 0.  1.
        -13    1    3    3    0    0  0.40097190590E+02 -0.45228311077E+02  0.12168728751E+02  0.61656003564E+02  0.00000000000E+00 0.  1.
         13    1    3    3    0    0  0.65992391732E+02 -0.10876390731E+02 -0.76246335015E+02  0.10142383963E+03  0.00000000000E+00 0. -1.
          2    1    1    2  501    0 -0.31933289554E+02  0.45834098891E+01 -0.73308105719E+01  0.33082977671E+02  0.00000000000E+00 0. -1.
<scales pt_clust_5="13000.00000" pt_clust_6="13000.00000" pt_clust_7="13000.00000" pt_clust_8="13000.00000" pt_clust_9="32.26056"></scales>
<clustering>
<clus scale="   32.261">  1  9  2 -1</clus>
<clus scale="   80.493">  5  6 -1 -1</clus>
<clus scale="   89.924">  7  8 -1 -1</clus>
<clus scale="  141.326">  1  5  2 -1</clus>
<clus scale="   32.261">  1  5  2 -1</clus>
</clustering>
</event>
<event>
 9    1  0.6675710E-005  0.1144453E+03  0.7546771E-02  0.1256503E+00
          1   -1    0    0  502    0 -0.00000000000E+00  0.00000000000E+00  0.45828683865E+03  0.45828683865E+03  0.00000000000E+00 0. -1.
         21   -1    0    0  501  502  0.00000000000E+00 -0.00000000000E+00 -0.55237620575E+02  0.55237620575E+02  0.00000000000E+00 0. -1.
        -24    2    1    2    0    0  0.40810216444E+02  0.41547784138E+02  0.18833765890E+03  0.21316402183E+03  0.81093367847E+02 0.  0.
         23    2    1    2    0    0 -0.19012598908E+02 -0.10324072768E+03  0.11397309201E+03  0.18023802409E+03  0.92063852061E+02 0.  0.
         11    1    3    3    0    0  0.40666868304E+02  0.33990030424E+02  0.19561687345E+03  0.20266987325E+03  0.00000000000E+00 0. -1.
        -12    1    3    3    0    0  0.14334814005E+00  0.75577537139E+01 -0.72792145487E+01  0.10494148576E+02  0.00000000000E+00 0.  1.
        -13    1    4    4    0    0 -0.23463686382E+02  0.93777197373E+01  0.10943491703E+02  0.27536270931E+02  0.00000000000E+00 0.  1.
         13    1    4    4    0    0  0.44510874742E+01 -0.11261844741E+03  0.10302960031E+03  0.15270175316E+03  0.00000000000E+00 0. -1.
          2    1    1    2  501    0 -0.21797617536E+02  0.61692943539E+02  0.10073846716E+03  0.12012241330E+03  0.00000000000E+00 0. -1.
<scales pt_clust_5="13000.00000" pt_clust_6="13000.00000" pt_clust_7="13000.00000" pt_clust_8="13000.00000" pt_clust_9="65.43057"></scales>
<clustering>
<clus scale="   65.431">  2  9  1 -1</clus>
<clus scale="   81.093">  5  6 -1 -1</clus>
<clus scale="   92.064">  7  8 -1 -1</clus>
<clus scale="  105.821">  1  5  2 -1</clus>
<clus scale="   65.431">  2  5  1 -1</clus>
</clustering>
</event>
<event>
 9    1  0.6675710E-005  0.1092725E+03  0.7546771E-02  0.1268143E+00
         21   -1    0    0  501  502  0.00000000000E+00  0.00000000000E+00  0.33608781532E+03  0.33608781532E+03  0.00000000000E+00 0.  1.
         -2   -1    0    0    0  501 -0.00000000000E+00 -0.00000000000E+00 -0.13151862253E+03  0.13151862253E+03  0.00000000000E+00 0.  1.
         23    2    1    2    0    0 -0.32002633031E+02 -0.33101645582E+02 -0.54299386931E+02  0.11841460443E+03  0.94624033204E+02 0.  0.
        -24    2    1    2    0    0  0.10655139649E+03  0.38392036970E+01  0.85734653300E+02  0.15843239037E+03  0.79890249475E+02 0.  0.
         11    1    4    4    0    0  0.94906934243E+02  0.12651783136E+02  0.29285767374E+02  0.10012517143E+03  0.00000000000E+00 0. -1.
        -12    1    4    4    0    0  0.11644462251E+02 -0.88125794386E+01  0.56448885926E+02  0.58307218933E+02  0.00000000000E+00 0.  1.
        -13    1    3    3    0    0  0.89206859650E+01 -0.26754872575E+02 -0.68943598828E+02  0.74489070769E+02  0.00000000000E+00 0.  1.
         13    1    3    3    0    0 -0.40923318996E+02 -0.63467730070E+01  0.14644211897E+02  0.43925533660E+02  0.00000000000E+00 0. -1.
         -1    1    1    2    0  502 -0.74548763463E+02  0.29262441885E+02  0.17313392642E+03  0.19075944306E+03  0.00000000000E+00 0.  1.
<scales pt_clust_5="13000.00000" pt_clust_6="13000.00000" pt_clust_7="13000.00000" pt_clust_8="13000.00000" pt_clust_9="80.08626"></scales>
<clustering>
<clus scale="   79.890">  5  6 -1 -1</clus>
<clus scale="   80.086">  1  9  2 -1</clus>
<clus scale="   94.624">  7  8 -1 -1</clus>
<clus scale="   96.795">  1  5  2 -1</clus>
<clus scale="   80.086">  1  5  2 -1</clus>
</clustering>
</event>
<event>
 9    1  0.6675710E-005  0.1024155E+03  0.7546771E-02  0.1280427E+00
         21   -1    0    0  501  502  0.00000000000E+00  0.00000000000E+00  0.49301932574E+02  0.49301932574E+02  0.00000000000E+00 0. -1.
          3   -1    0    0  502    0 -0.00000000000E+00 -0.00000000000E+00 -0.31265834950E+03  0.31265834950E+03  0.00000000000E+00 0. -1.
         23    2    1    2    0    0 -0.10342016190E+02 -0.54176842373E+02 -0.20564818468E+03  0.23175916866E+03  0.91537144644E+02 0.  0.
        -24    2    1    2    0    0  0.98644172031E+01  0.23837715618E+02 -0.32468352039E+02  0.90732869645E+02  0.80701402325E+02 0.  0.
         11    1    4    4    0    0  0.19593194922E+02 -0.13710934574E+02  0.15911256585E+02  0.28723702760E+02  0.00000000000E+00 0. -1.
        -12    1    4    4    0    0 -0.97287777184E+01  0.37548650192E+02 -0.48379608624E+02  0.62009166885E+02  0.00000000000E+00 0.  1.
        -11    1    3    3    0    0 -0.46242689920E+02 -0.53114761945E+02 -0.12496080232E+03  0.14343906868E+03  0.00000000000E+00 0. -1.
         11    1    3    3    0    0  0.35900673730E+02 -0.10620804280E+01 -0.80687382356E+02  0.88320099981E+02  0.00000000000E+00 0.  1.
          4    1    1    2  501    0  0.47759898656E+00  0.30339126755E+02 -0.25239880208E+02  0.39468243766E+02  0.00000000000E+00 0. -1.
<scales pt_clust_5="13000.00000" pt_clust_6="13000.00000" pt_clust_7="13000.00000" pt_clust_8="13000.00000" pt_clust_9="30.34289"></scales>
<clustering>
<clus scale="   30.343">  1  9  2 -1</clus>
<clus scale="   80.701">  5  6 -1 -1</clus>
<clus scale="   91.537">  7  8 -1 -1</clus>
<clus scale="   92.858">  1  5  2 -1</clus>
<clus scale="   30.343">  1  5  2 -1</clus>
</clustering>
</event>
<event>
 9    1  0.6675710E-005  0.1308782E+03  0.7546771E-02  0.1245527E+00
          1   -1    0    0  502    0 -0.00000000000E+00  0.00000000000E+00  0.46985750635E+03  0.46985750635E+03  0.00000000000E+00 0. -1.
         21   -1    0    0  501  502  0.00000000000E+00 -0.00000000000E+00 -0.95136534045E+02  0.95136534045E+02  0.00000000000E+00 0. -1.
        -24    2    1    2    0    0  0.29830271539E+02  0.13533052687E+02  0.77978830240E+02  0.11763264509E+03  0.81754220744E+02 0.  0.
         23    2    1    2    0    0 -0.11565441493E+03 -0.36307427983E+02  0.32075912224E+03  0.35537622751E+03  0.93336357123E+02 0.  0.
         13    1    3    3    0    0  0.89782241741E+01  0.38150641382E+02  0.72012015408E+01  0.39848930360E+02  0.00000000000E+00 0. -1.
        -14    1    3    3    0    0  0.20852047364E+02 -0.24617588695E+02  0.70777628700E+02  0.77783714727E+02  0.00000000000E+00 0.  1.
        -11    1    4    4    0    0 -0.18083567636E+02 -0.49508631070E+02  0.86898881684E+02  0.10163432298E+03  0.00000000000E+00 0.  1.
         11    1    4    4    0    0 -0.97570847292E+02  0.13201203088E+02  0.23386024055E+03  0.25374190453E+03  0.00000000000E+00 0. -1.
          2    1    1    2  501    0  0.85824143389E+02  0.22774375295E+02 -0.24016980172E+02  0.91985167800E+02  0.00000000000E+00 0. -1.
<scales pt_clust_5="13000.00000" pt_clust_6="13000.00000" pt_clust_7="13000.00000" pt_clust_8="13000.00000" pt_clust_9="91.74647"></scales>
<clustering>
<clus scale="   81.754">  5  6 -1 -1</clus>
<clus scale="   88.072">  1  5  2 -1</clus>
<clus scale="   91.746">  2  9  1 -1</clus>
<clus scale="   93.336">  7  8 -1 -1</clus>
<clus scale="   91.746">  2  5  1 -1</clus>
</clustering>
</event>
<event>
 9    1  0.6675710E-005  0.1080303E+03  0.7546771E-02  0.1265215E+00
         21   -1    0    0  501  502  0.00000000000E+00  0.00000000000E+00  0.25487599868E+03  0.25487599868E+03  0.00000000000E+00 0.  1.
         -2   -1    0    0    0  501 -0.00000000000E+00 -0.00000000000E+00 -0.26086708560E+03  0.26086708560E+03  0.00000000000E+00 0.  1.
         23    2    1    2    0    0 -0.49664088314E+02  0.27232889023E+02 -0.18360463519E+03  0.21315398658E+03  0.92281135780E+02 0.  0.
        -24    2    1    2    0    0 -0.13708646635E+02 -0.11225191553E+03  0.95020391902E+02  0.16817939611E+03  0.80417752167E+02 0.  0.
         13    1    4    4    0    0  0.21803888567E+02 -0.71040496713E+02  0.84928957209E+02  0.11284985380E+03  0.00000000000E+00 0. -1.
        -14    1    4    4    0    0 -0.35512535202E+02 -0.41211418822E+02  0.10091434693E+02  0.55329542307E+02  0.00000000000E+00 0.  1.
        -13    1    3    3    0    0 -0.19169947266E+02  0.59327613365E+02 -0.12521188728E+03  0.13987590680E+03  0.00000000000E+00 0.  1.
         13    1    3    3    0    0 -0.30494141048E+02 -0.32094724343E+02 -0.58392747905E+02  0.73278079784E+02  0.00000000000E+00 0. -1.
         -1    1    1    2    0  502  0.63372734949E+02  0.85019026512E+02  0.82593156365E+02  0.13440970159E+03  0.00000000000E+00 0.  1.
<scales pt_clust_5="13000.00000" pt_clust_6="13000.00000" pt_clust_7="13000.00000" pt_clust_8="13000.00000" pt_clust_9="106.03932"></scales>
<clustering>
<clus scale="   80.418">  5  6 -1 -1</clus>
<clus scale="   92.281">  7  8 -1 -1</clus>
<clus scale="  106.039">  1  9  2 -1</clus>
<clus scale="  106.039">  1  5  2 -1</clus>
<clus scale="  106.039">  1  5  2 -1</clus>
</clustering>
</event>
<event>
 9    1  0.6675710E-005  0.9543061E+02  0.7546771E-02  0.1296725E+00
         21   -1    0    0  501  502  0.00000000000E+00  0.00000000000E+00  0.34326762920E+03  0.34326762920E+03  0.00000000000E+00 0. -1.
          1   -1    0    0  502    0 -0.00000000000E+00 -0.00000000000E+00 -0.48640807798E+02  0.48640807798E+02  0.00000000000E+00 0. -1.
         23    2    1    2    0    0 -0.13449854945E+01 -0.52982920345E+02  0.72134579794E+02  0.12800110612E+03  0.91498014909E+02 0.  0.
        -24    2    1    2    0    0  0.10866807103E+02 -0.49251992413E+01  0.10501794996E+03  0.13259006392E+03  0.80056293655E+02 0.  0.
         13    1    4    4    0    0 -0.70016717922E+01 -0.38668117424E+02  0.72379658844E+02  0.82359345112E+02  0.00000000000E+00 0. -1.
        -14    1    4    4    0    0  0.17868478895E+02  0.33742918182E+02  0.32638291114E+02  0.50230718812E+02  0.00000000000E+00 0.  1.
        -11    1    3    3    0    0  0.35610140435E+02  0.31778453165E+01  0.39477464210E+02  0.53260219519E+02  0.00000000000E+00 0.  1.
         11    1    3    3    0    0 -0.36955125930E+02 -0.56160765661E+02  0.32657115584E+02  0.74740886604E+02  0.00000000000E+00 0. -1.
          2    1    1    2  501    0 -0.95218216082E+01  0.57908119586E+02  0.11747429165E+03  0.13131726695E+03  0.00000000000E+00 0. -1.
<scales pt_clust_5="13000.00000" pt_clust_6="13000.00000" pt_clust_7="13000.00000" pt_clust_8="13000.00000" pt_clust_9="58.68573"></scales>
<clustering>
<clus scale="   58.686">  1  9  2 -1</clus>
<clus scale="   80.056">  5  6 -1 -1</clus>
<clus scale="   84.523">  1  5  2 -1</clus>
<clus scale="   91.498">  7  8 -1 -1</clus>
<clus scale="   58.686">  1  5  2 -1</clus>
</clustering>
</event>
<event>
 9    1  0.6675710E-005  0.9040062E+02  0.7546771E-02  0.1308756E+00
         -2   -1    0    0    0  501 -0.00000000000E+00  0.00000000000E+00  0.96687975194E+02  0.96687975194E+02  0.00000000000E+00 0.  1.
         21   -1    0    0  501  502  0.00000000000E+00 -0.00000000000E+00 -0.11787817885E+03  0.11787817885E+03  0.00000000000E+00 0.  1.
         23    2    1    2    0    0  0.26455519001E+01 -0.15038867663E+02 -0.17922836902E+02  0.92831641270E+02  0.89795985728E+02 0.  0.
        -24    2    1    2    0    0 -0.17634289382E+02 -0.15440729283E+02 -0.18523577796E+02  0.84499850746E+02  0.79042504761E+02 0.  0.
         11    1    4    4    0    0  0.29947183444E+02  0.55102292690E+01 -0.64003123046E+01  0.31115276319E+02  0.00000000000E+00 0. -1.
        -12    1    4    4    0    0 -0.47581472826E+02 -0.20950958552E+02 -0.12123265492E+02  0.53384574427E+02  0.00000000000E+00 0.  1.
        -13    1    3    3    0    0  0.29813965351E+02 -0.42836395393E+02 -0.91875088929E+01  0.52992826117E+02  0.00000000000E+00 0.  1.
         13    1    3    3    0    0 -0.27168413451E+02  0.27797527730E+02 -0.87353280093E+01  0.39838815153E+02  0.00000000000E+00 0. -1.
         -1    1    1    2    0  502  0.14988737482E+02  0.30479596945E+02  0.15256211040E+02  0.37234662031E+02  0.00000000000E+00 0.  1.
<scales pt_clust_5="13000.00000" pt_clust_6="13000.00000" pt_clust_7="13000.00000" pt_clust_8="13000.00000" pt_clust_9="33.96571"></scales>
<clustering>
<clus scale="   33.966">  2  9  1 -1</clus>
<clus scale="   79.043">  5  6 -1 -1</clus>
<clus scale="   79.729">  2  5  1 -1</clus>
<clus scale="   89.796">  7  8 -1 -1</clus>
<clus scale="   33.966">  2  5  1 -1</clus>
</clustering>
</event>
<event>
 9    1  0.6675710E-005  0.1034801E+03  0.7546771E-02  0.1278635E+00
         21   -1    0    0  501  502  0.00000000000E+00  0.00000000000E+00  0.24620068224E+03  0.24620068224E+03  0.00000000000E+00 0. -1.
          3   -1    0    0  502    0 -0.00000000000E+00 -0.00000000000E+00 -0.52929947219E+02  0.52929947219E+02  0.00000000000E+00 0. -1.
         23    2    1    2    0    0  0.24225858421E+02 -0.31219919165E+02  0.73279389165E+02  0.12428845927E+03  0.92283133140E+02 0.  0.
        -24    2    1    2    0    0 -0.11945595978E+02  0.56350393545E+02  0.89487558432E+02  0.13345586043E+03  0.80525644693E+02 0.  0.
         11    1    4    4    0    0 -0.34551309091E+02  0.65862269424E+02  0.69927000676E+02  0.10208534134E+03  0.00000000000E+00 0. -1.
        -12    1    4    4    0    0  0.22605713114E+02 -0.95118758787E+01  0.19560557756E+02  0.31370519088E+02  0.00000000000E+00 0.  1.
        -13    1    3    3    0    0 -0.18357678621E+02 -0.29385847618E+02  0.73945003369E+02  0.81660246924E+02  0.00000000000E+00 0.  1.
         13    1    3    3    0    0  0.42583537042E+02 -0.18340715474E+01 -0.66561420396E+00  0.42628212345E+02  0.00000000000E+00 0. -1.
          4    1    1    2  501    0 -0.12280262443E+02 -0.25130474380E+02  0.30503787422E+02  0.41386309757E+02  0.00000000000E+00 0. -1.
<scales pt_clust_5="13000.00000" pt_clust_6="13000.00000" pt_clust_7="13000.00000" pt_clust_8="13000.00000" pt_clust_9="27.97044"></scales>
<clustering>
<clus scale="   27.970">  1  9  2 -1</clus>
<clus scale="   80.526">  5  6 -1 -1</clus>
<clus scale="   92.283">  7  8 -1 -1</clus>
<clus scale="   93.147">  1  5  2 -1</clus>
<clus scale="   27.970">  1  5  2 -1</clus>
</clustering>
</event>
<event>
 9    1  0.6675710E-005  0.9168869E+02  0.7546771E-02  0.1305713E+00
          3   -1    0    0  502    0 -0.00000000000E+00  0.00000000000E+00  0.29929077756E+03  0.29929077756E+03  0.00000000000E+00 0. -1.
         21   -1    0    0  501  502  0.00000000000E+00 -0.00000000000E+00 -0.40687198194E+02  0.40687198194E+02  0.00000000000E+00 0.  1.
         23    2    1    2    0    0 -0.20031299295E+02  0.25870249326E+02  0.14830598796E+03  0.17670686612E+03  0.90333425260E+02 0.  0.
        -24    2    1    2    0    0  0.15714014499E+01  0.22626053979E+01  0.10092902063E+03  0.12834267621E+03  0.79231222661E+02 0.  0.
         11    1    4    4    0    0 -0.72958705510E+01 -0.30842903418E+02  0.84672998825E+02  0.90410348680E+02  0.00000000000E+00 0. -1.
        -12    1    4    4    0    0  0.88672720008E+01  0.33105508816E+02  0.16256021809E+02  0.37932327529E+02  0.00000000000E+00 0.  1.
        -11    1    3    3    0    0 -0.53626977549E+02  0.30877447915E+02  0.10147254346E+03  0.11885262549E+03  0.00000000000E+00 0.  1.
         11    1    3    3    0    0  0.33595678254E+02 -0.50071985897E+01  0.46833444500E+02  0.57854240629E+02  0.00000000000E+00 0. -1.
          4    1    1    2  501    0  0.18459897846E+02 -0.28132854724E+02  0.93685707803E+01  0.34928433429E+02  0.00000000000E+00 0. -1.
<scales pt_clust_5="13000.00000" pt_clust_6="13000.00000" pt_clust_7="13000.00000" pt_clust_8="13000.00000" pt_clust_9="33.64856"></scales>
<clustering>
<clus scale="   33.649">  2  9  1 -1</clus>
<clus scale="   79.231">  5  6 -1 -1</clus>
<clus scale="   80.773">  2  5  1 -1</clus>
<clus scale="   90.333">  7  8 -1 -1</clus>
<clus scale="   33.649">  2  5  1 -1</clus>
</clustering>
</event>
<event>
 9    1  0.6675710E-005  0.1240474E+03  0.7546771E-02  0.1240196E+00
         21   -1    0    0  501  502  0.00000000000E+00  0.00000000000E+00  0.10262766833E+03  0.10262766833E+03  0.00000000000E+00 0. -1.
          3   -1    0    0  502    0 -0.00000000000E+00 -0.00000000000E+00 -0.34086346446E+03  0.34086346446E+03  0.00000000000E+00 0. -1.
        -24    2    1    2    0    0  0.29440518891E+01  0.74910997936E+02 -0.13731262697E+03  0.17580179646E+03  0.80194694709E+02 0.  0.
         23    2    1    2    0    0 -0.45037286912E+02 -0.10984950601E+03  0.27202859943E+01  0.15049502941E+03  0.92445025484E+02 0.  0.
         13    1    3    3    0    0 -0.18821524502E+02  0.83987963423E+02 -0.11115204800E+03  0.14058095731E+03  0.00000000000E+00 0. -1.
        -14    1    3    3    0    0  0.21765576391E+02 -0.90769654866E+01 -0.26160578972E+02  0.35220839147E+02  0.00000000000E+00 0.  1.
        -13    1    4    4    0    0 -0.21144153639E+02  0.12575960303E+02  0.73438148901E+01  0.25674143176E+02  0.00000000000E+00 0.  1.
         13    1    4    4    0    0 -0.23893133273E+02 -0.12242546631E+03 -0.46235288958E+01  0.12482088623E+03  0.00000000000E+00 0. -1.
          4    1    1    2  501    0  0.42093235023E+02  0.34938508075E+02 -0.10364345515E+03  0.11719430693E+03  0.00000000000E+00 0. -1.
<scales pt_clust_5="13000.00000" pt_clust_6="13000.00000" pt_clust_7="13000.00000" pt_clust_8="13000.00000" pt_clust_9="54.70414"></scales>
<clustering>
<clus scale="   54.704">  1  9  2 -1</clus>
<clus scale="   80.195">  5  6 -1 -1</clus>
<clus scale="   92.445">  7  8 -1 -1</clus>
<clus scale="  115.208">  2  5  1 -1</clus>
<clus scale="   54.704">  1  5  2 -1</clus>
</clustering>
</event>
<event>
 9    1  0.6675710E-005  0.9398234E+02  0.7546771E-02  0.1303717E+00
         21   -1    0    0  501  502  0.00000000000E+00  0.00000000000E+00  0.12929664187E+03  0.12929664187E+03  0.00000000000E+00 0.  1.
         -2   -1    0    0    0  501 -0.00000000000E+00 -0.00000000000E+00 -0.19280968115E+03  0.19280968115E+03  0.00000000000E+00 0.  1.
        -24    2    1    2    0    0  0.12319103411E+02  0.16349531793E+02 -0.13299974203E+03  0.15480672055E+03  0.76531835537E+02 0.  0.
         23    2    1    2    0    0  0.82227206794E+00  0.28143429275E+02  0.19406221256E+02  0.99032670790E+02  0.92941593044E+02 0.  0.
         11    1    3    3    0    0  0.19765406034E+02  0.54860200623E+01  0.63702462124E+00  0.20522511839E+02  0.00000000000E+00 0. -1.
        -12    1    3    3    0    0 -0.74463026229E+01  0.10863511730E+02 -0.13363676665E+03  0.13428420872E+03  0.00000000000E+00 0.  1.
        -13    1    4    4    0    0 -0.21941300658E+02  0.40946766901E+02  0.43395122110E+02  0.63570394188E+02  0.00000000000E+00 0.  1.
         13    1    4    4    0    0  0.22763572726E+02 -0.12803337626E+02 -0.23988900854E+02  0.35462276602E+02  0.00000000000E+00 0. -1.
         -1    1    1    2    0  502 -0.13141375479E+02 -0.44492961068E+02  0.50080481495E+02  0.68266931679E+02  0.00000000000E+00 0.  1.
<scales pt_clust_5="13000.00000" pt_clust_6="13000.00000" pt_clust_7="13000.00000" pt_clust_8="13000.00000" pt_clust_9="46.39310"></scales>
<clustering>
<clus scale="   46.393">  1  9  2 -1</clus>
<clus scale="   76.532">  5  6 -1 -1</clus>
<clus scale="   77.792">  2  5  1 -1</clus>
<clus scale="   92.942">  7  8 -1 -1</clus>
<clus scale="   46.393">  1  5  2 -1</clus>
</clustering>
</event>
<event>
 9    1  0.8845938E-005  0.3609493E+03  0.7546771E-02  0.1113465E+00
          1   -1    0    0  502    0 -0.00000000000E+00  0.00000000000E+00  0.85929263563E+03  0.85929263563E+03  0.00000000000E+00 0. -1.
         21   -1    0    0  501  502  0.00000000000E+00 -0.00000000000E+00 -0.23115611031E+03  0.23115611031E+03  0.00000000000E+00 0. -1.
        -24    2    1    2    0    0  0.18266105989E+02 -0.14198597180E+02  0.33834884094E+02  0.89380857272E+02  0.79428505432E+02 0.  0.
         23    2    1    2    0    0  0.34110308303E+03  0.50182157985E+02  0.68617583145E+02  0.36327108751E+03  0.91585741632E+02 0.  0.
         13    1    3    3    0    0 -0.16232514868E+02  0.16431108440E+02 -0.10522931281E+02  0.25381251865E+02  0.00000000000E+00 0. -1.
        -14    1    3    3    0    0  0.34498620857E+02 -0.30629705619E+02  0.44357815376E+02  0.63999605407E+02  0.00000000000E+00 0.  1.
        -13    1    4    4    0    0  0.39362945733E+02  0.49624079575E+01  0.40778056546E+02  0.56893909035E+02  0.00000000000E+00 0.  1.
         13    1    4    4    0    0  0.30174013729E+03  0.45219750028E+02  0.27839526599E+02  0.30637717847E+03  0.00000000000E+00 0. -1.
          2    1    1    2  501    0 -0.35936918902E+03 -0.35983560805E+02  0.52568405807E+03  0.63779680116E+03  0.00000000000E+00 0. -1.
<scales pt_clust_5="13000.00000" pt_clust_6="13000.00000" pt_clust_7="13000.00000" pt_clust_8="13000.00000" pt_clust_9="349.13689"></scales>
<clustering>
<clus scale="   79.429">  5  6 -1 -1</clus>
<clus scale="   82.729">  1  5  2 -1</clus>
<clus scale="   91.586">  7  8 -1 -1</clus>
<clus scale="  349.137">  2  9  1 -1</clus>
<clus scale="  349.137">  2  5  1 -1</clus>
</clustering>
</event>
<event>
 9    1  0.6675710E-005  0.1242671E+03  0.7546771E-02  0.1238284E+00
         21   -1    0    0  501  502  0.00000000000E+00  0.00000000000E+00  0.61696463267E+02  0.61696463267E+02  0.00000000000E+00 0. -1.
         -2   -1    0    0    0  501 -0.00000000000E+00 -0.00000000000E+00 -0.40724497527E+03  0.40724497527E+03  0.00000000000E+00 0.  1.
        -24    2    1    2    0    0 -0.92112512486E+02  0.26081545643E+02 -0.21672926050E+03  0.25059112177E+03  0.81604999684E+02 0.  0.
         23    2    1    2    0    0  0.58085174827E+02 -0.31293468274E+02 -0.31497833569E+02  0.11512007781E+03  0.88923282130E+02 0.  0.
         13    1    3    3    0    0 -0.65142790871E+02 -0.14793805889E+02 -0.17101496390E+03  0.18359890460E+03  0.00000000000E+00 0. -1.
        -14    1    3    3    0    0 -0.26969721615E+02  0.40875351532E+02 -0.45714296604E+02  0.66992217167E+02  0.00000000000E+00 0.  1.
        -11    1    4    4    0    0 -0.17984127831E+02 -0.28653224435E+02 -0.34634239023E+01  0.34006343959E+02  0.00000000000E+00 0.  1.
         11    1    4    4    0    0  0.76069302658E+02 -0.26402438392E+01 -0.28034409666E+02  0.81113733854E+02  0.00000000000E+00 0. -1.
         -1    1    1    2    0  502  0.34027337659E+02  0.52119226308E+01 -0.97321417935E+02  0.10323023895E+03  0.00000000000E+00 0.  1.
<scales pt_clust_5="13000.00000" pt_clust_6="13000.00000" pt_clust_7="13000.00000" pt_clust_8="13000.00000" pt_clust_9="34.42419"></scales>
<clustering>
<clus scale="   34.424">  1  9  2 -1</clus>
<clus scale="   81.605">  5  6 -1 -1</clus>
<clus scale="   88.923">  7  8 -1 -1</clus>
<clus scale="  119.140">  2  5  1 -1</clus>
<clus scale="   34.424">  1  5  2 -1</clus>
</clustering>
</event>
<event>
 9    1  0.6675710E-005  0.1074793E+03  0.7546771E-02  0.1269181E+00
          1   -1    0    0  502    0 -0.00000000000E+00  0.00000000000E+00  0.30906121011E+03  0.30906121011E+03  0.00000000000E+00 0. -1.
         21   -1    0    0  501  502  0.00000000000E+00 -0.00000000000E+00 -0.73220472927E+02  0.73220472927E+02  0.00000000000E+00 0. -1.
        -24    2    1    2    0    0 -0.64064153406E+02  0.53001350531E+02  0.84548943760E+02  0.14310383376E+03  0.80105083704E+02 0.  0.
         23    2    1    2    0    0  0.44367133415E+02  0.13195902240E+02  0.40634485194E+02  0.10873595135E+03  0.89608991545E+02 0.  0.
         13    1    3    3    0    0 -0.33303258807E+02  0.68090225037E+02  0.76942954630E+02  0.10800742595E+03  0.00000000000E+00 0. -1.
        -14    1    3    3    0    0 -0.30760894600E+02 -0.15088874506E+02  0.76059891297E+01  0.35096407809E+02  0.00000000000E+00 0.  1.
        -13    1    4    4    0    0  0.38185777919E+02  0.40753921275E+02  0.53825723821E+02  0.77564452422E+02  0.00000000000E+00 0.  1.
         13    1    4    4    0    0  0.61813554962E+01 -0.27558019035E+02 -0.13191238628E+02  0.31171498929E+02  0.00000000000E+00 0. -1.
          2    1    1    2  501    0  0.19697019991E+02 -0.66197252770E+02  0.11065730823E+03  0.13044189793E+03  0.00000000000E+00 0. -1.
<scales pt_clust_5="13000.00000" pt_clust_6="13000.00000" pt_clust_7="13000.00000" pt_clust_8="13000.00000" pt_clust_9="69.06557"></scales>
<clustering>
<clus scale="   69.066">  2  9  1 -1</clus>
<clus scale="   80.105">  5  6 -1 -1</clus>
<clus scale="   89.609">  7  8 -1 -1</clus>
<clus scale="   99.694">  1  5  2 -1</clus>
<clus scale="   69.066">  2  5  1 -1</clus>
</clustering>
</event>
<event>
 9    1  0.6675710E-005  0.1463103E+03  0.7546771E-02  0.1205803E+00
         21   -1    0    0  501  502  0.00000000000E+00  0.00000000000E+00  0.49964865050E+03  0.49964865050E+03  0.00000000000E+00 0. -1.
         -4   -1    0    0    0  501 -0.00000000000E+00 -0.00000000000E+00 -0.23794620751E+03  0.23794620751E+03  0.00000000000E+00 0.  1.
        -24    2    1    2    0    0 -0.63502866231E+02 -0.95347681470E+02  0.48364199148E+02  0.15231182439E+03  0.87954543413E+02 0.  0.
         23    2    1    2    0    0  0.16082953366E+03  0.90830064417E+01  0.35037279443E+03  0.39635833327E+03  0.91597998754E+02 0.  0.
         11    1    3    3    0    0 -0.57288364002E+02 -0.52999473742E+02  0.69564634497E+02  0.10454730623E+03  0.00000000000E+00 0. -1.
        -12    1    3    3    0    0 -0.62145022292E+01 -0.42348207728E+02 -0.21200435349E+02  0.47764518156E+02  0.00000000000E+00 0.  1.
        -13    1    4    4    0    0  0.31071271999E+02  0.38235090218E+02  0.12926335014E+03  0.13833423205E+03  0.00000000000E+00 0.  1.
         13    1    4    4    0    0  0.12975826167E+03 -0.29152083776E+02  0.22110944429E+03  0.25802410123E+03  0.00000000000E+00 0. -1.
         -3    1    1    2    0  502 -0.97326667434E+02  0.86264675028E+02 -0.13703455059E+03  0.18892470036E+03  0.00000000000E+00 0.  1.
<scales pt_clust_5="13000.00000" pt_clust_6="13000.00000" pt_clust_7="13000.00000" pt_clust_8="13000.00000" pt_clust_9="130.05419"></scales>
<clustering>
<clus scale="   87.955">  5  6 -1 -1</clus>
<clus scale="   91.598">  7  8 -1 -1</clus>
<clus scale="  130.054">  1  9  2 -1</clus>
<clus scale="  144.057">  2  5  1 -1</clus>
<clus scale="  130.054">  1  5  2 -1</clus>
</clustering>
</event>
<event>
 9    1  0.6675710E-005  0.1237728E+03  0.7546771E-02  0.1239955E+00
         21   -1    0    0  501  502  0.00000000000E+00  0.00000000000E+00  0.57611146532E+02  0.57611146532E+02  0.00000000000E+00 0.  1.
          1   -1    0    0  502    0 -0.00000000000E+00 -0.00000000000E+00 -0.32661005512E+03  0.32661005512E+03  0.00000000000E+00 0. -1.
        -24    2    1    2    0    0  0.84855898706E+02  0.48836495112E+02 -0.15856335468E+03  0.20295255458E+03  0.80385789561E+02 0.  0.
         23    2    1    2    0    0 -0.57060960026E+02 -0.35318918779E+02 -0.83413836042E+02  0.14021433277E+03  0.90547290898E+02 0.  0.
         13    1    3    3    0    0  0.83733575923E+02  0.56651404018E+02 -0.16449432303E+03  0.19307790040E+03  0.00000000000E+00 0. -1.
        -14    1    3    3    0    0  0.11223227829E+01 -0.78149089059E+01  0.59309683487E+01  0.98746541808E+01  0.00000000000E+00 0.  1.
        -11    1    4    4    0    0  0.13522211262E+02 -0.19083730922E+02  0.69575353449E+01  0.24401767997E+02  0.00000000000E+00 0.  1.
         11    1    4    4    0    0 -0.70583171287E+02 -0.16235187857E+02 -0.90371371387E+02  0.11581256478E+03  0.00000000000E+00 0. -1.
          2    1    1    2  501    0 -0.27794938680E+02 -0.13517576333E+02 -0.27021717869E+02  0.41054314301E+02  0.00000000000E+00 0. -1.
<scales pt_clust_5="13000.00000" pt_clust_6="13000.00000" pt_clust_7="13000.00000" pt_clust_8="13000.00000" pt_clust_9="30.90766"></scales>
<clustering>
<clus scale="   30.908">  1  9  2 -1</clus>
<clus scale="   80.386">  5  6 -1 -1</clus>
<clus scale="   90.547">  7  8 -1 -1</clus>
<clus scale="  116.545">  2  5  1 -1</clus>
<clus scale="   30.908">  1  5  2 -1</clus>
</clustering>
</event>
<event>
 9    1  0.6675710E-005  0.1568339E+03  0.7546771E-02  0.1193938E+00
         21   -1    0    0  501  502  0.00000000000E+00  0.00000000000E+00  0.15286973882E+03  0.15286973882E+03  0.00000000000E+00 0.  1.
         -4   -1    0    0    0  501 -0.00000000000E+00 -0.00000000000E+00 -0.27937544724E+03  0.27937544724E+03  0.00000000000E+00 0.  1.
         23    2    1    2    0    0 -0.11418426023E+03  0.44526581793E+02 -0.10956571288E+03  0.18749521344E+03  0.90161787112E+02 0.  0.
        -24    2    1    2    0    0  0.13758846240E+03 -0.45841626407E+02  0.50568117482E+02  0.17328787536E+03  0.80246579641E+02 0.  0.
         11    1    4    4    0    0  0.10871096799E+03 -0.84765263584E+00  0.16673810527E+02  0.10998549466E+03  0.00000000000E+00 0. -1.
        -12    1    4    4    0    0  0.28877494404E+02 -0.44993973771E+02  0.33894306955E+02  0.63302380703E+02  0.00000000000E+00 0.  1.
        -13    1    3    3    0    0 -0.11038177531E+03  0.30111250526E+01 -0.77642103303E+02  0.13498703419E+03  0.00000000000E+00 0. -1.
         13    1    3    3    0    0 -0.38024849188E+01  0.41515456740E+02 -0.31923609582E+02  0.52508179255E+02  0.00000000000E+00 0.  1.
         -3    1    1    2    0  502 -0.23404202171E+02  0.13150446137E+01 -0.67508113015E+02  0.71462097258E+02  0.00000000000E+00 0.  1.
<scales pt_clust_5="13000.00000" pt_clust_6="13000.00000" pt_clust_7="13000.00000" pt_clust_8="13000.00000" pt_clust_9="23.44113"></scales>
<clustering>
<clus scale="   23.441">  1  9  2 -1</clus>
<clus scale="   80.247">  5  6 -1 -1</clus>
<clus scale="   90.162">  7  8 -1 -1</clus>
<clus scale="  151.351">  1  5  2 -1</clus>
<clus scale="   23.441">  1  5  2 -1</clus>
</clustering>
</event>
<event>
 9    1  0.6675710E-005  0.1157278E+03  0.7546771E-02  0.1253662E+00
         21   -1    0    0  501  502  0.00000000000E+00  0.00000000000E+00  0.20559289758E+03  0.20559289758E+03  0.00000000000E+00 0.  1.
         -2   -1    0    0    0  501 -0.00000000000E+00 -0.00000000000E+00 -0.22432956431E+03  0.22432956431E+03  0.00000000000E+00 0.  1.
         23    2    1    2    0    0 -0.70022610102E+02 -0.28179544522E+02 -0.18490819093E+03  0.21956567481E+03  0.91218385356E+02 0.  0.
        -24    2    1    2    0    0  0.32362166105E+02  0.24402649509E+02  0.11416971025E+03  0.14603911741E+03  0.81546931129E+02 0.  0.
         11    1    4    4    0    0  0.38198712312E+02 -0.18949655475E+02  0.33323181522E+02  0.54117146005E+02  0.00000000000E+00 0. -1.
        -12    1    4    4    0    0 -0.58365462075E+01  0.43352304985E+02  0.80846528729E+02  0.91921971403E+02  0.00000000000E+00 0.  1.
        -11    1    3    3    0    0 -0.14342515095E+02  0.25352382800E+02 -0.10275812551E+03  0.10680675733E+03  0.00000000000E+00 0.  1.
         11    1    3    3    0    0 -0.55680095008E+02 -0.53531927322E+02 -0.82150065414E+02  0.11275891748E+03  0.00000000000E+00 0. -1.
         -1    1    1    2    0  502  0.37660443997E+02  0.37768950128E+01  0.52001813945E+02  0.64317669669E+02  0.00000000000E+00 0.  1.
<scales pt_clust_5="13000.00000" pt_clust_6="13000.00000" pt_clust_7="13000.00000" pt_clust_8="13000.00000" pt_clust_9="37.84936"></scales>
<clustering>
<clus scale="   37.849">  1  9  2 -1</clus>
<clus scale="   81.547">  5  6 -1 -1</clus>
<clus scale="   91.218">  7  8 -1 -1</clus>
<clus scale="  108.268">  1  5  2 -1</clus>
<clus scale="   37.849">  1  5  2 -1</clus>
</clustering>
</event>
<event>
 9    1  0.6675710E-005  0.2132030E+03  0.7546771E-02  0.1157803E+00
         21   -1    0    0  501  502  0.00000000000E+00  0.00000000000E+00  0.26408851396E+03  0.26408851396E+03  0.00000000000E+00 0. -1.
          1   -1    0    0  502    0 -0.00000000000E+00 -0.00000000000E+00 -0.30340945304E+03  0.30340945304E+03  0.00000000000E+00 0. -1.
         23    2    1    2    0    0 -0.91143046097E+01 -0.97109561588E+02 -0.28780047418E+02  0.13955710735E+03  0.95574879453E+02 0.  0.
        -24    2    1    2    0    0 -0.15515647202E+03 -0.58055636195E+02 -0.66545057844E+02  0.19513709403E+03  0.78779775572E+02 0.  0.
         11    1    4    4    0    0 -0.21817562641E+02 -0.39020809008E+02  0.44193289851E+00  0.44708219378E+02  0.00000000000E+00 0. -1.
        -12    1    4    4    0    0 -0.13333890938E+03 -0.19034827187E+02 -0.66986990743E+02  0.15042887465E+03  0.00000000000E+00 0.  1.
        -13    1    3    3    0    0 -0.10187087453E+02 -0.68780085944E+02  0.28891631093E+02  0.75294112123E+02  0.00000000000E+00 0.  1.
         13    1    3    3    0    0  0.10727828429E+01 -0.28329475644E+02 -0.57671678511E+02  0.64262995227E+02  0.00000000000E+00 0. -1.
          2    1    1    2  501    0  0.16427077663E+03  0.15516519778E+03  0.56004166181E+02  0.23280376562E+03  0.00000000000E+00 0. -1.
<scales pt_clust_5="13000.00000" pt_clust_6="13000.00000" pt_clust_7="13000.00000" pt_clust_8="13000.00000" pt_clust_9="198.11433"></scales>
<clustering>
<clus scale="   78.780">  5  6 -1 -1</clus>
<clus scale="   95.575">  7  8 -1 -1</clus>
<clus scale="  136.557">  2  7  1 -1</clus>
<clus scale="  198.114">  1  9  2 -1</clus>
<clus scale="  198.114">  1  5  2 -1</clus>
</clustering>
</event>
<event>
 9    1  0.6675710E-005  0.1242273E+03  0.7546771E-02  0.1238539E+00
         21   -1    0    0  501  502  0.00000000000E+00  0.00000000000E+00  0.18651983153E+03  0.18651983153E+03  0.00000000000E+00 0.  1.
          1   -1    0    0  502    0 -0.00000000000E+00 -0.00000000000E+00 -0.39613956901E+03  0.39613956901E+03  0.00000000000E+00 0. -1.
        -24    2    1    2    0    0  0.57536361893E+02  0.67813078611E+02 -0.35823446315E+03  0.37789489365E+03  0.81015884167E+02 0.  0.
         23    2    1    2    0    0 -0.35857753560E+02 -0.47634508498E+02  0.93472977902E+02  0.14217258172E+03  0.89000115203E+02 0.  0.
         13    1    3    3    0    0  0.59416551467E+02  0.83582328413E+02 -0.28312098074E+03  0.30112094239E+03  0.00000000000E+00 0. -1.
        -14    1    3    3    0    0 -0.18801895734E+01 -0.15769249802E+02 -0.75113482402E+02  0.76773951251E+02  0.00000000000E+00 0.  1.
        -11    1    4    4    0    0 -0.12799988693E+02  0.24627352063E+02  0.10295971485E+02  0.29603263485E+02  0.00000000000E+00 0. -1.
         11    1    4    4    0    0 -0.23057764867E+02 -0.72261860561E+02  0.83177006417E+02  0.11256931824E+03  0.00000000000E+00 0.  1.
          2    1    1    2  501    0 -0.21678608333E+02 -0.20178570113E+02  0.55141747764E+02  0.62591925178E+02  0.00000000000E+00 0. -1.
<scales pt_clust_5="13000.00000" pt_clust_6="13000.00000" pt_clust_7="13000.00000" pt_clust_8="13000.00000" pt_clust_9="29.61649"></scales>
<clustering>
<clus scale="   29.616">  1  9  2 -1</clus>
<clus scale="   81.016">  5  6 -1 -1</clus>
<clus scale="   89.000">  7  8 -1 -1</clus>
<clus scale="  118.638">  2  5  1 -1</clus>
<clus scale="   29.616">  1  5  2 -1</clus>
</clustering>
</event>
<event>
 9    1  0.6675710E-005  0.1001911E+03  0.7546771E-02  0.1287247E+00
         21   -1    0    0  501  502  0.00000000000E+00  0.00000000000E+00  0.27883542842E+03  0.27883542842E+03  0.00000000000E+00 0. -1.
          3   -1    0    0  502    0 -0.00000000000E+00 -0.00000000000E+00 -0.59249638298E+02  0.59249638298E+02  0.00000000000E+00 0. -1.
        -24    2    1    2    0    0 -0.36702879919E+02 -0.19540696502E+02  0.89733785663E+02  0.12833388102E+03  0.81783204359E+02 0.  0.
         23    2    1    2    0    0  0.12424503714E+02  0.48782338944E+01  0.14757659135E+03  0.17630588198E+03  0.95534016179E+02 0.  0.
         13    1    3    3    0    0 -0.38112250963E+02  0.19814801052E+02  0.74721861194E+02  0.86188900414E+02  0.00000000000E+00 0. -1.
        -14    1    3    3    0    0  0.14093710440E+01 -0.39355497553E+02  0.15011924469E+02  0.42144980611E+02  0.00000000000E+00 0.  1.
        -11    1    4    4    0    0 -0.29423326730E+02 -0.22687828682E+02  0.10204566622E+03  0.10859920681E+03  0.00000000000E+00 0. -1.
         11    1    4    4    0    0  0.41847830444E+02  0.27566062576E+02  0.45530925130E+02  0.67706675166E+02  0.00000000000E+00 0.  1.
          4    1    1    2  501    0  0.24278376206E+02  0.14662462607E+02 -0.17724586883E+02  0.33445303722E+02  0.00000000000E+00 0. -1.
<scales pt_clust_5="13000.00000" pt_clust_6="13000.00000" pt_clust_7="13000.00000" pt_clust_8="13000.00000" pt_clust_9="28.36244"></scales>
<clustering>
<clus scale="   28.362">  1  9  2 -1</clus>
<clus scale="   81.783">  5  6 -1 -1</clus>
<clus scale="   87.178">  2  5  1 -1</clus>
<clus scale="   95.534">  7  8 -1 -1</clus>
<clus scale="   28.362">  1  5  2 -1</clus>
</clustering>
</event>
<event>
 9    1  0.6675710E-005  0.9235019E+02  0.7546771E-02  0.1301085E+00
         21   -1    0    0  501  502  0.00000000000E+00  0.00000000000E+00  0.35227496255E+02  0.35227496255E+02  0.00000000000E+00 0. -1.
          3   -1    0    0  502    0 -0.00000000000E+00 -0.00000000000E+00 -0.39239580668E+03  0.39239580668E+03  0.00000000000E+00 0. -1.
        -24    2    1    2    0    0  0.14487813602E+02  0.39323122273E+02 -0.15493593504E+03  0.17962549637E+03  0.80647196424E+02 0.  0.
         23    2    1    2    0    0 -0.13406809969E+02 -0.50872893860E+01 -0.74297400257E+02  0.11555680580E+03  0.87336410592E+02 0.  0.
         11    1    3    3    0    0 -0.10836221706E+02  0.19980704105E+02 -0.13515291868E+01  0.22770131061E+02  0.00000000000E+00 0. -1.
        -12    1    3    3    0    0  0.25324035308E+02  0.19342418168E+02 -0.15358440585E+03  0.15685536531E+03  0.00000000000E+00 0.  1.
        -13    1    4    4    0    0  0.36383258618E+02  0.13910028508E+01 -0.43199556471E+02  0.56496708540E+02  0.00000000000E+00 0.  1.
         13    1    4    4    0    0 -0.49790068588E+02 -0.64782922368E+01 -0.31097843786E+02  0.59060097260E+02  0.00000000000E+00 0. -1.
          4    1    1    2  501    0 -0.10810036329E+01 -0.34235832887E+02 -0.12793497512E+03  0.13244100076E+03  0.00000000000E+00 0. -1.
<scales pt_clust_5="13000.00000" pt_clust_6="13000.00000" pt_clust_7="13000.00000" pt_clust_8="13000.00000" pt_clust_9="34.25291"></scales>
<clustering>
<clus scale="   34.253">  1  9  2 -1</clus>
<clus scale="   80.647">  5  6 -1 -1</clus>
<clus scale="   86.052">  2  5  1 -1</clus>
<clus scale="   87.336">  7  8 -1 -1</clus>
<clus scale="   34.253">  1  5  2 -1</clus>
</clustering>
</event>
<event>
 9    1  0.6675710E-005  0.1771326E+03  0.7546771E-02  0.1193719E+00
          1   -1    0    0  502    0 -0.00000000000E+00  0.00000000000E+00  0.88673131559E+03  0.88673131559E+03  0.00000000000E+00 0. -1.
         21   -1    0    0  501  502  0.00000000000E+00 -0.00000000000E+00 -0.10811760088E+03  0.10811760088E+03  0.00000000000E+00 0. -1.
         23    2    1    2    0    0  0.42502193740E+02  0.37109979951E+02  0.29815283752E+02  0.10968764362E+03  0.89212336211E+02 0.  0.
        -24    2    1    2    0    0  0.85438765237E+02 -0.13238405219E+03  0.69455337855E+03  0.71667221227E+03  0.79933374195E+02 0.  0.
         11    1    4    4    0    0  0.66283747722E+02 -0.86767673165E+02  0.60104062758E+03  0.61087805684E+03  0.00000000000E+00 0. -1.
        -12    1    4    4    0    0  0.19155017515E+02 -0.45616379024E+02  0.93512750968E+02  0.10579415544E+03  0.00000000000E+00 0.  1.
        -13    1    3    3    0    0  0.50662849023E+02 -0.14033925999E+02  0.23249265238E+02  0.57482203195E+02  0.00000000000E+00 0. -1.
         13    1    3    3    0    0 -0.81606552829E+01  0.51143905950E+02  0.65660185143E+01  0.52205440421E+02  0.00000000000E+00 0.  1.
          2    1    1    2  501    0 -0.12794095898E+03  0.95274072238E+02  0.54245052413E+02  0.16848906058E+03  0.00000000000E+00 0. -1.
<scales pt_clust_5="13000.00000" pt_clust_6="13000.00000" pt_clust_7="13000.00000" pt_clust_8="13000.00000" pt_clust_9="158.07153"></scales>
<clustering>
<clus scale="   79.933">  5  6 -1 -1</clus>
<clus scale="   89.212">  7  8 -1 -1</clus>
<clus scale="  105.558">  1  7  2 -1</clus>
<clus scale="  158.072">  2  9  1 -1</clus>
<clus scale="  158.072">  2  5  1 -1</clus>
</clustering>
</event>
<event>
 9    1  0.6675710E-005  0.1253176E+03  0.7546771E-02  0.1238114E+00
         -2   -1    0    0    0  501 -0.00000000000E+00  0.00000000000E+00  0.63195565033E+03  0.63195565033E+03  0.00000000000E+00 0.  1.
         21   -1    0    0  501  502  0.00000000000E+00 -0.00000000000E+00 -0.15683386695E+03  0.15683386695E+03  0.00000000000E+00 0. -1.
        -24    2    1    2    0    0 -0.57626871013E+00  0.83130092719E+02  0.56837859811E+03  0.57999881200E+03  0.80208769622E+02 0.  0.
         23    2    1    2    0    0  0.39647709450E+01 -0.10742418641E+03 -0.35685033849E+02  0.14621119674E+03  0.92458732292E+02 0.  0.
         13    1    3    3    0    0 -0.20626308263E+02  0.25453250923E+02  0.63617353472E+02  0.71557530965E+02  0.00000000000E+00 0. -1.
        -14    1    3    3    0    0  0.20050039553E+02  0.57676841795E+02  0.50476124464E+03  0.50844128103E+03  0.00000000000E+00 0.  1.
        -13    1    4    4    0    0  0.28812832620E+02 -0.44849712367E+02  0.21886271581E+02  0.57625384222E+02  0.00000000000E+00 0.  1.
         13    1    4    4    0    0 -0.24848061675E+02 -0.62574474048E+02 -0.57571305430E+02  0.88585812522E+02  0.00000000000E+00 0. -1.
         -1    1    1    2    0  502 -0.33885022348E+01  0.24294093696E+02 -0.57571780881E+02  0.62579508545E+02  0.00000000000E+00 0.  1.
<scales pt_clust_5="13000.00000" pt_clust_6="13000.00000" pt_clust_7="13000.00000" pt_clust_8="13000.00000" pt_clust_9="24.52927"></scales>
<clustering>
<clus scale="   24.529">  2  9  1 -1</clus>
<clus scale="   80.209">  5  6 -1 -1</clus>
<clus scale="   92.459">  7  8 -1 -1</clus>
<clus scale="  116.573">  1  5  2 -1</clus>
<clus scale="   24.529">  2  5  1 -1</clus>
</clustering>
</event>
<event>
 9    1  0.6675710E-005  0.9173137E+02  0.7546771E-02  0.1305422E+00
         21   -1    0    0  501  502  0.00000000000E+00  0.00000000000E+00  0.13254461308E+03  0.13254461308E+03  0.00000000000E+00 0.  1.
          1   -1    0    0  502    0 -0.00000000000E+00 -0.00000000000E+00 -0.56942201219E+03  0.56942201219E+03  0.00000000000E+00 0. -1.
        -24    2    1    2    0    0  0.21451610370E+01 -0.13497575585E+02 -0.53888858451E+03  0.54495134075E+03  0.79901633269E+02 0.  0.
         23    2    1    2    0    0  0.19859445527E+02  0.22582968671E+02  0.82752310518E+02  0.12639419147E+03  0.90681633705E+02 0.  0.
         13    1    3    3    0    0  0.24505542070E+02 -0.39218734159E+02 -0.27331404011E+03  0.27719883698E+03  0.00000000000E+00 0. -1.
        -14    1    3    3    0    0 -0.22360381033E+02  0.25721158574E+02 -0.26557454441E+03  0.26775250377E+03  0.00000000000E+00 0.  1.
        -11    1    4    4    0    0 -0.19325730260E+02 -0.88081935781E+01 -0.79867768593E+01  0.22690454574E+02  0.00000000000E+00 0. -1.
         11    1    4    4    0    0  0.39185175786E+02  0.31391162249E+02  0.90739087378E+02  0.10370373690E+03  0.00000000000E+00 0.  1.
          2    1    1    2  501    0 -0.22004606564E+02 -0.90853930853E+01  0.19258874884E+02  0.30621093046E+02  0.00000000000E+00 0. -1.
<scales pt_clust_5="13000.00000" pt_clust_6="13000.00000" pt_clust_7="13000.00000" pt_clust_8="13000.00000" pt_clust_9="23.80645"></scales>
<clustering>
<clus scale="   23.806">  1  9  2 -1</clus>
<clus scale="   79.902">  5  6 -1 -1</clus>
<clus scale="   81.091">  2  5  1 -1</clus>
<clus scale="   90.682">  7  8 -1 -1</clus>
<clus scale="   23.806">  1  5  2 -1</clus>
</clustering>
</event>
<event>
 9    1  0.6675710E-005  0.1271354E+03  0.7546771E-02  0.1255254E+00
          1   -1    0    0  502    0 -0.00000000000E+00  0.00000000000E+00  0.78290606282E+02  0.78290606282E+02  0.00000000000E+00 0. -1.
         21   -1    0    0  501  502  0.00000000000E+00 -0.00000000000E+00 -0.54038843281E+03  0.54038843281E+03  0.00000000000E+00 0.  1.
        -24    2    1    2    0    0  0.12288618743E+01  0.78059528689E+01 -0.14171467136E+03  0.16230696217E+03  0.78727751689E+02 0.  0.
         23    2    1    2    0    0  0.23543444249E+02  0.79853256419E+02  0.11449639138E+01  0.12218928940E+03  0.89431958342E+02 0.  0.
         13    1    3    3    0    0  0.16029241081E+02 -0.18140737316E+02 -0.83032282430E+01  0.25592313675E+02  0.00000000000E+00 0. -1.
        -14    1    3    3    0    0 -0.14800379206E+02  0.25946690185E+02 -0.13341144312E+03  0.13671464849E+03  0.00000000000E+00 0.  1.
        -11    1    4    4    0    0 -0.24753639783E+02  0.46881175867E+01 -0.17814130638E+02  0.30855540497E+02  0.00000000000E+00 0.  1.
         11    1    4    4    0    0  0.48297084032E+02  0.75165138832E+02  0.18959094551E+02  0.91333748898E+02  0.00000000000E+00 0. -1.
          2    1    1    2  501    0 -0.24772306123E+02 -0.87659209288E+02 -0.32152811907E+03  0.33418278752E+03  0.00000000000E+00 0. -1.
<scales pt_clust_5="13000.00000" pt_clust_6="13000.00000" pt_clust_7="13000.00000" pt_clust_8="13000.00000" pt_clust_9="90.36221"></scales>
<clustering>
<clus scale="   78.728">  5  6 -1 -1</clus>
<clus scale="   79.123">  1  5  2 -1</clus>
<clus scale="   89.432">  7  8 -1 -1</clus>
<clus scale="   90.362">  2  9  1 -1</clus>
<clus scale="   90.362">  2  5  1 -1</clus>
</clustering>
</event>
<event>
 9    1  0.6675710E-005  0.2447417E+03  0.7546771E-02  0.1116674E+00
          1   -1    0    0  502    0 -0.00000000000E+00  0.00000000000E+00  0.49546013306E+03  0.49546013306E+03  0.00000000000E+00 0. -1.
         21   -1    0    0  501  502  0.00000000000E+00 -0.00000000000E+00 -0.90208899229E+02  0.90208899229E+02  0.00000000000E+00 0. -1.
        -24    2    1    2    0    0 -0.95193950187E+02 -0.32252930185E+02  0.14545030675E+03  0.19429789274E+03  0.80583743587E+02 0.  0.
         23    2    1    2    0    0 -0.69945181224E+02  0.78235218094E+01  0.15912998425E+03  0.19642918037E+03  0.91151166449E+02 0.  0.
         13    1    3    3    0    0 -0.90472852718E+02 -0.54807328854E+02  0.11992684102E+03  0.15991131158E+03  0.00000000000E+00 0. -1.
        -14    1    3    3    0    0 -0.47210974692E+01  0.22554398668E+02  0.25523465736E+02  0.34386581158E+02  0.00000000000E+00 0.  1.
        -11    1    4    4    0    0 -0.79784551218E+02  0.33890779424E+02  0.12869852566E+03  0.15516916591E+03  0.00000000000E+00 0. -1.
         11    1    4    4    0    0  0.98393699939E+01 -0.26067257615E+02  0.30431458594E+02  0.41260014464E+02  0.00000000000E+00 0.  1.
          2    1    1    2  501    0  0.16513913141E+03  0.24429408376E+02  0.10067094283E+03  0.19494195917E+03  0.00000000000E+00 0. -1.
<scales pt_clust_5="13000.00000" pt_clust_6="13000.00000" pt_clust_7="13000.00000" pt_clust_8="13000.00000" pt_clust_9="166.93630"></scales>
<clustering>
<clus scale="   80.584">  5  6 -1 -1</clus>
<clus scale="   91.151">  7  8 -1 -1</clus>
<clus scale="   98.320">  5  7 -1 -1</clus>
<clus scale="  166.936">  2  9  1 -1</clus>
<clus scale="  166.936">  2  5  1 -1</clus>
</clustering>
</event>
<event>
 9    1  0.6675710E-005  0.1576333E+03  0.7546771E-02  0.1191815E+00
         21   -1    0    0  501  502  0.00000000000E+00  0.00000000000E+00  0.18374951305E+03  0.18374951305E+03  0.00000000000E+00 0. -1.
          1   -1    0    0  502    0 -0.00000000000E+00 -0.00000000000E+00 -0.26376586525E+03  0.26376586525E+03  0.00000000000E+00 0. -1.
         23    2    1    2    0    0 -0.45550980431E+02  0.12247646622E+03 -0.11703436548E+03  0.19568196683E+03  0.86712241594E+02 0.  0.
        -24    2    1    2    0    0  0.17860799728E+02 -0.13395903112E+03 -0.44274756235E+02  0.16518983248E+03  0.84044015428E+02 0.  0.
         13    1    4    4    0    0  0.47631841144E+02 -0.10600408167E+03 -0.44244320324E+02  0.12435118617E+03  0.00000000000E+00 0. -1.
        -14    1    4    4    0    0 -0.29771041416E+02 -0.27954949447E+02 -0.30435910067E-01  0.40838646304E+02  0.00000000000E+00 0.  1.
        -13    1    3    3    0    0 -0.55790805071E+02  0.36239068295E+02 -0.30850198560E+02  0.73332249062E+02  0.00000000000E+00 0. -1.
         13    1    3    3    0    0  0.10239824640E+02  0.86237397929E+02 -0.86184166920E+02  0.12234971777E+03  0.00000000000E+00 0.  1.
          2    1    1    2  501    0  0.27690180702E+02  0.11482564896E+02  0.81292769516E+02  0.86643578986E+02  0.00000000000E+00 0. -1.
<scales pt_clust_5="13000.00000" pt_clust_6="13000.00000" pt_clust_7="13000.00000" pt_clust_8="13000.00000" pt_clust_9="29.97658"></scales>
<clustering>
<clus scale="   29.977">  1  9  2 -1</clus>
<clus scale="   84.044">  5  6 -1 -1</clus>
<clus scale="   86.712">  7  8 -1 -1</clus>
<clus scale="  156.181">  1  5  2 -1</clus>
<clus scale="   29.977">  1  5  2 -1</clus>
</clustering>
</event>
<event>
 9    1  0.6675710E-005  0.8989869E+02  0.7546771E-02  0.1308805E+00
          1   -1    0    0  502    0 -0.00000000000E+00  0.00000000000E+00  0.45851372478E+02  0.45851372478E+02  0.00000000000E+00 0. -1.
         21   -1    0    0  501  502  0.00000000000E+00 -0.00000000000E+00 -0.24833721216E+03  0.24833721216E+03  0.00000000000E+00 0. -1.
        -24    2    1    2    0    0  0.13541658072E+02  0.49159314261E+01 -0.53340104609E+02  0.97599960141E+02  0.80455220929E+02 0.  0.
         23    2    1    2    0    0  0.36715824510E+01  0.24894087809E+02 -0.11796724850E+03  0.15014477753E+03  0.89409095595E+02 0.  0.
         11    1    3    3    0    0  0.30737715330E+02 -0.24140724507E+02 -0.61351391333E+01  0.39562882296E+02  0.00000000000E+00 0. -1.
        -12    1    3    3    0    0 -0.17196057258E+02  0.29056655933E+02 -0.47204965476E+02  0.58037077845E+02  0.00000000000E+00 0.  1.
        -11    1    4    4    0    0 -0.19209872067E+02  0.86993226914E+01  0.68856497669E+01  0.22183542838E+02  0.00000000000E+00 0.  1.
         11    1    4    4    0    0  0.22881454518E+02  0.16194765118E+02 -0.12485289827E+03  0.12796123469E+03  0.00000000000E+00 0. -1.
          2    1    1    2  501    0 -0.17213240523E+02 -0.29810019235E+02 -0.31178486570E+02  0.46443846965E+02  0.00000000000E+00 0. -1.
<scales pt_clust_5="13000.00000" pt_clust_6="13000.00000" pt_clust_7="13000.00000" pt_clust_8="13000.00000" pt_clust_9="34.42287"></scales>
<clustering>
<clus scale="   34.423">  2  9  1 -1</clus>
<clus scale="   80.455">  5  6 -1 -1</clus>
<clus scale="   80.999">  1  5  2 -1</clus>
<clus scale="   89.409">  7  8 -1 -1</clus>
<clus scale="   34.423">  2  5  1 -1</clus>
</clustering>
</event>
<event>
 9    1  0.6675710E-005  0.1075255E+03  0.7546771E-02  0.1270473E+00
         21   -1    0    0  501  502  0.00000000000E+00  0.00000000000E+00  0.46723622026E+02  0.46723622026E+02  0.00000000000E+00 0.  1.
         -4   -1    0    0    0  501 -0.00000000000E+00 -0.00000000000E+00 -0.53810541402E+03  0.53810541402E+03  0.00000000000E+00 0.  1.
        -24    2    1    2    0    0 -0.53937411778E+02 -0.25292906337E+02 -0.37620596108E+03  0.38986099552E+03  0.83136605547E+02 0.  0.
         23    2    1    2    0    0  0.14767323312E+02  0.26170500554E+02 -0.11938781462E+03  0.15556237077E+03  0.95095909387E+02 0.  0.
         11    1    3    3    0    0 -0.40423566709E+02 -0.46002549462E+02 -0.14589946059E+03  0.15823069204E+03  0.00000000000E+00 0. -1.
        -12    1    3    3    0    0 -0.13513845070E+02  0.20709643125E+02 -0.23030650049E+03  0.23163030349E+03  0.00000000000E+00 0.  1.
        -11    1    4    4    0    0  0.49398240591E+02  0.14902395437E+02 -0.31561026755E+02  0.60484427525E+02  0.00000000000E+00 0. -1.
         11    1    4    4    0    0 -0.34630917279E+02  0.11268105117E+02 -0.87826787867E+02  0.95077943244E+02  0.00000000000E+00 0.  1.
         -3    1    1    2    0  502  0.39170088466E+02 -0.87759421684E+00  0.42119837018E+01  0.39405669754E+02  0.00000000000E+00 0.  1.
<scales pt_clust_5="13000.00000" pt_clust_6="13000.00000" pt_clust_7="13000.00000" pt_clust_8="13000.00000" pt_clust_9="39.17992"></scales>
<clustering>
<clus scale="   39.180">  1  9  2 -1</clus>
<clus scale="   83.137">  5  6 -1 -1</clus>
<clus scale="   95.096">  7  8 -1 -1</clus>
<clus scale="   97.109">  2  5  1 -1</clus>
<clus scale="   39.180">  1  5  2 -1</clus>
</clustering>
</event>
<event>
 9    1  0.6675710E-005  0.3729942E+03  0.7546771E-02  0.1090155E+00
         21   -1    0    0  501  502  0.00000000000E+00  0.00000000000E+00  0.18746953272E+03  0.18746953272E+03  0.00000000000E+00 0. -1.
          1   -1    0    0  502    0 -0.00000000000E+00 -0.00000000000E+00 -0.11706752501E+04  0.11706752501E+04  0.00000000000E+00 0. -1.
        -24    2    1    2    0    0  0.39115689304E+01  0.11115668972E+03 -0.30885666689E+03  0.33787691630E+03  0.79982872186E+02 0.  0.
         23    2    1    2    0    0  0.13626474552E+03 -0.37823627951E+03 -0.19867173015E+03  0.45701852609E+03  0.88117607867E+02 0.  0.
         13    1    3    3    0    0  0.12070800605E+02  0.33369246639E+02 -0.20399629187E+03  0.20705964828E+03  0.00000000000E+00 0. -1.
        -14    1    3    3    0    0 -0.81592316747E+01  0.77787443078E+02 -0.10486037502E+03  0.13081726802E+03  0.00000000000E+00 0.  1.
        -11    1    4    4    0    0  0.42244526604E+02 -0.22119109934E+03 -0.80485440113E+02  0.23914014411E+03  0.00000000000E+00 0. -1.
         11    1    4    4    0    0  0.94020218916E+02 -0.15704518017E+03 -0.11818629004E+03  0.21787838198E+03  0.00000000000E+00 0.  1.
          2    1    1    2  501    0 -0.14017631445E+03  0.26707958979E+03 -0.47567732037E+03  0.56324934046E+03  0.00000000000E+00 0. -1.
<scales pt_clust_5="13000.00000" pt_clust_6="13000.00000" pt_clust_7="13000.00000" pt_clust_8="13000.00000" pt_clust_9="362.43630"></scales>
<clustering>
<clus scale="   79.983">  5  6 -1 -1</clus>
<clus scale="   88.118">  7  8 -1 -1</clus>
<clus scale="  136.998">  2  5  1 -1</clus>
<clus scale="  362.436">  1  9  2 -1</clus>
<clus scale="  362.436">  1  5  2 -1</clus>
</clustering>
</event>
<event>
 9    1  0.6675710E-005  0.1117180E+03  0.7546771E-02  0.1262870E+00
          1   -1    0    0  502    0 -0.00000000000E+00  0.00000000000E+00  0.20111856020E+03  0.20111856020E+03  0.00000000000E+00 0. -1.
         21   -1    0    0  501  502  0.00000000000E+00 -0.00000000000E+00 -0.90322674755E+02  0.90322674755E+02  0.00000000000E+00 0. -1.
        -24    2    1    2    0    0 -0.22891504746E+02  0.51666667105E+02  0.11034414909E+03  0.14721981588E+03  0.79400110013E+02 0.  0.
         23    2    1    2    0    0  0.36879765024E+02 -0.68878335891E+02 -0.31235417195E+01  0.12175598827E+03  0.93329641288E+02 0.  0.
         13    1    3    3    0    0 -0.41825459757E+02  0.58897553896E+02  0.63502455865E+02  0.96181353908E+02  0.00000000000E+00 0. -1.
        -14    1    3    3    0    0  0.18933955011E+02 -0.72308867913E+01  0.46841693228E+02  0.51038461973E+02  0.00000000000E+00 0.  1.
        -11    1    4    4    0    0  0.27725463480E+01 -0.77293338884E+02 -0.23888182462E+02  0.80948085279E+02  0.00000000000E+00 0. -1.
         11    1    4    4    0    0  0.34107218676E+02  0.84150029932E+01  0.20764640742E+02  0.40807902989E+02  0.00000000000E+00 0.  1.
          2    1    1    2  501    0 -0.13988260278E+02  0.17211668786E+02  0.35752780741E+01  0.22465430806E+02  0.00000000000E+00 0. -1.
<scales pt_clust_5="13000.00000" pt_clust_6="13000.00000" pt_clust_7="13000.00000" pt_clust_8="13000.00000" pt_clust_9="22.17911"></scales>
<clustering>
<clus scale="   22.179">  2  9  1 -1</clus>
<clus scale="   79.400">  5  6 -1 -1</clus>
<clus scale="   93.330">  7  8 -1 -1</clus>
<clus scale="  100.374">  1  5  2 -1</clus>
<clus scale="   22.179">  2  5  1 -1</clus>
</clustering>
</event>
<event>
 9    1  0.6675710E-005  0.1745981E+03  0.7546771E-02  0.1188723E+00
         -2   -1    0    0    0  501 -0.00000000000E+00  0.00000000000E+00  0.67119524556E+02  0.67119524556E+02  0.00000000000E+00 0.  1.
         21   -1    0    0  501  502  0.00000000000E+00 -0.00000000000E+00 -0.10361149652E+04  0.10361149652E+04  0.00000000000E+00 0. -1.
         23    2    1    2    0    0 -0.58334989579E+02  0.67762455264E+02 -0.56876724349E+03  0.58192731731E+03  0.84548826219E+02 0.  0.
        -24    2    1    2    0    0  0.61474420061E+02  0.10756108270E+03 -0.19072315939E+03  0.24810292682E+03  0.99152649660E+02 0.  0.
         13    1    4    4    0    0  0.26184232948E+02  0.10625310668E+03 -0.18094020919E+03  0.21145849720E+03  0.00000000000E+00 0. -1.
        -14    1    4    4    0    0  0.35290187113E+02  0.13079760137E+01 -0.97829502038E+01  0.36644429623E+02  0.00000000000E+00 0.  1.
        -13    1    3    3    0    0 -0.86538737603E+01  0.72519723726E+02 -0.35014027533E+03  0.35767612762E+03  0.00000000000E+00 0.  1.
         13    1    3    3    0    0 -0.49681115819E+02 -0.47572684617E+01 -0.21862696815E+03  0.22425118969E+03  0.00000000000E+00 0. -1.
         -1    1    1    2    0  502 -0.31394304817E+01 -0.17532353796E+03 -0.20950503781E+03  0.27320424567E+03  0.00000000000E+00 0.  1.
<scales pt_clust_5="13000.00000" pt_clust_6="13000.00000" pt_clust_7="13000.00000" pt_clust_8="13000.00000" pt_clust_9="143.71240"></scales>
<clustering>
<clus scale="   84.549">  7  8 -1 -1</clus>
<clus scale="   99.153">  5  6 -1 -1</clus>
<clus scale="  123.058">  1  7  2 -1</clus>
<clus scale="  143.712">  2  9  1 -1</clus>
<clus scale="  143.712">  2  5  1 -1</clus>
</clustering>
</event>
<event>
 9    1  0.6675710E-005  0.1228759E+03  0.7546771E-02  0.1243186E+00
         21   -1    0    0  501  502  0.00000000000E+00  0.00000000000E+00  0.12125195883E+03  0.12125195883E+03  0.00000000000E+00 0. -1.
         -2   -1    0    0    0  501 -0.00000000000E+00 -0.00000000000E+00 -0.19248700405E+03  0.19248700405E+03  0.00000000000E+00 0.  1.
         23    2    1    2    0    0 -0.69485165205E+02  0.36178977896E+02 -0.10704717214E+03  0.16231377967E+03  0.93539079434E+02 0.  0.
        -24    2    1    2    0    0  0.86288116167E+02 -0.11151270090E+02  0.26553407833E+02  0.11989029462E+03  0.78093594227E+02 0.  0.
         13    1    4    4    0    0  0.85407169740E+02 -0.30603420496E+02  0.36779516324E+02  0.97896306417E+02  0.00000000000E+00 0. -1.
        -14    1    4    4    0    0  0.88094642700E+00  0.19452150406E+02 -0.10226108491E+02  0.21993988199E+02  0.00000000000E+00 0.  1.
        -11    1    3    3    0    0 -0.86060761821E+02  0.10084407512E+02 -0.96396454019E+02  0.12961645863E+03  0.00000000000E+00 0.  1.
         11    1    3    3    0    0  0.16575596616E+02  0.26094570384E+02 -0.10650718126E+02  0.32697321041E+02  0.00000000000E+00 0. -1.
         -1    1    1    2    0  502 -0.16802950962E+02 -0.25027707805E+02  0.92587190901E+01  0.31534888587E+02  0.00000000000E+00 0.  1.
<scales pt_clust_5="13000.00000" pt_clust_6="13000.00000" pt_clust_7="13000.00000" pt_clust_8="13000.00000" pt_clust_9="30.14507"></scales>
<clustering>
<clus scale="   30.145">  1  9  2 -1</clus>
<clus scale="   78.094">  5  6 -1 -1</clus>
<clus scale="   93.539">  7  8 -1 -1</clus>
<clus scale="  111.569">  1  5  2 -1</clus>
<clus scale="   30.145">  1  5  2 -1</clus>
</clustering>
</event>
<event>
 9    1  0.6675710E-005  0.1443301E+03  0.7546771E-02  0.1218606E+00
         21   -1    0    0  501  502  0.00000000000E+00  0.00000000000E+00  0.99653130685E+02  0.99653130685E+02  0.00000000000E+00 0. -1.
          1   -1    0    0  502    0 -0.00000000000E+00 -0.00000000000E+00 -0.51005938026E+03  0.51005938026E+03  0.00000000000E+00 0. -1.
        -24    2    1    2    0    0 -0.80824870124E+02 -0.66692018788E+01 -0.34823708670E+03  0.36677945122E+03  0.81737135988E+02 0.  0.
         23    2    1    2    0    0  0.65367118522E+02  0.32631661443E+02  0.31803466442E+02  0.14422213605E+03  0.12021180698E+03 0.  0.
         13    1    3    3    0    0 -0.55583137983E+02  0.29822199625E+02 -0.26555722761E+03  0.27294594694E+03  0.00000000000E+00 0. -1.
        -14    1    3    3    0    0 -0.25241732141E+02 -0.36491401504E+02 -0.82679859094E+02  0.93833504278E+02  0.00000000000E+00 0.  1.
        -11    1    4    4    0    0  0.78707228416E+02  0.76326506744E+01 -0.23148260951E+02  0.82394946121E+02  0.00000000000E+00 0.  1.
         11    1    4    4    0    0 -0.13340109894E+02  0.24999010769E+02  0.54951727394E+02  0.61827189932E+02  0.00000000000E+00 0. -1.
          2    1    1    2  501    0  0.15457751602E+02 -0.25962459564E+02 -0.93972629313E+02  0.98710923667E+02  0.00000000000E+00 0. -1.
<scales pt_clust_5="13000.00000" pt_clust_6="13000.00000" pt_clust_7="13000.00000" pt_clust_8="13000.00000" pt_clust_9="30.21576"></scales>
<clustering>
<clus scale="   30.216">  1  9  2 -1</clus>
<clus scale="   81.737">  5  6 -1 -1</clus>
<clus scale="  114.286">  2  5  1 -1</clus>
<clus scale="  120.212">  7  8 -1 -1</clus>
<clus scale="   30.216">  1  5  2 -1</clus>
</clustering>
</event>
<event>
 9    1  0.6675710E-005  0.1176380E+03  0.7546771E-02  0.1250858E+00
          1   -1    0    0  502    0 -0.00000000000E+00  0.00000000000E+00  0.47700315994E+03  0.47700315994E+03  0.00000000000E+00 0. -1.
         21   -1    0    0  501  502  0.00000000000E+00 -0.00000000000E+00 -0.43980204433E+02  0.43980204433E+02  0.00000000000E+00 0.  1.
         23    2    1    2    0    0 -0.75194446205E+02 -0.59416960847E+02  0.28391886519E+03  0.31333308909E+03  0.91559394547E+02 0.  0.
        -24    2    1    2    0    0  0.37921165292E+02  0.32224629745E+02  0.12170364773E+03  0.15398925969E+03  0.80152808364E+02 0.  0.
         11    1    4    4    0    0  0.62286382419E+01 -0.20963904939E+02  0.69962831163E+02  0.73301289135E+02  0.00000000000E+00 0. -1.
        -12    1    4    4    0    0  0.31692527050E+02  0.53188534683E+02  0.51740816568E+02  0.80687970551E+02  0.00000000000E+00 0.  1.
        -13    1    3    3    0    0 -0.66222320138E+02 -0.79681873307E+02  0.18572836600E+03  0.21267257123E+03  0.00000000000E+00 0. -1.
         13    1    3    3    0    0 -0.89721260665E+01  0.20264912460E+02  0.98190499198E+02  0.10066051786E+03  0.00000000000E+00 0.  1.
          2    1    1    2  501    0  0.37273280913E+02  0.27192331102E+02  0.27400442578E+02  0.53661015591E+02  0.00000000000E+00 0. -1.
<scales pt_clust_5="13000.00000" pt_clust_6="13000.00000" pt_clust_7="13000.00000" pt_clust_8="13000.00000" pt_clust_9="46.13806"></scales>
<clustering>
<clus scale="   46.138">  2  9  1 -1</clus>
<clus scale="   80.153">  5  6 -1 -1</clus>
<clus scale="   91.559">  7  8 -1 -1</clus>
<clus scale="  108.996">  2  5  1 -1</clus>
<clus scale="   46.138">  2  5  1 -1</clus>
</clustering>
</event>
<event>
 9    1  0.6675710E-005  0.9674018E+02  0.7546771E-02  0.1292489E+00
         -4   -1    0    0    0  501 -0.00000000000E+00  0.00000000000E+00  0.42163753196E+03  0.42163753196E+03  0.00000000000E+00 0.  1.
         21   -1    0    0  501  502  0.00000000000E+00 -0.00000000000E+00 -0.56054597039E+02  0.56054597039E+02  0.00000000000E+00 0. -1.
        -24    2    1    2    0    0 -0.26527828400E+02  0.21995007686E+02  0.34180165146E+03  0.35300135334E+03  0.81203943712E+02 0.  0.
         23    2    1    2    0    0  0.33764814991E+02  0.19249245763E+01  0.23438616159E+02  0.99697685514E+02  0.90810196032E+02 0.  0.
         13    1    3    3    0    0  0.27442757036E+02  0.19829632574E+02  0.11688626579E+03  0.12169107762E+03  0.00000000000E+00 0. -1.
        -14    1    3    3    0    0 -0.53970585436E+02  0.21653751120E+01  0.22491538566E+03  0.23131027571E+03  0.00000000000E+00 0.  1.
        -13    1    4    4    0    0  0.18466674341E+02 -0.43170861610E+02  0.22503077034E+02  0.52068510920E+02  0.00000000000E+00 0.  1.
         13    1    4    4    0    0  0.15298140650E+02  0.45095786186E+02  0.93553912493E+00  0.47629174595E+02  0.00000000000E+00 0. -1.
         -3    1    1    2    0  502 -0.72369865910E+01 -0.23919932262E+02  0.34266730312E+00  0.24993090150E+02  0.00000000000E+00 0.  1.
<scales pt_clust_5="13000.00000" pt_clust_6="13000.00000" pt_clust_7="13000.00000" pt_clust_8="13000.00000" pt_clust_9="24.99074"></scales>
<clustering>
<clus scale="   24.991">  2  9  1 -1</clus>
<clus scale="   81.204">  5  6 -1 -1</clus>
<clus scale="   87.785">  1  5  2 -1</clus>
<clus scale="   90.810">  7  8 -1 -1</clus>
<clus scale="   24.991">  2  5  1 -1</clus>
</clustering>
</event>
<event>
 9    1  0.6675710E-005  0.1238970E+03  0.7546771E-02  0.1242972E+00
         21   -1    0    0  501  502  0.00000000000E+00  0.00000000000E+00  0.41283082560E+02  0.41283082560E+02  0.00000000000E+00 0.  1.
         -2   -1    0    0    0  501 -0.00000000000E+00 -0.00000000000E+00 -0.69277202512E+03  0.69277202512E+03  0.00000000000E+00 0.  1.
         23    2    1    2    0    0  0.60245094639E+02  0.16086131785E+02 -0.31752758474E+03  0.33619749272E+03  0.91196227853E+02 0.  0.
        -24    2    1    2    0    0 -0.36428029450E+02 -0.55888408936E+02 -0.10695497368E+03  0.16616089013E+03  0.10825691400E+03 0.  0.
         13    1    4    4    0    0 -0.25379491038E+02  0.28988771572E+02 -0.50931870871E+02  0.63863314297E+02  0.00000000000E+00 0. -1.
        -14    1    4    4    0    0 -0.11048538412E+02 -0.84877180508E+02 -0.56023102811E+02  0.10229757583E+03  0.00000000000E+00 0.  1.
        -11    1    3    3    0    0  0.80290813409E+02 -0.51737431008E+01 -0.24974005396E+03  0.26238040492E+03  0.00000000000E+00 0.  1.
         11    1    3    3    0    0 -0.20045718771E+02  0.21259874885E+02 -0.67787530785E+02  0.73817087799E+02  0.00000000000E+00 0. -1.
         -1    1    1    2    0  502 -0.23817065189E+02  0.39802277152E+02 -0.22700638414E+03  0.23169672484E+03  0.00000000000E+00 0.  1.
<scales pt_clust_5="13000.00000" pt_clust_6="13000.00000" pt_clust_7="13000.00000" pt_clust_8="13000.00000" pt_clust_9="46.38401"></scales>
<clustering>
<clus scale="   46.384">  1  9  2 -1</clus>
<clus scale="   91.196">  7  8 -1 -1</clus>
<clus scale="  108.257">  5  6 -1 -1</clus>
<clus scale="  109.305">  2  7  1 -1</clus>
<clus scale="   46.384">  1  5  2 -1</clus>
</clustering>
</event>
<event>
 9    1  0.6675710E-005  0.1268242E+03  0.7546771E-02  0.1251426E+00
         21   -1    0    0  501  502  0.00000000000E+00  0.00000000000E+00  0.42249922299E+02  0.42249922299E+02  0.00000000000E+00 0. -1.
         -2   -1    0    0    0  501 -0.00000000000E+00 -0.00000000000E+00 -0.67205119196E+03  0.67205119196E+03  0.00000000000E+00 0.  1.
        -24    2    1    2    0    0 -0.99123028662E+01  0.21892070334E+02 -0.14121087450E+03  0.16534073122E+03  0.82580444606E+02 0.  0.
         23    2    1    2    0    0 -0.76355904129E+02 -0.17538824157E+02 -0.42315813699E+03  0.44059740643E+03  0.94474500286E+02 0.  0.
         13    1    3    3    0    0  0.21549065567E+02 -0.22724695043E+02 -0.55258894143E+02  0.63516292189E+02  0.00000000000E+00 0. -1.
        -14    1    3    3    0    0 -0.31461368433E+02  0.44616765377E+02 -0.85951980356E+02  0.10182443903E+03  0.00000000000E+00 0.  1.
        -13    1    4    4    0    0 -0.72956925479E+02  0.24490374938E+02 -0.32064318075E+03  0.32974920895E+03  0.00000000000E+00 0. -1.
         13    1    4    4    0    0 -0.33989786498E+01 -0.42029199095E+02 -0.10251495624E+03  0.11084819749E+03  0.00000000000E+00 0.  1.
         -1    1    1    2    0  502  0.86268206995E+02 -0.43532461770E+01 -0.65432258173E+02  0.10836297661E+03  0.00000000000E+00 0.  1.
<scales pt_clust_5="13000.00000" pt_clust_6="13000.00000" pt_clust_7="13000.00000" pt_clust_8="13000.00000" pt_clust_9="84.61063"></scales>
<clustering>
<clus scale="   82.580">  5  6 -1 -1</clus>
<clus scale="   86.006">  2  5  1 -1</clus>
<clus scale="   84.611">  1  9  2 -1</clus>
<clus scale="   94.475">  7  8 -1 -1</clus>
<clus scale="   84.611">  1  5  2 -1</clus>
</clustering>
</event>
<event>
 9    1  0.6675710E-005  0.1431854E+03  0.7546771E-02  0.1218008E+00
         21   -1    0    0  501  502  0.00000000000E+00  0.00000000000E+00  0.18764157031E+03  0.18764157031E+03  0.00000000000E+00 0. -1.
          3   -1    0    0  502    0 -0.00000000000E+00 -0.00000000000E+00 -0.20444892639E+03  0.20444892639E+03  0.00000000000E+00 0. -1.
        -24    2    1    2    0    0  0.76394585794E+02  0.64658210629E+02 -0.65444893260E+02  0.14459225015E+03  0.81283871765E+02 0.  0.
         23    2    1    2    0    0 -0.61874869541E+02  0.12179814197E+02  0.90473091357E+02  0.15881274710E+03  0.11427712381E+03 0.  0.
         11    1    3    3    0    0  0.78667692365E+02  0.18293371856E+02 -0.29890627031E+02  0.86120281353E+02  0.00000000000E+00 0. -1.
        -12    1    3    3    0    0 -0.22731065709E+01  0.46364838773E+02 -0.35554266228E+02  0.58471968797E+02  0.00000000000E+00 0.  1.
        -13    1    4    4    0    0 -0.78865545217E+02  0.42905612218E+02  0.84316711149E+02  0.12316644657E+03  0.00000000000E+00 0. -1.
         13    1    4    4    0    0  0.16990675676E+02 -0.30725798020E+02  0.61563802086E+01  0.35646300526E+02  0.00000000000E+00 0.  1.
          4    1    1    2  501    0 -0.14519716254E+02 -0.76838024827E+02 -0.41835554183E+02  0.88685499453E+02  0.00000000000E+00 0. -1.
<scales pt_clust_5="13000.00000" pt_clust_6="13000.00000" pt_clust_7="13000.00000" pt_clust_8="13000.00000" pt_clust_9="78.19789"></scales>
<clustering>
<clus scale="   78.198">  1  9  2 -1</clus>
<clus scale="   81.284">  5  6 -1 -1</clus>
<clus scale="  114.277">  7  8 -1 -1</clus>
<clus scale="  118.532">  2  5  1 -1</clus>
<clus scale="   78.198">  1  5  2 -1</clus>
</clustering>
</event>
<event>
 9    1  0.6675710E-005  0.3198109E+03  0.7546771E-02  0.1123881E+00
         -2   -1    0    0    0  501 -0.00000000000E+00  0.00000000000E+00  0.19578998195E+03  0.19578998195E+03  0.00000000000E+00 0.  1.
         21   -1    0    0  501  502  0.00000000000E+00 -0.00000000000E+00 -0.68428059216E+03  0.68428059216E+03  0.00000000000E+00 0.  1.
        -24    2    1    2    0    0 -0.43590154528E+02  0.13756993596E+01 -0.12147960755E+03  0.15214642307E+03  0.80555849460E+02 0.  0.
         23    2    1    2    0    0 -0.17682110515E+03  0.22992367677E+03 -0.13691464795E+03  0.33419218987E+03  0.93852003602E+02 0.  0.
         11    1    3    3    0    0 -0.59275218134E+02 -0.69045456512E+01 -0.48081895362E+02  0.76636107006E+02  0.00000000000E+00 0. -1.
        -12    1    3    3    0    0  0.15685063606E+02  0.82802450108E+01 -0.73397712189E+02  0.75510316066E+02  0.00000000000E+00 0.  1.
        -11    1    4    4    0    0 -0.81895869920E+02  0.15283690100E+03 -0.39468955439E+02  0.17783095979E+03  0.00000000000E+00 0.  1.
         11    1    4    4    0    0 -0.94925235229E+02  0.77086775773E+02 -0.97445692515E+02  0.15636123008E+03  0.00000000000E+00 0. -1.
         -1    1    1    2    0  502  0.22041125968E+03 -0.23129937613E+03 -0.23009635471E+03  0.39373196116E+03  0.00000000000E+00 0.  1.
<scales pt_clust_5="13000.00000" pt_clust_6="13000.00000" pt_clust_7="13000.00000" pt_clust_8="13000.00000" pt_clust_9="305.72992"></scales>
<clustering>
<clus scale="   80.556">  5  6 -1 -1</clus>
<clus scale="   91.604">  1  5  2 -1</clus>
<clus scale="   93.852">  7  8 -1 -1</clus>
<clus scale="  305.730">  2  9  1 -1</clus>
<clus scale="  305.730">  2  5  1 -1</clus>
</clustering>
</event>
<event>
 9    1  0.6675710E-005  0.1784107E+03  0.7546771E-02  0.1201092E+00
         21   -1    0    0  501  502  0.00000000000E+00  0.00000000000E+00  0.36763680425E+03  0.36763680425E+03  0.00000000000E+00 0.  1.
         -4   -1    0    0    0  501 -0.00000000000E+00 -0.00000000000E+00 -0.19020066819E+03  0.19020066819E+03  0.00000000000E+00 0.  1.
        -24    2    1    2    0    0 -0.24080479373E+02  0.21973153665E+02  0.12683031708E+03  0.15434459319E+03  0.81692319993E+02 0.  0.
         23    2    1    2    0    0  0.13046259365E+03 -0.13162948488E+03 -0.65082451559E+02  0.21185404928E+03  0.79370038857E+02 0.  0.
         13    1    3    3    0    0  0.76910227583E+01 -0.26782794247E+02  0.27056768441E+02  0.38839910109E+02  0.00000000000E+00 0. -1.
        -14    1    3    3    0    0 -0.31771502131E+02  0.48755947912E+02  0.99773548640E+02  0.11550468308E+03  0.00000000000E+00 0.  1.
        -13    1    4    4    0    0  0.80968772363E+02 -0.26170724161E+02 -0.25965424169E+02  0.88966578856E+02  0.00000000000E+00 0. -1.
         13    1    4    4    0    0  0.49493821282E+02 -0.10545876071E+03 -0.39117027390E+02  0.12288747043E+03  0.00000000000E+00 0.  1.
         -3    1    1    2    0  502 -0.10638211427E+03  0.10965633121E+03  0.11568827054E+03  0.19163882997E+03  0.00000000000E+00 0.  1.
<scales pt_clust_5="13000.00000" pt_clust_6="13000.00000" pt_clust_7="13000.00000" pt_clust_8="13000.00000" pt_clust_9="159.78351"></scales>
<clustering>
<clus scale="   79.370">  7  8 -1 -1</clus>
<clus scale="   81.692">  5  6 -1 -1</clus>
<clus scale="   87.956">  2  5  1 -1</clus>
<clus scale="  159.784">  1  9  2 -1</clus>
<clus scale="  159.784">  1  5  2 -1</clus>
</clustering>
</event>
<event>
 9    1  0.6675710E-005  0.9866276E+02  0.7546771E-02  0.1288070E+00
         21   -1    0    0  501  502  0.00000000000E+00  0.00000000000E+00  0.67271341155E+02  0.67271341155E+02  0.00000000000E+00 0. -1.
         -2   -1    0    0    0  501 -0.00000000000E+00 -0.00000000000E+00 -0.21807809047E+03  0.21807809047E+03  0.00000000000E+00 0.  1.
        -24    2    1    2    0    0  0.46370939566E+02 -0.41281907765E+01 -0.13043770279E+03  0.15998674950E+03  0.80090322202E+02 0.  0.
         23    2    1    2    0    0 -0.22020860373E+02  0.64446206205E+01  0.12511855479E+01  0.92717213242E+02  0.89824633256E+02 0.  0.
         13    1    3    3    0    0 -0.14182107824E+02 -0.22387816644E+02 -0.21959082134E+02  0.34417260272E+02  0.00000000000E+00 0. -1.
        -14    1    3    3    0    0  0.60553047390E+02  0.18259625868E+02 -0.10847862066E+03  0.12556948923E+03  0.00000000000E+00 0.  1.
        -11    1    4    4    0    0 -0.46100249792E+02 -0.23617448788E+02  0.11072240975E+02  0.52968022790E+02  0.00000000000E+00 0. -1.
         11    1    4    4    0    0  0.24079389419E+02  0.30062069408E+02 -0.98210554266E+01  0.39749190452E+02  0.00000000000E+00 0.  1.
         -1    1    1    2    0  502 -0.24350079193E+02 -0.23164298440E+01 -0.21620232072E+02  0.32645468886E+02  0.00000000000E+00 0.  1.
<scales pt_clust_5="13000.00000" pt_clust_6="13000.00000" pt_clust_7="13000.00000" pt_clust_8="13000.00000" pt_clust_9="24.46002"></scales>
<clustering>
<clus scale="   24.460">  1  9  2 -1</clus>
<clus scale="   80.090">  5  6 -1 -1</clus>
<clus scale="   89.825">  7  8 -1 -1</clus>
<clus scale="   89.891">  2  5  1 -1</clus>
<clus scale="   24.460">  1  5  2 -1</clus>
</clustering>
</event>
<event>
 9    1  0.6675710E-005  0.9213957E+02  0.7546771E-02  0.1309591E+00
          1   -1    0    0  502    0 -0.00000000000E+00  0.00000000000E+00  0.22842222452E+03  0.22842222452E+03  0.00000000000E+00 0. -1.
         21   -1    0    0  501  502  0.00000000000E+00 -0.00000000000E+00 -0.76575142498E+02  0.76575142498E+02  0.00000000000E+00 0.  1.
        -24    2    1    2    0    0 -0.25087964831E+02  0.18823271872E+02  0.44781305466E+02  0.90107643529E+02  0.71626116464E+02 0.  0.
         23    2    1    2    0    0  0.17075390352E+01  0.17964002385E+02 -0.76073158842E+01  0.92211828220E+02  0.90108428782E+02 0.  0.
         13    1    3    3    0    0 -0.26113605433E+02  0.39254051972E+02  0.77185269855E+01  0.47774225726E+02  0.00000000000E+00 0. -1.
        -14    1    3    3    0    0  0.10256406015E+01 -0.20430780100E+02  0.37062778481E+02  0.42333417803E+02  0.00000000000E+00 0.  1.
        -11    1    4    4    0    0 -0.44130248964E+02  0.93622860661E+01 -0.11325778535E+01  0.45126644087E+02  0.00000000000E+00 0. -1.
         11    1    4    4    0    0  0.45837787999E+02  0.86017163190E+01 -0.64747380307E+01  0.47085184133E+02  0.00000000000E+00 0.  1.
          2    1    1    2  501    0  0.23380425796E+02 -0.36787274257E+02  0.11467309244E+03  0.12267789527E+03  0.00000000000E+00 0. -1.
<scales pt_clust_5="13000.00000" pt_clust_6="13000.00000" pt_clust_7="13000.00000" pt_clust_8="13000.00000" pt_clust_9="43.58841"></scales>
<clustering>
<clus scale="   43.588">  2  9  1 -1</clus>
<clus scale="   71.626">  5  6 -1 -1</clus>
<clus scale="   74.165">  1  5  2 -1</clus>
<clus scale="   90.108">  7  8 -1 -1</clus>
<clus scale="   43.588">  2  5  1 -1</clus>
</clustering>
</event>
<event>
 9    1  0.6675710E-005  0.1681115E+03  0.7546771E-02  0.1180671E+00
         21   -1    0    0  501  502  0.00000000000E+00  0.00000000000E+00  0.59868778791E+02  0.59868778791E+02  0.00000000000E+00 0. -1.
          1   -1    0    0  502    0 -0.00000000000E+00 -0.00000000000E+00 -0.65068776016E+03  0.65068776016E+03  0.00000000000E+00 0. -1.
         23    2    1    2    0    0  0.12134050303E+03 -0.58669882310E+02 -0.29531565606E+03  0.33615688067E+03  0.87318033314E+02 0.  0.
        -24    2    1    2    0    0 -0.13945914311E+03  0.79137919143E+02 -0.17497649101E+03  0.25081186181E+03  0.81105824550E+02 0.  0.
         11    1    4    4    0    0 -0.11232271175E+03  0.94072471160E+02 -0.12804588573E+03  0.19458101207E+03  0.00000000000E+00 0. -1.
        -12    1    4    4    0    0 -0.27136431356E+02 -0.14934552018E+02 -0.46930605276E+02  0.56230849738E+02  0.00000000000E+00 0.  1.
        -13    1    3    3    0    0  0.58983048003E+02  0.10302248483E+02 -0.16911339490E+03  0.17940032500E+03  0.00000000000E+00 0.  1.
         13    1    3    3    0    0  0.62357455029E+02 -0.68972130794E+02 -0.12620226116E+03  0.15675655567E+03  0.00000000000E+00 0. -1.
          2    1    1    2  501    0  0.18118640077E+02 -0.20468036833E+02 -0.12052683431E+03  0.12358779648E+03  0.00000000000E+00 0. -1.
<scales pt_clust_5="13000.00000" pt_clust_6="13000.00000" pt_clust_7="13000.00000" pt_clust_8="13000.00000" pt_clust_9="27.33544"></scales>
<clustering>
<clus scale="   27.335">  1  9  2 -1</clus>
<clus scale="   81.106">  5  6 -1 -1</clus>
<clus scale="   87.318">  7  8 -1 -1</clus>
<clus scale="  164.970">  1  5  2 -1</clus>
<clus scale="   27.335">  1  5  2 -1</clus>
</clustering>
</event>
<event>
 9    1  0.6675710E-005  0.1561654E+03  0.7546771E-02  0.1194766E+00
         21   -1    0    0  501  502  0.00000000000E+00  0.00000000000E+00  0.44788055827E+03  0.44788055827E+03  0.00000000000E+00 0. -1.
         -2   -1    0    0    0  501 -0.00000000000E+00 -0.00000000000E+00 -0.77687180405E+02  0.77687180405E+02  0.00000000000E+00 0.  1.
         23    2    1    2    0    0  0.28499486805E+02 -0.11205747981E+03  0.13698620076E+03  0.20097022460E+03  0.90855448094E+02 0.  0.
        -24    2    1    2    0    0 -0.41415772063E+02  0.13908750055E+03  0.24186874431E+03  0.29341297957E+03  0.80808960661E+02 0.  0.
         11    1    4    4    0    0 -0.60309985681E+02  0.11031848994E+03  0.21755716684E+03  0.25127392312E+03  0.00000000000E+00 0. -1.
        -12    1    4    4    0    0  0.18894213618E+02  0.28769010613E+02  0.24311577466E+02  0.42139056454E+02  0.00000000000E+00 0.  1.
        -11    1    3    3    0    0  0.46069641858E+02 -0.33783499101E+02  0.93891434106E+02  0.10990604219E+03  0.00000000000E+00 0. -1.
         11    1    3    3    0    0 -0.17570155053E+02 -0.78273980708E+02  0.43094766655E+02  0.91064182407E+02  0.00000000000E+00 0.  1.
         -1    1    1    2    0  502  0.12916285258E+02 -0.27030020741E+02 -0.86615671975E+01  0.31184534507E+02  0.00000000000E+00 0.  1.
<scales pt_clust_5="13000.00000" pt_clust_6="13000.00000" pt_clust_7="13000.00000" pt_clust_8="13000.00000" pt_clust_9="29.95753"></scales>
<clustering>
<clus scale="   29.958">  1  9  2 -1</clus>
<clus scale="   80.809">  5  6 -1 -1</clus>
<clus scale="   90.855">  7  8 -1 -1</clus>
<clus scale="  150.542">  1  5  2 -1</clus>
<clus scale="   29.958">  1  5  2 -1</clus>
</clustering>
</event>
<event>
 9    1  0.6675710E-005  0.1299246E+03  0.7546771E-02  0.1231538E+00
         21   -1    0    0  501  502  0.00000000000E+00  0.00000000000E+00  0.13860105572E+03  0.13860105572E+03  0.00000000000E+00 0.  1.
          1   -1    0    0  502    0 -0.00000000000E+00 -0.00000000000E+00 -0.29625453632E+03  0.29625453632E+03  0.00000000000E+00 0. -1.
        -24    2    1    2    0    0  0.67195311738E+02  0.68202184178E+02 -0.23711123073E+03  0.26657197083E+03  0.75313558195E+02 0.  0.
         23    2    1    2    0    0 -0.64739726345E+02 -0.39277387057E+02  0.71804736589E+02  0.13826292161E+03  0.90701543502E+02 0.  0.
         13    1    3    3    0    0  0.64604379776E+02  0.53807270489E+02 -0.23749766025E+03  0.25194064156E+03  0.00000000000E+00 0. -1.
        -14    1    3    3    0    0  0.25909319622E+01  0.14394913689E+02  0.38642952045E+00  0.14631329274E+02  0.00000000000E+00 0.  1.
        -13    1    4    4    0    0 -0.54863030329E+02  0.55505997557E+00 -0.78970348499E+00  0.54871521030E+02  0.00000000000E+00 0. -1.
         13    1    4    4    0    0 -0.98766960159E+01 -0.39832447033E+02  0.72594440074E+02  0.83391400579E+02  0.00000000000E+00 0.  1.
          2    1    1    2  501    0 -0.24555853930E+01 -0.28924797120E+02  0.76530135517E+01  0.30020699600E+02  0.00000000000E+00 0. -1.
<scales pt_clust_5="13000.00000" pt_clust_6="13000.00000" pt_clust_7="13000.00000" pt_clust_8="13000.00000" pt_clust_9="29.02884"></scales>
<clustering>
<clus scale="   29.029">  1  9  2 -1</clus>
<clus scale="   75.314">  5  6 -1 -1</clus>
<clus scale="   90.702">  7  8 -1 -1</clus>
<clus scale="  119.690">  2  5  1 -1</clus>
<clus scale="   29.029">  1  5  2 -1</clus>
</clustering>
</event>
<event>
 9    1  0.6675710E-005  0.1187995E+03  0.7546771E-02  0.1248853E+00
         21   -1    0    0  501  502  0.00000000000E+00  0.00000000000E+00  0.98781838346E+02  0.98781838346E+02  0.00000000000E+00 0. -1.
          1   -1    0    0  502    0 -0.00000000000E+00 -0.00000000000E+00 -0.27543195522E+03  0.27543195522E+03  0.00000000000E+00 0. -1.
         23    2    1    2    0    0  0.28788313736E+01  0.68482459357E+02 -0.80297149951E+02  0.13956860636E+03  0.91288710588E+02 0.  0.
        -24    2    1    2    0    0  0.36452324862E+02 -0.90473665554E+02  0.25100764074E+01  0.12599688148E+03  0.79716105728E+02 0.  0.
         11    1    4    4    0    0  0.30375751114E+02 -0.51422741484E+02 -0.36883977172E+02  0.70195529555E+02  0.00000000000E+00 0. -1.
        -12    1    4    4    0    0  0.60765737479E+01 -0.39050924070E+02  0.39394053579E+02  0.55801351925E+02  0.00000000000E+00 0.  1.
        -11    1    3    3    0    0 -0.91276588493E+01  0.43904529715E+02  0.93787964419E+01  0.45813575590E+02  0.00000000000E+00 0.  1.
         11    1    3    3    0    0  0.12006490223E+02  0.24577929642E+02 -0.89675946393E+02  0.93755030769E+02  0.00000000000E+00 0. -1.
          2    1    1    2  501    0 -0.39331156236E+02  0.21991206197E+02 -0.98863043327E+02  0.10864830572E+03  0.00000000000E+00 0. -1.
<scales pt_clust_5="13000.00000" pt_clust_6="13000.00000" pt_clust_7="13000.00000" pt_clust_8="13000.00000" pt_clust_9="45.06168"></scales>
<clustering>
<clus scale="   45.062">  1  9  2 -1</clus>
<clus scale="   79.716">  5  6 -1 -1</clus>
<clus scale="   91.289">  7  8 -1 -1</clus>
<clus scale="  110.156">  1  5  2 -1</clus>
<clus scale="   45.062">  1  5  2 -1</clus>
</clustering>
</event>
<event>
 9    1  0.6675710E-005  0.9367908E+02  0.7546771E-02  0.1302538E+00
         -2   -1    0    0    0  501 -0.00000000000E+00  0.00000000000E+00  0.20682284556E+03  0.20682284556E+03  0.00000000000E+00 0.  1.
         21   -1    0    0  501  502  0.00000000000E+00 -0.00000000000E+00 -0.11046981290E+03  0.11046981290E+03  0.00000000000E+00 0. -1.
         23    2    1    2    0    0  0.56490014434E+00 -0.13436325003E+02  0.15017603264E+03  0.17706726094E+03  0.92839216785E+02 0.  0.
        -24    2    1    2    0    0 -0.36408240215E+02 -0.40292695962E+01 -0.24434151010E+02  0.90692615793E+02  0.79286366134E+02 0.  0.
         13    1    4    4    0    0 -0.29854345461E+02 -0.26010441607E+01 -0.53251673337E+02  0.61104730478E+02  0.00000000000E+00 0. -1.
        -14    1    4    4    0    0 -0.65538947544E+01 -0.14282254354E+01  0.28817522327E+02  0.29587885315E+02  0.00000000000E+00 0.  1.
        -13    1    3    3    0    0 -0.15655299929E+02  0.33059067948E+02  0.30394861232E+02  0.47558784454E+02  0.00000000000E+00 0. -1.
         13    1    3    3    0    0  0.16220200073E+02 -0.46495392951E+02  0.11978117141E+03  0.12950847648E+03  0.00000000000E+00 0.  1.
         -1    1    1    2    0  502  0.35843340071E+02  0.17465594599E+02 -0.29388848976E+02  0.49532781734E+02  0.00000000000E+00 0.  1.
<scales pt_clust_5="13000.00000" pt_clust_6="13000.00000" pt_clust_7="13000.00000" pt_clust_8="13000.00000" pt_clust_9="39.87220"></scales>
<clustering>
<clus scale="   39.872">  2  9  1 -1</clus>
<clus scale="   79.286">  5  6 -1 -1</clus>
<clus scale="   80.268">  2  5  1 -1</clus>
<clus scale="   92.839">  7  8 -1 -1</clus>
<clus scale="   39.872">  2  5  1 -1</clus>
</clustering>
</event>
<event>
 9    1  0.6675710E-005  0.1567300E+03  0.7546771E-02  0.1195518E+00
         21   -1    0    0  501  502  0.00000000000E+00  0.00000000000E+00  0.82035027787E+02  0.82035027787E+02  0.00000000000E+00 0. -1.
         -4   -1    0    0    0  501 -0.00000000000E+00 -0.00000000000E+00 -0.12097371723E+04  0.12097371723E+04  0.00000000000E+00 0.  1.
        -24    2    1    2    0    0  0.55595735284E+02  0.10389760513E+03 -0.92642110659E+03  0.93745049479E+03  0.81680874870E+02 0.  0.
         23    2    1    2    0    0 -0.12360993308E+03 -0.12259751971E+03 -0.83279487392E+02  0.21684449324E+03  0.98876154019E+02 0.  0.
         11    1    3    3    0    0  0.19384140835E+02  0.66672547273E+01 -0.39699365599E+02  0.44679266226E+02  0.00000000000E+00 0. -1.
        -12    1    3    3    0    0  0.36211594448E+02  0.97230350399E+02 -0.88672174099E+03  0.89277122857E+03  0.00000000000E+00 0.  1.
        -11    1    4    4    0    0 -0.27261572841E+02 -0.10959062293E+02 -0.60997056063E+02  0.67704765330E+02  0.00000000000E+00 0.  1.
         11    1    4    4    0    0 -0.96348360239E+02 -0.11163845742E+03 -0.22282431330E+02  0.14913972791E+03  0.00000000000E+00 0. -1.
         -3    1    1    2    0  502  0.68014197797E+02  0.18699914586E+02 -0.11800155057E+03  0.13747721209E+03  0.00000000000E+00 0.  1.
<scales pt_clust_5="13000.00000" pt_clust_6="13000.00000" pt_clust_7="13000.00000" pt_clust_8="13000.00000" pt_clust_9="70.53806"></scales>
<clustering>
<clus scale="   70.538">  1  9  2 -1</clus>
<clus scale="   81.681">  5  6 -1 -1</clus>
<clus scale="   98.876">  7  8 -1 -1</clus>
<clus scale="  146.491">  2  5  1 -1</clus>
<clus scale="   70.538">  1  5  2 -1</clus>
</clustering>
</event>
<event>
 9    1  0.6675710E-005  0.1898630E+03  0.7546771E-02  0.1163296E+00
          1   -1    0    0  502    0 -0.00000000000E+00  0.00000000000E+00  0.21595675168E+03  0.21595675168E+03  0.00000000000E+00 0. -1.
         21   -1    0    0  501  502  0.00000000000E+00 -0.00000000000E+00 -0.26477571071E+03  0.26477571071E+03  0.00000000000E+00 0.  1.
         23    2    1    2    0    0 -0.49123075209E+02  0.14862883520E+03  0.51116951563E+02  0.20178798254E+03  0.11662692652E+03 0.  0.
        -24    2    1    2    0    0  0.75168773954E+02 -0.12368009022E+03  0.72352909043E+01  0.16586714026E+03  0.80699748991E+02 0.  0.
         13    1    4    4    0    0 -0.28683973444E+01 -0.65023233135E+02 -0.12480529885E+02  0.66272257973E+02  0.00000000000E+00 0. -1.
        -14    1    4    4    0    0  0.78037171298E+02 -0.58656857087E+02  0.19715820789E+02  0.99594882283E+02  0.00000000000E+00 0.  1.
        -13    1    3    3    0    0 -0.24218205377E+02 -0.15740023282E+02  0.96008672329E+01  0.30437582956E+02  0.00000000000E+00 0. -1.
         13    1    3    3    0    0 -0.24904869832E+02  0.16436885848E+03  0.41516084330E+02  0.17135039958E+03  0.00000000000E+00 0.  1.
          2    1    1    2  501    0 -0.26045698745E+02 -0.24948744973E+02 -0.10717120150E+03  0.11307733960E+03  0.00000000000E+00 0. -1.
<scales pt_clust_5="13000.00000" pt_clust_6="13000.00000" pt_clust_7="13000.00000" pt_clust_8="13000.00000" pt_clust_9="36.06686"></scales>
<clustering>
<clus scale="   36.067">  2  9  1 -1</clus>
<clus scale="   80.700">  5  6 -1 -1</clus>
<clus scale="  116.627">  7  8 -1 -1</clus>
<clus scale="  170.172">  2  5  1 -1</clus>
<clus scale="   36.067">  2  5  1 -1</clus>
</clustering>
</event>
<event>
 9    1  0.6675710E-005  0.1285418E+03  0.7546771E-02  0.1240042E+00
          1   -1    0    0  502    0 -0.00000000000E+00  0.00000000000E+00  0.10937524866E+04  0.10937524866E+04  0.00000000000E+00 0. -1.
         21   -1    0    0  501  502  0.00000000000E+00 -0.00000000000E+00 -0.31718061185E+02  0.31718061185E+02  0.00000000000E+00 0. -1.
         23    2    1    2    0    0  0.37163184031E+02  0.40110001793E+02  0.23060731043E+03  0.25291804286E+03  0.88305663976E+02 0.  0.
        -24    2    1    2    0    0 -0.58080313901E+01  0.68453190408E+02  0.65376573154E+03  0.66199923502E+03  0.78190683159E+02 0.  0.
         13    1    4    4    0    0 -0.35405982823E+02  0.65071588930E+02  0.44656062655E+03  0.45266354889E+03  0.00000000000E+00 0. -1.
        -14    1    4    4    0    0  0.29597951433E+02  0.33816014779E+01  0.20720510498E+03  0.20933568613E+03  0.00000000000E+00 0.  1.
        -11    1    3    3    0    0 -0.13865186476E+02 -0.17738369690E+02  0.87440686896E+02  0.90292673458E+02  0.00000000000E+00 0.  1.
         11    1    3    3    0    0  0.51028370507E+02  0.57848371483E+02  0.14316662353E+03  0.16262536940E+03  0.00000000000E+00 0. -1.
          2    1    1    2  501    0 -0.31355152641E+02 -0.10856319220E+03  0.17766138347E+03  0.21055326992E+03  0.00000000000E+00 0. -1.
<scales pt_clust_5="13000.00000" pt_clust_6="13000.00000" pt_clust_7="13000.00000" pt_clust_8="13000.00000" pt_clust_9="102.02552"></scales>
<clustering>
<clus scale="   78.191">  5  6 -1 -1</clus>
<clus scale="   88.306">  7  8 -1 -1</clus>
<clus scale="  103.864">  1  7  2 -1</clus>
<clus scale="  102.026">  2  9  1 -1</clus>
<clus scale="  102.026">  2  5  1 -1</clus>
</clustering>
</event>
<event>
 9    1  0.6675710E-005  0.1924388E+03  0.7546771E-02  0.1186224E+00
         21   -1    0    0  501  502  0.00000000000E+00  0.00000000000E+00  0.11575645051E+04  0.11575645051E+04  0.00000000000E+00 0.  1.
         -4   -1    0    0    0  501 -0.00000000000E+00 -0.00000000000E+00 -0.62053732839E+02  0.62053732839E+02  0.00000000000E+00 0.  1.
        -24    2    1    2    0    0  0.39166811877E+02 -0.40596101387E+02  0.40923778880E+03  0.42061061439E+03  0.79092594824E+02 0.  0.
         23    2    1    2    0    0 -0.10102249526E+03 -0.13353310589E+03  0.50840885251E+03  0.54252613209E+03  0.88421760708E+02 0.  0.
         13    1    3    3    0    0  0.60845381804E+02 -0.43876477797E+02  0.30470472749E+03  0.31380292660E+03  0.00000000000E+00 0. -1.
        -14    1    3    3    0    0 -0.21678569927E+02  0.32803764101E+01  0.10453306131E+03  0.10680768779E+03  0.00000000000E+00 0.  1.
        -13    1    4    4    0    0 -0.24101972505E+02 -0.71414004405E+02  0.11980633613E+03  0.14154300859E+03  0.00000000000E+00 0.  1.
         13    1    4    4    0    0 -0.76920522757E+02 -0.62119101480E+02  0.38860251638E+03  0.40098312350E+03  0.00000000000E+00 0. -1.
         -3    1    1    2    0  502  0.61855683384E+02  0.17412920727E+03  0.17786413100E+03  0.25648149151E+03  0.00000000000E+00 0.  1.
<scales pt_clust_5="13000.00000" pt_clust_6="13000.00000" pt_clust_7="13000.00000" pt_clust_8="13000.00000" pt_clust_9="170.92200"></scales>
<clustering>
<clus scale="   79.093">  5  6 -1 -1</clus>
<clus scale="   88.422">  7  8 -1 -1</clus>
<clus scale="   97.148">  2  5  1 -1</clus>
<clus scale="  170.922">  1  9  2 -1</clus>
<clus scale="  170.922">  1  5  2 -1</clus>
</clustering>
</event>
<event>
 9    1  0.6675710E-005  0.1027926E+03  0.7546771E-02  0.1286311E+00
          3   -1    0    0  502    0 -0.00000000000E+00  0.00000000000E+00  0.29411188046E+02  0.29411188046E+02  0.00000000000E+00 0. -1.
         21   -1    0    0  501  502  0.00000000000E+00 -0.00000000000E+00 -0.38101318767E+03  0.38101318767E+03  0.00000000000E+00 0.  1.
        -24    2    1    2    0    0 -0.20029855243E+02  0.25835080610E+01 -0.12674693115E+03  0.15191027824E+03  0.81265481377E+02 0.  0.
         23    2    1    2    0    0 -0.42294107851E+00  0.25094381990E+01 -0.20729877343E+03  0.23108275638E+03  0.10207831635E+03 0.  0.
         11    1    3    3    0    0 -0.29468480616E+02  0.29051502503E+02 -0.29856967098E+02  0.51027635961E+02  0.00000000000E+00 0. -1.
        -12    1    3    3    0    0  0.94386253731E+01 -0.26467994442E+02 -0.96889964053E+02  0.10088264228E+03  0.00000000000E+00 0.  1.
        -11    1    4    4    0    0 -0.37834189259E+02  0.13103047955E+02 -0.17786601406E+03  0.18231685249E+03  0.00000000000E+00 0.  1.
         11    1    4    4    0    0  0.37411248181E+02 -0.10593609756E+02 -0.29432759373E+02  0.48765903892E+02  0.00000000000E+00 0. -1.
          4    1    1    2  501    0  0.20452796321E+02 -0.50929462600E+01 -0.17556295038E+02  0.27431341097E+02  0.00000000000E+00 0. -1.
<scales pt_clust_5="13000.00000" pt_clust_6="13000.00000" pt_clust_7="13000.00000" pt_clust_8="13000.00000" pt_clust_9="21.07737"></scales>
<clustering>
<clus scale="   21.077">  2  9  1 -1</clus>
<clus scale="   81.265">  5  6 -1 -1</clus>
<clus scale="   82.161">  1  5  2 -1</clus>
<clus scale="  102.078">  7  8 -1 -1</clus>
<clus scale="   21.077">  2  5  1 -1</clus>
</clustering>
</event>
<event>
 9    1  0.6675710E-005  0.9893685E+02  0.7546771E-02  0.1287447E+00
         -2   -1    0    0    0  501 -0.00000000000E+00  0.00000000000E+00  0.21077999618E+03  0.21077999618E+03  0.00000000000E+00 0.  1.
         21   -1    0    0  501  502  0.00000000000E+00 -0.00000000000E+00 -0.63488896406E+02  0.63488896406E+02  0.00000000000E+00 0.  1.
        -24    2    1    2    0    0  0.11074263441E+02  0.42141607574E+02  0.56003093784E+02  0.10846393503E+03  0.82033677777E+02 0.  0.
         23    2    1    2    0    0  0.86481177066E+01 -0.31039487374E+02  0.31769899655E+02  0.10212894659E+03  0.91557389055E+02 0.  0.
         11    1    3    3    0    0  0.25022257762E+02  0.11327451489E+02 -0.13917722185E+02  0.30791679583E+02  0.00000000000E+00 0. -1.
        -12    1    3    3    0    0 -0.13947994321E+02  0.30814156086E+02  0.69920815968E+02  0.77672255449E+02  0.00000000000E+00 0.  1.
        -11    1    4    4    0    0  0.45592393802E+02 -0.23463547827E+02 -0.22693266645E+01  0.51325961196E+02  0.00000000000E+00 0.  1.
         11    1    4    4    0    0 -0.36944276095E+02 -0.75759395468E+01  0.34039226319E+02  0.50802985391E+02  0.00000000000E+00 0. -1.
         -1    1    1    2    0  502 -0.19722381147E+02 -0.11102120201E+02  0.59518106337E+02  0.63676010970E+02  0.00000000000E+00 0.  1.
<scales pt_clust_5="13000.00000" pt_clust_6="13000.00000" pt_clust_7="13000.00000" pt_clust_8="13000.00000" pt_clust_9="22.63250"></scales>
<clustering>
<clus scale="   22.632">  2  9  1 -1</clus>
<clus scale="   82.034">  5  6 -1 -1</clus>
<clus scale="   90.196">  1  5  2 -1</clus>
<clus scale="   91.557">  7  8 -1 -1</clus>
<clus scale="   22.632">  2  5  1 -1</clus>
</clustering>
</event>
<event>
 9    1  0.6675710E-005  0.1003496E+03  0.7546771E-02  0.1286967E+00
         21   -1    0    0  501  502  0.00000000000E+00  0.00000000000E+00  0.20356892649E+03  0.20356892649E+03  0.00000000000E+00 0.  1.
          1   -1    0    0  502    0 -0.00000000000E+00 -0.00000000000E+00 -0.87669955664E+03  0.87669955664E+03  0.00000000000E+00 0. -1.
        -24    2    1    2    0    0 -0.14484393323E+02  0.35259020555E+02 -0.78419313136E+03  0.78893970237E+03  0.77549922811E+02 0.  0.
         23    2    1    2    0    0 -0.14640220114E+02 -0.88005067016E+02 -0.35366083541E+02  0.13298826491E+03  0.92064601627E+02 0.  0.
         11    1    3    3    0    0  0.22241594593E+02  0.32026958363E+02 -0.21172369901E+03  0.21528432204E+03  0.00000000000E+00 0. -1.
        -12    1    3    3    0    0 -0.36725987917E+02  0.32320621915E+01 -0.57246943235E+03  0.57365538034E+03  0.00000000000E+00 0.  1.
        -13    1    4    4    0    0  0.36426566992E+02 -0.23348613401E+02  0.15213352194E+00  0.43267489818E+02  0.00000000000E+00 0. -1.
         13    1    4    4    0    0 -0.51066787106E+02 -0.64656453615E+02 -0.35518217063E+02  0.89720775090E+02  0.00000000000E+00 0.  1.
          2    1    1    2  501    0  0.29124613438E+02  0.52746046461E+02  0.14642858475E+03  0.15834051584E+03  0.00000000000E+00 0. -1.
<scales pt_clust_5="13000.00000" pt_clust_6="13000.00000" pt_clust_7="13000.00000" pt_clust_8="13000.00000" pt_clust_9="60.25271"></scales>
<clustering>
<clus scale="   60.253">  1  9  2 -1</clus>
<clus scale="   77.550">  5  6 -1 -1</clus>
<clus scale="   87.225">  2  5  1 -1</clus>
<clus scale="   92.065">  7  8 -1 -1</clus>
<clus scale="   60.253">  1  5  2 -1</clus>
</clustering>
</event>
<event>
 9    1  0.6675710E-005  0.1989478E+03  0.7546771E-02  0.1179573E+00
         21   -1    0    0  501  502  0.00000000000E+00  0.00000000000E+00  0.70856081316E+03  0.70856081316E+03  0.00000000000E+00 0. -1.
          1   -1    0    0  502    0 -0.00000000000E+00 -0.00000000000E+00 -0.14191075918E+03  0.14191075918E+03  0.00000000000E+00 0. -1.
        -24    2    1    2    0    0 -0.35131888795E+02  0.48327460379E+02  0.18063292115E+03  0.20745373952E+03  0.82698299862E+02 0.  0.
         23    2    1    2    0    0  0.18015571954E+03  0.25395852609E+02  0.42905832649E+03  0.47473360089E+03  0.90442864099E+02 0.  0.
         13    1    3    3    0    0 -0.29177015133E+02  0.57782364934E+02  0.66599135148E+02  0.92873810689E+02  0.00000000000E+00 0. -1.
        -14    1    3    3    0    0 -0.59548736612E+01 -0.94549045550E+01  0.11403378601E+03  0.11457992883E+03  0.00000000000E+00 0.  1.
        -11    1    4    4    0    0  0.68135154632E+01  0.28229680321E+02  0.77264337522E+02  0.82541605852E+02  0.00000000000E+00 0.  1.
         11    1    4    4    0    0  0.17334220408E+03 -0.28338277119E+01  0.35179398897E+03  0.39219199504E+03  0.00000000000E+00 0. -1.
          2    1    1    2  501    0 -0.14502383075E+03 -0.73723312988E+02 -0.43041193667E+02  0.16828423193E+03  0.00000000000E+00 0. -1.
<scales pt_clust_5="13000.00000" pt_clust_6="13000.00000" pt_clust_7="13000.00000" pt_clust_8="13000.00000" pt_clust_9="177.20146"></scales>
<clustering>
<clus scale="   82.698">  5  6 -1 -1</clus>
<clus scale="   90.443">  7  8 -1 -1</clus>
<clus scale="  102.024">  2  5  1 -1</clus>
<clus scale="  177.201">  1  9  2 -1</clus>
<clus scale="  177.201">  1  5  2 -1</clus>
</clustering>
</event>
<event>
 9    1  0.6675710E-005  0.3022920E+03  0.7546771E-02  0.1084564E+00
          1   -1    0    0  502    0 -0.00000000000E+00  0.00000000000E+00  0.16360159683E+04  0.16360159683E+04  0.00000000000E+00 0. -1.
         21   -1    0    0  501  502  0.00000000000E+00 -0.00000000000E+00 -0.12382880881E+03  0.12382880881E+03  0.00000000000E+00 0. -1.
        -24    2    1    2    0    0 -0.27809785810E+03  0.34258687593E+02  0.86014923804E+03  0.90813535693E+03  0.79630637725E+02 0.  0.
         23    2    1    2    0    0  0.30039343326E+03 -0.13194441109E+03  0.21435718699E+03  0.40270605875E+03  0.92615461846E+02 0.  0.
         11    1    3    3    0    0 -0.77897973915E+02  0.82584372984E+01  0.36693823386E+03  0.37520656124E+03  0.00000000000E+00 0. -1.
        -12    1    3    3    0    0 -0.20019988419E+03  0.26000250294E+02  0.49321100418E+03  0.53292879570E+03  0.00000000000E+00 0.  1.
        -11    1    4    4    0    0  0.55074489001E+02 -0.47708970174E+02  0.12259706551E+02  0.73889414523E+02  0.00000000000E+00 0. -1.
         11    1    4    4    0    0  0.24531894426E+03 -0.84235440919E+02  0.20209748044E+03  0.32881664423E+03  0.00000000000E+00 0.  1.
          2    1    1    2  501    0 -0.22295575160E+02  0.97685723500E+02  0.43768073450E+03  0.44900336146E+03  0.00000000000E+00 0. -1.
<scales pt_clust_5="13000.00000" pt_clust_6="13000.00000" pt_clust_7="13000.00000" pt_clust_8="13000.00000" pt_clust_9="100.19782"></scales>
<clustering>
<clus scale="   79.631">  5  6 -1 -1</clus>
<clus scale="   92.615">  7  8 -1 -1</clus>
<clus scale="  100.198">  2  9  1 -1</clus>
<clus scale="  298.570">  1  5  2 -1</clus>
<clus scale="  100.198">  2  5  1 -1</clus>
</clustering>
</event>
<event>
 9    1  0.6675710E-005  0.1495124E+03  0.7546771E-02  0.1212957E+00
          1   -1    0    0  502    0 -0.00000000000E+00  0.00000000000E+00  0.19900695884E+03  0.19900695884E+03  0.00000000000E+00 0. -1.
         21   -1    0    0  501  502  0.00000000000E+00 -0.00000000000E+00 -0.23631029231E+03  0.23631029231E+03  0.00000000000E+00 0.  1.
        -24    2    1    2    0    0 -0.86547647590E+02  0.57064156721E+02  0.43884572523E+02  0.13894824953E+03  0.81449045762E+02 0.  0.
         23    2    1    2    0    0  0.49639072749E+02  0.54195776194E+02 -0.10225873244E+03  0.17726822372E+03  0.12476359678E+03 0.  0.
         11    1    3    3    0    0 -0.65523380269E+02  0.74317533436E+02  0.50137445913E+02  0.11104131042E+03  0.00000000000E+00 0. -1.
        -12    1    3    3    0    0 -0.21024267321E+02 -0.17253376716E+02 -0.62528733897E+01  0.27906939103E+02  0.00000000000E+00 0.  1.
        -11    1    4    4    0    0  0.28348197841E+02  0.59190409614E+02 -0.12778642236E+03  0.14365407983E+03  0.00000000000E+00 0.  1.
         11    1    4    4    0    0  0.21290874908E+02 -0.49946334193E+01  0.25527689920E+02  0.33614143898E+02  0.00000000000E+00 0. -1.
          2    1    1    2  501    0  0.36908574841E+02 -0.11125993291E+03  0.21070826452E+02  0.11910077790E+03  0.00000000000E+00 0. -1.
<scales pt_clust_5="13000.00000" pt_clust_6="13000.00000" pt_clust_7="13000.00000" pt_clust_8="13000.00000" pt_clust_9="117.22214"></scales>
<clustering>
<clus scale="   81.449">  5  6 -1 -1</clus>
<clus scale="  117.222">  2  9  1 -1</clus>
<clus scale="  115.853">  1  5  2 -1</clus>
<clus scale="  124.764">  7  8 -1 -1</clus>
<clus scale="  117.222">  2  5  1 -1</clus>
</clustering>
</event>
<event>
 9    1  0.6675710E-005  0.2211908E+03  0.7546771E-02  0.1157227E+00
          1   -1    0    0  502    0 -0.00000000000E+00  0.00000000000E+00  0.35768938056E+03  0.35768938056E+03  0.00000000000E+00 0. -1.
         21   -1    0    0  501  502  0.00000000000E+00 -0.00000000000E+00 -0.10303363696E+04  0.10303363696E+04  0.00000000000E+00 0. -1.
         23    2    1    2    0    0 -0.20356827550E+02  0.81195150881E+02  0.62334164197E+02  0.13873980646E+03  0.91411886082E+02 0.  0.
        -24    2    1    2    0    0 -0.17805971466E+03 -0.13434427038E+03  0.18847134571E+03  0.30326349633E+03  0.81814760817E+02 0.  0.
         13    1    4    4    0    0 -0.18330412700E+03 -0.12570696212E+03  0.16232042139E+03  0.27522820077E+03  0.00000000000E+00 0. -1.
        -14    1    4    4    0    0  0.52444123358E+01 -0.86373082590E+01  0.26150924316E+02  0.28035295563E+02  0.00000000000E+00 0.  1.
        -13    1    3    3    0    0 -0.33932895517E+02  0.14622411577E+02  0.60356183974E+02  0.70768109077E+02  0.00000000000E+00 0.  1.
         13    1    3    3    0    0  0.13576067966E+02  0.66572739304E+02  0.19779802226E+01  0.67971697387E+02  0.00000000000E+00 0. -1.
          2    1    1    2  501    0  0.19841654221E+03  0.53149119498E+02 -0.92345249895E+03  0.94602244737E+03  0.00000000000E+00 0. -1.
<scales pt_clust_5="13000.00000" pt_clust_6="13000.00000" pt_clust_7="13000.00000" pt_clust_8="13000.00000" pt_clust_9="205.50353"></scales>
<clustering>
<clus scale="   81.815">  5  6 -1 -1</clus>
<clus scale="   91.412">  7  8 -1 -1</clus>
<clus scale="  123.948">  1  7  2 -1</clus>
<clus scale="  205.504">  2  9  1 -1</clus>
<clus scale="  205.504">  2  5  1 -1</clus>
</clustering>
</event>
<event>
 9    1  0.6675710E-005  0.1394778E+03  0.7546771E-02  0.1216791E+00
         21   -1    0    0  501  502  0.00000000000E+00  0.00000000000E+00  0.67109013323E+02  0.67109013323E+02  0.00000000000E+00 0.  1.
          1   -1    0    0  502    0 -0.00000000000E+00 -0.00000000000E+00 -0.52785345169E+03  0.52785345169E+03  0.00000000000E+00 0. -1.
         23    2    1    2    0    0 -0.26862526242E+02  0.98486115664E+02 -0.35117011446E+03  0.37707412080E+03  0.91887610667E+02 0.  0.
        -24    2    1    2    0    0  0.55045333736E+02 -0.99788958370E+02 -0.12401617666E+03  0.18619394174E+03  0.79374724497E+02 0.  0.
         11    1    4    4    0    0  0.38154969618E+02 -0.10194513576E+03 -0.12867525451E+03  0.16854059907E+03  0.00000000000E+00 0. -1.
        -12    1    4    4    0    0  0.16890364119E+02  0.21561773932E+01  0.46590778488E+01  0.17653342670E+02  0.00000000000E+00 0.  1.
        -11    1    3    3    0    0 -0.96178692251E+01  0.36586623881E+02 -0.26701097634E+02  0.46303704714E+02  0.00000000000E+00 0.  1.
         11    1    3    3    0    0 -0.17244657017E+02  0.61899491783E+02 -0.32446901682E+03  0.33077041609E+03  0.00000000000E+00 0. -1.
          2    1    1    2  501    0 -0.28182807495E+02  0.13028427062E+01  0.14441852749E+02  0.31694402475E+02  0.00000000000E+00 0. -1.
<scales pt_clust_5="13000.00000" pt_clust_6="13000.00000" pt_clust_7="13000.00000" pt_clust_8="13000.00000" pt_clust_9="28.21291"></scales>
<clustering>
<clus scale="   28.213">  1  9  2 -1</clus>
<clus scale="   79.375">  5  6 -1 -1</clus>
<clus scale="   91.888">  7  8 -1 -1</clus>
<clus scale="  131.571">  1  5  2 -1</clus>
<clus scale="   28.213">  1  5  2 -1</clus>
</clustering>
</event>
<event>
 9    1  0.6675710E-005  0.1504008E+03  0.7546771E-02  0.1201803E+00
          1   -1    0    0  502    0 -0.00000000000E+00  0.00000000000E+00  0.14611191874E+04  0.14611191874E+04  0.00000000000E+00 0. -1.
         21   -1    0    0  501  502  0.00000000000E+00 -0.00000000000E+00 -0.32182010752E+02  0.32182010752E+02  0.00000000000E+00 0. -1.
        -24    2    1    2    0    0  0.95794514836E+02 -0.88033656424E+02  0.74812206892E+03  0.76364698363E+03  0.80892347360E+02 0.  0.
         23    2    1    2    0    0 -0.59348604694E+01  0.12086478610E+03  0.28786854215E+03  0.32522913622E+03  0.90896503793E+02 0.  0.
         11    1    3    3    0    0  0.94984036872E+02 -0.38285259727E+02  0.46015051070E+03  0.47140876198E+03  0.00000000000E+00 0. -1.
        -12    1    3    3    0    0  0.81047796389E+00 -0.49748396698E+02  0.28797155822E+03  0.29223822165E+03  0.00000000000E+00 0.  1.
        -13    1    4    4    0    0 -0.41242813513E+02  0.68356604325E+02  0.10623057047E+03  0.13288539846E+03  0.00000000000E+00 0. -1.
         13    1    4    4    0    0  0.35307953044E+02  0.52508181778E+02  0.18163797168E+03  0.19234373777E+03  0.00000000000E+00 0.  1.
          2    1    1    2  501    0 -0.89859654367E+02 -0.32831129679E+02  0.39294656561E+03  0.40442507833E+03  0.00000000000E+00 0. -1.
<scales pt_clust_5="13000.00000" pt_clust_6="13000.00000" pt_clust_7="13000.00000" pt_clust_8="13000.00000" pt_clust_9="95.66948"></scales>
<clustering>
<clus scale="   80.892">  5  6 -1 -1</clus>
<clus scale="   90.897">  7  8 -1 -1</clus>
<clus scale="   95.669">  2  9  1 -1</clus>
<clus scale="  144.575">  1  5  2 -1</clus>
<clus scale="   95.669">  2  5  1 -1</clus>
</clustering>
</event>
<event>
 9    1  0.6675710E-005  0.9333922E+02  0.7546771E-02  0.1298196E+00
         21   -1    0    0  501  502  0.00000000000E+00  0.00000000000E+00  0.10301998501E+03  0.10301998501E+03  0.00000000000E+00 0.  1.
          1   -1    0    0  502    0 -0.00000000000E+00 -0.00000000000E+00 -0.14698716192E+03  0.14698716192E+03  0.00000000000E+00 0. -1.
        -24    2    1    2    0    0 -0.30345283233E+02  0.17568636474E+02 -0.61421315914E+02  0.11049908932E+03  0.84899808539E+02 0.  0.
         23    2    1    2    0    0  0.79917174322E+01  0.13372092404E+02 -0.10149195032E+02  0.92402276045E+02  0.90512397249E+02 0.  0.
         11    1    3    3    0    0 -0.38756027485E+02  0.20929806372E+02 -0.79155832438E+02  0.90585497019E+02  0.00000000000E+00 0. -1.
        -12    1    3    3    0    0  0.84107442522E+01 -0.33611698981E+01  0.17734516525E+02  0.19913592301E+02  0.00000000000E+00 0.  1.
        -13    1    4    4    0    0  0.46829370189E+02  0.13760695360E+02 -0.19321276248E+02  0.52494365078E+02  0.00000000000E+00 0. -1.
         13    1    4    4    0    0 -0.38837652757E+02 -0.38860295605E+00  0.91720812167E+01  0.39907910967E+02  0.00000000000E+00 0.  1.
          2    1    1    2  501    0  0.22353565800E+02 -0.30940728878E+02  0.27603334034E+02  0.47105781570E+02  0.00000000000E+00 0. -1.
<scales pt_clust_5="13000.00000" pt_clust_6="13000.00000" pt_clust_7="13000.00000" pt_clust_8="13000.00000" pt_clust_9="38.17081"></scales>
<clustering>
<clus scale="   38.171">  1  9  2 -1</clus>
<clus scale="   84.900">  5  6 -1 -1</clus>
<clus scale="   87.907">  2  5  1 -1</clus>
<clus scale="   90.512">  7  8 -1 -1</clus>
<clus scale="   38.171">  1  5  2 -1</clus>
</clustering>
</event>
<event>
 9    1  0.6675710E-005  0.4090257E+03  0.7546771E-02  0.1092486E+00
         21   -1    0    0  501  502  0.00000000000E+00  0.00000000000E+00  0.52703187843E+03  0.52703187843E+03  0.00000000000E+00 0. -1.
          1   -1    0    0  502    0 -0.00000000000E+00 -0.00000000000E+00 -0.81208569066E+03  0.81208569066E+03  0.00000000000E+00 0. -1.
        -24    2    1    2    0    0 -0.10679634142E+02  0.53832124443E+02 -0.17231633350E+03  0.19808409741E+03  0.80823503069E+02 0.  0.
         23    2    1    2    0    0 -0.34405389485E+03 -0.22927886820E+03 -0.45193520324E+03  0.61981131866E+03  0.94756323515E+02 0.  0.
         13    1    3    3    0    0 -0.75619557788E+01  0.48399465638E+02 -0.18092409177E+03  0.18743857242E+03  0.00000000000E+00 0. -1.
        -14    1    3    3    0    0 -0.31176783631E+01  0.54326588048E+01  0.86077582629E+01  0.10645524993E+02  0.00000000000E+00 0.  1.
        -13    1    4    4    0    0 -0.32604287257E+03 -0.18286624930E+03 -0.40865615788E+03  0.55384463098E+03  0.00000000000E+00 0. -1.
         13    1    4    4    0    0 -0.18011022279E+02 -0.46412618899E+02 -0.43279045355E+02  0.65966687679E+02  0.00000000000E+00 0.  1.
          2    1    1    2  501    0  0.35473352899E+03  0.17544674376E+03  0.33919772451E+03  0.52122215302E+03  0.00000000000E+00 0. -1.
<scales pt_clust_5="13000.00000" pt_clust_6="13000.00000" pt_clust_7="13000.00000" pt_clust_8="13000.00000" pt_clust_9="397.89859"></scales>
<clustering>
<clus scale="   80.824">  5  6 -1 -1</clus>
<clus scale="   94.756">  7  8 -1 -1</clus>
<clus scale="   97.695">  2  5  1 -1</clus>
<clus scale="  397.899">  1  9  2 -1</clus>
<clus scale="  397.899">  1  5  2 -1</clus>
</clustering>
</event>
<event>
 9    1  0.6675710E-005  0.2449185E+03  0.7546771E-02  0.1116559E+00
          1   -1    0    0  502    0 -0.00000000000E+00  0.00000000000E+00  0.44175695914E+03  0.44175695914E+03  0.00000000000E+00 0. -1.
         21   -1    0    0  501  502  0.00000000000E+00 -0.00000000000E+00 -0.94004472674E+02  0.94004472674E+02  0.00000000000E+00 0. -1.
        -24    2    1    2    0    0 -0.11297853581E+03 -0.33886761186E+02  0.19030786431E+03  0.23706379945E+03  0.77908277166E+02 0.  0.
         23    2    1    2    0    0 -0.37130429485E+02 -0.63401872042E+01  0.70118700983E+02  0.12043735820E+03  0.90386161852E+02 0.  0.
         11    1    3    3    0    0 -0.11728140449E+03 -0.43807807224E+02  0.18821256348E+03  0.22604871348E+03  0.00000000000E+00 0. -1.
        -12    1    3    3    0    0  0.43028686762E+01  0.99210460384E+01  0.20953008312E+01  0.11015085969E+02  0.00000000000E+00 0.  1.
        -13    1    4    4    0    0 -0.16726584493E+02 -0.48102271828E+02  0.30490366079E+02  0.59357136112E+02  0.00000000000E+00 0.  1.
         13    1    4    4    0    0 -0.20403844993E+02  0.41762084624E+02  0.39628334904E+02  0.61080222085E+02  0.00000000000E+00 0. -1.
          2    1    1    2  501    0  0.15010896529E+03  0.40226948390E+02  0.87325921166E+02  0.17826027417E+03  0.00000000000E+00 0. -1.
<scales pt_clust_5="13000.00000" pt_clust_6="13000.00000" pt_clust_7="13000.00000" pt_clust_8="13000.00000" pt_clust_9="155.40563"></scales>
<clustering>
<clus scale="   77.908">  5  6 -1 -1</clus>
<clus scale="   90.386">  7  8 -1 -1</clus>
<clus scale="   94.119">  5  7 -1 -1</clus>
<clus scale="  155.406">  2  9  1 -1</clus>
<clus scale="  155.406">  2  5  1 -1</clus>
</clustering>
</event>
<event>
 9    1  0.6675710E-005  0.9210671E+02  0.7546771E-02  0.1303432E+00
          3   -1    0    0  502    0 -0.00000000000E+00  0.00000000000E+00  0.19886324879E+03  0.19886324879E+03  0.00000000000E+00 0. -1.
         21   -1    0    0  501  502  0.00000000000E+00 -0.00000000000E+00 -0.86833613221E+02  0.86833613221E+02  0.00000000000E+00 0.  1.
        -24    2    1    2    0    0 -0.98401608865E+01  0.13776735699E+02  0.90319324275E+02  0.12384960812E+03  0.83033233597E+02 0.  0.
         23    2    1    2    0    0 -0.26327332426E+02  0.30910597011E+02  0.66284152467E+00  0.10062600545E+03  0.92068236506E+02 0.  0.
         13    1    3    3    0    0  0.24410170677E+02 -0.11319547702E+02  0.34097215508E+01  0.27122219557E+02  0.00000000000E+00 0. -1.
        -14    1    3    3    0    0 -0.34250331563E+02  0.25096283401E+02  0.86909602724E+02  0.96727388564E+02  0.00000000000E+00 0.  1.
        -13    1    4    4    0    0  0.24043643007E+02  0.33924995003E+02  0.20556535788E+02  0.46385053827E+02  0.00000000000E+00 0. -1.
         13    1    4    4    0    0 -0.50370975433E+02 -0.30143979920E+01 -0.19893694263E+02  0.54240951621E+02  0.00000000000E+00 0.  1.
          4    1    1    2  501    0  0.36167493313E+02 -0.44687332710E+02  0.21047469771E+02  0.61221248444E+02  0.00000000000E+00 0. -1.
<scales pt_clust_5="13000.00000" pt_clust_6="13000.00000" pt_clust_7="13000.00000" pt_clust_8="13000.00000" pt_clust_9="57.48952"></scales>
<clustering>
<clus scale="   57.490">  2  9  1 -1</clus>
<clus scale="   83.033">  5  6 -1 -1</clus>
<clus scale="   83.076">  1  5  2 -1</clus>
<clus scale="   92.068">  7  8 -1 -1</clus>
<clus scale="   57.490">  2  5  1 -1</clus>
</clustering>
</event>
<event>
 9    1  0.6675710E-005  0.1129301E+03  0.7546771E-02  0.1260193E+00
         21   -1    0    0  501  502  0.00000000000E+00  0.00000000000E+00  0.11859868508E+03  0.11859868508E+03  0.00000000000E+00 0.  1.
          1   -1    0    0  502    0 -0.00000000000E+00 -0.00000000000E+00 -0.24838221875E+03  0.24838221875E+03  0.00000000000E+00 0. -1.
         23    2    1    2    0    0  0.39900052601E+02 -0.57283864552E+02 -0.20055252786E+03  0.23129549072E+03  0.91666963851E+02 0.  0.
        -24    2    1    2    0    0 -0.21822204531E+02  0.39916557582E+02  0.57752236599E+02  0.10743885721E+03  0.78346965654E+02 0.  0.
         13    1    4    4    0    0 -0.38761576532E+02 -0.81139272015E+01  0.23248209244E+02  0.45921398747E+02  0.00000000000E+00 0. -1.
        -14    1    4    4    0    0  0.16939372001E+02  0.48030484784E+02  0.34504027355E+02  0.61517458465E+02  0.00000000000E+00 0.  1.
        -11    1    3    3    0    0  0.47493951319E+01  0.23668390097E+02 -0.67007629872E+02  0.71223394366E+02  0.00000000000E+00 0.  1.
         11    1    3    3    0    0  0.35150657470E+02 -0.80952254649E+02 -0.13354489799E+03  0.16007209636E+03  0.00000000000E+00 0. -1.
          2    1    1    2  501    0 -0.18077848071E+02  0.17367306970E+02  0.13016757587E+02  0.28246555902E+02  0.00000000000E+00 0. -1.
<scales pt_clust_5="13000.00000" pt_clust_6="13000.00000" pt_clust_7="13000.00000" pt_clust_8="13000.00000" pt_clust_9="25.06854"></scales>
<clustering>
<clus scale="   25.069">  1  9  2 -1</clus>
<clus scale="   78.347">  5  6 -1 -1</clus>
<clus scale="   91.667">  7  8 -1 -1</clus>
<clus scale="  102.414">  1  5  2 -1</clus>
<clus scale="   25.069">  1  5  2 -1</clus>
</clustering>
</event>
<event>
 9    1  0.6675710E-005  0.1156712E+03  0.7546771E-02  0.1254684E+00
         21   -1    0    0  501  502  0.00000000000E+00  0.00000000000E+00  0.48231100735E+02  0.48231100735E+02  0.00000000000E+00 0.  1.
          1   -1    0    0  502    0 -0.00000000000E+00 -0.00000000000E+00 -0.42246634758E+03  0.42246634758E+03  0.00000000000E+00 0. -1.
         23    2    1    2    0    0 -0.62582069960E+02  0.58626042753E+02 -0.22827776861E+03  0.26049348792E+03  0.91611075957E+02 0.  0.
        -24    2    1    2    0    0  0.34934872252E+02 -0.27525659717E+02 -0.46065109235E+02  0.10199080615E+03  0.79385282068E+02 0.  0.
         13    1    4    4    0    0 -0.15833659067E+02  0.14956045448E+02 -0.79674009930E+00  0.21795018919E+02  0.00000000000E+00 0. -1.
        -14    1    4    4    0    0  0.50768531319E+02 -0.42481705165E+02 -0.45268369135E+02  0.80195787235E+02  0.00000000000E+00 0.  1.
        -13    1    3    3    0    0 -0.45357439046E+02  0.82497268868E+02 -0.19146346715E+03  0.21335734321E+03  0.00000000000E+00 0.  1.
         13    1    3    3    0    0 -0.17224630914E+02 -0.23871226115E+02 -0.36814301456E+02  0.47136144709E+02  0.00000000000E+00 0. -1.
          2    1    1    2  501    0  0.27647197708E+02 -0.31100383035E+02 -0.99892369002E+02  0.10821315424E+03  0.00000000000E+00 0. -1.
<scales pt_clust_5="13000.00000" pt_clust_6="13000.00000" pt_clust_7="13000.00000" pt_clust_8="13000.00000" pt_clust_9="41.61254"></scales>
<clustering>
<clus scale="   41.613">  1  9  2 -1</clus>
<clus scale="   79.385">  5  6 -1 -1</clus>
<clus scale="   91.611">  7  8 -1 -1</clus>
<clus scale="  106.251">  1  5  2 -1</clus>
<clus scale="   41.613">  1  5  2 -1</clus>
</clustering>
</event>
<event>
 9    1  0.6675710E-005  0.9818170E+02  0.7546771E-02  0.1290298E+00
          1   -1    0    0  502    0 -0.00000000000E+00  0.00000000000E+00  0.29041981962E+03  0.29041981962E+03  0.00000000000E+00 0. -1.
         21   -1    0    0  501  502  0.00000000000E+00 -0.00000000000E+00 -0.19335125797E+03  0.19335125797E+03  0.00000000000E+00 0. -1.
        -24    2    1    2    0    0 -0.35335688689E+02  0.16945146495E+02  0.21393227185E+03  0.23179543593E+03  0.80164570051E+02 0.  0.
         23    2    1    2    0    0  0.14020637218E+02 -0.15694819733E+02  0.33663681785E+02  0.99941466317E+02  0.91717760460E+02 0.  0.
         13    1    3    3    0    0 -0.47570346079E+02  0.31407633865E+02  0.20082805665E+03  0.20876131258E+03  0.00000000000E+00 0. -1.
        -14    1    3    3    0    0  0.12234657390E+02 -0.14462487370E+02  0.13104215200E+02  0.23034123347E+02  0.00000000000E+00 0.  1.
        -11    1    4    4    0    0 -0.29282092051E+02  0.14974055389E+02 -0.63328050292E+01  0.33492800259E+02  0.00000000000E+00 0. -1.
         11    1    4    4    0    0  0.43302729269E+02 -0.30668875122E+02  0.39996486814E+02  0.66448666058E+02  0.00000000000E+00 0.  1.
          2    1    1    2  501    0  0.21315051472E+02 -0.12503267620E+01 -0.15052739199E+03  0.15203417535E+03  0.00000000000E+00 0. -1.
<scales pt_clust_5="13000.00000" pt_clust_6="13000.00000" pt_clust_7="13000.00000" pt_clust_8="13000.00000" pt_clust_9="21.35169"></scales>
<clustering>
<clus scale="   21.352">  2  9  1 -1</clus>
<clus scale="   80.165">  5  6 -1 -1</clus>
<clus scale="   87.486">  1  5  2 -1</clus>
<clus scale="   91.718">  7  8 -1 -1</clus>
<clus scale="   21.352">  2  5  1 -1</clus>
</clustering>
</event>
<event>
 9    1  0.6675710E-005  0.1073287E+03  0.7546771E-02  0.1270248E+00
         21   -1    0    0  501  502  0.00000000000E+00  0.00000000000E+00  0.32580412133E+03  0.32580412133E+03  0.00000000000E+00 0. -1.
          1   -1    0    0  502    0 -0.00000000000E+00 -0.00000000000E+00 -0.21717728049E+03  0.21717728049E+03  0.00000000000E+00 0. -1.
        -24    2    1    2    0    0  0.20833554669E+02  0.50393976089E+02 -0.16577278498E+03  0.19234017350E+03  0.80873582066E+02 0.  0.
         23    2    1    2    0    0 -0.52380827223E+02 -0.43885148152E+02  0.51724821225E+02  0.12564864211E+03  0.91882897450E+02 0.  0.
         13    1    3    3    0    0  0.21235688284E+02  0.65173662952E+02 -0.16362137434E+03  0.17739930930E+03  0.00000000000E+00 0. -1.
        -14    1    3    3    0    0 -0.40213361534E+00 -0.14779686863E+02 -0.21514106361E+01  0.14940864197E+02  0.00000000000E+00 0.  1.
        -11    1    4    4    0    0 -0.66136970311E+02 -0.61282163148E+02  0.50711675843E+02  0.10344697400E+03  0.00000000000E+00 0.  1.
         11    1    4    4    0    0  0.13756143088E+02  0.17397014995E+02  0.10131453820E+01  0.22201668112E+02  0.00000000000E+00 0. -1.
          2    1    1    2  501    0  0.31547272555E+02 -0.65088279365E+01  0.22267480459E+03  0.22499258621E+03  0.00000000000E+00 0. -1.
<scales pt_clust_5="13000.00000" pt_clust_6="13000.00000" pt_clust_7="13000.00000" pt_clust_8="13000.00000" pt_clust_9="32.21173"></scales>
<clustering>
<clus scale="   32.212">  1  9  2 -1</clus>
<clus scale="   80.874">  5  6 -1 -1</clus>
<clus scale="   91.883">  7  8 -1 -1</clus>
<clus scale="   98.069">  2  5  1 -1</clus>
<clus scale="   32.212">  1  5  2 -1</clus>
</clustering>
</event>
<event>
 9    1  0.6675710E-005  0.1123015E+03  0.7546771E-02  0.1259548E+00
         21   -1    0    0  501  502  0.00000000000E+00  0.00000000000E+00  0.92795700323E+02  0.92795700323E+02  0.00000000000E+00 0.  1.
         -2   -1    0    0    0  501 -0.00000000000E+00 -0.00000000000E+00 -0.54917738493E+03  0.54917738493E+03  0.00000000000E+00 0.  1.
        -24    2    1    2    0    0  0.69398701513E+02  0.17278789366E+01 -0.40710226485E+03  0.42075137312E+03  0.80500301822E+02 0.  0.
         23    2    1    2    0    0 -0.60453272137E+02  0.48954447624E+02 -0.95447658490E+02  0.15208253945E+03  0.89262014537E+02 0.  0.
         13    1    3    3    0    0  0.16721707758E+02  0.20154816754E+02 -0.31222713963E+02  0.40751564583E+02  0.00000000000E+00 0. -1.
        -14    1    3    3    0    0  0.52676993755E+02 -0.18426937817E+02 -0.37587955089E+03  0.37999980853E+03  0.00000000000E+00 0.  1.
        -11    1    4    4    0    0  0.37887818992E+01  0.31337026425E+02 -0.76607318139E+02  0.82855568828E+02  0.00000000000E+00 0.  1.
         11    1    4    4    0    0 -0.64242054036E+02  0.17617421199E+02 -0.18840340351E+02  0.69226970619E+02  0.00000000000E+00 0. -1.
         -1    1    1    2    0  502 -0.89454293764E+01 -0.50682326561E+02  0.46168238735E+02  0.69139172690E+02  0.00000000000E+00 0.  1.
<scales pt_clust_5="13000.00000" pt_clust_6="13000.00000" pt_clust_7="13000.00000" pt_clust_8="13000.00000" pt_clust_9="51.46571"></scales>
<clustering>
<clus scale="   51.466">  1  9  2 -1</clus>
<clus scale="   80.500">  5  6 -1 -1</clus>
<clus scale="   89.262">  7  8 -1 -1</clus>
<clus scale="  105.471">  2  5  1 -1</clus>
<clus scale="   51.466">  1  5  2 -1</clus>
</clustering>
</event>
<event>
 9    1  0.6675710E-005  0.2171841E+03  0.7546771E-02  0.1136853E+00
          1   -1    0    0  502    0 -0.00000000000E+00  0.00000000000E+00  0.15099244978E+03  0.15099244978E+03  0.00000000000E+00 0. -1.
         21   -1    0    0  501  502  0.00000000000E+00 -0.00000000000E+00 -0.47590488892E+03  0.47590488892E+03  0.00000000000E+00 0. -1.
        -24    2    1    2    0    0  0.26189294601E+02 -0.18530908745E+03 -0.10708222127E+03  0.23072670612E+03  0.82115003256E+02 0.  0.
         23    2    1    2    0    0 -0.48696511034E+02  0.20736993252E+03 -0.25658706946E+03  0.34621716202E+03  0.93036336802E+02 0.  0.
         11    1    3    3    0    0  0.91874535007E+01 -0.13969290576E+03 -0.35960177685E+02  0.14453944652E+03  0.00000000000E+00 0. -1.
        -12    1    3    3    0    0  0.17001841100E+02 -0.45616181688E+02 -0.71122043582E+02  0.86187259591E+02  0.00000000000E+00 0.  1.
        -11    1    4    4    0    0 -0.74002639114E+02  0.17521410574E+03 -0.19608746271E+03  0.27317881777E+03  0.00000000000E+00 0. -1.
         11    1    4    4    0    0  0.25306128080E+02  0.32155826774E+02 -0.60499606751E+02  0.73038344252E+02  0.00000000000E+00 0.  1.
          2    1    1    2  501    0  0.22507216433E+02 -0.22060845068E+02  0.38756851581E+02  0.49953470562E+02  0.00000000000E+00 0. -1.
<scales pt_clust_5="13000.00000" pt_clust_6="13000.00000" pt_clust_7="13000.00000" pt_clust_8="13000.00000" pt_clust_9="31.51597"></scales>
<clustering>
<clus scale="   31.516">  2  9  1 -1</clus>
<clus scale="   82.115">  5  6 -1 -1</clus>
<clus scale="   93.036">  7  8 -1 -1</clus>
<clus scale="  212.735">  1  5  2 -1</clus>
<clus scale="   31.516">  2  5  1 -1</clus>
</clustering>
</event>
<event>
 9    1  0.6675710E-005  0.9204766E+02  0.7546771E-02  0.1309265E+00
         21   -1    0    0  501  502  0.00000000000E+00  0.00000000000E+00  0.88198082838E+02  0.88198082838E+02  0.00000000000E+00 0. -1.
          1   -1    0    0  502    0 -0.00000000000E+00 -0.00000000000E+00 -0.27895184224E+03  0.27895184224E+03  0.00000000000E+00 0. -1.
        -24    2    1    2    0    0  0.26552744752E+02 -0.12750072652E+01 -0.14550531840E+03  0.16543623912E+03  0.74099106833E+02 0.  0.
         23    2    1    2    0    0  0.20918730444E+02 -0.35935021331E+00 -0.94588877500E+02  0.13322506826E+03  0.91455675875E+02 0.  0.
         11    1    3    3    0    0  0.22459001019E+02  0.30574037174E+02 -0.11518874981E+03  0.12127500385E+03  0.00000000000E+00 0. -1.
        -12    1    3    3    0    0  0.40937437332E+01 -0.31849044440E+02 -0.30316568593E+02  0.44161235272E+02  0.00000000000E+00 0.  1.
        -11    1    4    4    0    0 -0.17801421959E+02 -0.15711109216E+02 -0.87886060992E+02  0.91036746939E+02  0.00000000000E+00 0.  1.
         11    1    4    4    0    0  0.38720152403E+02  0.15351759002E+02 -0.67028165073E+01  0.42188321319E+02  0.00000000000E+00 0. -1.
          2    1    1    2  501    0 -0.47471475196E+02  0.16343574786E+01  0.49340436494E+02  0.68488617704E+02  0.00000000000E+00 0. -1.
<scales pt_clust_5="13000.00000" pt_clust_6="13000.00000" pt_clust_7="13000.00000" pt_clust_8="13000.00000" pt_clust_9="47.49960"></scales>
<clustering>
<clus scale="   47.500">  1  9  2 -1</clus>
<clus scale="   74.099">  5  6 -1 -1</clus>
<clus scale="   74.829">  2  5  1 -1</clus>
<clus scale="   91.456">  7  8 -1 -1</clus>
<clus scale="   47.500">  1  5  2 -1</clus>
</clustering>
</event>
<event>
 9    1  0.6675710E-005  0.9543675E+02  0.7546771E-02  0.1299081E+00
          1   -1    0    0  502    0 -0.00000000000E+00  0.00000000000E+00  0.23788044405E+03  0.23788044405E+03  0.00000000000E+00 0. -1.
         21   -1    0    0  501  502  0.00000000000E+00 -0.00000000000E+00 -0.94108124602E+02  0.94108124602E+02  0.00000000000E+00 0.  1.
         23    2    1    2    0    0  0.11720850918E+02  0.94013984381E+01  0.18143787227E+03  0.20522942069E+03  0.94729345948E+02 0.  0.
        -24    2    1    2    0    0 -0.67396801248E+01  0.10189939729E+02  0.33171639180E+01  0.81062149524E+02  0.80067536175E+02 0.  0.
         13    1    4    4    0    0 -0.46347416765E+01 -0.31309445799E+02  0.18689879685E+02  0.36756956203E+02  0.00000000000E+00 0. -1.
        -14    1    4    4    0    0 -0.21049384482E+01  0.41499385529E+02 -0.15372715767E+02  0.44305193321E+02  0.00000000000E+00 0.  1.
        -13    1    3    3    0    0 -0.33973509892E+02  0.23746280227E+02  0.47799578334E+02  0.63268356134E+02  0.00000000000E+00 0.  1.
         13    1    3    3    0    0  0.45694360810E+02 -0.14344881789E+02  0.13363829394E+03  0.14196106456E+03  0.00000000000E+00 0. -1.
          2    1    1    2  501    0 -0.49811707930E+01 -0.19591338168E+02 -0.40982716747E+02  0.45696998431E+02  0.00000000000E+00 0. -1.
<scales pt_clust_5="13000.00000" pt_clust_6="13000.00000" pt_clust_7="13000.00000" pt_clust_8="13000.00000" pt_clust_9="20.21466"></scales>
<clustering>
<clus scale="   20.215">  2  9  1 -1</clus>
<clus scale="   80.068">  5  6 -1 -1</clus>
<clus scale="   80.903">  2  5  1 -1</clus>
<clus scale="   94.729">  7  8 -1 -1</clus>
<clus scale="   20.215">  2  5  1 -1</clus>
</clustering>
</event>
<event>
 9    1  0.6675710E-005  0.1217384E+03  0.7546771E-02  0.1244476E+00
         -2   -1    0    0    0  501 -0.00000000000E+00  0.00000000000E+00  0.13981474107E+03  0.13981474107E+03  0.00000000000E+00 0.  1.
         21   -1    0    0  501  502  0.00000000000E+00 -0.00000000000E+00 -0.46270706517E+03  0.46270706517E+03  0.00000000000E+00 0. -1.
        -24    2    1    2    0    0  0.75646237930E+02  0.10008408590E+02  0.98167602548E+02  0.14793934320E+03  0.80166386475E+02 0.  0.
         23    2    1    2    0    0 -0.96042949470E+02 -0.35331505190E+02 -0.33315325383E+03  0.36085483536E+03  0.93555108165E+02 0.  0.
         11    1    3    3    0    0  0.44146239293E+02  0.21432183408E+02  0.54772505273E+01  0.49378428516E+02  0.00000000000E+00 0. -1.
        -12    1    3    3    0    0  0.31499998636E+02 -0.11423774818E+02  0.92690352021E+02  0.98560914682E+02  0.00000000000E+00 0.  1.
        -11    1    4    4    0    0 -0.35418407223E+02  0.31572664547E+02 -0.95706466295E+02  0.10682239656E+03  0.00000000000E+00 0.  1.
         11    1    4    4    0    0 -0.60624542247E+02 -0.66904169737E+02 -0.23744678753E+03  0.25403243880E+03  0.00000000000E+00 0. -1.
         -1    1    1    2    0  502  0.20396711540E+02  0.25323096599E+02 -0.87906672819E+02  0.93727627673E+02  0.00000000000E+00 0.  1.
<scales pt_clust_5="13000.00000" pt_clust_6="13000.00000" pt_clust_7="13000.00000" pt_clust_8="13000.00000" pt_clust_9="32.51592"></scales>
<clustering>
<clus scale="   32.516">  2  9  1 -1</clus>
<clus scale="   80.166">  5  6 -1 -1</clus>
<clus scale="   93.555">  7  8 -1 -1</clus>
<clus scale="  111.778">  1  5  2 -1</clus>
<clus scale="   32.516">  2  5  1 -1</clus>
</clustering>
</event>
<event>
 9    1  0.6675710E-005  0.1412839E+03  0.7546771E-02  0.1213940E+00
         21   -1    0    0  501  502  0.00000000000E+00  0.00000000000E+00  0.79261515143E+02  0.79261515143E+02  0.00000000000E+00 0. -1.
         -2   -1    0    0    0  501 -0.00000000000E+00 -0.00000000000E+00 -0.63856137434E+03  0.63856137434E+03  0.00000000000E+00 0.  1.
        -24    2    1    2    0    0  0.10686360188E+03 -0.72679562285E+02 -0.22850868742E+03  0.27413556054E+03  0.78942619320E+02 0.  0.
         23    2    1    2    0    0  0.19011144325E+02  0.12613556674E+03 -0.20645846758E+03  0.25886141767E+03  0.90069583736E+02 0.  0.
         13    1    3    3    0    0  0.11654840008E+03 -0.62321056423E+02 -0.22237461389E+03  0.25868496775E+03  0.00000000000E+00 0. -1.
        -14    1    3    3    0    0 -0.96847981924E+01 -0.10358505862E+02 -0.61340735314E+01  0.15450592798E+02  0.00000000000E+00 0.  1.
        -13    1    4    4    0    0 -0.19710222986E+02  0.11956275946E+02 -0.83624558706E+02  0.86743946437E+02  0.00000000000E+00 0.  1.
         13    1    4    4    0    0  0.38721367311E+02  0.11417929080E+03 -0.12283390888E+03  0.17211747123E+03  0.00000000000E+00 0. -1.
         -1    1    1    2    0  502 -0.12587474621E+03 -0.53456004457E+02 -0.12433270418E+03  0.18482591127E+03  0.00000000000E+00 0.  1.
<scales pt_clust_5="13000.00000" pt_clust_6="13000.00000" pt_clust_7="13000.00000" pt_clust_8="13000.00000" pt_clust_9="136.75524"></scales>
<clustering>
<clus scale="   78.943">  5  6 -1 -1</clus>
<clus scale="   90.070">  7  8 -1 -1</clus>
<clus scale="  136.755">  1  9  2 -1</clus>
<clus scale="  134.464">  2  5  1 -1</clus>
<clus scale="  136.755">  1  5  2 -1</clus>
</clustering>
</event>
<event>
 9    1  0.6675710E-005  0.9921595E+02  0.7546771E-02  0.1287566E+00
          1   -1    0    0  502    0 -0.00000000000E+00  0.00000000000E+00  0.39247503351E+03  0.39247503351E+03  0.00000000000E+00 0. -1.
         21   -1    0    0  501  502  0.00000000000E+00 -0.00000000000E+00 -0.78600259101E+02  0.78600259101E+02  0.00000000000E+00 0. -1.
        -24    2    1    2    0    0 -0.36997095925E+01  0.50861601467E+02  0.28464832123E+03  0.30032118463E+03  0.81040463972E+02 0.  0.
         23    2    1    2    0    0  0.61253137079E+01  0.17185003030E+02  0.39873475888E+02  0.10183688929E+03  0.91913079289E+02 0.  0.
         13    1    3    3    0    0 -0.31743059817E+02  0.53672109576E+02  0.23599540136E+03  0.24409454450E+03  0.00000000000E+00 0. -1.
        -14    1    3    3    0    0  0.28043350224E+02 -0.28105081096E+01  0.48652919874E+02  0.56226640126E+02  0.00000000000E+00 0.  1.
        -11    1    4    4    0    0 -0.22167990510E+02 -0.24705429461E+02 -0.58156706386E+01  0.33698665746E+02  0.00000000000E+00 0.  1.
         11    1    4    4    0    0  0.28293304218E+02  0.41890432491E+02  0.45689146527E+02  0.68138223547E+02  0.00000000000E+00 0. -1.
          2    1    1    2  501    0 -0.24256041153E+01 -0.68046604497E+02 -0.10647022715E+02  0.68917218687E+02  0.00000000000E+00 0. -1.
<scales pt_clust_5="13000.00000" pt_clust_6="13000.00000" pt_clust_7="13000.00000" pt_clust_8="13000.00000" pt_clust_9="68.08982"></scales>
<clustering>
<clus scale="   68.090">  2  9  1 -1</clus>
<clus scale="   81.040">  5  6 -1 -1</clus>
<clus scale="   89.238">  1  5  2 -1</clus>
<clus scale="   91.913">  7  8 -1 -1</clus>
<clus scale="   68.090">  2  5  1 -1</clus>
</clustering>
</event>
<event>
 9    1  0.6675710E-005  0.9875278E+02  0.7546771E-02  0.1290488E+00
          1   -1    0    0  502    0 -0.00000000000E+00  0.00000000000E+00  0.71371062302E+03  0.71371062302E+03  0.00000000000E+00 0. -1.
         21   -1    0    0  501  502  0.00000000000E+00 -0.00000000000E+00 -0.24855659668E+03  0.24855659668E+03  0.00000000000E+00 0.  1.
        -24    2    1    2    0    0  0.78082564279E+01  0.31418188639E+02  0.64377610143E+03  0.64945606086E+03  0.79356378247E+02 0.  0.
         23    2    1    2    0    0  0.34176706864E+02 -0.33581963736E+02 -0.22618606868E+03  0.24933082683E+03  0.93326994824E+02 0.  0.
         13    1    3    3    0    0  0.33280190747E+02 -0.63068725310E+01  0.16017216431E+03  0.16371459910E+03  0.00000000000E+00 0. -1.
        -14    1    3    3    0    0 -0.25471934319E+02  0.37725061170E+02  0.48360393712E+03  0.48574146176E+03  0.00000000000E+00 0.  1.
        -13    1    4    4    0    0  0.14984160213E+02 -0.58878545404E+02 -0.84159919297E+02  0.10379836310E+03  0.00000000000E+00 0. -1.
         13    1    4    4    0    0  0.19192546651E+02  0.25296581668E+02 -0.14202614938E+03  0.14553246373E+03  0.00000000000E+00 0.  1.
          2    1    1    2  501    0 -0.41984963292E+02  0.21637750973E+01  0.47563993602E+02  0.63480332014E+02  0.00000000000E+00 0. -1.
<scales pt_clust_5="13000.00000" pt_clust_6="13000.00000" pt_clust_7="13000.00000" pt_clust_8="13000.00000" pt_clust_9="42.04070"></scales>
<clustering>
<clus scale="   42.041">  2  9  1 -1</clus>
<clus scale="   79.356">  5  6 -1 -1</clus>
<clus scale="   85.672">  1  5  2 -1</clus>
<clus scale="   93.327">  7  8 -1 -1</clus>
<clus scale="   42.041">  2  5  1 -1</clus>
</clustering>
</event>
<event>
 9    1  0.6675710E-005  0.1768509E+03  0.7546771E-02  0.1172059E+00
          1   -1    0    0  502    0 -0.00000000000E+00  0.00000000000E+00  0.13415966588E+04  0.13415966588E+04  0.00000000000E+00 0. -1.
         21   -1    0    0  501  502  0.00000000000E+00 -0.00000000000E+00 -0.48316023900E+02  0.48316023900E+02  0.00000000000E+00 0. -1.
        -24    2    1    2    0    0 -0.14940128603E+03  0.18204561690E+02  0.94668888368E+03  0.96190211931E+03  0.79898024452E+02 0.  0.
         23    2    1    2    0    0  0.16546113341E+03  0.28434358068E+02  0.21299658386E+03  0.28559997293E+03  0.89520391047E+02 0.  0.
         11    1    3    3    0    0 -0.12542285987E+03  0.42074386246E+02  0.65262963670E+03  0.66590283860E+03  0.00000000000E+00 0. -1.
        -12    1    3    3    0    0 -0.23978426166E+02 -0.23869824556E+02  0.29405924698E+03  0.29599928071E+03  0.00000000000E+00 0.  1.
        -13    1    4    4    0    0  0.93364179294E+02  0.60199861732E+02  0.11555831516E+03  0.16029540708E+03  0.00000000000E+00 0. -1.
         13    1    4    4    0    0  0.72096954119E+02 -0.31765503664E+02  0.97438268701E+02  0.12530456585E+03  0.00000000000E+00 0.  1.
          2    1    1    2  501    0 -0.16059847381E+02 -0.46638919758E+02  0.13359516739E+03  0.14241059049E+03  0.00000000000E+00 0. -1.
<scales pt_clust_5="13000.00000" pt_clust_6="13000.00000" pt_clust_7="13000.00000" pt_clust_8="13000.00000" pt_clust_9="49.32656"></scales>
<clustering>
<clus scale="   49.327">  2  9  1 -1</clus>
<clus scale="   79.898">  5  6 -1 -1</clus>
<clus scale="   89.520">  7  8 -1 -1</clus>
<clus scale="  172.180">  1  5  2 -1</clus>
<clus scale="   49.327">  2  5  1 -1</clus>
</clustering>
</event>
<event>
 9    1  0.6675710E-005  0.1258426E+03  0.7546771E-02  0.1246321E+00
         21   -1    0    0  501  502  0.00000000000E+00  0.00000000000E+00  0.48308499771E+03  0.48308499771E+03  0.00000000000E+00 0. -1.
          3   -1    0    0  502    0 -0.00000000000E+00 -0.00000000000E+00 -0.74067247788E+02  0.74067247788E+02  0.00000000000E+00 0. -1.
         23    2    1    2    0    0 -0.26050551726E+02  0.24903416394E+02  0.18158389983E+03  0.20610625942E+03  0.90599481796E+02 0.  0.
        -24    2    1    2    0    0  0.71651267437E+02  0.67604340931E+02  0.28473585985E+02  0.12694266809E+03  0.74829438361E+02 0.  0.
         13    1    4    4    0    0  0.56890442608E+02  0.80220177646E+02  0.79142901208E+01  0.98663242141E+02  0.00000000000E+00 0. -1.
        -14    1    4    4    0    0  0.14760824829E+02 -0.12615836715E+02  0.20559295865E+02  0.28279425951E+02  0.00000000000E+00 0.  1.
        -11    1    3    3    0    0  0.19604356311E+02 -0.18974358680E+02  0.94988993441E+02  0.98829479148E+02  0.00000000000E+00 0. -1.
         11    1    3    3    0    0 -0.45654908037E+02  0.43877775074E+02  0.86594906393E+02  0.10727678028E+03  0.00000000000E+00 0.  1.
          4    1    1    2  501    0 -0.45600715711E+02 -0.92507757325E+02  0.19896026411E+03  0.22410331799E+03  0.00000000000E+00 0. -1.
<scales pt_clust_5="13000.00000" pt_clust_6="13000.00000" pt_clust_7="13000.00000" pt_clust_8="13000.00000" pt_clust_9="101.17765"></scales>
<clustering>
<clus scale="   74.829">  5  6 -1 -1</clus>
<clus scale="   90.599">  7  8 -1 -1</clus>
<clus scale="   97.504">  2  7  1 -1</clus>
<clus scale="  101.178">  1  9  2 -1</clus>
<clus scale="  101.178">  1  5  2 -1</clus>
</clustering>
</event>
<event>
 9    1  0.6675710E-005  0.1061556E+03  0.7546771E-02  0.1274725E+00
          3   -1    0    0  502    0 -0.00000000000E+00  0.00000000000E+00  0.57574359698E+03  0.57574359698E+03  0.00000000000E+00 0. -1.
         21   -1    0    0  501  502  0.00000000000E+00 -0.00000000000E+00 -0.58367015777E+02  0.58367015777E+02  0.00000000000E+00 0. -1.
        -24    2    1    2    0    0 -0.23178583491E+02 -0.41067050510E+02  0.44469982402E+03  0.45460598405E+03  0.81761347111E+02 0.  0.
         23    2    1    2    0    0  0.12941517345E+01  0.35089399189E+02  0.10045492655E+03  0.14363978014E+03  0.96479290039E+02 0.  0.
         11    1    3    3    0    0  0.13587674957E+02 -0.51985889550E+02  0.20848792872E+03  0.21530065964E+03  0.00000000000E+00 0. -1.
        -12    1    3    3    0    0 -0.36766258448E+02  0.10918839041E+02  0.23621189531E+03  0.23930532441E+03  0.00000000000E+00 0.  1.
        -11    1    4    4    0    0 -0.27840577054E+02  0.12708585586E+02  0.10237441408E+03  0.10685095478E+03  0.00000000000E+00 0. -1.
         11    1    4    4    0    0  0.29134728789E+02  0.22380813603E+02 -0.19194875322E+01  0.36788825362E+02  0.00000000000E+00 0.  1.
          4    1    1    2  501    0  0.21884431756E+02  0.59776513206E+01 -0.27778169372E+02  0.35864848561E+02  0.00000000000E+00 0. -1.
<scales pt_clust_5="13000.00000" pt_clust_6="13000.00000" pt_clust_7="13000.00000" pt_clust_8="13000.00000" pt_clust_9="22.68613"></scales>
<clustering>
<clus scale="   22.686">  2  9  1 -1</clus>
<clus scale="   81.761">  5  6 -1 -1</clus>
<clus scale="   92.982">  1  5  2 -1</clus>
<clus scale="   96.479">  7  8 -1 -1</clus>
<clus scale="   22.686">  2  5  1 -1</clus>
</clustering>
</event>
<event>
 9    1  0.6675710E-005  0.9128985E+02  0.7546771E-02  0.1305761E+00
         -2   -1    0    0    0  501 -0.00000000000E+00  0.00000000000E+00  0.43855470762E+03  0.43855470762E+03  0.00000000000E+00 0.  1.
         21   -1    0    0  501  502  0.00000000000E+00 -0.00000000000E+00 -0.28230271535E+02  0.28230271535E+02  0.00000000000E+00 0. -1.
        -24    2    1    2    0    0  0.50863041255E+01  0.31210358727E+01  0.14107187075E+03  0.16313224370E+03  0.81702171727E+02 0.  0.
         23    2    1    2    0    0  0.15080757587E+02  0.17897553966E+01  0.11298654039E+03  0.14601423507E+03  0.91233579676E+02 0.  0.
         13    1    3    3    0    0 -0.27432172586E+02 -0.20362780084E+02  0.31578020813E+02  0.46522449462E+02  0.00000000000E+00 0. -1.
        -14    1    3    3    0    0  0.32518476711E+02  0.23483815956E+02  0.10949384994E+03  0.11660979424E+03  0.00000000000E+00 0.  1.
        -13    1    4    4    0    0 -0.37182468834E+02  0.12324470431E+02  0.47300775507E+02  0.61414916133E+02  0.00000000000E+00 0.  1.
         13    1    4    4    0    0  0.52263226421E+02 -0.10534715034E+02  0.65685764880E+02  0.84599318937E+02  0.00000000000E+00 0. -1.
         -1    1    1    2    0  502 -0.20167061712E+02 -0.49107912692E+01  0.15626602495E+03  0.15763850038E+03  0.00000000000E+00 0.  1.
<scales pt_clust_5="13000.00000" pt_clust_6="13000.00000" pt_clust_7="13000.00000" pt_clust_8="13000.00000" pt_clust_9="20.75636"></scales>
<clustering>
<clus scale="   20.756">  2  9  1 -1</clus>
<clus scale="   81.702">  5  6 -1 -1</clus>
<clus scale="   81.765">  1  5  2 -1</clus>
<clus scale="   91.234">  7  8 -1 -1</clus>
<clus scale="   20.756">  2  5  1 -1</clus>
</clustering>
</event>
<event>
 9    1  0.6675710E-005  0.1614182E+03  0.7546771E-02  0.1213103E+00
          1   -1    0    0  502    0 -0.00000000000E+00  0.00000000000E+00  0.10130598552E+03  0.10130598552E+03  0.00000000000E+00 0. -1.
         21   -1    0    0  501  502  0.00000000000E+00 -0.00000000000E+00 -0.48381958509E+03  0.48381958509E+03  0.00000000000E+00 0.  1.
        -24    2    1    2    0    0  0.37766603461E+02 -0.18182970122E+02 -0.15830261283E+03  0.18298290405E+03  0.81646121802E+02 0.  0.
         23    2    1    2    0    0  0.14991169126E+02  0.13396324542E+03 -0.22023308133E+03  0.27484663973E+03  0.94165699615E+02 0.  0.
         11    1    3    3    0    0 -0.24210254728E+02  0.64702047651E+01 -0.44813854747E+02  0.51344732554E+02  0.00000000000E+00 0. -1.
        -12    1    3    3    0    0  0.61976858189E+02 -0.24653174887E+02 -0.11348875808E+03  0.13163817149E+03  0.00000000000E+00 0.  1.
        -13    1    4    4    0    0 -0.11705153579E+02  0.10781373731E+03 -0.95053421449E+02  0.14420806323E+03  0.00000000000E+00 0.  1.
         13    1    4    4    0    0  0.26696322705E+02  0.26149508107E+02 -0.12517965988E+03  0.13063857650E+03  0.00000000000E+00 0. -1.
          2    1    1    2  501    0 -0.52757772586E+02 -0.11578027529E+03 -0.39779054110E+01  0.12729602683E+03  0.00000000000E+00 0. -1.
<scales pt_clust_5="13000.00000" pt_clust_6="13000.00000" pt_clust_7="13000.00000" pt_clust_8="13000.00000" pt_clust_9="131.10560"></scales>
<clustering>
<clus scale="   81.646">  5  6 -1 -1</clus>
<clus scale="   91.777">  1  5  2 -1</clus>
<clus scale="   94.166">  7  8 -1 -1</clus>
<clus scale="  131.106">  2  9  1 -1</clus>
<clus scale="  131.106">  2  5  1 -1</clus>
</clustering>
</event>
<event>
 9    1  0.6675710E-005  0.2313032E+03  0.7546771E-02  0.1168789E+00
         21   -1    0    0  501  502  0.00000000000E+00  0.00000000000E+00  0.58302671591E+03  0.58302671591E+03  0.00000000000E+00 0.  1.
         -4   -1    0    0    0  501 -0.00000000000E+00 -0.00000000000E+00 -0.13694311184E+03  0.13694311184E+03  0.00000000000E+00 0.  1.
        -24    2    1    2    0    0 -0.19267342049E+02 -0.80118470442E+00  0.76878991296E+00  0.82934855123E+02  0.80658085707E+02 0.  0.
         23    2    1    2    0    0 -0.19204326075E+03 -0.57850454749E+02  0.14024441691E+03  0.26132213956E+03  0.91615910384E+02 0.  0.
         13    1    3    3    0    0 -0.45854913639E+02  0.16130206078E+02 -0.99960994536E+01  0.49626390734E+02  0.00000000000E+00 0. -1.
        -14    1    3    3    0    0  0.26587571591E+02 -0.16931390783E+02  0.10764889367E+02  0.33308464390E+02  0.00000000000E+00 0.  1.
        -11    1    4    4    0    0 -0.14050794002E+02  0.20143285943E+02  0.64669078767E+01  0.25396804487E+02  0.00000000000E+00 0. -1.
         11    1    4    4    0    0 -0.17799246674E+03 -0.77993740692E+02  0.13377750904E+03  0.23592533507E+03  0.00000000000E+00 0.  1.
         -3    1    1    2    0  502  0.21131060279E+03  0.58651639453E+02  0.30507039724E+03  0.37571283308E+03  0.00000000000E+00 0.  1.
<scales pt_clust_5="13000.00000" pt_clust_6="13000.00000" pt_clust_7="13000.00000" pt_clust_8="13000.00000" pt_clust_9="212.38574"></scales>
<clustering>
<clus scale="   80.658">  5  6 -1 -1</clus>
<clus scale="   82.931">  2  5  1 -1</clus>
<clus scale="   91.616">  7  8 -1 -1</clus>
<clus scale="  212.386">  1  9  2 -1</clus>
<clus scale="  212.386">  1  5  2 -1</clus>
</clustering>
</event>
<event>
 9    1  0.6675710E-005  0.9280110E+02  0.7546771E-02  0.1302824E+00
         -4   -1    0    0    0  501 -0.00000000000E+00  0.00000000000E+00  0.25564433189E+03  0.25564433189E+03  0.00000000000E+00 0.  1.
         21   -1    0    0  501  502  0.00000000000E+00 -0.00000000000E+00 -0.76905613833E+02  0.76905613833E+02  0.00000000000E+00 0.  1.
        -24    2    1    2    0    0  0.12465969918E+02 -0.10751011085E+02  0.18616394268E+03  0.20362244513E+03  0.80833792189E+02 0.  0.
         23    2    1    2    0    0  0.11212633305E+02  0.17833124139E+02  0.15389627425E+02  0.95291953172E+02  0.91651362482E+02 0.  0.
         13    1    3    3    0    0  0.15427325184E+02 -0.16592505801E+02  0.61322204117E+01  0.23471636889E+02  0.00000000000E+00 0. -1.
        -14    1    3    3    0    0 -0.29613552651E+01  0.58414947163E+01  0.18003172227E+03  0.18015080824E+03  0.00000000000E+00 0.  1.
        -11    1    4    4    0    0 -0.31011578556E+02  0.18572210085E+02 -0.18994021354E+02  0.40834027957E+02  0.00000000000E+00 0. -1.
         11    1    4    4    0    0  0.42224211861E+02 -0.73908594595E+00  0.34383648779E+02  0.54457925215E+02  0.00000000000E+00 0.  1.
         -3    1    1    2    0  502 -0.23678603223E+02 -0.70821130546E+01 -0.22814852053E+02  0.33635547418E+02  0.00000000000E+00 0.  1.
<scales pt_clust_5="13000.00000" pt_clust_6="13000.00000" pt_clust_7="13000.00000" pt_clust_8="13000.00000" pt_clust_9="24.71503"></scales>
<clustering>
<clus scale="   24.715">  2  9  1 -1</clus>
<clus scale="   80.834">  5  6 -1 -1</clus>
<clus scale="   82.135">  1  5  2 -1</clus>
<clus scale="   91.651">  7  8 -1 -1</clus>
<clus scale="   24.715">  2  5  1 -1</clus>
</clustering>
</event>
<event>
 9    1  0.6675710E-005  0.2665676E+03  0.7546771E-02  0.1142534E+00
          1   -1    0    0  502    0 -0.00000000000E+00  0.00000000000E+00  0.43598515429E+03  0.43598515429E+03  0.00000000000E+00 0. -1.
         21   -1    0    0  501  502  0.00000000000E+00 -0.00000000000E+00 -0.25884357666E+03  0.25884357666E+03  0.00000000000E+00 0. -1.
        -24    2    1    2    0    0  0.29020160865E+01  0.18349734946E+02 -0.22559313055E+02  0.10281643217E+03  0.98575664584E+02 0.  0.
         23    2    1    2    0    0 -0.10435501884E+03 -0.24210331274E+03  0.20587291702E+03  0.34625536754E+03  0.89471434513E+02 0.  0.
         11    1    3    3    0    0  0.32776571308E+02 -0.27836536688E+02 -0.20834489124E+02  0.47783389777E+02  0.00000000000E+00 0. -1.
        -12    1    3    3    0    0 -0.29874555221E+02  0.46186271634E+02 -0.17248239306E+01  0.55033042390E+02  0.00000000000E+00 0.  1.
        -11    1    4    4    0    0 -0.32246651126E+01 -0.84669558039E+02  0.31237595666E+02  0.90305702514E+02  0.00000000000E+00 0.  1.
         11    1    4    4    0    0 -0.10113035373E+03 -0.15743375470E+03  0.17463532135E+03  0.25594966503E+03  0.00000000000E+00 0. -1.
          2    1    1    2  501    0  0.10145300275E+03  0.22375357779E+03 -0.61720263408E+01  0.24575693124E+03  0.00000000000E+00 0. -1.
<scales pt_clust_5="13000.00000" pt_clust_6="13000.00000" pt_clust_7="13000.00000" pt_clust_8="13000.00000" pt_clust_9="251.10385"></scales>
<clustering>
<clus scale="   89.471">  7  8 -1 -1</clus>
<clus scale="   98.576">  5  6 -1 -1</clus>
<clus scale="  100.311">  1  5  2 -1</clus>
<clus scale="  251.104">  2  9  1 -1</clus>
<clus scale="  251.104">  2  5  1 -1</clus>
</clustering>
</event>
<event>
 9    1  0.6675710E-005  0.1603363E+03  0.7546771E-02  0.1213942E+00
          1   -1    0    0  502    0 -0.00000000000E+00  0.00000000000E+00  0.54130903180E+03  0.54130903180E+03  0.00000000000E+00 0. -1.
         21   -1    0    0  501  502  0.00000000000E+00 -0.00000000000E+00 -0.12689870306E+03  0.12689870306E+03  0.00000000000E+00 0. -1.
        -24    2    1    2    0    0 -0.44358302681E+02 -0.68414988927E+01  0.62593274832E+01  0.92208191137E+02  0.80303836822E+02 0.  0.
         23    2    1    2    0    0 -0.12325400544E+03  0.26810469215E+02  0.23302444226E+02  0.15576025777E+03  0.88362338577E+02 0.  0.
         13    1    3    3    0    0 -0.80995873852E+01  0.35402233821E+02  0.18831562059E+01  0.36365749719E+02  0.00000000000E+00 0. -1.
        -14    1    3    3    0    0 -0.36258715296E+02 -0.42243732714E+02  0.43761712773E+01  0.55842441418E+02  0.00000000000E+00 0.  1.
        -13    1    4    4    0    0 -0.91592138640E+02  0.30734433105E+02  0.54679990459E+02  0.11101183088E+03  0.00000000000E+00 0. -1.
         13    1    4    4    0    0 -0.31661866796E+02 -0.39239638907E+01 -0.31377546233E+02  0.44748426891E+02  0.00000000000E+00 0.  1.
          2    1    1    2  501    0  0.16761230812E+03 -0.19968970322E+02  0.38484855703E+03  0.42023928595E+03  0.00000000000E+00 0. -1.
<scales pt_clust_5="13000.00000" pt_clust_6="13000.00000" pt_clust_7="13000.00000" pt_clust_8="13000.00000" pt_clust_9="133.79027"></scales>
<clustering>
<clus scale="   80.304">  5  6 -1 -1</clus>
<clus scale="   88.362">  7  8 -1 -1</clus>
<clus scale="   91.996">  1  5  2 -1</clus>
<clus scale="  133.790">  2  9  1 -1</clus>
<clus scale="  133.790">  2  5  1 -1</clus>
</clustering>
</event>
<event>
 9    1  0.6675710E-005  0.9366697E+02  0.7546771E-02  0.1303670E+00
          1   -1    0    0  502    0 -0.00000000000E+00  0.00000000000E+00  0.11463261838E+03  0.11463261838E+03  0.00000000000E+00 0. -1.
         21   -1    0    0  501  502  0.00000000000E+00 -0.00000000000E+00 -0.15937245569E+03  0.15937245569E+03  0.00000000000E+00 0.  1.
        -24    2    1    2    0    0 -0.72928075110E+01 -0.86677560254E+01  0.39318517098E+02  0.86241515768E+02  0.75916653109E+02 0.  0.
         23    2    1    2    0    0  0.63599929837E+02  0.46916341896E+01 -0.54693957857E+02  0.12413518920E+03  0.91384646773E+02 0.  0.
         13    1    3    3    0    0  0.13423949593E+02 -0.31052238465E+02  0.43875374813E+02  0.55403000382E+02  0.00000000000E+00 0. -1.
        -14    1    3    3    0    0 -0.20716757104E+02  0.22384482439E+02 -0.45568577147E+01  0.30838515386E+02  0.00000000000E+00 0.  1.
        -13    1    4    4    0    0  0.55129507147E+02 -0.34632590066E+02 -0.13367009341E+02  0.66463191254E+02  0.00000000000E+00 0. -1.
         13    1    4    4    0    0  0.84704226906E+01  0.39324224256E+02 -0.41326948516E+02  0.57671997950E+02  0.00000000000E+00 0.  1.
          2    1    1    2  501    0 -0.56307122326E+02  0.39761218359E+01 -0.29364396548E+02  0.63628369099E+02  0.00000000000E+00 0. -1.
<scales pt_clust_5="13000.00000" pt_clust_6="13000.00000" pt_clust_7="13000.00000" pt_clust_8="13000.00000" pt_clust_9="56.44733"></scales>
<clustering>
<clus scale="   56.447">  2  9  1 -1</clus>
<clus scale="   75.917">  5  6 -1 -1</clus>
<clus scale="   78.649">  1  5  2 -1</clus>
<clus scale="   91.385">  7  8 -1 -1</clus>
<clus scale="   56.447">  2  5  1 -1</clus>
</clustering>
</event>
<event>
 9    1  0.6675710E-005  0.2013465E+03  0.7546771E-02  0.1171519E+00
          1   -1    0    0  502    0 -0.00000000000E+00  0.00000000000E+00  0.35225657819E+03  0.35225657819E+03  0.00000000000E+00 0. -1.
         21   -1    0    0  501  502  0.00000000000E+00 -0.00000000000E+00 -0.33169146212E+03  0.33169146212E+03  0.00000000000E+00 0. -1.
        -24    2    1    2    0    0 -0.42825155394E+02 -0.66872731689E+02  0.20269048119E+03  0.23459639098E+03  0.87441862506E+02 0.  0.
         23    2    1    2    0    0 -0.14867071358E+03  0.38838926372E+02  0.55655495505E+01  0.17975112722E+03  0.93102358286E+02 0.  0.
         11    1    3    3    0    0 -0.41118588013E+02 -0.68119938387E+02  0.21127191384E+03  0.22575846798E+03  0.00000000000E+00 0. -1.
        -12    1    3    3    0    0 -0.17065673806E+01  0.12472066981E+01 -0.85814326476E+01  0.88379230059E+01  0.00000000000E+00 0.  1.
        -11    1    4    4    0    0 -0.12078189657E+03  0.50528370422E+02  0.37080521109E+02  0.13607478753E+03  0.00000000000E+00 0. -1.
         11    1    4    4    0    0 -0.27888817007E+02 -0.11689444050E+02 -0.31514971558E+02  0.43676339688E+02  0.00000000000E+00 0.  1.
          2    1    1    2  501    0  0.19149586897E+03  0.28033805317E+02 -0.18769091467E+03  0.26960052211E+03  0.00000000000E+00 0. -1.
<scales pt_clust_5="13000.00000" pt_clust_6="13000.00000" pt_clust_7="13000.00000" pt_clust_8="13000.00000" pt_clust_9="178.52833"></scales>
<clustering>
<clus scale="   87.442">  5  6 -1 -1</clus>
<clus scale="   93.102">  7  8 -1 -1</clus>
<clus scale="  118.119">  1  5  2 -1</clus>
<clus scale="  178.528">  2  9  1 -1</clus>
<clus scale="  178.528">  2  5  1 -1</clus>
</clustering>
</event>
<event>
 9    1  0.6675710E-005  0.1361324E+03  0.7546771E-02  0.1221068E+00
          1   -1    0    0  502    0 -0.00000000000E+00  0.00000000000E+00  0.55266255728E+03  0.55266255728E+03  0.00000000000E+00 0. -1.
         21   -1    0    0  501  502  0.00000000000E+00 -0.00000000000E+00 -0.23246686711E+03  0.23246686711E+03  0.00000000000E+00 0. -1.
        -24    2    1    2    0    0  0.37495416972E+02  0.96591612688E+02  0.47282297753E+03  0.49059257604E+03  0.79897820029E+02 0.  0.
         23    2    1    2    0    0  0.29942841444E+02 -0.10091294095E+03 -0.12997180688E+02  0.13941380279E+03  0.90483624467E+02 0.  0.
         13    1    3    3    0    0  0.45021667884E+02  0.59516028638E+02  0.41387339961E+03  0.42054761817E+03  0.00000000000E+00 0. -1.
        -14    1    3    3    0    0 -0.75262509115E+01  0.37075584049E+02  0.58949577919E+02  0.70044957864E+02  0.00000000000E+00 0.  1.
        -11    1    4    4    0    0  0.48723840081E+02 -0.62626296385E+02 -0.40079914546E+02  0.88895810594E+02  0.00000000000E+00 0. -1.
         11    1    4    4    0    0 -0.18780998638E+02 -0.38286644563E+02  0.27082733859E+02  0.50517992191E+02  0.00000000000E+00 0.  1.
          2    1    1    2  501    0 -0.67438258416E+02  0.43213282607E+01 -0.13963010668E+03  0.15512304557E+03  0.00000000000E+00 0. -1.
<scales pt_clust_5="13000.00000" pt_clust_6="13000.00000" pt_clust_7="13000.00000" pt_clust_8="13000.00000" pt_clust_9="67.57657"></scales>
<clustering>
<clus scale="   67.577">  2  9  1 -1</clus>
<clus scale="   79.898">  5  6 -1 -1</clus>
<clus scale="   90.484">  7  8 -1 -1</clus>
<clus scale="  129.338">  1  5  2 -1</clus>
<clus scale="   67.577">  2  5  1 -1</clus>
</clustering>
</event>
<event>
 9    1  0.6675710E-005  0.9632727E+02  0.7546771E-02  0.1295690E+00
         -2   -1    0    0    0  501 -0.00000000000E+00  0.00000000000E+00  0.10185090518E+03  0.10185090518E+03  0.00000000000E+00 0.  1.
         21   -1    0    0  501  502  0.00000000000E+00 -0.00000000000E+00 -0.17564861198E+03  0.17564861198E+03  0.00000000000E+00 0.  1.
         23    2    1    2    0    0 -0.35893930518E+02 -0.32357115257E+01  0.53834654188E+02  0.11188089723E+03  0.91215794121E+02 0.  0.
        -24    2    1    2    0    0  0.10772112716E+02  0.10652002572E+02 -0.93853104781E+02  0.12287350029E+03  0.77845926196E+02 0.  0.
         11    1    4    4    0    0 -0.25083688624E+02 -0.72663480258E+01 -0.67245866595E+01  0.26966855849E+02  0.00000000000E+00 0. -1.
        -12    1    4    4    0    0  0.35855801340E+02  0.17918350598E+02 -0.87128518121E+02  0.95906644441E+02  0.00000000000E+00 0.  1.
        -11    1    3    3    0    0 -0.36200001085E+02  0.26670841783E+02  0.65776878079E+02  0.79676668917E+02  0.00000000000E+00 0.  1.
         11    1    3    3    0    0  0.30607056753E+00 -0.29906553308E+02 -0.11942223891E+02  0.32204228316E+02  0.00000000000E+00 0. -1.
         -1    1    1    2    0  502  0.25121817802E+02 -0.74162910463E+01 -0.33779256211E+02  0.42745119637E+02  0.00000000000E+00 0.  1.
<scales pt_clust_5="13000.00000" pt_clust_6="13000.00000" pt_clust_7="13000.00000" pt_clust_8="13000.00000" pt_clust_9="26.19365"></scales>
<clustering>
<clus scale="   26.194">  2  9  1 -1</clus>
<clus scale="   77.846">  5  6 -1 -1</clus>
<clus scale="   83.777">  2  5  1 -1</clus>
<clus scale="   91.216">  7  8 -1 -1</clus>
<clus scale="   26.194">  2  5  1 -1</clus>
</clustering>
</event>
<event>
 9    1  0.6675710E-005  0.9536356E+02  0.7546771E-02  0.1291180E+00
         -4   -1    0    0    0  501 -0.00000000000E+00  0.00000000000E+00  0.21972825251E+03  0.21972825251E+03  0.00000000000E+00 0.  1.
         21   -1    0    0  501  502  0.00000000000E+00 -0.00000000000E+00 -0.68308378891E+02  0.68308378891E+02  0.00000000000E+00 0.  1.
        -24    2    1    2    0    0 -0.29108808925E+02  0.16347352697E+00  0.58345911297E+02  0.10394428281E+03  0.80949484764E+02 0.  0.
         23    2    1    2    0    0  0.69671615394E+02  0.24860329597E+02  0.69909133121E+02  0.13110045012E+03  0.82630933364E+02 0.  0.
         13    1    3    3    0    0 -0.30738885605E+02 -0.21336218314E+02 -0.43258037503E+01  0.37667305163E+02  0.00000000000E+00 0. -1.
        -14    1    3    3    0    0  0.16300766802E+01  0.21499691841E+02  0.62671715047E+02  0.66276977648E+02  0.00000000000E+00 0.  1.
        -13    1    4    4    0    0  0.24893735589E+02 -0.13558240508E+02  0.66164910268E+02  0.71981381677E+02  0.00000000000E+00 0. -1.
         13    1    4    4    0    0  0.44777879805E+02  0.38418570106E+02  0.37442228525E+01  0.59119068443E+02  0.00000000000E+00 0.  1.
         -3    1    1    2    0  502 -0.40562806469E+02 -0.25023803124E+02  0.23164829203E+02  0.52991898470E+02  0.00000000000E+00 0.  1.
<scales pt_clust_5="13000.00000" pt_clust_6="13000.00000" pt_clust_7="13000.00000" pt_clust_8="13000.00000" pt_clust_9="47.66059"></scales>
<clustering>
<clus scale="   47.661">  2  9  1 -1</clus>
<clus scale="   80.949">  5  6 -1 -1</clus>
<clus scale="   82.631">  7  8 -1 -1</clus>
<clus scale="   93.910">  1  5  2 -1</clus>
<clus scale="   47.661">  2  5  1 -1</clus>
</clustering>
</event>
<event>
 9    1  0.6675710E-005  0.1748894E+03  0.7546771E-02  0.1196273E+00
         21   -1    0    0  501  502  0.00000000000E+00  0.00000000000E+00  0.17093519481E+03  0.17093519481E+03  0.00000000000E+00 0.  1.
          3   -1    0    0  502    0 -0.00000000000E+00 -0.00000000000E+00 -0.61404626547E+03  0.61404626547E+03  0.00000000000E+00 0. -1.
        -24    2    1    2    0    0  0.29566907407E+02  0.58870954516E+02 -0.22485450659E+03  0.24761767813E+03  0.80093533374E+02 0.  0.
         23    2    1    2    0    0  0.91840772902E+02  0.10583419819E+03  0.72290625800E+02  0.18199737729E+03  0.90892825290E+02 0.  0.
         13    1    3    3    0    0  0.50296607477E+02  0.11200608986E+02 -0.10434784573E+03  0.11637729707E+03  0.00000000000E+00 0. -1.
        -14    1    3    3    0    0 -0.20729700071E+02  0.47670345529E+02 -0.12050666087E+03  0.13124038106E+03  0.00000000000E+00 0.  1.
        -11    1    4    4    0    0  0.59305861829E+02  0.11817926552E+03  0.57013287948E+02  0.14399319098E+03  0.00000000000E+00 0.  1.
         11    1    4    4    0    0  0.32534911073E+02 -0.12345067324E+02  0.15277337852E+02  0.38004186317E+02  0.00000000000E+00 0. -1.
          4    1    1    2  501    0 -0.12140768031E+03 -0.16470515271E+03 -0.29054718986E+03  0.35536640486E+03  0.00000000000E+00 0. -1.
<scales pt_clust_5="13000.00000" pt_clust_6="13000.00000" pt_clust_7="13000.00000" pt_clust_8="13000.00000" pt_clust_9="149.41490"></scales>
<clustering>
<clus scale="   80.094">  5  6 -1 -1</clus>
<clus scale="   90.893">  7  8 -1 -1</clus>
<clus scale="  103.706">  2  5  1 -1</clus>
<clus scale="  149.415">  1  9  2 -1</clus>
<clus scale="  149.415">  1  5  2 -1</clus>
</clustering>
</event>
<event>
 9    1  0.6675710E-005  0.1020166E+03  0.7546771E-02  0.1282842E+00
         21   -1    0    0  501  502  0.00000000000E+00  0.00000000000E+00  0.78787336906E+02  0.78787336906E+02  0.00000000000E+00 0. -1.
          1   -1    0    0  502    0 -0.00000000000E+00 -0.00000000000E+00 -0.32445772558E+03  0.32445772558E+03  0.00000000000E+00 0. -1.
        -24    2    1    2    0    0 -0.45416879939E+01 -0.46436258172E+02 -0.88219639083E+02  0.12781447183E+03  0.79855378572E+02 0.  0.
         23    2    1    2    0    0 -0.27765632915E+02  0.24522843068E+02  0.12287002939E+02  0.10126151941E+03  0.93437811767E+02 0.  0.
         11    1    3    3    0    0  0.33767825942E+02 -0.21951064215E+01 -0.29149697514E+02  0.44663065571E+02  0.00000000000E+00 0. -1.
        -12    1    3    3    0    0 -0.38309513936E+02 -0.44241151750E+02 -0.59069941569E+02  0.83151406261E+02  0.00000000000E+00 0.  1.
        -13    1    4    4    0    0 -0.44781384823E+02  0.50211880873E+02  0.18609318554E+02  0.69806247175E+02  0.00000000000E+00 0. -1.
         13    1    4    4    0    0  0.17015751909E+02 -0.25689037805E+02 -0.63223156147E+01  0.31455272231E+02  0.00000000000E+00 0.  1.
          2    1    1    2  501    0  0.32307320909E+02  0.21913415104E+02 -0.16973775253E+03  0.17416907124E+03  0.00000000000E+00 0. -1.
<scales pt_clust_5="13000.00000" pt_clust_6="13000.00000" pt_clust_7="13000.00000" pt_clust_8="13000.00000" pt_clust_9="39.03796"></scales>
<clustering>
<clus scale="   39.038">  1  9  2 -1</clus>
<clus scale="   79.855">  5  6 -1 -1</clus>
<clus scale="   89.742">  2  5  1 -1</clus>
<clus scale="   93.438">  7  8 -1 -1</clus>
<clus scale="   39.038">  1  5  2 -1</clus>
</clustering>
</event>
<event>
 9    1  0.6675710E-005  0.1316232E+03  0.7546771E-02  0.1227527E+00
         21   -1    0    0  501  502  0.00000000000E+00  0.00000000000E+00  0.76723620186E+02  0.76723620186E+02  0.00000000000E+00 0. -1.
          1   -1    0    0  502    0 -0.00000000000E+00 -0.00000000000E+00 -0.31716913135E+03  0.31716913135E+03  0.00000000000E+00 0. -1.
         23    2    1    2    0    0  0.45044076064E+01  0.81690645661E+02 -0.12309418697E+03  0.17344196169E+03  0.90753974750E+02 0.  0.
        -24    2    1    2    0    0 -0.23691167511E+02 -0.11691280026E+03 -0.76501861080E+02  0.16320211679E+03  0.80947649083E+02 0.  0.
         11    1    4    4    0    0 -0.30151103166E+02 -0.86069926569E+02 -0.90715364248E+02  0.12863280527E+03  0.00000000000E+00 0. -1.
        -12    1    4    4    0    0  0.64599356549E+01 -0.30842873690E+02  0.14213503168E+02  0.34569311512E+02  0.00000000000E+00 0.  1.
        -13    1    3    3    0    0  0.45511479680E+02  0.34113792603E+02 -0.41186603810E+02  0.70223799113E+02  0.00000000000E+00 0. -1.
         13    1    3    3    0    0 -0.41007072073E+02  0.47576853058E+02 -0.81907583156E+02  0.10321816258E+03  0.00000000000E+00 0.  1.
          2    1    1    2  501    0  0.19186759905E+02  0.35222154598E+02 -0.40849463115E+02  0.57248673059E+02  0.00000000000E+00 0. -1.
<scales pt_clust_5="13000.00000" pt_clust_6="13000.00000" pt_clust_7="13000.00000" pt_clust_8="13000.00000" pt_clust_9="40.10902"></scales>
<clustering>
<clus scale="   40.109">  1  9  2 -1</clus>
<clus scale="   80.948">  5  6 -1 -1</clus>
<clus scale="   90.754">  7  8 -1 -1</clus>
<clus scale="  125.064">  1  5  2 -1</clus>
<clus scale="   40.109">  1  5  2 -1</clus>
</clustering>
</event>
<event>
 9    1  0.6675710E-005  0.1061705E+03  0.7546771E-02  0.1269878E+00
         -4   -1    0    0    0  501 -0.00000000000E+00  0.00000000000E+00  0.53626793245E+03  0.53626793245E+03  0.00000000000E+00 0.  1.
         21   -1    0    0  501  502  0.00000000000E+00 -0.00000000000E+00 -0.50406044185E+02  0.50406044185E+02  0.00000000000E+00 0.  1.
        -24    2    1    2    0    0  0.27418474023E+02  0.52487355031E+02  0.43361939002E+03  0.44620777735E+03  0.86999482803E+02 0.  0.
         23    2    1    2    0    0 -0.80340054594E+01 -0.23188590563E+02  0.41788123148E+02  0.10381283410E+03  0.91807414247E+02 0.  0.
         13    1    3    3    0    0 -0.18740320433E+02 -0.11294267288E+02  0.49773856376E+02  0.54370919268E+02  0.00000000000E+00 0. -1.
        -14    1    3    3    0    0  0.46158794455E+02  0.63781622319E+02  0.38384553365E+03  0.39183685808E+03  0.00000000000E+00 0.  1.
        -11    1    4    4    0    0  0.24785717103E+02  0.14954227827E+02 -0.10923028664E+02  0.30939832860E+02  0.00000000000E+00 0.  1.
         11    1    4    4    0    0 -0.32819722562E+02 -0.38142818390E+02  0.52711151812E+02  0.72873001236E+02  0.00000000000E+00 0. -1.
         -3    1    1    2    0  502 -0.19384468563E+02 -0.29298764468E+02  0.10454375089E+02  0.36653365184E+02  0.00000000000E+00 0.  1.
<scales pt_clust_5="13000.00000" pt_clust_6="13000.00000" pt_clust_7="13000.00000" pt_clust_8="13000.00000" pt_clust_9="35.13083"></scales>
<clustering>
<clus scale="   35.131">  2  9  1 -1</clus>
<clus scale="   86.999">  5  6 -1 -1</clus>
<clus scale="   91.807">  7  8 -1 -1</clus>
<clus scale="  102.042">  1  5  2 -1</clus>
<clus scale="   35.131">  2  5  1 -1</clus>
</clustering>
</event>
<event>
 9    1  0.6675710E-005  0.1514050E+03  0.7546771E-02  0.1226178E+00
          1   -1    0    0  502    0 -0.00000000000E+00  0.00000000000E+00  0.28315798662E+03  0.28315798662E+03  0.00000000000E+00 0. -1.
         21   -1    0    0  501  502  0.00000000000E+00 -0.00000000000E+00 -0.19102812085E+03  0.19102812085E+03  0.00000000000E+00 0.  1.
        -24    2    1    2    0    0  0.60057681159E+01  0.27914371541E+02  0.55497314241E+02  0.10109750835E+03  0.79532841752E+02 0.  0.
         23    2    1    2    0    0  0.31968617816E+02  0.11039222470E+03 -0.97704414777E+02  0.17657603193E+03  0.91785110910E+02 0.  0.
         13    1    3    3    0    0  0.39579176401E+02  0.12599426102E+02  0.47938241459E+02  0.63429738584E+02  0.00000000000E+00 0. -1.
        -14    1    3    3    0    0 -0.33573408285E+02  0.15314945439E+02  0.75590727817E+01  0.37667769764E+02  0.00000000000E+00 0.  1.
        -11    1    4    4    0    0  0.43044331438E+02  0.41821350076E+02 -0.42909808678E+01  0.60168532540E+02  0.00000000000E+00 0. -1.
         11    1    4    4    0    0 -0.11075713622E+02  0.68570874623E+02 -0.93413433909E+02  0.11640749939E+03  0.00000000000E+00 0.  1.
          2    1    1    2  501    0 -0.37974385932E+02 -0.13830659624E+03  0.13433696630E+03  0.19651256720E+03  0.00000000000E+00 0. -1.
<scales pt_clust_5="13000.00000" pt_clust_6="13000.00000" pt_clust_7="13000.00000" pt_clust_8="13000.00000" pt_clust_9="120.41169"></scales>
<clustering>
<clus scale="   79.533">  5  6 -1 -1</clus>
<clus scale="   84.503">  1  5  2 -1</clus>
<clus scale="   91.785">  7  8 -1 -1</clus>
<clus scale="  120.412">  2  9  1 -1</clus>
<clus scale="  120.412">  2  5  1 -1</clus>
</clustering>
</event>
<event>
 9    1  0.6675710E-005  0.1097440E+03  0.7546771E-02  0.1264640E+00
         -4   -1    0    0    0  501 -0.00000000000E+00  0.00000000000E+00  0.12167361398E+03  0.12167361398E+03  0.00000000000E+00 0.  1.
         21   -1    0    0  501  502  0.00000000000E+00 -0.00000000000E+00 -0.21735824171E+03  0.21735824171E+03  0.00000000000E+00 0.  1.
        -24    2    1    2    0    0  0.36535319795E+02  0.44467444248E+02  0.54509869553E+02  0.11373662821E+03  0.81562929854E+02 0.  0.
         23    2    1    2    0    0 -0.26014810348E+02 -0.83902916144E+02 -0.12271439558E+03  0.17609163461E+03  0.90735721756E+02 0.  0.
         13    1    3    3    0    0  0.21862493345E+02 -0.21086775373E+02  0.62205411945E+01  0.31005093834E+02  0.00000000000E+00 0. -1.
        -14    1    3    3    0    0  0.14672826450E+02  0.65554219621E+02  0.48289328358E+02  0.82731534371E+02  0.00000000000E+00 0.  1.
        -13    1    4    4    0    0 -0.12799888040E+02 -0.10254034540E+03 -0.10323247257E+03  0.14606609107E+03  0.00000000000E+00 0.  1.
         13    1    4    4    0    0 -0.13214922308E+02  0.18637429252E+02 -0.19481923011E+02  0.30025543541E+02  0.00000000000E+00 0. -1.
         -3    1    1    2    0  502 -0.10520509447E+02  0.39435471896E+02 -0.27480101696E+02  0.49203592876E+02  0.00000000000E+00 0.  1.
<scales pt_clust_5="13000.00000" pt_clust_6="13000.00000" pt_clust_7="13000.00000" pt_clust_8="13000.00000" pt_clust_9="40.81467"></scales>
<clustering>
<clus scale="   40.815">  2  9  1 -1</clus>
<clus scale="   81.563">  5  6 -1 -1</clus>
<clus scale="   90.736">  7  8 -1 -1</clus>
<clus scale="  102.290">  1  5  2 -1</clus>
<clus scale="   40.815">  2  5  1 -1</clus>
</clustering>
</event>
<event>
 9    1  0.6675710E-005  0.1096180E+03  0.7546771E-02  0.1268441E+00
         -2   -1    0    0    0  501 -0.00000000000E+00  0.00000000000E+00  0.25682152104E+03  0.25682152104E+03  0.00000000000E+00 0.  1.
         21   -1    0    0  501  502  0.00000000000E+00 -0.00000000000E+00 -0.10988948256E+03  0.10988948256E+03  0.00000000000E+00 0. -1.
         23    2    1    2    0    0 -0.60401496342E+01 -0.56127233829E+02  0.19970000541E+03  0.22929826949E+03  0.97523609670E+02 0.  0.
        -24    2    1    2    0    0  0.21841814459E+02  0.18558831491E+02 -0.37999798809E+02  0.94063267507E+02  0.81132105232E+02 0.  0.
         11    1    4    4    0    0 -0.10024368140E+02 -0.19964620994E+02 -0.37985907964E+02  0.44068165970E+02  0.00000000000E+00 0. -1.
        -12    1    4    4    0    0  0.31866182599E+02  0.38523452485E+02 -0.13890844160E-01  0.49995101537E+02  0.00000000000E+00 0.  1.
        -11    1    3    3    0    0  0.33276152086E+02 -0.60569587881E+02  0.15434430762E+03  0.16910985355E+03  0.00000000000E+00 0.  1.
         11    1    3    3    0    0 -0.39316301721E+02  0.44423540517E+01  0.45355697792E+02  0.60188415935E+02  0.00000000000E+00 0. -1.
         -1    1    1    2    0  502 -0.15801664825E+02  0.37568402339E+02 -0.14768168118E+02  0.43349466606E+02  0.00000000000E+00 0.  1.
<scales pt_clust_5="13000.00000" pt_clust_6="13000.00000" pt_clust_7="13000.00000" pt_clust_8="13000.00000" pt_clust_9="40.75632"></scales>
<clustering>
<clus scale="   40.756">  2  9  1 -1</clus>
<clus scale="   81.132">  5  6 -1 -1</clus>
<clus scale="   95.329">  2  5  1 -1</clus>
<clus scale="   97.524">  7  8 -1 -1</clus>
<clus scale="   40.756">  2  5  1 -1</clus>
</clustering>
</event>
<event>
 9    1  0.6675710E-005  0.1280364E+03  0.7546771E-02  0.1234112E+00
         -2   -1    0    0    0  501 -0.00000000000E+00  0.00000000000E+00  0.23152574442E+03  0.23152574442E+03  0.00000000000E+00 0.  1.
         21   -1    0    0  501  502  0.00000000000E+00 -0.00000000000E+00 -0.12088650188E+03  0.12088650188E+03  0.00000000000E+00 0.  1.
        -24    2    1    2    0    0  0.47387948477E+02 -0.38748300061E+02  0.23153283268E+02  0.10531254897E+03  0.82508242166E+02 0.  0.
         23    2    1    2    0    0 -0.39090360868E+02  0.11364221729E+03  0.74435180147E+02  0.17062570414E+03  0.95550641065E+02 0.  0.
         13    1    3    3    0    0  0.20818494350E+02 -0.17482433312E+02  0.53310132084E+02  0.59841585576E+02  0.00000000000E+00 0. -1.
        -14    1    3    3    0    0  0.26569454127E+02 -0.21265866748E+02 -0.30156848816E+02  0.45470963390E+02  0.00000000000E+00 0.  1.
        -11    1    4    4    0    0  0.30287967767E+02  0.41130446652E+02  0.38749098653E+02  0.64113705864E+02  0.00000000000E+00 0. -1.
         11    1    4    4    0    0 -0.69378328635E+02  0.72511770637E+02  0.35686081494E+02  0.10651199828E+03  0.00000000000E+00 0.  1.
         -1    1    1    2    0  502 -0.82975876086E+01 -0.74893917228E+02  0.13050779127E+02  0.76473993185E+02  0.00000000000E+00 0.  1.
<scales pt_clust_5="13000.00000" pt_clust_6="13000.00000" pt_clust_7="13000.00000" pt_clust_8="13000.00000" pt_clust_9="75.35217"></scales>
<clustering>
<clus scale="   75.352">  2  9  1 -1</clus>
<clus scale="   82.508">  5  6 -1 -1</clus>
<clus scale="   95.551">  7  8 -1 -1</clus>
<clus scale="  118.621">  1  5  2 -1</clus>
<clus scale="   75.352">  2  5  1 -1</clus>
</clustering>
</event>
<event>
 9    1  0.6675710E-005  0.9765734E+02  0.7546771E-02  0.1290893E+00
         -2   -1    0    0    0  501 -0.00000000000E+00  0.00000000000E+00  0.34673394432E+03  0.34673394432E+03  0.00000000000E+00 0.  1.
         21   -1    0    0  501  502  0.00000000000E+00 -0.00000000000E+00 -0.14055336320E+03  0.14055336320E+03  0.00000000000E+00 0. -1.
        -24    2    1    2    0    0  0.23371644344E+02  0.23938374281E+02  0.28061289332E+03  0.29364635903E+03  0.79782885080E+02 0.  0.
         23    2    1    2    0    0 -0.53036096494E+02 -0.42708894840E+02 -0.20534758284E+01  0.11319837196E+03  0.90403414872E+02 0.  0.
         11    1    3    3    0    0  0.11482423491E+01 -0.23011731690E+02  0.30655102086E+02  0.38348318604E+02  0.00000000000E+00 0. -1.
        -12    1    3    3    0    0  0.22223401994E+02  0.46950105971E+02  0.24995779123E+03  0.25529804043E+03  0.00000000000E+00 0.  1.
        -11    1    4    4    0    0 -0.75064053746E+02 -0.44964319965E+02 -0.13060818443E+02  0.88470261744E+02  0.00000000000E+00 0.  1.
         11    1    4    4    0    0  0.22027957252E+02  0.22554251251E+01  0.11007342615E+02  0.24728110211E+02  0.00000000000E+00 0. -1.
         -1    1    1    2    0  502  0.29664452151E+02  0.18770520559E+02 -0.72378836378E+02  0.80442576531E+02  0.00000000000E+00 0.  1.
<scales pt_clust_5="13000.00000" pt_clust_6="13000.00000" pt_clust_7="13000.00000" pt_clust_8="13000.00000" pt_clust_9="35.10430"></scales>
<clustering>
<clus scale="   35.104">  2  9  1 -1</clus>
<clus scale="   79.783">  5  6 -1 -1</clus>
<clus scale="   87.918">  1  5  2 -1</clus>
<clus scale="   90.403">  7  8 -1 -1</clus>
<clus scale="   35.104">  2  5  1 -1</clus>
</clustering>
</event>
<event>
 9    1  0.6675710E-005  0.1267167E+03  0.7546771E-02  0.1261558E+00
         -2   -1    0    0    0  501 -0.00000000000E+00  0.00000000000E+00  0.18956949065E+03  0.18956949065E+03  0.00000000000E+00 0.  1.
         21   -1    0    0  501  502  0.00000000000E+00 -0.00000000000E+00 -0.17830613269E+03  0.17830613269E+03  0.00000000000E+00 0.  1.
        -24    2    1    2    0    0 -0.21515249873E+02  0.29268501963E+01  0.42090147141E+02  0.82173061445E+02  0.67151761792E+02 0.  0.
         23    2    1    2    0    0  0.92687069558E+02 -0.47872399120E+01 -0.11621999298E+03  0.17452303040E+03  0.91309314104E+02 0.  0.
         11    1    3    3    0    0  0.10788831144E+02  0.27523627553E+02  0.22139941752E+02  0.36934076026E+02  0.00000000000E+00 0. -1.
        -12    1    3    3    0    0 -0.32304081018E+02 -0.24596777356E+02  0.19950205389E+02  0.45238985419E+02  0.00000000000E+00 0.  1.
        -11    1    4    4    0    0  0.54831584629E+02  0.41993137144E+02 -0.51529022511E+02  0.86169405250E+02  0.00000000000E+00 0.  1.
         11    1    4    4    0    0  0.37855484929E+02 -0.46780377056E+02 -0.64690970472E+02  0.88353625151E+02  0.00000000000E+00 0. -1.
         -1    1    1    2    0  502 -0.71171819685E+02  0.18603897157E+01  0.85393203798E+02  0.11117953149E+03  0.00000000000E+00 0.  1.
<scales pt_clust_5="13000.00000" pt_clust_6="13000.00000" pt_clust_7="13000.00000" pt_clust_8="13000.00000" pt_clust_9="87.86203"></scales>
<clustering>
<clus scale="   67.152">  5  6 -1 -1</clus>
<clus scale="   70.575">  1  5  2 -1</clus>
<clus scale="   87.862">  2  9  1 -1</clus>
<clus scale="   91.309">  7  8 -1 -1</clus>
<clus scale="   87.862">  2  5  1 -1</clus>
</clustering>
</event>
<event>
 9    1  0.1338095E-004  0.1029478E+03  0.7546771E-02  0.1284849E+00
         21   -1    0    0  501  502  0.00000000000E+00  0.00000000000E+00  0.34114824214E+03  0.34114824214E+03  0.00000000000E+00 0. -1.
          1   -1    0    0  502    0 -0.00000000000E+00 -0.00000000000E+00 -0.10908021673E+03  0.10908021673E+03  0.00000000000E+00 0. -1.
         23    2    1    2    0    0 -0.23482044084E+02  0.18069117439E+02 -0.69905108426E+02  0.12545289108E+03  0.99868935599E+02 0.  0.
        -24    2    1    2    0    0 -0.80028331051E+01 -0.19904881993E+01  0.17052416761E+03  0.18865558200E+03  0.80277204104E+02 0.  0.
         11    1    4    4    0    0 -0.27547628360E+02  0.27484617463E+02  0.12554498040E+03  0.13143750655E+03  0.00000000000E+00 0. -1.
        -12    1    4    4    0    0  0.19544795255E+02 -0.29475105663E+02  0.44979187209E+02  0.57218075443E+02  0.00000000000E+00 0.  1.
        -13    1    3    3    0    0 -0.44678523287E+02  0.24520333848E+02  0.11966843027E+01  0.50978910036E+02  0.00000000000E+00 0.  1.
         13    1    3    3    0    0  0.21196479203E+02 -0.64512164087E+01 -0.71101792729E+02  0.74473981047E+02  0.00000000000E+00 0. -1.
          2    1    1    2  501    0  0.31484877189E+02 -0.16078629240E+02  0.13144896622E+03  0.13611998579E+03  0.00000000000E+00 0. -1.
<scales pt_clust_5="13000.00000" pt_clust_6="13000.00000" pt_clust_7="13000.00000" pt_clust_8="13000.00000" pt_clust_9="35.35279"></scales>
<clustering>
<clus scale="   35.353">  1  9  2 -1</clus>
<clus scale="   80.277">  5  6 -1 -1</clus>
<clus scale="   84.077">  1  5  2 -1</clus>
<clus scale="   99.869">  7  8 -1 -1</clus>
<clus scale="   35.353">  1  5  2 -1</clus>
</clustering>
</event>
<event>
 9    1  0.6675710E-005  0.9916652E+02  0.7546771E-02  0.1288124E+00
          1   -1    0    0  502    0 -0.00000000000E+00  0.00000000000E+00  0.10834132666E+04  0.10834132666E+04  0.00000000000E+00 0. -1.
         21   -1    0    0  501  502  0.00000000000E+00 -0.00000000000E+00 -0.13345257833E+02  0.13345257833E+02  0.00000000000E+00 0. -1.
         23    2    1    2    0    0  0.86831670804E+01  0.21931806702E+02  0.51915097083E+03  0.52776551214E+03  0.91990780827E+02 0.  0.
        -24    2    1    2    0    0  0.68644400784E+01 -0.54057346856E+02  0.47869220796E+03  0.48843120692E+03  0.80308758223E+02 0.  0.
         11    1    4    4    0    0 -0.67873248223E+01 -0.64302779318E+02  0.22340688720E+03  0.23257590686E+03  0.00000000000E+00 0. -1.
        -12    1    4    4    0    0  0.13651764901E+02  0.10245432462E+02  0.25528532076E+03  0.25585530006E+03  0.00000000000E+00 0.  1.
        -13    1    3    3    0    0 -0.25351480529E+02  0.46240428497E+02  0.31355861138E+03  0.31796206937E+03  0.00000000000E+00 0.  1.
         13    1    3    3    0    0  0.34034647609E+02 -0.24308621795E+02  0.20559235945E+03  0.20980344276E+03  0.00000000000E+00 0. -1.
          2    1    1    2  501    0 -0.15547607159E+02  0.32125540154E+02  0.72224829944E+02  0.80561805336E+02  0.00000000000E+00 0. -1.
<scales pt_clust_5="13000.00000" pt_clust_6="13000.00000" pt_clust_7="13000.00000" pt_clust_8="13000.00000" pt_clust_9="35.69003"></scales>
<clustering>
<clus scale="   35.690">  2  9  1 -1</clus>
<clus scale="   80.309">  5  6 -1 -1</clus>
<clus scale="   88.437">  2  5  1 -1</clus>
<clus scale="   91.991">  7  8 -1 -1</clus>
<clus scale="   35.690">  2  5  1 -1</clus>
</clustering>
</event>
<event>
 9    1  0.6675710E-005  0.9019449E+02  0.7546771E-02  0.1308192E+00
          1   -1    0    0  502    0 -0.00000000000E+00  0.00000000000E+00  0.17071708976E+03  0.17071708976E+03  0.00000000000E+00 0. -1.
         21   -1    0    0  501  502  0.00000000000E+00 -0.00000000000E+00 -0.32373791819E+03  0.32373791819E+03  0.00000000000E+00 0. -1.
        -24    2    1    2    0    0  0.20566816780E+02  0.81233252811E+00  0.12736423390E+03  0.15136906566E+03  0.79166230974E+02 0.  0.
         23    2    1    2    0    0  0.43184042451E+02  0.34717029564E+02 -0.23501266529E+03  0.25714897681E+03  0.88456259061E+02 0.  0.
         11    1    3    3    0    0  0.22895474277E+02  0.10616240400E+02  0.13586293322E+03  0.13818698899E+03  0.00000000000E+00 0. -1.
        -12    1    3    3    0    0 -0.23286574976E+01 -0.98039078724E+01 -0.84986993214E+01  0.13182076675E+02  0.00000000000E+00 0.  1.
        -11    1    4    4    0    0  0.37445968234E+02 -0.24495870866E+02 -0.94324931730E+02  0.10440038780E+03  0.00000000000E+00 0. -1.
         11    1    4    4    0    0  0.57380742167E+01  0.59212900430E+02 -0.14068773356E+03  0.15274858901E+03  0.00000000000E+00 0.  1.
          2    1    1    2  501    0 -0.63750859231E+02 -0.35529362092E+02 -0.45372397040E+02  0.85936965484E+02  0.00000000000E+00 0. -1.
<scales pt_clust_5="13000.00000" pt_clust_6="13000.00000" pt_clust_7="13000.00000" pt_clust_8="13000.00000" pt_clust_9="72.98293"></scales>
<clustering>
<clus scale="   72.983">  2  9  1 -1</clus>
<clus scale="   79.166">  5  6 -1 -1</clus>
<clus scale="   81.104">  1  5  2 -1</clus>
<clus scale="   88.456">  7  8 -1 -1</clus>
<clus scale="   72.983">  2  5  1 -1</clus>
</clustering>
</event>
<event>
 9    1  0.6675710E-005  0.9670746E+02  0.7546771E-02  0.1294524E+00
         -2   -1    0    0    0  501 -0.00000000000E+00  0.00000000000E+00  0.32019774151E+03  0.32019774151E+03  0.00000000000E+00 0.  1.
         21   -1    0    0  501  502  0.00000000000E+00 -0.00000000000E+00 -0.56047132472E+02  0.56047132472E+02  0.00000000000E+00 0. -1.
         23    2    1    2    0    0  0.67453136847E+01  0.36562663622E+01  0.20186987194E+03  0.22324309004E+03  0.95011391488E+02 0.  0.
        -24    2    1    2    0    0 -0.47452645413E+02  0.79026872333E+01  0.54165005987E+02  0.10991395090E+03  0.82662099584E+02 0.  0.
         11    1    4    4    0    0 -0.43783047595E+02  0.34427117892E+02  0.76198234431E+01  0.56216042305E+02  0.00000000000E+00 0. -1.
        -12    1    4    4    0    0 -0.36695978178E+01 -0.26524430659E+02  0.46545182544E+02  0.53697908600E+02  0.00000000000E+00 0.  1.
        -13    1    3    3    0    0  0.49149511759E+02  0.12312868259E+02  0.89822921447E+02  0.10312826212E+03  0.00000000000E+00 0.  1.
         13    1    3    3    0    0 -0.42404198075E+02 -0.86566018965E+01  0.11204695049E+03  0.12011482792E+03  0.00000000000E+00 0. -1.
         -1    1    1    2    0  502  0.40707331728E+02 -0.11558953595E+02  0.81157311135E+01  0.43087833041E+02  0.00000000000E+00 0.  1.
<scales pt_clust_5="13000.00000" pt_clust_6="13000.00000" pt_clust_7="13000.00000" pt_clust_8="13000.00000" pt_clust_9="42.31662"></scales>
<clustering>
<clus scale="   42.317">  2  9  1 -1</clus>
<clus scale="   82.662">  5  6 -1 -1</clus>
<clus scale="   84.606">  2  5  1 -1</clus>
<clus scale="   95.011">  7  8 -1 -1</clus>
<clus scale="   42.317">  2  5  1 -1</clus>
</clustering>
</event>
<event>
 9    1  0.6675710E-005  0.9804931E+02  0.7546771E-02  0.1290596E+00
          1   -1    0    0  502    0 -0.00000000000E+00  0.00000000000E+00  0.35684111380E+03  0.35684111380E+03  0.00000000000E+00 0. -1.
         21   -1    0    0  501  502  0.00000000000E+00 -0.00000000000E+00 -0.40747182546E+02  0.40747182546E+02  0.00000000000E+00 0.  1.
        -24    2    1    2    0    0 -0.38900563238E+02 -0.61242166450E+01  0.23511893283E+03  0.25152246990E+03  0.80199005230E+02 0.  0.
         23    2    1    2    0    0  0.22155434712E+02 -0.12634169029E+02  0.71980722628E+02  0.11936052062E+03  0.91734529688E+02 0.  0.
         11    1    3    3    0    0 -0.31315823566E+02 -0.41707759540E+02  0.12152580557E+03  0.13224499775E+03  0.00000000000E+00 0. -1.
        -12    1    3    3    0    0 -0.75847396719E+01  0.35583542895E+02  0.11359312726E+03  0.11927747215E+03  0.00000000000E+00 0.  1.
        -11    1    4    4    0    0  0.20889183971E+02 -0.35610035983E+02 -0.25450853934E+01  0.41363149413E+02  0.00000000000E+00 0.  1.
         11    1    4    4    0    0  0.12662507405E+01  0.22975866954E+02  0.74525808022E+02  0.77997371203E+02  0.00000000000E+00 0. -1.
          2    1    1    2  501    0  0.16745128526E+02  0.18758385674E+02  0.89942757954E+01  0.26705305831E+02  0.00000000000E+00 0. -1.
<scales pt_clust_5="13000.00000" pt_clust_6="13000.00000" pt_clust_7="13000.00000" pt_clust_8="13000.00000" pt_clust_9="25.14511"></scales>
<clustering>
<clus scale="   25.145">  2  9  1 -1</clus>
<clus scale="   80.199">  5  6 -1 -1</clus>
<clus scale="   87.352">  1  5  2 -1</clus>
<clus scale="   91.735">  7  8 -1 -1</clus>
<clus scale="   25.145">  2  5  1 -1</clus>
</clustering>
</event>
<event>
 9    1  0.6675710E-005  0.1025284E+03  0.7546771E-02  0.1278752E+00
         21   -1    0    0  501  502  0.00000000000E+00  0.00000000000E+00  0.58784266242E+02  0.58784266242E+02  0.00000000000E+00 0. -1.
         -2   -1    0    0    0  501 -0.00000000000E+00 -0.00000000000E+00 -0.35124406640E+03  0.35124406640E+03  0.00000000000E+00 0.  1.
         23    2    1    2    0    0  0.24061046470E+02 -0.18334506404E+02 -0.99431203177E+02  0.13729568997E+03  0.89713177613E+02 0.  0.
        -24    2    1    2    0    0 -0.75140311418E+02 -0.31232887148E+02 -0.15135682326E+03  0.19025504246E+03  0.81648843195E+02 0.  0.
         13    1    4    4    0    0 -0.20995972676E+02 -0.46351276361E+02 -0.37282215183E+02  0.63081179902E+02  0.00000000000E+00 0. -1.
        -14    1    4    4    0    0 -0.54144338742E+02  0.15118389213E+02 -0.11407460808E+03  0.12717386256E+03  0.00000000000E+00 0.  1.
        -13    1    3    3    0    0 -0.25122130351E+02 -0.26506147745E+02 -0.71151336087E+02  0.79976308546E+02  0.00000000000E+00 0.  1.
         13    1    3    3    0    0  0.49183176821E+02  0.81716413415E+01 -0.28279867090E+02  0.57319381426E+02  0.00000000000E+00 0. -1.
         -1    1    1    2    0  502  0.51079264948E+02  0.49567393552E+02 -0.41671773719E+02  0.82477600208E+02  0.00000000000E+00 0.  1.
<scales pt_clust_5="13000.00000" pt_clust_6="13000.00000" pt_clust_7="13000.00000" pt_clust_8="13000.00000" pt_clust_9="71.17596"></scales>
<clustering>
<clus scale="   71.176">  1  9  2 -1</clus>
<clus scale="   81.649">  5  6 -1 -1</clus>
<clus scale="   89.713">  7  8 -1 -1</clus>
<clus scale="   95.552">  1  5  2 -1</clus>
<clus scale="   71.176">  1  5  2 -1</clus>
</clustering>
</event>
<event>
 9    1  0.6675710E-005  0.1208891E+03  0.7546771E-02  0.1245501E+00
          1   -1    0    0  502    0 -0.00000000000E+00  0.00000000000E+00  0.24139773759E+03  0.24139773759E+03  0.00000000000E+00 0. -1.
         21   -1    0    0  501  502  0.00000000000E+00 -0.00000000000E+00 -0.21527228133E+03  0.21527228133E+03  0.00000000000E+00 0. -1.
        -24    2    1    2    0    0  0.46389711229E+02  0.69308655856E+02  0.16372669540E+03  0.20056360929E+03  0.80396738131E+02 0.  0.
         23    2    1    2    0    0 -0.57188105877E+02 -0.32430518284E+02 -0.33712217195E+00  0.11356504664E+03  0.92599612299E+02 0.  0.
         11    1    3    3    0    0  0.13420267747E+02  0.25912045735E+02  0.12697976137E+01  0.29208733053E+02  0.00000000000E+00 0. -1.
        -12    1    3    3    0    0  0.32969443482E+02  0.43396610121E+02  0.16245689778E+03  0.17135487624E+03  0.00000000000E+00 0.  1.
        -11    1    4    4    0    0 -0.44306701749E+02 -0.52202013881E+02 -0.30760935885E+02  0.75062435676E+02  0.00000000000E+00 0.  1.
         11    1    4    4    0    0 -0.12881404129E+02  0.19771495598E+02  0.30423813714E+02  0.38502610968E+02  0.00000000000E+00 0. -1.
          2    1    1    2  501    0  0.10798394648E+02 -0.36878137572E+02 -0.13726411696E+03  0.14254136299E+03  0.00000000000E+00 0. -1.
<scales pt_clust_5="13000.00000" pt_clust_6="13000.00000" pt_clust_7="13000.00000" pt_clust_8="13000.00000" pt_clust_9="38.42658"></scales>
<clustering>
<clus scale="   38.427">  2  9  1 -1</clus>
<clus scale="   80.397">  5  6 -1 -1</clus>
<clus scale="   92.600">  7  8 -1 -1</clus>
<clus scale="  111.817">  1  5  2 -1</clus>
<clus scale="   38.427">  2  5  1 -1</clus>
</clustering>
</event>
<event>
 9    1  0.6675710E-005  0.1057218E+03  0.7546771E-02  0.1273159E+00
          3   -1    0    0  502    0 -0.00000000000E+00  0.00000000000E+00  0.41411980863E+03  0.41411980863E+03  0.00000000000E+00 0. -1.
         21   -1    0    0  501  502  0.00000000000E+00 -0.00000000000E+00 -0.54610708048E+02  0.54610708048E+02  0.00000000000E+00 0. -1.
         23    2    1    2    0    0  0.45983562123E+02  0.15936236003E+02  0.31150838339E+03  0.32833741934E+03  0.91648984817E+02 0.  0.
        -24    2    1    2    0    0 -0.62169907794E+02 -0.30802625435E+02  0.50434110861E+02  0.11828136457E+03  0.81443124313E+02 0.  0.
         13    1    4    4    0    0 -0.75693661333E+02 -0.31892467863E+02  0.59967435808E+02  0.10169932758E+03  0.00000000000E+00 0. -1.
        -14    1    4    4    0    0  0.13523753539E+02  0.10898424287E+01 -0.95333249472E+01  0.16582036994E+02  0.00000000000E+00 0.  1.
        -13    1    3    3    0    0 -0.22459871696E+02  0.25096437252E+02  0.81432024637E+02  0.88121800003E+02  0.00000000000E+00 0.  1.
         13    1    3    3    0    0  0.68443433818E+02 -0.91602012493E+01  0.23007635875E+03  0.24021561934E+03  0.00000000000E+00 0. -1.
          4    1    1    2  501    0  0.16186345671E+02  0.14866389432E+02 -0.24333936678E+01  0.22111732761E+02  0.00000000000E+00 0. -1.
<scales pt_clust_5="13000.00000" pt_clust_6="13000.00000" pt_clust_7="13000.00000" pt_clust_8="13000.00000" pt_clust_9="21.97743"></scales>
<clustering>
<clus scale="   21.977">  2  9  1 -1</clus>
<clus scale="   81.443">  5  6 -1 -1</clus>
<clus scale="   91.649">  7  8 -1 -1</clus>
<clus scale="   97.008">  2  5  1 -1</clus>
<clus scale="   21.977">  2  5  1 -1</clus>
</clustering>
</event>
<event>
 9    1  0.6675710E-005  0.1001269E+03  0.7546771E-02  0.1287268E+00
         -4   -1    0    0    0  501 -0.00000000000E+00  0.00000000000E+00  0.26444552987E+03  0.26444552987E+03  0.00000000000E+00 0.  1.
         21   -1    0    0  501  502  0.00000000000E+00 -0.00000000000E+00 -0.78943678089E+02  0.78943678089E+02  0.00000000000E+00 0. -1.
        -24    2    1    2    0    0 -0.37600909580E+02  0.18973578634E+02  0.58346565122E+02  0.10805026870E+03  0.80602194863E+02 0.  0.
         23    2    1    2    0    0 -0.39256626565E+02 -0.51657090937E+02  0.71872393875E+02  0.13518160766E+03  0.94333919004E+02 0.  0.
         11    1    3    3    0    0 -0.16737542231E+02 -0.29280268885E+02  0.40112088265E+02  0.52406670290E+02  0.00000000000E+00 0. -1.
        -12    1    3    3    0    0 -0.20863367348E+02  0.48253847519E+02  0.18234476857E+02  0.55643598408E+02  0.00000000000E+00 0.  1.
        -13    1    4    4    0    0  0.86127917737E+01 -0.64262517954E+02  0.44212016129E+02  0.78476453578E+02  0.00000000000E+00 0.  1.
         13    1    4    4    0    0 -0.47869418339E+02  0.12605427017E+02  0.27660377746E+02  0.56705154082E+02  0.00000000000E+00 0. -1.
         -3    1    1    2    0  502  0.76857536145E+02  0.32683512303E+02  0.55282892779E+02  0.10015733160E+03  0.00000000000E+00 0.  1.
<scales pt_clust_5="13000.00000" pt_clust_6="13000.00000" pt_clust_7="13000.00000" pt_clust_8="13000.00000" pt_clust_9="83.51826"></scales>
<clustering>
<clus scale="   80.602">  5  6 -1 -1</clus>
<clus scale="   83.518">  2  9  1 -1</clus>
<clus scale="   87.311">  1  5  2 -1</clus>
<clus scale="   94.334">  7  8 -1 -1</clus>
<clus scale="   83.518">  2  5  1 -1</clus>
</clustering>
</event>
<event>
 9    1  0.6675710E-005  0.1115716E+03  0.7546771E-02  0.1265714E+00
         21   -1    0    0  501  502  0.00000000000E+00  0.00000000000E+00  0.14211769907E+03  0.14211769907E+03  0.00000000000E+00 0. -1.
          3   -1    0    0  502    0 -0.00000000000E+00 -0.00000000000E+00 -0.16019565215E+03  0.16019565215E+03  0.00000000000E+00 0. -1.
         23    2    1    2    0    0 -0.29631966644E+02 -0.75621181448E+02 -0.83107486702E+02  0.14880637949E+03  0.92950888643E+02 0.  0.
        -24    2    1    2    0    0  0.25289591221E+02  0.15190379711E+02  0.38660687273E+02  0.87430848354E+02  0.72658058353E+02 0.  0.
         11    1    4    4    0    0 -0.23007125315E+02 -0.20602829069E+01  0.25656254272E+02  0.34522687673E+02  0.00000000000E+00 0. -1.
        -12    1    4    4    0    0  0.48296716536E+02  0.17250662618E+02  0.13004433001E+02  0.52908160681E+02  0.00000000000E+00 0.  1.
        -13    1    3    3    0    0 -0.13527503928E+02  0.19161589952E+02 -0.29639182587E+01  0.23642011409E+02  0.00000000000E+00 0.  1.
         13    1    3    3    0    0 -0.16104462717E+02 -0.94782771401E+02 -0.80143568443E+02  0.12516436808E+03  0.00000000000E+00 0. -1.
          4    1    1    2  501    0  0.43423754231E+01  0.60430801738E+02  0.26368846349E+02  0.66076123379E+02  0.00000000000E+00 0. -1.
<scales pt_clust_5="13000.00000" pt_clust_6="13000.00000" pt_clust_7="13000.00000" pt_clust_8="13000.00000" pt_clust_9="60.58662"></scales>
<clustering>
<clus scale="   60.587">  1  9  2 -1</clus>
<clus scale="   72.658">  5  6 -1 -1</clus>
<clus scale="   92.951">  7  8 -1 -1</clus>
<clus scale="   95.329">  1  5  2 -1</clus>
<clus scale="   60.587">  1  5  2 -1</clus>
</clustering>
</event>
<event>
 9    1  0.6675710E-005  0.9315637E+02  0.7546771E-02  0.1301958E+00
         21   -1    0    0  501  502  0.00000000000E+00  0.00000000000E+00  0.34236390562E+02  0.34236390562E+02  0.00000000000E+00 0. -1.
         -4   -1    0    0    0  501 -0.00000000000E+00 -0.00000000000E+00 -0.37343058180E+03  0.37343058180E+03  0.00000000000E+00 0.  1.
         23    2    1    2    0    0 -0.15195035374E+02 -0.16424824395E+02 -0.18017958790E+03  0.20402332257E+03  0.93060025246E+02 0.  0.
        -24    2    1    2    0    0 -0.77587840771E+01 -0.11229467863E+02 -0.13991355294E+03  0.16294367641E+03  0.82392594973E+02 0.  0.
         11    1    4    4    0    0  0.45312952787E+01  0.28447207227E+02 -0.17569979312E+02  0.33741375327E+02  0.00000000000E+00 0. -1.
        -12    1    4    4    0    0 -0.12290079356E+02 -0.39676675090E+02 -0.12234357362E+03  0.12920230108E+03  0.00000000000E+00 0.  1.
        -11    1    3    3    0    0 -0.21320033036E+02  0.29880774617E+02 -0.13163192774E+03  0.13665419460E+03  0.00000000000E+00 0.  1.
         11    1    3    3    0    0  0.61249976619E+01 -0.46305599012E+02 -0.48547660156E+02  0.67369127966E+02  0.00000000000E+00 0. -1.
         -3    1    1    2    0  502  0.22953819451E+02  0.27654292258E+02 -0.19101050407E+02  0.40699973395E+02  0.00000000000E+00 0.  1.
<scales pt_clust_5="13000.00000" pt_clust_6="13000.00000" pt_clust_7="13000.00000" pt_clust_8="13000.00000" pt_clust_9="35.93936"></scales>
<clustering>
<clus scale="   35.939">  1  9  2 -1</clus>
<clus scale="   82.393">  5  6 -1 -1</clus>
<clus scale="   82.501">  1  5  2 -1</clus>
<clus scale="   93.060">  7  8 -1 -1</clus>
<clus scale="   35.939">  1  5  2 -1</clus>
</clustering>
</event>
<event>
 9    1  0.6675710E-005  0.1109477E+03  0.7546771E-02  0.1263191E+00
         21   -1    0    0  501  502  0.00000000000E+00  0.00000000000E+00  0.20200247463E+03  0.20200247463E+03  0.00000000000E+00 0.  1.
          1   -1    0    0  502    0 -0.00000000000E+00 -0.00000000000E+00 -0.94150232639E+02  0.94150232639E+02  0.00000000000E+00 0. -1.
        -24    2    1    2    0    0 -0.31513344554E+02  0.71833563386E+02 -0.67444470476E+01  0.11080752860E+03  0.77972232975E+02 0.  0.
         23    2    1    2    0    0 -0.14250153484E+01 -0.46373870835E+02  0.62451882372E+02  0.11862027807E+03  0.89543096840E+02 0.  0.
         13    1    3    3    0    0 -0.32174967170E+02  0.68867238000E+02 -0.34080465061E+02  0.83303079660E+02  0.00000000000E+00 0. -1.
        -14    1    3    3    0    0  0.66162261595E+00  0.29663253866E+01  0.27336018013E+02  0.27504448942E+02  0.00000000000E+00 0.  1.
        -13    1    4    4    0    0 -0.10752741996E+01 -0.24183657339E+02 -0.21136114106E+02  0.32136285043E+02  0.00000000000E+00 0. -1.
         13    1    4    4    0    0 -0.34974114874E+00 -0.22190213496E+02  0.83587996478E+02  0.86483993022E+02  0.00000000000E+00 0.  1.
          2    1    1    2  501    0  0.32938359902E+02 -0.25459692552E+02  0.52144806662E+02  0.66724900597E+02  0.00000000000E+00 0. -1.
<scales pt_clust_5="13000.00000" pt_clust_6="13000.00000" pt_clust_7="13000.00000" pt_clust_8="13000.00000" pt_clust_9="41.63090"></scales>
<clustering>
<clus scale="   41.631">  1  9  2 -1</clus>
<clus scale="   77.972">  5  6 -1 -1</clus>
<clus scale="   89.543">  7  8 -1 -1</clus>
<clus scale="  101.839">  2  5  1 -1</clus>
<clus scale="   41.631">  1  5  2 -1</clus>
</clustering>
</event>
<event>
 9    1  0.6675710E-005  0.1004951E+03  0.7546771E-02  0.1287623E+00
         21   -1    0    0  501  502  0.00000000000E+00  0.00000000000E+00  0.39503957296E+03  0.39503957296E+03  0.00000000000E+00 0. -1.
         -4   -1    0    0    0  501 -0.00000000000E+00 -0.00000000000E+00 -0.66901237916E+02  0.66901237916E+02  0.00000000000E+00 0.  1.
        -24    2    1    2    0    0  0.40329542753E+02 -0.29937670810E+00 -0.20260556443E+02  0.87081356143E+02  0.74472214921E+02 0.  0.
         23    2    1    2    0    0 -0.64151762814E+02 -0.16844090439E+01  0.31226533672E+03  0.33153431936E+03  0.91033392196E+02 0.  0.
         11    1    3    3    0    0 -0.21648705824E+02  0.41094388090E+00  0.66279170547E+00  0.21662747554E+02  0.00000000000E+00 0. -1.
        -12    1    3    3    0    0  0.61978248577E+02 -0.71032058900E+00 -0.20923348149E+02  0.65418608590E+02  0.00000000000E+00 0.  1.
        -11    1    4    4    0    0 -0.39496966736E+02  0.40756210260E+02  0.21787111874E+03  0.22514196285E+03  0.00000000000E+00 0. -1.
         11    1    4    4    0    0 -0.24654796077E+02 -0.42440619304E+02  0.94394217982E+02  0.10639235652E+03  0.00000000000E+00 0.  1.
         -3    1    1    2    0  502  0.23822220060E+02  0.19837857520E+01  0.36133554771E+02  0.43325135370E+02  0.00000000000E+00 0.  1.
<scales pt_clust_5="13000.00000" pt_clust_6="13000.00000" pt_clust_7="13000.00000" pt_clust_8="13000.00000" pt_clust_9="23.90468"></scales>
<clustering>
<clus scale="   23.905">  1  9  2 -1</clus>
<clus scale="   74.472">  5  6 -1 -1</clus>
<clus scale="   85.780">  2  5  1 -1</clus>
<clus scale="   91.033">  7  8 -1 -1</clus>
<clus scale="   23.905">  1  5  2 -1</clus>
</clustering>
</event>
<event>
 9    1  0.6675710E-005  0.9747484E+02  0.7546771E-02  0.1287698E+00
         21   -1    0    0  501  502  0.00000000000E+00  0.00000000000E+00  0.15329630017E+03  0.15329630017E+03  0.00000000000E+00 0.  1.
         -4   -1    0    0    0  501 -0.00000000000E+00 -0.00000000000E+00 -0.30344846279E+03  0.30344846279E+03  0.00000000000E+00 0.  1.
        -24    2    1    2    0    0  0.28483532206E+02  0.85920609661E+01 -0.26881863731E+03  0.28619597542E+03  0.93592422034E+02 0.  0.
         23    2    1    2    0    0  0.45652823092E-01 -0.16346633877E+01  0.70797525283E+02  0.11439047474E+03  0.89834386045E+02 0.  0.
         11    1    3    3    0    0 -0.89987987320E+01 -0.33582803652E+02 -0.55079378833E+02  0.65134637885E+02  0.00000000000E+00 0. -1.
        -12    1    3    3    0    0  0.37482330938E+02  0.42174864618E+02 -0.21373925848E+03  0.22106133754E+03  0.00000000000E+00 0.  1.
        -13    1    4    4    0    0  0.36901750390E+02  0.18792967569E+02  0.14094805390E+02  0.43744466517E+02  0.00000000000E+00 0.  1.
         13    1    4    4    0    0 -0.36856097566E+02 -0.20427630957E+02  0.56702719892E+02  0.70646008221E+02  0.00000000000E+00 0. -1.
         -3    1    1    2    0  502 -0.28529185029E+02 -0.69573975783E+01  0.47868949406E+02  0.56158312802E+02  0.00000000000E+00 0.  1.
<scales pt_clust_5="13000.00000" pt_clust_6="13000.00000" pt_clust_7="13000.00000" pt_clust_8="13000.00000" pt_clust_9="29.36528"></scales>
<clustering>
<clus scale="   29.365">  1  9  2 -1</clus>
<clus scale="   89.834">  7  8 -1 -1</clus>
<clus scale="   93.592">  5  6 -1 -1</clus>
<clus scale="   93.872">  1  7  2 -1</clus>
<clus scale="   29.365">  1  5  2 -1</clus>
</clustering>
</event>
<event>
 9    1  0.6675710E-005  0.1929661E+03  0.7546771E-02  0.1156735E+00
         21   -1    0    0  501  502  0.00000000000E+00  0.00000000000E+00  0.39232821642E+03  0.39232821642E+03  0.00000000000E+00 0. -1.
          1   -1    0    0  502    0 -0.00000000000E+00 -0.00000000000E+00 -0.74206956710E+03  0.74206956710E+03  0.00000000000E+00 0. -1.
         23    2    1    2    0    0 -0.45698713908E+02 -0.16704515663E+03 -0.62993133034E+03  0.65954679981E+03  0.90532001996E+02 0.  0.
        -24    2    1    2    0    0  0.73543859210E+02  0.87151324475E+02  0.34232402427E+03  0.36987948266E+03  0.81369782549E+02 0.  0.
         11    1    4    4    0    0  0.21437234755E+01  0.61509685367E+02  0.18980095206E+03  0.19953054489E+03  0.00000000000E+00 0. -1.
        -12    1    4    4    0    0  0.71400135734E+02  0.25641639109E+02  0.15252307221E+03  0.17034893776E+03  0.00000000000E+00 0.  1.
        -11    1    3    3    0    0 -0.64179008330E+02 -0.72574905603E+02 -0.26576817369E+03  0.28287591658E+03  0.00000000000E+00 0.  1.
         11    1    3    3    0    0  0.18480294421E+02 -0.94470251022E+02 -0.36416315665E+03  0.37667088323E+03  0.00000000000E+00 0. -1.
          2    1    1    2  501    0 -0.27845145302E+02  0.79893832151E+02 -0.62134044609E+02  0.10497150105E+03  0.00000000000E+00 0. -1.
<scales pt_clust_5="13000.00000" pt_clust_6="13000.00000" pt_clust_7="13000.00000" pt_clust_8="13000.00000" pt_clust_9="84.60723"></scales>
<clustering>
<clus scale="   81.370">  5  6 -1 -1</clus>
<clus scale="   84.607">  1  9  2 -1</clus>
<clus scale="   90.532">  7  8 -1 -1</clus>
<clus scale="  188.841">  1  5  2 -1</clus>
<clus scale="   84.607">  1  5  2 -1</clus>
</clustering>
</event>
<event>
 9    1  0.6675710E-005  0.9384205E+02  0.7546771E-02  0.1299054E+00
         -2   -1    0    0    0  501 -0.00000000000E+00  0.00000000000E+00  0.28345995160E+03  0.28345995160E+03  0.00000000000E+00 0.  1.
         21   -1    0    0  501  502  0.00000000000E+00 -0.00000000000E+00 -0.45527952113E+02  0.45527952113E+02  0.00000000000E+00 0. -1.
        -24    2    1    2    0    0 -0.17323981512E+01  0.21114364929E+02  0.12210421753E+03  0.14784798143E+03  0.80627340680E+02 0.  0.
         23    2    1    2    0    0  0.28227143192E+02 -0.28317288443E+02  0.11804376190E+03  0.15359424768E+03  0.89767604172E+02 0.  0.
         13    1    3    3    0    0  0.33556274760E+02  0.55392170801E+01  0.21837557236E+02  0.40417637334E+02  0.00000000000E+00 0. -1.
        -14    1    3    3    0    0 -0.35288672911E+02  0.15575147849E+02  0.10026666030E+03  0.10743034410E+03  0.00000000000E+00 0.  1.
        -11    1    4    4    0    0 -0.20720198650E+02  0.50183339644E+01  0.80961714100E+02  0.83721618820E+02  0.00000000000E+00 0.  1.
         11    1    4    4    0    0  0.48947341842E+02 -0.33335622407E+02  0.37082047804E+02  0.69872628861E+02  0.00000000000E+00 0. -1.
         -1    1    1    2    0  502 -0.26494745041E+02  0.72029235141E+01 -0.22159799482E+01  0.27545674598E+02  0.00000000000E+00 0.  1.
<scales pt_clust_5="13000.00000" pt_clust_6="13000.00000" pt_clust_7="13000.00000" pt_clust_8="13000.00000" pt_clust_9="27.45639"></scales>
<clustering>
<clus scale="   27.456">  2  9  1 -1</clus>
<clus scale="   80.627">  5  6 -1 -1</clus>
<clus scale="   85.140">  1  5  2 -1</clus>
<clus scale="   89.768">  7  8 -1 -1</clus>
<clus scale="   27.456">  2  5  1 -1</clus>
</clustering>
</event>
<event>
 9    1  0.6675710E-005  0.1006636E+03  0.7546771E-02  0.1283837E+00
         -2   -1    0    0    0  501 -0.00000000000E+00  0.00000000000E+00  0.45695810514E+03  0.45695810514E+03  0.00000000000E+00 0.  1.
         21   -1    0    0  501  502  0.00000000000E+00 -0.00000000000E+00 -0.46800248324E+02  0.46800248324E+02  0.00000000000E+00 0. -1.
        -24    2    1    2    0    0 -0.70352305134E+01  0.42359246882E+02  0.29383067629E+03  0.30768317898E+03  0.80552293798E+02 0.  0.
         23    2    1    2    0    0  0.38371588248E+02 -0.40542157083E+02  0.40327198305E+02  0.11384825414E+03  0.90659234285E+02 0.  0.
         11    1    3    3    0    0  0.10101427896E+02 -0.22024487022E+02  0.65845253954E+02  0.70162057712E+02  0.00000000000E+00 0. -1.
        -12    1    3    3    0    0 -0.17136658409E+02  0.64383733904E+02  0.22798542234E+03  0.23752112127E+03  0.00000000000E+00 0.  1.
        -11    1    4    4    0    0 -0.57933034320E+00 -0.53588467323E+02  0.48135115288E+02  0.72035052422E+02  0.00000000000E+00 0.  1.
         11    1    4    4    0    0  0.38950918591E+02  0.13046310240E+02 -0.78079169830E+01  0.41813201714E+02  0.00000000000E+00 0. -1.
         -1    1    1    2    0  502 -0.31336357735E+02 -0.18170897991E+01  0.75999982224E+02  0.82226920346E+02  0.00000000000E+00 0.  1.
<scales pt_clust_5="13000.00000" pt_clust_6="13000.00000" pt_clust_7="13000.00000" pt_clust_8="13000.00000" pt_clust_9="31.38901"></scales>
<clustering>
<clus scale="   31.389">  2  9  1 -1</clus>
<clus scale="   80.552">  5  6 -1 -1</clus>
<clus scale="   90.659">  7  8 -1 -1</clus>
<clus scale="   91.666">  1  5  2 -1</clus>
<clus scale="   31.389">  2  5  1 -1</clus>
</clustering>
</event>
<event>
 9    1  0.6675710E-005  0.9738501E+02  0.7546771E-02  0.1290531E+00
         21   -1    0    0  501  502  0.00000000000E+00  0.00000000000E+00  0.57781224458E+02  0.57781224458E+02  0.00000000000E+00 0. -1.
         -2   -1    0    0    0  501 -0.00000000000E+00 -0.00000000000E+00 -0.45128460375E+03  0.45128460375E+03  0.00000000000E+00 0.  1.
         23    2    1    2    0    0 -0.33456623538E+02  0.34858056397E+02 -0.22094349631E+03  0.24318642704E+03  0.89382212903E+02 0.  0.
        -24    2    1    2    0    0  0.25655697989E+01  0.13107464729E+01  0.63494772381E+01  0.80755122159E+02  0.80453549884E+02 0.  0.
         13    1    4    4    0    0  0.17274997248E+02  0.32950780898E+02  0.21215114943E+02  0.42828268629E+02  0.00000000000E+00 0. -1.
        -14    1    4    4    0    0 -0.14709427449E+02 -0.31640034425E+02 -0.14865637704E+02  0.37926853530E+02  0.00000000000E+00 0.  1.
        -13    1    3    3    0    0 -0.48856437323E+02 -0.10572290181E+02 -0.80301843709E+02  0.94589168992E+02  0.00000000000E+00 0. -1.
         13    1    3    3    0    0  0.15399813785E+02  0.45430346578E+02 -0.14064165260E+03  0.14859725805E+03  0.00000000000E+00 0.  1.
         -1    1    1    2    0  502  0.30891053739E+02 -0.36168802869E+02 -0.17890936023E+03  0.18512427901E+03  0.00000000000E+00 0.  1.
<scales pt_clust_5="13000.00000" pt_clust_6="13000.00000" pt_clust_7="13000.00000" pt_clust_8="13000.00000" pt_clust_9="47.56513"></scales>
<clustering>
<clus scale="   47.565">  1  9  2 -1</clus>
<clus scale="   80.454">  5  6 -1 -1</clus>
<clus scale="   89.260">  1  5  2 -1</clus>
<clus scale="   89.382">  7  8 -1 -1</clus>
<clus scale="   47.565">  1  5  2 -1</clus>
</clustering>
</event>
<event>
 9    1  0.6675710E-005  0.9821098E+02  0.7546771E-02  0.1290715E+00
         21   -1    0    0  501  502  0.00000000000E+00  0.00000000000E+00  0.36933239344E+02  0.36933239344E+02  0.00000000000E+00 0. -1.
          1   -1    0    0  502    0 -0.00000000000E+00 -0.00000000000E+00 -0.41327698192E+03  0.41327698192E+03  0.00000000000E+00 0. -1.
        -24    2    1    2    0    0  0.30933315995E+02 -0.27635231245E+02 -0.24733570746E+03  0.26291610135E+03  0.78926219450E+02 0.  0.
         23    2    1    2    0    0 -0.69402013211E+01  0.17176591918E+02 -0.53796253688E+02  0.10765829410E+03  0.91395129374E+02 0.  0.
         13    1    3    3    0    0  0.78886129937E+01  0.24440523766E+02 -0.37223208223E+02  0.45223187054E+02  0.00000000000E+00 0. -1.
        -14    1    3    3    0    0  0.23044703001E+02 -0.52075755011E+02 -0.21011249924E+03  0.21769291429E+03  0.00000000000E+00 0.  1.
        -11    1    4    4    0    0  0.19519252304E+02 -0.45080249146E+01  0.18757411887E+02  0.27443833548E+02  0.00000000000E+00 0. -1.
         11    1    4    4    0    0 -0.26459453625E+02  0.21684616832E+02 -0.72553665574E+02  0.80214460552E+02  0.00000000000E+00 0.  1.
          2    1    1    2  501    0 -0.23993114674E+02  0.10458639328E+02 -0.75211781424E+02  0.79635825815E+02  0.00000000000E+00 0. -1.
<scales pt_clust_5="13000.00000" pt_clust_6="13000.00000" pt_clust_7="13000.00000" pt_clust_8="13000.00000" pt_clust_9="26.17352"></scales>
<clustering>
<clus scale="   26.174">  1  9  2 -1</clus>
<clus scale="   78.926">  5  6 -1 -1</clus>
<clus scale="   86.728">  2  5  1 -1</clus>
<clus scale="   91.395">  7  8 -1 -1</clus>
<clus scale="   26.174">  1  5  2 -1</clus>
</clustering>
</event>
<event>
 9    1  0.6675710E-005  0.9911214E+02  0.7546771E-02  0.1289471E+00
         -2   -1    0    0    0  501 -0.00000000000E+00  0.00000000000E+00  0.39096767351E+03  0.39096767351E+03  0.00000000000E+00 0.  1.
         21   -1    0    0  501  502  0.00000000000E+00 -0.00000000000E+00 -0.68929406008E+02  0.68929406008E+02  0.00000000000E+00 0.  1.
        -24    2    1    2    0    0  0.11754988349E+02  0.28901319752E+02  0.21889369107E+03  0.23527480779E+03  0.80413438890E+02 0.  0.
         23    2    1    2    0    0  0.21873940103E+02 -0.42594947100E+02 -0.98655417133E+01  0.10592219986E+03  0.93964805838E+02 0.  0.
         13    1    3    3    0    0 -0.23326837364E+02 -0.15991302187E+02  0.90287218799E+02  0.94613133156E+02  0.00000000000E+00 0. -1.
        -14    1    3    3    0    0  0.35081825712E+02  0.44892621940E+02  0.12860647227E+03  0.14066167463E+03  0.00000000000E+00 0.  1.
        -13    1    4    4    0    0 -0.19205861867E+02 -0.25534466837E+02  0.31724713637E+02  0.45025899015E+02  0.00000000000E+00 0. -1.
         13    1    4    4    0    0  0.41079801971E+02 -0.17060480263E+02 -0.41590255350E+02  0.60896300847E+02  0.00000000000E+00 0.  1.
         -1    1    1    2    0  502 -0.33628928452E+02  0.13693627348E+02  0.11301011814E+03  0.11870007187E+03  0.00000000000E+00 0.  1.
<scales pt_clust_5="13000.00000" pt_clust_6="13000.00000" pt_clust_7="13000.00000" pt_clust_8="13000.00000" pt_clust_9="36.31008"></scales>
<clustering>
<clus scale="   36.310">  2  9  1 -1</clus>
<clus scale="   80.413">  5  6 -1 -1</clus>
<clus scale="   86.372">  1  5  2 -1</clus>
<clus scale="   93.965">  7  8 -1 -1</clus>
<clus scale="   36.310">  2  5  1 -1</clus>
</clustering>
</event>
<event>
 9    1  0.6675710E-005  0.1199703E+03  0.7546771E-02  0.1247064E+00
          3   -1    0    0  502    0 -0.00000000000E+00  0.00000000000E+00  0.55511350323E+03  0.55511350323E+03  0.00000000000E+00 0. -1.
         21   -1    0    0  501  502  0.00000000000E+00 -0.00000000000E+00 -0.58467813073E+02  0.58467813073E+02  0.00000000000E+00 0.  1.
        -24    2    1    2    0    0  0.57657917597E+02  0.73772516723E+02  0.12150990628E+03  0.17255830483E+03  0.79024626266E+02 0.  0.
         23    2    1    2    0    0 -0.60303279112E+02 -0.23092037392E+02  0.70599113187E+02  0.13228672803E+03  0.91355437530E+02 0.  0.
         13    1    3    3    0    0  0.46529264480E+02  0.74575229127E+01  0.81977023078E+02  0.94555906287E+02  0.00000000000E+00 0. -1.
        -14    1    3    3    0    0  0.11128653117E+02  0.66314993810E+02  0.39532883203E+02  0.78002398544E+02  0.00000000000E+00 0.  1.
        -13    1    4    4    0    0 -0.83090932229E+02 -0.16575643606E+02  0.40314384728E+02  0.93830190214E+02  0.00000000000E+00 0.  1.
         13    1    4    4    0    0  0.22787653117E+02 -0.65163937856E+01  0.30284728460E+02  0.38456537811E+02  0.00000000000E+00 0. -1.
          4    1    1    2  501    0  0.26453615149E+01 -0.50680479331E+02  0.30453667068E+03  0.30873628344E+03  0.00000000000E+00 0. -1.
<scales pt_clust_5="13000.00000" pt_clust_6="13000.00000" pt_clust_7="13000.00000" pt_clust_8="13000.00000" pt_clust_9="50.74950"></scales>
<clustering>
<clus scale="   50.749">  2  9  1 -1</clus>
<clus scale="   79.025">  5  6 -1 -1</clus>
<clus scale="   91.355">  7  8 -1 -1</clus>
<clus scale="  110.869">  1  5  2 -1</clus>
<clus scale="   50.749">  2  5  1 -1</clus>
</clustering>
</event>
<event>
 9    1  0.6675710E-005  0.1330865E+03  0.7546771E-02  0.1229597E+00
          3   -1    0    0  502    0 -0.00000000000E+00  0.00000000000E+00  0.62253269015E+02  0.62253269015E+02  0.00000000000E+00 0. -1.
         21   -1    0    0  501  502  0.00000000000E+00 -0.00000000000E+00 -0.53841653870E+03  0.53841653870E+03  0.00000000000E+00 0. -1.
         23    2    1    2    0    0 -0.90566250741E+01  0.68398295613E+02 -0.15964202196E+03  0.19728410558E+03  0.93140183806E+02 0.  0.
        -24    2    1    2    0    0  0.10178848992E+03  0.23162932256E+01 -0.19093369411E+03  0.23200313168E+03  0.83687010159E+02 0.  0.
         11    1    4    4    0    0  0.10309817729E+03 -0.67916466625E+01 -0.11139855675E+03  0.15193748409E+03  0.00000000000E+00 0. -1.
        -12    1    4    4    0    0 -0.13096873709E+01  0.91079398881E+01 -0.79535137357E+02  0.80065647592E+02  0.00000000000E+00 0.  1.
        -13    1    3    3    0    0 -0.44022583231E+02  0.74164335024E+01 -0.49864319586E+02  0.66928631302E+02  0.00000000000E+00 0.  1.
         13    1    3    3    0    0  0.34965958157E+02  0.60981862110E+02 -0.10977770237E+03  0.13035547428E+03  0.00000000000E+00 0. -1.
          4    1    1    2  501    0 -0.92731864843E+02 -0.70714588839E+02 -0.12558755362E+03  0.17138257045E+03  0.00000000000E+00 0. -1.
<scales pt_clust_5="13000.00000" pt_clust_6="13000.00000" pt_clust_7="13000.00000" pt_clust_8="13000.00000" pt_clust_9="103.48188"></scales>
<clustering>
<clus scale="   83.687">  5  6 -1 -1</clus>
<clus scale="   93.140">  7  8 -1 -1</clus>
<clus scale="  115.911">  1  7  2 -1</clus>
<clus scale="  103.482">  2  9  1 -1</clus>
<clus scale="  103.482">  2  5  1 -1</clus>
</clustering>
</event>
<event>
 9    1  0.6675710E-005  0.1497698E+03  0.7546771E-02  0.1211271E+00
         21   -1    0    0  501  502  0.00000000000E+00  0.00000000000E+00  0.22202138775E+03  0.22202138775E+03  0.00000000000E+00 0. -1.
          1   -1    0    0  502    0 -0.00000000000E+00 -0.00000000000E+00 -0.46366898530E+03  0.46366898530E+03  0.00000000000E+00 0. -1.
        -24    2    1    2    0    0 -0.34609258047E+02 -0.79730906871E+02 -0.36023130010E+03  0.37952518345E+03  0.81963144423E+02 0.  0.
         23    2    1    2    0    0  0.93136298840E+02 -0.49019985742E+02  0.43021862000E+02  0.14581619959E+03  0.91291589359E+02 0.  0.
         11    1    3    3    0    0 -0.70739656807E+01 -0.63422222223E+02 -0.32783170692E+03  0.33398510046E+03  0.00000000000E+00 0. -1.
        -12    1    3    3    0    0 -0.27535292366E+02 -0.16308684649E+02 -0.32399593179E+02  0.45540082991E+02  0.00000000000E+00 0.  1.
        -13    1    4    4    0    0  0.99852021530E+01 -0.55000010471E+02  0.19372708358E+02  0.59160859046E+02  0.00000000000E+00 0. -1.
         13    1    4    4    0    0  0.83151096687E+02  0.59800247290E+01  0.23649153642E+02  0.86655340540E+02  0.00000000000E+00 0.  1.
          2    1    1    2  501    0 -0.58527040794E+02  0.12875089261E+03  0.75561840547E+02  0.16034899002E+03  0.00000000000E+00 0. -1.
<scales pt_clust_5="13000.00000" pt_clust_6="13000.00000" pt_clust_7="13000.00000" pt_clust_8="13000.00000" pt_clust_9="118.73021"></scales>
<clustering>
<clus scale="   81.963">  5  6 -1 -1</clus>
<clus scale="   91.292">  7  8 -1 -1</clus>
<clus scale="  119.469">  2  5  1 -1</clus>
<clus scale="  118.730">  1  9  2 -1</clus>
<clus scale="  118.730">  1  5  2 -1</clus>
</clustering>
</event>
<event>
 9    1  0.6675710E-005  0.9223002E+02  0.7546771E-02  0.1303668E+00
          3   -1    0    0  502    0 -0.00000000000E+00  0.00000000000E+00  0.32934148438E+02  0.32934148438E+02  0.00000000000E+00 0. -1.
         21   -1    0    0  501  502  0.00000000000E+00 -0.00000000000E+00 -0.41095464419E+03  0.41095464419E+03  0.00000000000E+00 0.  1.
        -24    2    1    2    0    0 -0.23922774253E+02  0.16119174034E+01 -0.83491781836E+02  0.11854085951E+03  0.80660773195E+02 0.  0.
         23    2    1    2    0    0 -0.51841113571E+01 -0.11768085449E+02 -0.27243064302E+03  0.28741795452E+03  0.90693232819E+02 0.  0.
         13    1    3    3    0    0  0.22352634344E+02  0.44483598611E+01 -0.64555505104E+02  0.68460509835E+02  0.00000000000E+00 0. -1.
        -14    1    3    3    0    0 -0.46275408597E+02 -0.28364424577E+01 -0.18936276732E+02  0.50080349670E+02  0.00000000000E+00 0.  1.
        -13    1    4    4    0    0  0.22224848945E+02 -0.37970644893E+02 -0.20847030345E+03  0.21306238806E+03  0.00000000000E+00 0.  1.
         13    1    4    4    0    0 -0.27408960302E+02  0.26202559444E+02 -0.63960339567E+02  0.74355566461E+02  0.00000000000E+00 0. -1.
          4    1    1    2  501    0  0.29106885610E+02  0.10156168046E+02 -0.22098070895E+02  0.37929978600E+02  0.00000000000E+00 0. -1.
<scales pt_clust_5="13000.00000" pt_clust_6="13000.00000" pt_clust_7="13000.00000" pt_clust_8="13000.00000" pt_clust_9="30.82790"></scales>
<clustering>
<clus scale="   30.828">  2  9  1 -1</clus>
<clus scale="   80.661">  5  6 -1 -1</clus>
<clus scale="   82.385">  1  5  2 -1</clus>
<clus scale="   90.693">  7  8 -1 -1</clus>
<clus scale="   30.828">  2  5  1 -1</clus>
</clustering>
</event>
<event>
 9    1  0.6675710E-005  0.1231753E+03  0.7546771E-02  0.1241593E+00
         21   -1    0    0  501  502  0.00000000000E+00  0.00000000000E+00  0.36779840268E+03  0.36779840268E+03  0.00000000000E+00 0.  1.
         -4   -1    0    0    0  501 -0.00000000000E+00 -0.00000000000E+00 -0.57575801363E+02  0.57575801363E+02  0.00000000000E+00 0.  1.
         23    2    1    2    0    0 -0.27007680025E+02  0.70294011499E+02  0.61635751619E+02  0.13450783140E+03  0.92858645246E+02 0.  0.
        -24    2    1    2    0    0  0.50405248305E+02 -0.80858011351E+02  0.21373795715E+03  0.24758254650E+03  0.80836229168E+02 0.  0.
         13    1    4    4    0    0  0.46440225590E+02 -0.38030637595E+01  0.64385061793E+02  0.79477003145E+02  0.00000000000E+00 0. -1.
        -14    1    4    4    0    0  0.39650227145E+01 -0.77054947592E+02  0.14935289536E+03  0.16810554335E+03  0.00000000000E+00 0.  1.
        -13    1    3    3    0    0 -0.58691294179E+02  0.46678065433E+02  0.58041889674E+02  0.94828111665E+02  0.00000000000E+00 0.  1.
         13    1    3    3    0    0  0.31683614154E+02  0.23615946066E+02  0.35938619450E+01  0.39679719734E+02  0.00000000000E+00 0. -1.
         -3    1    1    2    0  502 -0.23397568280E+02  0.10563999853E+02  0.34848892549E+02  0.43283826150E+02  0.00000000000E+00 0.  1.
<scales pt_clust_5="13000.00000" pt_clust_6="13000.00000" pt_clust_7="13000.00000" pt_clust_8="13000.00000" pt_clust_9="25.67186"></scales>
<clustering>
<clus scale="   25.672">  1  9  2 -1</clus>
<clus scale="   80.836">  5  6 -1 -1</clus>
<clus scale="   92.859">  7  8 -1 -1</clus>
<clus scale="  114.385">  1  5  2 -1</clus>
<clus scale="   25.672">  1  5  2 -1</clus>
</clustering>
</event>
<event>
 9    1  0.6675710E-005  0.1145855E+03  0.7546771E-02  0.1256097E+00
          1   -1    0    0  502    0 -0.00000000000E+00  0.00000000000E+00  0.47732872245E+03  0.47732872245E+03  0.00000000000E+00 0. -1.
         21   -1    0    0  501  502  0.00000000000E+00 -0.00000000000E+00 -0.54157458474E+02  0.54157458474E+02  0.00000000000E+00 0.  1.
         23    2    1    2    0    0 -0.36617617119E+02 -0.51445798256E+02  0.18416879522E+03  0.21475670711E+03  0.90635412910E+02 0.  0.
        -24    2    1    2    0    0  0.81963388381E+02  0.43101190043E+02  0.68652763091E+02  0.14025031449E+03  0.79882659040E+02 0.  0.
         11    1    4    4    0    0 -0.10264142162E+02  0.17426912314E+02  0.31760499081E+02  0.37653408730E+02  0.00000000000E+00 0. -1.
        -12    1    4    4    0    0  0.92227530542E+02  0.25674277729E+02  0.36892264010E+02  0.10259690576E+03  0.00000000000E+00 0.  1.
        -11    1    3    3    0    0  0.22160178845E+02 -0.46223824971E+02  0.91973375686E+02  0.10529395688E+03  0.00000000000E+00 0. -1.
         11    1    3    3    0    0 -0.58777795964E+02 -0.52219732858E+01  0.92195419533E+02  0.10946275022E+03  0.00000000000E+00 0.  1.
          2    1    1    2  501    0 -0.45345771262E+02  0.83446082131E+01  0.17034970566E+03  0.17647915933E+03  0.00000000000E+00 0. -1.
<scales pt_clust_5="13000.00000" pt_clust_6="13000.00000" pt_clust_7="13000.00000" pt_clust_8="13000.00000" pt_clust_9="46.10720"></scales>
<clustering>
<clus scale="   46.107">  2  9  1 -1</clus>
<clus scale="   79.883">  5  6 -1 -1</clus>
<clus scale="   90.635">  7  8 -1 -1</clus>
<clus scale="  106.284">  2  5  1 -1</clus>
<clus scale="   46.107">  2  5  1 -1</clus>
</clustering>
</event>
<event>
 9    1  0.6675710E-005  0.1288081E+03  0.7546771E-02  0.1231919E+00
          1   -1    0    0  502    0 -0.00000000000E+00  0.00000000000E+00  0.22786828481E+03  0.22786828481E+03  0.00000000000E+00 0. -1.
         21   -1    0    0  501  502  0.00000000000E+00 -0.00000000000E+00 -0.12451211349E+03  0.12451211349E+03  0.00000000000E+00 0.  1.
         23    2    1    2    0    0 -0.92028370890E+02 -0.13116920697E+02  0.15029716591E+03  0.19857823598E+03  0.90569327415E+02 0.  0.
        -24    2    1    2    0    0  0.82313331165E+02  0.35506110362E+02 -0.30010601790E+02  0.12409869431E+03  0.80397023268E+02 0.  0.
         13    1    4    4    0    0  0.36687223901E+02  0.23335978595E+02  0.26138969701E+02  0.50732297716E+02  0.00000000000E+00 0. -1.
        -14    1    4    4    0    0  0.45626107264E+02  0.12170131767E+02 -0.56149571491E+02  0.73366396599E+02  0.00000000000E+00 0.  1.
        -11    1    3    3    0    0 -0.15350150187E+02  0.35520826775E+02  0.39009250655E+02  0.54946136190E+02  0.00000000000E+00 0.  1.
         11    1    3    3    0    0 -0.76678220703E+02 -0.48637747472E+02  0.11128791525E+03  0.14363209979E+03  0.00000000000E+00 0. -1.
          2    1    1    2  501    0  0.97150397259E+01 -0.22389189665E+02 -0.16930392796E+02  0.29703467995E+02  0.00000000000E+00 0. -1.
<scales pt_clust_5="13000.00000" pt_clust_6="13000.00000" pt_clust_7="13000.00000" pt_clust_8="13000.00000" pt_clust_9="24.40610"></scales>
<clustering>
<clus scale="   24.406">  2  9  1 -1</clus>
<clus scale="   80.397">  5  6 -1 -1</clus>
<clus scale="   90.569">  7  8 -1 -1</clus>
<clus scale="  121.870">  2  5  1 -1</clus>
<clus scale="   24.406">  2  5  1 -1</clus>
</clustering>
</event>
<event>
 9    1  0.6675710E-005  0.9544005E+02  0.7546771E-02  0.1296833E+00
         21   -1    0    0  501  502  0.00000000000E+00  0.00000000000E+00  0.61802471160E+02  0.61802471160E+02  0.00000000000E+00 0.  1.
          1   -1    0    0  502    0 -0.00000000000E+00 -0.00000000000E+00 -0.47948535017E+03  0.47948535017E+03  0.00000000000E+00 0. -1.
        -24    2    1    2    0    0  0.43442451612E+01  0.25640032110E+02 -0.32280198185E+03  0.33342713280E+03  0.79348911073E+02 0.  0.
         23    2    1    2    0    0  0.58734247846E+02 -0.47136204631E+02 -0.56938495114E+02  0.13117556881E+03  0.91068677217E+02 0.  0.
         11    1    3    3    0    0 -0.11891769583E+02 -0.24516661004E+02 -0.15995354634E+03  0.16225787450E+03  0.00000000000E+00 0. -1.
        -12    1    3    3    0    0  0.16236014744E+02  0.50156693114E+02 -0.16284843551E+03  0.17116925830E+03  0.00000000000E+00 0.  1.
        -11    1    4    4    0    0  0.21625302042E+02 -0.16818557431E+02 -0.75091931365E+02  0.79933195348E+02  0.00000000000E+00 0. -1.
         11    1    4    4    0    0  0.37108945804E+02 -0.30317647199E+02  0.18153436251E+02  0.51242373463E+02  0.00000000000E+00 0.  1.
          2    1    1    2  501    0 -0.63078493008E+02  0.21496172521E+02 -0.37942402045E+02  0.76685119718E+02  0.00000000000E+00 0. -1.
<scales pt_clust_5="13000.00000" pt_clust_6="13000.00000" pt_clust_7="13000.00000" pt_clust_8="13000.00000" pt_clust_9="66.64069"></scales>
<clustering>
<clus scale="   66.641">  1  9  2 -1</clus>
<clus scale="   79.349">  5  6 -1 -1</clus>
<clus scale="   84.330">  2  5  1 -1</clus>
<clus scale="   91.069">  7  8 -1 -1</clus>
<clus scale="   66.641">  1  5  2 -1</clus>
</clustering>
</event>
<event>
 9    1  0.6675710E-005  0.9106586E+02  0.7546771E-02  0.1304382E+00
         -4   -1    0    0    0  501 -0.00000000000E+00  0.00000000000E+00  0.57870770843E+03  0.57870770843E+03  0.00000000000E+00 0.  1.
         21   -1    0    0  501  502  0.00000000000E+00 -0.00000000000E+00 -0.46665527121E+02  0.46665527121E+02  0.00000000000E+00 0. -1.
        -24    2    1    2    0    0  0.15979531851E+01  0.23487048566E+01  0.47337806342E+03  0.48082005637E+03  0.84220340828E+02 0.  0.
         23    2    1    2    0    0 -0.12756646673E+02 -0.31624642429E+02  0.58360734674E+02  0.11322126251E+03  0.90830770611E+02 0.  0.
         13    1    3    3    0    0  0.14530906879E+02 -0.34210182525E+02  0.12846471920E+03  0.13373357066E+03  0.00000000000E+00 0. -1.
        -14    1    3    3    0    0 -0.12932953694E+02  0.36558887381E+02  0.34491334422E+03  0.34708648571E+03  0.00000000000E+00 0.  1.
        -13    1    4    4    0    0  0.14452086303E+02 -0.52601396306E+02  0.56913481042E+02  0.78834725953E+02  0.00000000000E+00 0. -1.
         13    1    4    4    0    0 -0.27208732976E+02  0.20976753877E+02  0.14472536327E+01  0.34386536558E+02  0.00000000000E+00 0.  1.
         -3    1    1    2    0  502  0.11158693488E+02  0.29275937573E+02  0.30338321668E+00  0.31331916674E+02  0.00000000000E+00 0.  1.
<scales pt_clust_5="13000.00000" pt_clust_6="13000.00000" pt_clust_7="13000.00000" pt_clust_8="13000.00000" pt_clust_9="31.33045"></scales>
<clustering>
<clus scale="   31.330">  2  9  1 -1</clus>
<clus scale="   84.220">  5  6 -1 -1</clus>
<clus scale="   84.474">  1  5  2 -1</clus>
<clus scale="   90.831">  7  8 -1 -1</clus>
<clus scale="   31.330">  2  5  1 -1</clus>
</clustering>
</event>
<event>
 9    1  0.6675710E-005  0.8973151E+02  0.7546771E-02  0.1304219E+00
          3   -1    0    0  502    0 -0.00000000000E+00  0.00000000000E+00  0.57623456693E+02  0.57623456693E+02  0.00000000000E+00 0. -1.
         21   -1    0    0  501  502  0.00000000000E+00 -0.00000000000E+00 -0.23721020789E+03  0.23721020789E+03  0.00000000000E+00 0.  1.
        -24    2    1    2    0    0  0.14666313657E+02  0.28604441404E+02 -0.14862239648E+02  0.89279297536E+02  0.81954816678E+02 0.  0.
         23    2    1    2    0    0  0.70878564575E+01 -0.41837338474E+02 -0.10447603505E+03  0.14014616877E+03  0.83217222496E+02 0.  0.
         13    1    3    3    0    0  0.36343491278E+02  0.47131323490E+02 -0.98145075373E+01  0.60320274953E+02  0.00000000000E+00 0. -1.
        -14    1    3    3    0    0 -0.21677177622E+02 -0.18526882086E+02 -0.50477321107E+01  0.28959022582E+02  0.00000000000E+00 0.  1.
        -13    1    4    4    0    0  0.17749958254E+02 -0.12966307601E+02 -0.10702958713E+03  0.10926352855E+03  0.00000000000E+00 0.  1.
         13    1    4    4    0    0 -0.10662101797E+02 -0.28871030873E+02  0.25535520761E+01  0.30882640215E+02  0.00000000000E+00 0. -1.
          4    1    1    2  501    0 -0.21754170114E+02  0.13232897070E+02 -0.60248476495E+02  0.65408198279E+02  0.00000000000E+00 0. -1.
<scales pt_clust_5="13000.00000" pt_clust_6="13000.00000" pt_clust_7="13000.00000" pt_clust_8="13000.00000" pt_clust_9="25.46279"></scales>
<clustering>
<clus scale="   25.463">  2  9  1 -1</clus>
<clus scale="   81.955">  5  6 -1 -1</clus>
<clus scale="   83.217">  7  8 -1 -1</clus>
<clus scale="   88.562">  1  5  2 -1</clus>
<clus scale="   25.463">  2  5  1 -1</clus>
</clustering>
</event>
<event>
 9    1  0.6675710E-005  0.9329859E+02  0.7546771E-02  0.1298134E+00
         21   -1    0    0  501  502  0.00000000000E+00  0.00000000000E+00  0.57865361216E+02  0.57865361216E+02  0.00000000000E+00 0. -1.
          1   -1    0    0  502    0 -0.00000000000E+00 -0.00000000000E+00 -0.60336182669E+03  0.60336182669E+03  0.00000000000E+00 0. -1.
         23    2    1    2    0    0  0.34915672350E+02 -0.98508453996E+01 -0.40555341472E+03  0.41729230063E+03  0.91340837774E+02 0.  0.
        -24    2    1    2    0    0  0.16770515319E+02  0.63840617054E+01 -0.16457294887E+03  0.18657538531E+03  0.86047152620E+02 0.  0.
         13    1    4    4    0    0  0.22734782227E+02  0.11974406065E+02 -0.42504742502E+01  0.26044639658E+02  0.00000000000E+00 0. -1.
        -14    1    4    4    0    0 -0.59642669086E+01 -0.55903443596E+01 -0.16032247462E+03  0.16053074565E+03  0.00000000000E+00 0.  1.
        -13    1    3    3    0    0  0.14398171583E+02  0.39429068265E+02 -0.23013330084E+03  0.23393010692E+03  0.00000000000E+00 0. -1.
         13    1    3    3    0    0  0.20517500767E+02 -0.49279913664E+02 -0.17542011388E+03  0.18336219371E+03  0.00000000000E+00 0.  1.
          2    1    1    2  501    0 -0.51686187669E+02  0.34667836942E+01  0.24629898115E+02  0.57359501969E+02  0.00000000000E+00 0. -1.
<scales pt_clust_5="13000.00000" pt_clust_6="13000.00000" pt_clust_7="13000.00000" pt_clust_8="13000.00000" pt_clust_9="51.80232"></scales>
<clustering>
<clus scale="   51.802">  1  9  2 -1</clus>
<clus scale="   86.047">  5  6 -1 -1</clus>
<clus scale="   88.123">  1  5  2 -1</clus>
<clus scale="   91.341">  7  8 -1 -1</clus>
<clus scale="   51.802">  1  5  2 -1</clus>
</clustering>
</event>
<event>
 9    1  0.6675710E-005  0.9646476E+02  0.7546771E-02  0.1288999E+00
          1   -1    0    0  502    0 -0.00000000000E+00  0.00000000000E+00  0.14243216752E+03  0.14243216752E+03  0.00000000000E+00 0. -1.
         21   -1    0    0  501  502  0.00000000000E+00 -0.00000000000E+00 -0.16401763305E+03  0.16401763305E+03  0.00000000000E+00 0. -1.
        -24    2    1    2    0    0 -0.35611581564E+02 -0.13359608913E+02  0.40468027747E+02  0.10439483007E+03  0.88396580156E+02 0.  0.
         23    2    1    2    0    0 -0.21835952760E+01  0.38945434912E+02 -0.10169827914E+03  0.14159987203E+03  0.90479106928E+02 0.  0.
         11    1    3    3    0    0 -0.38901666997E+02 -0.23327547328E+02  0.64106084978E+02  0.78530912962E+02  0.00000000000E+00 0. -1.
        -12    1    3    3    0    0  0.32900854324E+01  0.99679384150E+01 -0.23638057231E+02  0.25863917106E+02  0.00000000000E+00 0.  1.
        -11    1    4    4    0    0  0.13960239998E+02 -0.25797631375E+02 -0.17457680542E+02  0.34134684637E+02  0.00000000000E+00 0.  1.
         11    1    4    4    0    0 -0.16143835274E+02  0.64743066287E+02 -0.84240598596E+02  0.10746518739E+03  0.00000000000E+00 0. -1.
          2    1    1    2  501    0  0.37795176840E+02 -0.25585826000E+02  0.39644785869E+02  0.60455098470E+02  0.00000000000E+00 0. -1.
<scales pt_clust_5="13000.00000" pt_clust_6="13000.00000" pt_clust_7="13000.00000" pt_clust_8="13000.00000" pt_clust_9="45.64112"></scales>
<clustering>
<clus scale="   45.641">  2  9  1 -1</clus>
<clus scale="   88.397">  5  6 -1 -1</clus>
<clus scale="   90.479">  7  8 -1 -1</clus>
<clus scale="   94.514">  1  5  2 -1</clus>
<clus scale="   45.641">  2  5  1 -1</clus>
</clustering>
</event>
<event>
 9    1  0.6675710E-005  0.1734373E+03  0.7546771E-02  0.1201955E+00
         -2   -1    0    0    0  501 -0.00000000000E+00  0.00000000000E+00  0.11108886792E+03  0.11108886792E+03  0.00000000000E+00 0.  1.
         21   -1    0    0  501  502  0.00000000000E+00 -0.00000000000E+00 -0.90693727453E+03  0.90693727453E+03  0.00000000000E+00 0.  1.
        -24    2    1    2    0    0 -0.47228225188E+02 -0.47478364622E+01 -0.26650066588E+03  0.28258234102E+03  0.81099490346E+02 0.  0.
         23    2    1    2    0    0  0.11005021746E+03  0.13812402535E+03 -0.11804017215E+02  0.19731062441E+03  0.87194328597E+02 0.  0.
         11    1    3    3    0    0 -0.56713981214E+02 -0.30447820794E+02 -0.15648587916E+03  0.16920808442E+03  0.00000000000E+00 0. -1.
        -12    1    3    3    0    0  0.94857560257E+01  0.25699984332E+02 -0.11001478672E+03  0.11337425660E+03  0.00000000000E+00 0.  1.
        -11    1    4    4    0    0  0.17969475160E+02  0.49026966435E+02 -0.40410185798E+02  0.66026726343E+02  0.00000000000E+00 0. -1.
         11    1    4    4    0    0  0.92080742302E+02  0.89097058913E+02  0.28606168582E+02  0.13128389806E+03  0.00000000000E+00 0.  1.
         -1    1    1    2    0  502 -0.62821992274E+02 -0.13337618889E+03 -0.51754372351E+03  0.53813317703E+03  0.00000000000E+00 0.  1.
<scales pt_clust_5="13000.00000" pt_clust_6="13000.00000" pt_clust_7="13000.00000" pt_clust_8="13000.00000" pt_clust_9="149.92544"></scales>
<clustering>
<clus scale="   81.099">  5  6 -1 -1</clus>
<clus scale="   87.194">  7  8 -1 -1</clus>
<clus scale="   93.969">  1  5  2 -1</clus>
<clus scale="  149.925">  2  9  1 -1</clus>
<clus scale="  149.925">  2  5  1 -1</clus>
</clustering>
</event>
<event>
 9    1  0.6675710E-005  0.1576995E+03  0.7546771E-02  0.1216229E+00
         21   -1    0    0  501  502  0.00000000000E+00  0.00000000000E+00  0.17654416301E+03  0.17654416301E+03  0.00000000000E+00 0.  1.
          1   -1    0    0  502    0 -0.00000000000E+00 -0.00000000000E+00 -0.22572952882E+03  0.22572952882E+03  0.00000000000E+00 0. -1.
         23    2    1    2    0    0  0.21426322403E+02 -0.15871458800E+02  0.30523700116E+02  0.97043444607E+02  0.88174505251E+02 0.  0.
        -24    2    1    2    0    0  0.12398796476E+03  0.18825199743E+02 -0.44266676300E+02  0.15552987155E+03  0.80638692712E+02 0.  0.
         11    1    4    4    0    0  0.10193567253E+03 -0.51099175689E+01 -0.61032483176E+02  0.11891995877E+03  0.00000000000E+00 0. -1.
        -12    1    4    4    0    0  0.22052292232E+02  0.23935117312E+02  0.16765806876E+02  0.36609912778E+02  0.00000000000E+00 0.  1.
        -13    1    3    3    0    0  0.56868515100E+01 -0.41854847907E+02 -0.12794551699E+02  0.44134670346E+02  0.00000000000E+00 0.  1.
         13    1    3    3    0    0  0.15739470893E+02  0.25983389107E+02  0.43318251816E+02  0.52908774261E+02  0.00000000000E+00 0. -1.
          2    1    1    2  501    0 -0.14541428716E+03 -0.29537409430E+01 -0.35442389627E+02  0.14970037568E+03  0.00000000000E+00 0. -1.
<scales pt_clust_5="13000.00000" pt_clust_6="13000.00000" pt_clust_7="13000.00000" pt_clust_8="13000.00000" pt_clust_9="135.52321"></scales>
<clustering>
<clus scale="   80.639">  5  6 -1 -1</clus>
<clus scale="   88.175">  7  8 -1 -1</clus>
<clus scale="   92.118">  2  7  1 -1</clus>
<clus scale="  135.523">  1  9  2 -1</clus>
<clus scale="  135.523">  1  5  2 -1</clus>
</clustering>
</event>
<event>
 9    1  0.6675710E-005  0.4170838E+03  0.7546771E-02  0.1078710E+00
          1   -1    0    0  502    0 -0.00000000000E+00  0.00000000000E+00  0.35659858747E+03  0.35659858747E+03  0.00000000000E+00 0. -1.
         21   -1    0    0  501  502  0.00000000000E+00 -0.00000000000E+00 -0.71751701814E+03  0.71751701814E+03  0.00000000000E+00 0. -1.
        -24    2    1    2    0    0 -0.10056030848E+03  0.33091384152E+02 -0.37632283762E+02  0.13824371919E+03  0.80546395138E+02 0.  0.
         23    2    1    2    0    0  0.18653099138E+03  0.36680857583E+03 -0.11957082442E+02  0.42183227442E+03  0.91962785271E+02 0.  0.
         11    1    3    3    0    0 -0.60064340156E+02 -0.19409396151E+02 -0.34337621453E+02  0.71857650006E+02  0.00000000000E+00 0. -1.
        -12    1    3    3    0    0 -0.40495968320E+02  0.52500780303E+02 -0.32946623092E+01  0.66386069189E+02  0.00000000000E+00 0.  1.
        -11    1    4    4    0    0  0.20042617876E+02  0.13217566512E+03  0.33154103102E+01  0.13372772684E+03  0.00000000000E+00 0.  1.
         11    1    4    4    0    0  0.16648837351E+03  0.23463291072E+03 -0.15272492753E+02  0.28810454759E+03  0.00000000000E+00 0. -1.
          2    1    1    2  501    0 -0.85970682905E+02 -0.39989995999E+03 -0.31132906446E+03  0.51403961199E+03  0.00000000000E+00 0. -1.
<scales pt_clust_5="13000.00000" pt_clust_6="13000.00000" pt_clust_7="13000.00000" pt_clust_8="13000.00000" pt_clust_9="406.81904"></scales>
<clustering>
<clus scale="   80.546">  5  6 -1 -1</clus>
<clus scale="   91.963">  7  8 -1 -1</clus>
<clus scale="  133.023">  1  5  2 -1</clus>
<clus scale="  406.819">  2  9  1 -1</clus>
<clus scale="  406.819">  2  5  1 -1</clus>
</clustering>
</event>
<event>
 9    1  0.6675710E-005  0.9370036E+02  0.7546771E-02  0.1304650E+00
          3   -1    0    0  502    0 -0.00000000000E+00  0.00000000000E+00  0.46327592500E+03  0.46327592500E+03  0.00000000000E+00 0. -1.
         21   -1    0    0  501  502  0.00000000000E+00 -0.00000000000E+00 -0.22457290340E+02  0.22457290340E+02  0.00000000000E+00 0. -1.
        -24    2    1    2    0    0 -0.97239111612E-01  0.39358975648E+01  0.21919686325E+03  0.23217121577E+03  0.76424523746E+02 0.  0.
         23    2    1    2    0    0  0.12473543484E+02 -0.23007280264E+02  0.15043541981E+03  0.17883324203E+03  0.93089143789E+02 0.  0.
         11    1    3    3    0    0 -0.23095799073E+02  0.27321740405E+02  0.16490137228E+03  0.16873753587E+03  0.00000000000E+00 0. -1.
        -12    1    3    3    0    0  0.22998559961E+02 -0.23385842840E+02  0.54295490968E+02  0.63433679895E+02  0.00000000000E+00 0.  1.
        -13    1    4    4    0    0  0.16672312874E+02  0.27938041013E+02  0.18695923237E+02  0.37523828401E+02  0.00000000000E+00 0.  1.
         13    1    4    4    0    0 -0.41987693900E+01 -0.50945321277E+02  0.13173949657E+03  0.14130941363E+03  0.00000000000E+00 0. -1.
          4    1    1    2  501    0 -0.12376304372E+02  0.19071382699E+02  0.71186351605E+02  0.74728757535E+02  0.00000000000E+00 0. -1.
<scales pt_clust_5="13000.00000" pt_clust_6="13000.00000" pt_clust_7="13000.00000" pt_clust_8="13000.00000" pt_clust_9="22.73524"></scales>
<clustering>
<clus scale="   22.735">  2  9  1 -1</clus>
<clus scale="   76.425">  5  6 -1 -1</clus>
<clus scale="   77.168">  1  5  2 -1</clus>
<clus scale="   93.089">  7  8 -1 -1</clus>
<clus scale="   22.735">  2  5  1 -1</clus>
</clustering>
</event>
<event>
 9    1  0.6675710E-005  0.1014944E+03  0.7546771E-02  0.1279363E+00
         21   -1    0    0  501  502  0.00000000000E+00  0.00000000000E+00  0.16861339064E+03  0.16861339064E+03  0.00000000000E+00 0. -1.
          1   -1    0    0  502    0 -0.00000000000E+00 -0.00000000000E+00 -0.16007205010E+03  0.16007205010E+03  0.00000000000E+00 0. -1.
         23    2    1    2    0    0  0.66320246524E+02  0.56899129046E+00 -0.73348667973E+02  0.13039961244E+03  0.85001958693E+02 0.  0.
        -24    2    1    2    0    0 -0.10172023758E+02  0.32511845886E+02  0.98129801496E+02  0.13112411610E+03  0.80022407438E+02 0.  0.
         11    1    4    4    0    0  0.28534896421E+02  0.38348989539E+02  0.52331918005E+02  0.70876758917E+02  0.00000000000E+00 0. -1.
        -12    1    4    4    0    0 -0.38706920179E+02 -0.58371436531E+01  0.45797883491E+02  0.60247357187E+02  0.00000000000E+00 0.  1.
        -13    1    3    3    0    0 -0.11689052135E+01  0.24682641075E+02  0.39109815093E+01  0.25017891322E+02  0.00000000000E+00 0.  1.
         13    1    3    3    0    0  0.67489151738E+02 -0.24113649785E+02 -0.77259649482E+02  0.10538172112E+03  0.00000000000E+00 0. -1.
          2    1    1    2  501    0 -0.56148222766E+02 -0.33080837176E+02 -0.16239792983E+02  0.67161712189E+02  0.00000000000E+00 0. -1.
<scales pt_clust_5="13000.00000" pt_clust_6="13000.00000" pt_clust_7="13000.00000" pt_clust_8="13000.00000" pt_clust_9="65.16877"></scales>
<clustering>
<clus scale="   65.169">  1  9  2 -1</clus>
<clus scale="   80.022">  5  6 -1 -1</clus>
<clus scale="   85.002">  7  8 -1 -1</clus>
<clus scale="   97.362">  1  5  2 -1</clus>
<clus scale="   65.169">  1  5  2 -1</clus>
</clustering>
</event>
<event>
 9    1  0.6675710E-005  0.9725789E+02  0.7546771E-02  0.1292735E+00
         -2   -1    0    0    0  501 -0.00000000000E+00  0.00000000000E+00  0.10182689349E+03  0.10182689349E+03  0.00000000000E+00 0.  1.
         21   -1    0    0  501  502  0.00000000000E+00 -0.00000000000E+00 -0.16332773663E+03  0.16332773663E+03  0.00000000000E+00 0.  1.
        -24    2    1    2    0    0 -0.17371931489E+02 -0.53879997714E+02  0.21700577148E+01  0.97965543749E+02  0.79923090870E+02 0.  0.
         23    2    1    2    0    0  0.12884042897E+02 -0.57088119970E+01 -0.26089308337E+02  0.96596285876E+02  0.91932591282E+02 0.  0.
         11    1    3    3    0    0  0.20342789701E+02 -0.50350954095E+02  0.17567907971E+02  0.57076081344E+02  0.00000000000E+00 0. -1.
        -12    1    3    3    0    0 -0.37714721190E+02 -0.35290436191E+01 -0.15397850257E+02  0.40889462405E+02  0.00000000000E+00 0.  1.
        -11    1    4    4    0    0 -0.28385369534E+02 -0.22563971736E+02 -0.35817805771E+02  0.50968394466E+02  0.00000000000E+00 0.  1.
         11    1    4    4    0    0  0.41269412431E+02  0.16855159739E+02  0.97284974345E+01  0.45627891411E+02  0.00000000000E+00 0. -1.
         -1    1    1    2    0  502  0.44878885920E+01  0.59588809711E+02 -0.37581592518E+02  0.70592800504E+02  0.00000000000E+00 0.  1.
<scales pt_clust_5="13000.00000" pt_clust_6="13000.00000" pt_clust_7="13000.00000" pt_clust_8="13000.00000" pt_clust_9="59.75757"></scales>
<clustering>
<clus scale="   59.758">  2  9  1 -1</clus>
<clus scale="   79.923">  5  6 -1 -1</clus>
<clus scale="   85.995">  1  5  2 -1</clus>
<clus scale="   91.933">  7  8 -1 -1</clus>
<clus scale="   59.758">  2  5  1 -1</clus>
</clustering>
</event>
<event>
 9    1  0.6675710E-005  0.1568695E+03  0.7546771E-02  0.1194565E+00
         21   -1    0    0  501  502  0.00000000000E+00  0.00000000000E+00  0.43428643504E+02  0.43428643504E+02  0.00000000000E+00 0. -1.
          1   -1    0    0  502    0 -0.00000000000E+00 -0.00000000000E+00 -0.90233044211E+03  0.90233044211E+03  0.00000000000E+00 0. -1.
         23    2    1    2    0    0  0.10354238536E+03  0.64318503026E+02 -0.57079543714E+03  0.59050428533E+03  0.89610180943E+02 0.  0.
        -24    2    1    2    0    0 -0.11413132938E+03 -0.88190673469E+02 -0.28600155546E+03  0.32905486774E+03  0.75343619692E+02 0.  0.
         13    1    4    4    0    0 -0.85216180135E+02 -0.96829712366E+02 -0.25513233113E+03  0.28588511143E+03  0.00000000000E+00 0. -1.
        -14    1    4    4    0    0 -0.28915149246E+02  0.86390388972E+01 -0.30869224329E+02  0.43169756307E+02  0.00000000000E+00 0.  1.
        -11    1    3    3    0    0  0.86563491590E+01 -0.18327252667E+02 -0.38179432875E+02  0.43226029956E+02  0.00000000000E+00 0.  1.
         11    1    3    3    0    0  0.94886036196E+02  0.82645755693E+02 -0.53261600427E+03  0.54727825537E+03  0.00000000000E+00 0. -1.
          2    1    1    2  501    0  0.10588944026E+02  0.23872170442E+02 -0.21048060104E+01  0.26199932548E+02  0.00000000000E+00 0. -1.
<scales pt_clust_5="13000.00000" pt_clust_6="13000.00000" pt_clust_7="13000.00000" pt_clust_8="13000.00000" pt_clust_9="26.11525"></scales>
<clustering>
<clus scale="   26.115">  1  9  2 -1</clus>
<clus scale="   75.344">  5  6 -1 -1</clus>
<clus scale="   89.610">  7  8 -1 -1</clus>
<clus scale="  149.180">  1  5  2 -1</clus>
<clus scale="   26.115">  1  5  2 -1</clus>
</clustering>
</event>
<event>
 9    1  0.6675710E-005  0.1083626E+03  0.7546771E-02  0.1267992E+00
         21   -1    0    0  501  502  0.00000000000E+00  0.00000000000E+00  0.33450455741E+03  0.33450455741E+03  0.00000000000E+00 0. -1.
          1   -1    0    0  502    0 -0.00000000000E+00 -0.00000000000E+00 -0.12333208256E+03  0.12333208256E+03  0.00000000000E+00 0. -1.
        -24    2    1    2    0    0  0.92236005864E+01  0.57314840389E+02 -0.68857359583E+02  0.12083411423E+03  0.80557317828E+02 0.  0.
         23    2    1    2    0    0  0.13525217841E+02 -0.65969212723E+02  0.28947731966E+03  0.31089387053E+03  0.91230540876E+02 0.  0.
         13    1    3    3    0    0 -0.11282394271E+02  0.72338970568E+02 -0.44789695477E+02  0.85827361047E+02  0.00000000000E+00 0. -1.
        -14    1    3    3    0    0  0.20505994857E+02 -0.15024130179E+02 -0.24067664107E+02  0.35006753181E+02  0.00000000000E+00 0.  1.
        -13    1    4    4    0    0 -0.37117763791E+02 -0.29415417757E+02  0.16445747465E+03  0.17114104171E+03  0.00000000000E+00 0. -1.
         13    1    4    4    0    0  0.50642981631E+02 -0.36553794966E+02  0.12501984502E+03  0.13975282882E+03  0.00000000000E+00 0.  1.
          2    1    1    2  501    0 -0.22748818427E+02  0.86543723340E+01 -0.94474852286E+01  0.26108655221E+02  0.00000000000E+00 0. -1.
<scales pt_clust_5="13000.00000" pt_clust_6="13000.00000" pt_clust_7="13000.00000" pt_clust_8="13000.00000" pt_clust_9="24.33942"></scales>
<clustering>
<clus scale="   24.339">  1  9  2 -1</clus>
<clus scale="   80.557">  5  6 -1 -1</clus>
<clus scale="   91.231">  7  8 -1 -1</clus>
<clus scale="   99.544">  2  5  1 -1</clus>
<clus scale="   24.339">  1  5  2 -1</clus>
</clustering>
</event>
<event>
 9    1  0.6675710E-005  0.1185990E+03  0.7546771E-02  0.1246658E+00
          1   -1    0    0  502    0 -0.00000000000E+00  0.00000000000E+00  0.39959253260E+03  0.39959253260E+03  0.00000000000E+00 0. -1.
         21   -1    0    0  501  502  0.00000000000E+00 -0.00000000000E+00 -0.34745788034E+03  0.34745788034E+03  0.00000000000E+00 0.  1.
        -24    2    1    2    0    0  0.34286769158E+02 -0.63965209158E+02  0.32086351930E+03  0.34058981728E+03  0.88209382112E+02 0.  0.
         23    2    1    2    0    0 -0.14162421893E+03  0.74247862010E+02 -0.22279654059E+03  0.28925633087E+03  0.91982400740E+02 0.  0.
         13    1    3    3    0    0  0.29802592278E+02 -0.77235290237E+02  0.31448459463E+03  0.32519846990E+03  0.00000000000E+00 0. -1.
        -14    1    3    3    0    0  0.44841768807E+01  0.13270081079E+02  0.63789246685E+01  0.15391347377E+02  0.00000000000E+00 0.  1.
        -13    1    4    4    0    0 -0.58190625168E+02  0.66126086297E+02 -0.61348620690E+02  0.10734272871E+03  0.00000000000E+00 0. -1.
         13    1    4    4    0    0 -0.83433593767E+02  0.81217757136E+01 -0.16144791990E+03  0.18191360216E+03  0.00000000000E+00 0.  1.
          2    1    1    2  501    0  0.10733744978E+03 -0.10282652852E+02 -0.45932326449E+02  0.11720426480E+03  0.00000000000E+00 0. -1.
<scales pt_clust_5="13000.00000" pt_clust_6="13000.00000" pt_clust_7="13000.00000" pt_clust_8="13000.00000" pt_clust_9="107.82885"></scales>
<clustering>
<clus scale="   88.209">  5  6 -1 -1</clus>
<clus scale="   91.982">  7  8 -1 -1</clus>
<clus scale="  107.829">  2  9  1 -1</clus>
<clus scale="  115.697">  1  5  2 -1</clus>
<clus scale="  107.829">  2  5  1 -1</clus>
</clustering>
</event>
<event>
 9    1  0.6675710E-005  0.1508654E+03  0.7546771E-02  0.1201377E+00
          1   -1    0    0  502    0 -0.00000000000E+00  0.00000000000E+00  0.44673456282E+03  0.44673456282E+03  0.00000000000E+00 0. -1.
         21   -1    0    0  501  502  0.00000000000E+00 -0.00000000000E+00 -0.12376028734E+03  0.12376028734E+03  0.00000000000E+00 0.  1.
         23    2    1    2    0    0  0.11003622018E+02 -0.10124209020E+03  0.19401552032E+03  0.23744983755E+03  0.91484221058E+02 0.  0.
        -24    2    1    2    0    0 -0.95887195297E+02  0.16042897058E+03  0.86837433938E+02  0.22131984300E+03  0.80684100964E+02 0.  0.
         13    1    4    4    0    0  0.72545526496E+01  0.56193644878E+02  0.19117317236E+02  0.59798211321E+02  0.00000000000E+00 0. -1.
        -14    1    4    4    0    0 -0.10314174795E+03  0.10423532570E+03  0.67720116702E+02  0.16152163168E+03  0.00000000000E+00 0.  1.
        -13    1    3    3    0    0 -0.32052967517E+02 -0.36215354800E+02  0.12223833220E+03  0.13145780505E+03  0.00000000000E+00 0. -1.
         13    1    3    3    0    0  0.43056589535E+02 -0.65026735400E+02  0.71777188123E+02  0.10599203250E+03  0.00000000000E+00 0.  1.
          2    1    1    2  501    0  0.84883573279E+02 -0.59186880383E+02  0.42121321230E+02  0.11172516961E+03  0.00000000000E+00 0. -1.
<scales pt_clust_5="13000.00000" pt_clust_6="13000.00000" pt_clust_7="13000.00000" pt_clust_8="13000.00000" pt_clust_9="103.48095"></scales>
<clustering>
<clus scale="   80.684">  5  6 -1 -1</clus>
<clus scale="   91.484">  7  8 -1 -1</clus>
<clus scale="  103.481">  2  9  1 -1</clus>
<clus scale="  144.572">  2  5  1 -1</clus>
<clus scale="  103.481">  2  5  1 -1</clus>
</clustering>
</event>
<event>
 9    1  0.6675710E-005  0.1056357E+03  0.7546771E-02  0.1272827E+00
          1   -1    0    0  502    0 -0.00000000000E+00  0.00000000000E+00  0.91747332570E+02  0.91747332570E+02  0.00000000000E+00 0. -1.
         21   -1    0    0  501  502  0.00000000000E+00 -0.00000000000E+00 -0.17596345725E+03  0.17596345725E+03  0.00000000000E+00 0. -1.
         23    2    1    2    0    0  0.88909487732E+01 -0.45714951441E+02 -0.87419238486E+01  0.10150400330E+03  0.89764891235E+02 0.  0.
        -24    2    1    2    0    0 -0.41065783853E+02  0.57694460924E+02 -0.34209778482E+02  0.11252735646E+03  0.80480106750E+02 0.  0.
         13    1    4    4    0    0 -0.40538292405E+02  0.77351904158E+02 -0.25177712839E+02  0.90887773940E+02  0.00000000000E+00 0. -1.
        -14    1    4    4    0    0 -0.52749144763E+00 -0.19657443234E+02 -0.90320656431E+01  0.21639582517E+02  0.00000000000E+00 0.  1.
        -13    1    3    3    0    0 -0.17578979569E+02 -0.50903060227E+02 -0.34703649843E+02  0.64066257699E+02  0.00000000000E+00 0. -1.
         13    1    3    3    0    0  0.26469928343E+02  0.51881087856E+01  0.25961725994E+02  0.37437745603E+02  0.00000000000E+00 0.  1.
          2    1    1    2  501    0  0.32174835080E+02 -0.11979509483E+02 -0.41264422349E+02  0.53679430060E+02  0.00000000000E+00 0. -1.
<scales pt_clust_5="13000.00000" pt_clust_6="13000.00000" pt_clust_7="13000.00000" pt_clust_8="13000.00000" pt_clust_9="34.33262"></scales>
<clustering>
<clus scale="   34.333">  2  9  1 -1</clus>
<clus scale="   80.480">  5  6 -1 -1</clus>
<clus scale="   89.765">  7  8 -1 -1</clus>
<clus scale="   97.868">  2  5  1 -1</clus>
<clus scale="   34.333">  2  5  1 -1</clus>
</clustering>
</event>
<event>
 9    1  0.6675710E-005  0.1124322E+03  0.7546771E-02  0.1261282E+00
         21   -1    0    0  501  502  0.00000000000E+00  0.00000000000E+00  0.91468795816E+03  0.91468795816E+03  0.00000000000E+00 0. -1.
         -4   -1    0    0    0  501 -0.00000000000E+00 -0.00000000000E+00 -0.87036531817E+02  0.87036531817E+02  0.00000000000E+00 0.  1.
         23    2    1    2    0    0 -0.63624780437E+02  0.81093506521E+01 -0.19388060227E+02  0.11334554582E+03  0.91419044097E+02 0.  0.
        -24    2    1    2    0    0  0.91632979150E+02  0.17542510427E+02  0.84124354218E+03  0.84995928587E+03  0.77690075568E+02 0.  0.
         11    1    4    4    0    0  0.85054253044E+02  0.30815887707E+02  0.48234165466E+03  0.49075178728E+03  0.00000000000E+00 0. -1.
        -12    1    4    4    0    0  0.65787261061E+01 -0.13273377280E+02  0.35890188752E+03  0.35920749859E+03  0.00000000000E+00 0.  1.
        -11    1    3    3    0    0 -0.14631043277E+02  0.26292400723E+02 -0.45793535429E+02  0.54794211832E+02  0.00000000000E+00 0. -1.
         11    1    3    3    0    0 -0.48993737161E+02 -0.18183050071E+02  0.26405475202E+02  0.58551333986E+02  0.00000000000E+00 0.  1.
         -3    1    1    2    0  502 -0.28008198712E+02 -0.25651861079E+02  0.57959443954E+01  0.38419658293E+02  0.00000000000E+00 0.  1.
<scales pt_clust_5="13000.00000" pt_clust_6="13000.00000" pt_clust_7="13000.00000" pt_clust_8="13000.00000" pt_clust_9="37.97998"></scales>
<clustering>
<clus scale="   37.980">  1  9  2 -1</clus>
<clus scale="   77.690">  5  6 -1 -1</clus>
<clus scale="   91.419">  7  8 -1 -1</clus>
<clus scale="  101.584">  1  5  2 -1</clus>
<clus scale="   37.980">  1  5  2 -1</clus>
</clustering>
</event>
<event>
 9    1  0.6675710E-005  0.2873281E+03  0.7546771E-02  0.1092215E+00
         21   -1    0    0  501  502  0.00000000000E+00  0.00000000000E+00  0.78641813548E+02  0.78641813548E+02  0.00000000000E+00 0. -1.
          1   -1    0    0  502    0 -0.00000000000E+00 -0.00000000000E+00 -0.22086337047E+04  0.22086337047E+04  0.00000000000E+00 0. -1.
        -24    2    1    2    0    0  0.16903511390E+03  0.25914602237E+03 -0.16415849252E+04  0.16724548289E+04  0.81083643446E+02 0.  0.
         23    2    1    2    0    0 -0.16793236467E+03 -0.10366808618E+03 -0.28389288838E+03  0.35791484551E+03  0.92517638160E+02 0.  0.
         11    1    3    3    0    0  0.15826023546E+03  0.23910718909E+03 -0.15954834804E+04  0.16210447514E+04  0.00000000000E+00 0. -1.
        -12    1    3    3    0    0  0.10774878446E+02  0.20038833273E+02 -0.46101444858E+02  0.51410077441E+02  0.00000000000E+00 0.  1.
        -11    1    4    4    0    0 -0.16588315733E+03 -0.70100163339E+02 -0.26149955310E+03  0.31751105659E+03  0.00000000000E+00 0.  1.
         11    1    4    4    0    0 -0.20492073399E+01 -0.33567922838E+02 -0.22393335281E+02  0.40403788923E+02  0.00000000000E+00 0. -1.
          2    1    1    2  501    0 -0.11027492373E+01 -0.15547793619E+03 -0.20451407753E+03  0.25690584385E+03  0.00000000000E+00 0. -1.
<scales pt_clust_5="13000.00000" pt_clust_6="13000.00000" pt_clust_7="13000.00000" pt_clust_8="13000.00000" pt_clust_9="155.48185"></scales>
<clustering>
<clus scale="   81.084">  5  6 -1 -1</clus>
<clus scale="   92.518">  7  8 -1 -1</clus>
<clus scale="  155.482">  1  9  2 -1</clus>
<clus scale="  283.853">  2  5  1 -1</clus>
<clus scale="  155.482">  1  5  2 -1</clus>
</clustering>
</event>
<event>
 9    1  0.6675710E-005  0.1314973E+03  0.7546771E-02  0.1226089E+00
         21   -1    0    0  501  502  0.00000000000E+00  0.00000000000E+00  0.43270104147E+02  0.43270104147E+02  0.00000000000E+00 0. -1.
          1   -1    0    0  502    0 -0.00000000000E+00 -0.00000000000E+00 -0.10571011647E+04  0.10571011647E+04  0.00000000000E+00 0. -1.
        -24    2    1    2    0    0 -0.12209030450E+03  0.15370123056E+02 -0.60877489849E+03  0.62622016071E+03  0.80015807933E+02 0.  0.
         23    2    1    2    0    0  0.50321259716E+02  0.78422783144E+02 -0.17046521020E+03  0.21150910894E+03  0.83638227991E+02 0.  0.
         11    1    3    3    0    0 -0.10636425191E+03  0.12737103823E+02 -0.59664580488E+03  0.60618627862E+03  0.00000000000E+00 0. -1.
        -12    1    3    3    0    0 -0.15726052585E+02  0.26330192327E+01 -0.12129093607E+02  0.20033882098E+02  0.00000000000E+00 0.  1.
        -11    1    4    4    0    0  0.55010157520E+02  0.23369282054E+02 -0.12981705692E+03  0.14291504134E+03  0.00000000000E+00 0.  1.
         11    1    4    4    0    0 -0.46888978042E+01  0.55053501090E+02 -0.40648153277E+02  0.68594067599E+02  0.00000000000E+00 0. -1.
          2    1    1    2  501    0  0.71769044782E+02 -0.93792906200E+02 -0.23459095187E+03  0.26264199920E+03  0.00000000000E+00 0. -1.
<scales pt_clust_5="13000.00000" pt_clust_6="13000.00000" pt_clust_7="13000.00000" pt_clust_8="13000.00000" pt_clust_9="118.10125"></scales>
<clustering>
<clus scale="   80.016">  5  6 -1 -1</clus>
<clus scale="   83.638">  7  8 -1 -1</clus>
<clus scale="  118.101">  1  9  2 -1</clus>
<clus scale="  129.223">  2  5  1 -1</clus>
<clus scale="  118.101">  1  5  2 -1</clus>
</clustering>
</event>
<event>
 9    1  0.6675710E-005  0.9874275E+02  0.7546771E-02  0.1288944E+00
         21   -1    0    0  501  502  0.00000000000E+00  0.00000000000E+00  0.66000836998E+03  0.66000836998E+03  0.00000000000E+00 0.  1.
          1   -1    0    0  502    0 -0.00000000000E+00 -0.00000000000E+00 -0.73898738122E+02  0.73898738122E+02  0.00000000000E+00 0. -1.
        -24    2    1    2    0    0  0.34403524483E+02 -0.57538502582E+01 -0.28509083096E+02  0.92269936723E+02  0.80524928527E+02 0.  0.
         23    2    1    2    0    0 -0.59977977394E+02 -0.13233246813E+02  0.59281272662E+03  0.60303582912E+03  0.91939141648E+02 0.  0.
         13    1    3    3    0    0  0.21314706823E+02  0.37027255321E+02 -0.10164550134E+02  0.43916425663E+02  0.00000000000E+00 0. -1.
        -14    1    3    3    0    0  0.13088817660E+02 -0.42781105579E+02 -0.18344532962E+02  0.48353511061E+02  0.00000000000E+00 0.  1.
        -13    1    4    4    0    0 -0.62794031061E+02  0.28290308292E+02  0.38028355581E+03  0.38646994022E+03  0.00000000000E+00 0.  1.
         13    1    4    4    0    0  0.28160536664E+01 -0.41523555105E+02  0.21252917082E+03  0.21656588890E+03  0.00000000000E+00 0. -1.
          2    1    1    2  501    0  0.25574452911E+02  0.18987097071E+02  0.21805988332E+02  0.38601342257E+02  0.00000000000E+00 0. -1.
<scales pt_clust_5="13000.00000" pt_clust_6="13000.00000" pt_clust_7="13000.00000" pt_clust_8="13000.00000" pt_clust_9="31.85221"></scales>
<clustering>
<clus scale="   31.852">  1  9  2 -1</clus>
<clus scale="   80.525">  5  6 -1 -1</clus>
<clus scale="   88.213">  2  5  1 -1</clus>
<clus scale="   91.939">  7  8 -1 -1</clus>
<clus scale="   31.852">  1  5  2 -1</clus>
</clustering>
</event>
<event>
 9    1  0.6675710E-005  0.1093531E+03  0.7546771E-02  0.1271820E+00
         -2   -1    0    0    0  501 -0.00000000000E+00  0.00000000000E+00  0.14171184604E+03  0.14171184604E+03  0.00000000000E+00 0.  1.
         21   -1    0    0  501  502  0.00000000000E+00 -0.00000000000E+00 -0.19944608982E+03  0.19944608982E+03  0.00000000000E+00 0.  1.
        -24    2    1    2    0    0  0.24313156733E+02  0.29767418353E+02  0.77232154621E+02  0.11822852864E+03  0.80845225537E+02 0.  0.
         23    2    1    2    0    0 -0.91806191700E+01 -0.46307724056E+02 -0.31020203326E+02  0.11659320983E+03  0.10199526699E+03 0.  0.
         11    1    3    3    0    0  0.49244455485E+02  0.72275846301E+01  0.23956971277E+02  0.55237585468E+02  0.00000000000E+00 0. -1.
        -12    1    3    3    0    0 -0.24931298753E+02  0.22539833723E+02  0.53275183344E+02  0.62990943175E+02  0.00000000000E+00 0.  1.
        -11    1    4    4    0    0 -0.48342866093E+02  0.28490137598E+01 -0.21661701487E+02  0.53050720003E+02  0.00000000000E+00 0. -1.
         11    1    4    4    0    0  0.39162246923E+02 -0.49156737816E+02 -0.93585018396E+01  0.63542489827E+02  0.00000000000E+00 0.  1.
         -1    1    1    2    0  502 -0.15132537563E+02  0.16540305703E+02 -0.10394619507E+03  0.10633619739E+03  0.00000000000E+00 0.  1.
<scales pt_clust_5="13000.00000" pt_clust_6="13000.00000" pt_clust_7="13000.00000" pt_clust_8="13000.00000" pt_clust_9="22.41819"></scales>
<clustering>
<clus scale="   22.418">  2  9  1 -1</clus>
<clus scale="   80.845">  5  6 -1 -1</clus>
<clus scale="   89.950">  1  5  2 -1</clus>
<clus scale="  101.995">  7  8 -1 -1</clus>
<clus scale="   22.418">  2  5  1 -1</clus>
</clustering>
</event>
<event>
 9    1  0.6675710E-005  0.2098160E+03  0.7546771E-02  0.1181974E+00
          3   -1    0    0  502    0 -0.00000000000E+00  0.00000000000E+00  0.27096671689E+03  0.27096671689E+03  0.00000000000E+00 0. -1.
         21   -1    0    0  501  502  0.00000000000E+00 -0.00000000000E+00 -0.32567695852E+03  0.32567695852E+03  0.00000000000E+00 0. -1.
        -24    2    1    2    0    0  0.11674423181E+02 -0.76303621469E+01  0.11568712089E+03  0.14203981895E+03  0.81223676630E+02 0.  0.
         23    2    1    2    0    0  0.15526227499E+03 -0.88809190326E+02 -0.62037828888E+01  0.20136882715E+03  0.92290147368E+02 0.  0.
         11    1    3    3    0    0 -0.34756200198E+01  0.30692032720E+02  0.85640484408E+02  0.91040504044E+02  0.00000000000E+00 0. -1.
        -12    1    3    3    0    0  0.15150043201E+02 -0.38322394867E+02  0.30046636484E+02  0.50999314911E+02  0.00000000000E+00 0.  1.
        -11    1    4    4    0    0  0.10441258701E+03 -0.72077609665E+02 -0.45688759310E+02  0.13485040923E+03  0.00000000000E+00 0. -1.
         11    1    4    4    0    0  0.50849687984E+02 -0.16731580661E+02  0.39484976422E+02  0.66518417919E+02  0.00000000000E+00 0.  1.
          4    1    1    2  501    0 -0.16693669818E+03  0.96439552473E+02 -0.16419357963E+03  0.25323502932E+03  0.00000000000E+00 0. -1.
<scales pt_clust_5="13000.00000" pt_clust_6="13000.00000" pt_clust_7="13000.00000" pt_clust_8="13000.00000" pt_clust_9="188.42845"></scales>
<clustering>
<clus scale="   81.224">  5  6 -1 -1</clus>
<clus scale="   82.412">  1  5  2 -1</clus>
<clus scale="   92.290">  7  8 -1 -1</clus>
<clus scale="  188.428">  2  9  1 -1</clus>
<clus scale="  188.428">  2  5  1 -1</clus>
</clustering>
</event>
<event>
 9    1  0.6675710E-005  0.1146899E+03  0.7546771E-02  0.1262292E+00
          1   -1    0    0  502    0 -0.00000000000E+00  0.00000000000E+00  0.40213137563E+03  0.40213137563E+03  0.00000000000E+00 0. -1.
         21   -1    0    0  501  502  0.00000000000E+00 -0.00000000000E+00 -0.35757082810E+02  0.35757082810E+02  0.00000000000E+00 0.  1.
        -24    2    1    2    0    0  0.33540513769E+02  0.43450218319E+02  0.20572417463E+03  0.22772281060E+03  0.80761097717E+02 0.  0.
         23    2    1    2    0    0 -0.23439931286E+02 -0.23836921259E+02  0.11142691504E+03  0.15622469015E+03  0.10427160315E+03 0.  0.
         13    1    3    3    0    0  0.24391318923E+02  0.39351314901E+02  0.21125794690E+03  0.21627154818E+03  0.00000000000E+00 0. -1.
        -14    1    3    3    0    0  0.91491948466E+01  0.40989034177E+01 -0.55337722679E+01  0.11451262423E+02  0.00000000000E+00 0.  1.
        -13    1    4    4    0    0 -0.64611989163E+01  0.36183450586E+02  0.11655308481E+02  0.38559504711E+02  0.00000000000E+00 0.  1.
         13    1    4    4    0    0 -0.16978732370E+02 -0.60020371845E+02  0.99771606555E+02  0.11766518544E+03  0.00000000000E+00 0. -1.
          2    1    1    2  501    0 -0.10100582483E+02 -0.19613297060E+02  0.49223203156E+02  0.53940957694E+02  0.00000000000E+00 0. -1.
<scales pt_clust_5="13000.00000" pt_clust_6="13000.00000" pt_clust_7="13000.00000" pt_clust_8="13000.00000" pt_clust_9="22.06136"></scales>
<clustering>
<clus scale="   22.061">  2  9  1 -1</clus>
<clus scale="   80.761">  5  6 -1 -1</clus>
<clus scale="   93.827">  1  5  2 -1</clus>
<clus scale="  104.272">  7  8 -1 -1</clus>
<clus scale="   22.061">  2  5  1 -1</clus>
</clustering>
</event>
<event>
 9    1  0.6675710E-005  0.1054811E+03  0.7546771E-02  0.1273643E+00
          1   -1    0    0  502    0 -0.00000000000E+00  0.00000000000E+00  0.42777533350E+03  0.42777533350E+03  0.00000000000E+00 0. -1.
         21   -1    0    0  501  502  0.00000000000E+00 -0.00000000000E+00 -0.47393185617E+02  0.47393185617E+02  0.00000000000E+00 0. -1.
        -24    2    1    2    0    0  0.89056023142E+00  0.39056295258E+02  0.10394042234E+03  0.13691251571E+03  0.80095182537E+02 0.  0.
         23    2    1    2    0    0 -0.30477580872E+02 -0.76291886551E+02  0.10746102183E+03  0.16271011403E+03  0.90428840007E+02 0.  0.
         13    1    3    3    0    0 -0.11852004658E+02  0.59287350005E+02  0.52050920425E+02  0.79779434707E+02  0.00000000000E+00 0. -1.
        -14    1    3    3    0    0  0.12742564889E+02 -0.20231054747E+02  0.51889501917E+02  0.57133081007E+02  0.00000000000E+00 0.  1.
        -11    1    4    4    0    0  0.18167632622E+02 -0.18165068532E+02  0.76737151402E+02  0.80923562670E+02  0.00000000000E+00 0.  1.
         11    1    4    4    0    0 -0.48645213494E+02 -0.58126818018E+02  0.30723870424E+02  0.81786551356E+02  0.00000000000E+00 0. -1.
          2    1    1    2  501    0  0.29587020640E+02  0.37235591293E+02  0.16898070372E+03  0.17554588938E+03  0.00000000000E+00 0. -1.
<scales pt_clust_5="13000.00000" pt_clust_6="13000.00000" pt_clust_7="13000.00000" pt_clust_8="13000.00000" pt_clust_9="47.55926"></scales>
<clustering>
<clus scale="   47.559">  2  9  1 -1</clus>
<clus scale="   80.095">  5  6 -1 -1</clus>
<clus scale="   90.429">  7  8 -1 -1</clus>
<clus scale="   96.768">  1  5  2 -1</clus>
<clus scale="   47.559">  2  5  1 -1</clus>
</clustering>
</event>
<event>
 9    1  0.6675710E-005  0.1931482E+03  0.7546771E-02  0.1155770E+00
          1   -1    0    0  502    0 -0.00000000000E+00  0.00000000000E+00  0.70180240447E+03  0.70180240447E+03  0.00000000000E+00 0. -1.
         21   -1    0    0  501  502  0.00000000000E+00 -0.00000000000E+00 -0.12746300441E+03  0.12746300441E+03  0.00000000000E+00 0. -1.
         23    2    1    2    0    0  0.39930288155E+02 -0.15624349200E+03  0.34706963733E+03  0.39143893309E+03  0.82223162699E+02 0.  0.
        -24    2    1    2    0    0 -0.27201487927E+01  0.20005803900E+03  0.28423645851E+03  0.35689741162E+03  0.80961595188E+02 0.  0.
         11    1    4    4    0    0 -0.37109476080E+02  0.73545035310E+02  0.84769821562E+02  0.11820282603E+03  0.00000000000E+00 0. -1.
        -12    1    4    4    0    0  0.34389327287E+02  0.12651300369E+03  0.19946663695E+03  0.23869458559E+03  0.00000000000E+00 0.  1.
        -11    1    3    3    0    0  0.54639827991E+02 -0.11707363758E+03  0.19653165526E+03  0.23519447047E+03  0.00000000000E+00 0.  1.
         11    1    3    3    0    0 -0.14709539836E+02 -0.39169854421E+02  0.15053798206E+03  0.15624446263E+03  0.00000000000E+00 0. -1.
          2    1    1    2  501    0 -0.37210139362E+02 -0.43814546998E+02 -0.56966695776E+02  0.80929064171E+02  0.00000000000E+00 0. -1.
<scales pt_clust_5="13000.00000" pt_clust_6="13000.00000" pt_clust_7="13000.00000" pt_clust_8="13000.00000" pt_clust_9="57.48312"></scales>
<clustering>
<clus scale="   57.483">  2  9  1 -1</clus>
<clus scale="   80.962">  5  6 -1 -1</clus>
<clus scale="   82.223">  7  8 -1 -1</clus>
<clus scale="  192.615">  2  5  1 -1</clus>
<clus scale="   57.483">  2  5  1 -1</clus>
</clustering>
</event>
<event>
 9    1  0.6675710E-005  0.9452096E+02  0.7546771E-02  0.1299004E+00
          1   -1    0    0  502    0 -0.00000000000E+00  0.00000000000E+00  0.10942877206E+02  0.10942877206E+02  0.00000000000E+00 0. -1.
         21   -1    0    0  501  502  0.00000000000E+00 -0.00000000000E+00 -0.13255429408E+04  0.13255429408E+04  0.00000000000E+00 0.  1.
         23    2    1    2    0    0 -0.15817532499E+02 -0.23645783677E+02 -0.30919954794E+03  0.32349510125E+03  0.90749119346E+02 0.  0.
        -24    2    1    2    0    0 -0.12925155014E+02  0.29221604713E+02 -0.88413285693E+03  0.88823865499E+03  0.79095117995E+02 0.  0.
         13    1    4    4    0    0  0.11023599088E+02  0.40313903382E+02 -0.24337624300E+03  0.24693870940E+03  0.00000000000E+00 0. -1.
        -14    1    4    4    0    0 -0.23948754102E+02 -0.11092298668E+02 -0.64075661393E+03  0.64129994559E+03  0.00000000000E+00 0.  1.
        -13    1    3    3    0    0 -0.26805821372E+02 -0.54991199843E+02 -0.21858767195E+03  0.22698712397E+03  0.00000000000E+00 0. -1.
         13    1    3    3    0    0  0.10988288873E+02  0.31345416166E+02 -0.90611875995E+02  0.96507977278E+02  0.00000000000E+00 0.  1.
          2    1    1    2  501    0  0.28742687513E+02 -0.55758210359E+01 -0.12126765874E+03  0.12475206180E+03  0.00000000000E+00 0. -1.
<scales pt_clust_5="13000.00000" pt_clust_6="13000.00000" pt_clust_7="13000.00000" pt_clust_8="13000.00000" pt_clust_9="29.27854"></scales>
<clustering>
<clus scale="   29.279">  2  9  1 -1</clus>
<clus scale="   79.095">  5  6 -1 -1</clus>
<clus scale="   83.396">  2  5  1 -1</clus>
<clus scale="   90.749">  7  8 -1 -1</clus>
<clus scale="   29.279">  2  5  1 -1</clus>
</clustering>
</event>
<event>
 9    1  0.6675710E-005  0.4119334E+03  0.7546771E-02  0.1098256E+00
          1   -1    0    0  502    0 -0.00000000000E+00  0.00000000000E+00  0.13796084155E+04  0.13796084155E+04  0.00000000000E+00 0. -1.
         21   -1    0    0  501  502  0.00000000000E+00 -0.00000000000E+00 -0.22176007380E+03  0.22176007380E+03  0.00000000000E+00 0. -1.
        -24    2    1    2    0    0 -0.12938014718E+02  0.45549899784E+01  0.21706760577E+02  0.85053179977E+02  0.81084645963E+02 0.  0.
         23    2    1    2    0    0  0.30186725068E+03  0.27194440059E+03  0.10168255491E+04  0.10989805134E+04  0.93522069746E+02 0.  0.
         13    1    3    3    0    0 -0.14363231132E+02 -0.35862296331E+02  0.22300788557E+02  0.44606410716E+02  0.00000000000E+00 0. -1.
        -14    1    3    3    0    0  0.14252164137E+01  0.40417286310E+02 -0.59402797933E+00  0.40446769262E+02  0.00000000000E+00 0.  1.
        -13    1    4    4    0    0  0.38869458748E+02  0.37284475746E+00  0.93319944352E+02  0.10109196729E+03  0.00000000000E+00 0.  1.
         13    1    4    4    0    0  0.26299779193E+03  0.27157155583E+03  0.92350560478E+03  0.99788854616E+03  0.00000000000E+00 0. -1.
          2    1    1    2  501    0 -0.28892923596E+03 -0.27649939056E+03  0.11931603201E+03  0.41733479590E+03  0.00000000000E+00 0. -1.
<scales pt_clust_5="13000.00000" pt_clust_6="13000.00000" pt_clust_7="13000.00000" pt_clust_8="13000.00000" pt_clust_9="401.17667"></scales>
<clustering>
<clus scale="   81.085">  5  6 -1 -1</clus>
<clus scale="   82.237">  1  5  2 -1</clus>
<clus scale="   93.522">  7  8 -1 -1</clus>
<clus scale="  401.177">  2  9  1 -1</clus>
<clus scale="  401.177">  2  5  1 -1</clus>
</clustering>
</event>
<event>
 9    1  0.6675710E-005  0.1391295E+03  0.7546771E-02  0.1226356E+00
          1   -1    0    0  502    0 -0.00000000000E+00  0.00000000000E+00  0.15104365571E+03  0.15104365571E+03  0.00000000000E+00 0. -1.
         21   -1    0    0  501  502  0.00000000000E+00 -0.00000000000E+00 -0.24041431768E+03  0.24041431768E+03  0.00000000000E+00 0. -1.
         23    2    1    2    0    0  0.52216213966E+02 -0.17321844019E+02 -0.84410154365E+02  0.13746801357E+03  0.93518989051E+02 0.  0.
        -24    2    1    2    0    0  0.77234269943E+02 -0.57398618334E+01  0.25111123730E+02  0.11910640607E+03  0.86934969740E+02 0.  0.
         11    1    4    4    0    0  0.50343972716E+02  0.24426524256E+02  0.47063398249E+02  0.73117262878E+02  0.00000000000E+00 0. -1.
        -12    1    4    4    0    0  0.26890297227E+02 -0.30166386090E+02 -0.21952274519E+02  0.45989143189E+02  0.00000000000E+00 0.  1.
        -11    1    3    3    0    0  0.41495791133E+02 -0.55238420630E+02 -0.52881093316E+02  0.87003412725E+02  0.00000000000E+00 0. -1.
         11    1    3    3    0    0  0.10720422833E+02  0.37916576611E+02 -0.31529061049E+02  0.50464600843E+02  0.00000000000E+00 0.  1.
          2    1    1    2  501    0 -0.12945048391E+03  0.23061705852E+02 -0.30071631337E+02  0.13488355375E+03  0.00000000000E+00 0. -1.
<scales pt_clust_5="13000.00000" pt_clust_6="13000.00000" pt_clust_7="13000.00000" pt_clust_8="13000.00000" pt_clust_9="108.62465"></scales>
<clustering>
<clus scale="   86.935">  5  6 -1 -1</clus>
<clus scale="   93.519">  7  8 -1 -1</clus>
<clus scale="  108.501">  1  7  2 -1</clus>
<clus scale="  108.625">  2  9  1 -1</clus>
<clus scale="  108.625">  2  5  1 -1</clus>
</clustering>
</event>
<event>
 9    1  0.6675710E-005  0.2243778E+03  0.7546771E-02  0.1169177E+00
         -2   -1    0    0    0  501 -0.00000000000E+00  0.00000000000E+00  0.22484839623E+03  0.22484839623E+03  0.00000000000E+00 0.  1.
         21   -1    0    0  501  502  0.00000000000E+00 -0.00000000000E+00 -0.40277000510E+03  0.40277000510E+03  0.00000000000E+00 0. -1.
        -24    2    1    2    0    0 -0.50540785643E+02 -0.26417060305E+02 -0.16227317846E+03  0.18558300461E+03  0.69686692142E+02 0.  0.
         23    2    1    2    0    0  0.87029577991E+02  0.21876595010E+03 -0.18512584053E+02  0.24623516499E+03  0.69687533608E+02 0.  0.
         11    1    3    3    0    0 -0.31188469270E+01  0.20690514491E+02 -0.58657331366E+02  0.62277661477E+02  0.00000000000E+00 0. -1.
        -12    1    3    3    0    0 -0.47421938716E+02 -0.47107574796E+02 -0.10361584710E+03  0.12330534313E+03  0.00000000000E+00 0.  1.
        -13    1    4    4    0    0  0.14081679149E+02  0.10420497293E+03  0.15339903026E+02  0.10626515278E+03  0.00000000000E+00 0.  1.
         13    1    4    4    0    0  0.72947898842E+02  0.11456097717E+03 -0.33852487079E+02  0.13997001220E+03  0.00000000000E+00 0. -1.
         -1    1    1    2    0  502 -0.36488792348E+02 -0.19234888979E+03  0.28641536517E+01  0.19580023174E+03  0.00000000000E+00 0.  1.
<scales pt_clust_5="13000.00000" pt_clust_6="13000.00000" pt_clust_7="13000.00000" pt_clust_8="13000.00000" pt_clust_9="213.28159"></scales>
<clustering>
<clus scale="   69.687">  5  6 -1 -1</clus>
<clus scale="   69.688">  7  8 -1 -1</clus>
<clus scale="   90.047">  1  5  2 -1</clus>
<clus scale="  213.282">  2  9  1 -1</clus>
<clus scale="  213.282">  2  5  1 -1</clus>
</clustering>
</event>
<event>
 9    1  0.6675710E-005  0.1931514E+03  0.7546771E-02  0.1179361E+00
          1   -1    0    0  502    0 -0.00000000000E+00  0.00000000000E+00  0.47782415773E+02  0.47782415773E+02  0.00000000000E+00 0. -1.
         21   -1    0    0  501  502  0.00000000000E+00 -0.00000000000E+00 -0.15905962735E+04  0.15905962735E+04  0.00000000000E+00 0. -1.
        -24    2    1    2    0    0  0.43822324863E+02  0.65388218290E+02 -0.10596604409E+03  0.15419862602E+03  0.79701935477E+02 0.  0.
         23    2    1    2    0    0 -0.96614395459E+01  0.13431868170E+03 -0.50515515904E+03  0.53071217463E+03  0.91317172170E+02 0.  0.
         13    1    3    3    0    0  0.52712246886E+02  0.61295949718E+02 -0.45144636870E+02  0.92594884641E+02  0.00000000000E+00 0. -1.
        -14    1    3    3    0    0 -0.88899220229E+01  0.40922685723E+01 -0.60821407220E+02  0.61603741379E+02  0.00000000000E+00 0.  1.
        -11    1    4    4    0    0 -0.20824718376E+02  0.19079263097E+02 -0.28221736319E+02  0.39926852827E+02  0.00000000000E+00 0.  1.
         11    1    4    4    0    0  0.11163278830E+02  0.11523941861E+03 -0.47693342272E+03  0.49078532181E+03  0.00000000000E+00 0. -1.
          2    1    1    2  501    0 -0.34160885317E+02 -0.19970689999E+03 -0.93169265455E+03  0.95346788857E+03  0.00000000000E+00 0. -1.
<scales pt_clust_5="13000.00000" pt_clust_6="13000.00000" pt_clust_7="13000.00000" pt_clust_8="13000.00000" pt_clust_9="170.20180"></scales>
<clustering>
<clus scale="   79.702">  5  6 -1 -1</clus>
<clus scale="   91.317">  7  8 -1 -1</clus>
<clus scale="  112.020">  1  5  2 -1</clus>
<clus scale="  170.202">  2  9  1 -1</clus>
<clus scale="  170.202">  2  5  1 -1</clus>
</clustering>
</event>
<event>
 9    1  0.6675710E-005  0.9307731E+02  0.7546771E-02  0.1301954E+00
         21   -1    0    0  501  502  0.00000000000E+00  0.00000000000E+00  0.97576179304E+02  0.97576179304E+02  0.00000000000E+00 0. -1.
          3   -1    0    0  502    0 -0.00000000000E+00 -0.00000000000E+00 -0.14042740773E+03  0.14042740773E+03  0.00000000000E+00 0. -1.
         23    2    1    2    0    0 -0.11761834995E+01  0.10829822521E+01 -0.33160694727E+02  0.96625848433E+02  0.90743411069E+02 0.  0.
        -24    2    1    2    0    0 -0.34256918796E+02 -0.26590858028E+02 -0.26100297992E+02  0.94736160273E+02  0.80081859943E+02 0.  0.
         13    1    4    4    0    0 -0.46878325511E+02 -0.44797160560E+02 -0.31270466135E+02  0.71987533985E+02  0.00000000000E+00 0. -1.
        -14    1    4    4    0    0  0.12621406715E+02  0.18206302532E+02  0.51701681422E+01  0.22748626288E+02  0.00000000000E+00 0.  1.
        -11    1    3    3    0    0 -0.59819036557E+00 -0.40775985535E+02 -0.36366544584E+02  0.54640318384E+02  0.00000000000E+00 0. -1.
         11    1    3    3    0    0 -0.57799313393E+00  0.41858967787E+02  0.32058498569E+01  0.41985530050E+02  0.00000000000E+00 0.  1.
          4    1    1    2  501    0  0.35433102295E+02  0.25507875776E+02  0.16409764293E+02  0.46641578329E+02  0.00000000000E+00 0. -1.
<scales pt_clust_5="13000.00000" pt_clust_6="13000.00000" pt_clust_7="13000.00000" pt_clust_8="13000.00000" pt_clust_9="43.65955"></scales>
<clustering>
<clus scale="   43.660">  1  9  2 -1</clus>
<clus scale="   80.082">  5  6 -1 -1</clus>
<clus scale="   82.717">  1  5  2 -1</clus>
<clus scale="   90.743">  7  8 -1 -1</clus>
<clus scale="   43.660">  1  5  2 -1</clus>
</clustering>
</event>
<event>
 9    1  0.6675710E-005  0.9689745E+02  0.7546771E-02  0.1295918E+00
         21   -1    0    0  501  502  0.00000000000E+00  0.00000000000E+00  0.24237339548E+02  0.24237339548E+02  0.00000000000E+00 0. -1.
          1   -1    0    0  502    0 -0.00000000000E+00 -0.00000000000E+00 -0.75571310259E+03  0.75571310259E+03  0.00000000000E+00 0. -1.
         23    2    1    2    0    0 -0.65337002460E+01  0.34127202387E+02 -0.26279554393E+03  0.28092564565E+03  0.93007339996E+02 0.  0.
        -24    2    1    2    0    0  0.37965103093E+02  0.28300713957E+01 -0.12437436512E+03  0.15131760032E+03  0.77321892835E+02 0.  0.
         13    1    4    4    0    0 -0.23256724367E+02  0.71441453421E+01 -0.42830859781E+02  0.49258467196E+02  0.00000000000E+00 0. -1.
        -14    1    4    4    0    0  0.61221827460E+02 -0.43140739465E+01 -0.81543505336E+02  0.10205913312E+03  0.00000000000E+00 0.  1.
        -13    1    3    3    0    0  0.19788837418E+02  0.51063797812E+02 -0.90264804648E+02  0.10557861759E+03  0.00000000000E+00 0. -1.
         13    1    3    3    0    0 -0.26322537664E+02 -0.16936595426E+02 -0.17253073929E+03  0.17534702807E+03  0.00000000000E+00 0.  1.
          2    1    1    2  501    0 -0.31431402847E+02 -0.36957273782E+02 -0.34430585399E+03  0.34770719616E+03  0.00000000000E+00 0. -1.
<scales pt_clust_5="13000.00000" pt_clust_6="13000.00000" pt_clust_7="13000.00000" pt_clust_8="13000.00000" pt_clust_9="48.51572"></scales>
<clustering>
<clus scale="   48.516">  1  9  2 -1</clus>
<clus scale="   77.322">  5  6 -1 -1</clus>
<clus scale="   81.960">  1  5  2 -1</clus>
<clus scale="   93.007">  7  8 -1 -1</clus>
<clus scale="   48.516">  1  5  2 -1</clus>
</clustering>
</event>
<event>
 9    1  0.6675710E-005  0.8912495E+02  0.7546771E-02  0.1311004E+00
          1   -1    0    0  502    0 -0.00000000000E+00  0.00000000000E+00  0.54332216318E+03  0.54332216318E+03  0.00000000000E+00 0. -1.
         21   -1    0    0  501  502  0.00000000000E+00 -0.00000000000E+00 -0.27911511230E+02  0.27911511230E+02  0.00000000000E+00 0.  1.
         23    2    1    2    0    0 -0.19427848056E+01  0.22421081122E+02  0.31324495946E+03  0.32642320232E+03  0.89012488423E+02 0.  0.
        -24    2    1    2    0    0  0.32241226155E+01  0.24430375480E+02  0.16530433980E+03  0.18518279282E+03  0.79749004941E+02 0.  0.
         13    1    4    4    0    0  0.68429936035E+01  0.33082290601E+02  0.17093681976E+03  0.17424310850E+03  0.00000000000E+00 0. -1.
        -14    1    4    4    0    0 -0.36188709879E+01 -0.86519151205E+01 -0.56324799598E+01  0.10939684318E+02  0.00000000000E+00 0.  1.
        -13    1    3    3    0    0 -0.37488377954E+02 -0.65537552026E+01  0.21044286029E+03  0.21385632475E+03  0.00000000000E+00 0.  1.
         13    1    3    3    0    0  0.35545593148E+02  0.28974836325E+02  0.10280209917E+03  0.11256687757E+03  0.00000000000E+00 0. -1.
          2    1    1    2  501    0 -0.12813378099E+01 -0.46851456603E+02  0.36861352694E+02  0.59627679267E+02  0.00000000000E+00 0. -1.
<scales pt_clust_5="13000.00000" pt_clust_6="13000.00000" pt_clust_7="13000.00000" pt_clust_8="13000.00000" pt_clust_9="46.86897"></scales>
<clustering>
<clus scale="   46.869">  2  9  1 -1</clus>
<clus scale="   79.749">  5  6 -1 -1</clus>
<clus scale="   79.875">  2  5  1 -1</clus>
<clus scale="   89.012">  7  8 -1 -1</clus>
<clus scale="   46.869">  2  5  1 -1</clus>
</clustering>
</event>
<event>
 9    1  0.6675710E-005  0.1275035E+03  0.7546771E-02  0.1234270E+00
         21   -1    0    0  501  502  0.00000000000E+00  0.00000000000E+00  0.21225604648E+02  0.21225604648E+02  0.00000000000E+00 0. -1.
         -2   -1    0    0    0  501 -0.00000000000E+00 -0.00000000000E+00 -0.10911592081E+04  0.10911592081E+04  0.00000000000E+00 0.  1.
        -24    2    1    2    0    0 -0.39188417675E+02 -0.97475732534E+02 -0.56625643180E+03  0.58132785495E+03  0.79110542084E+02 0.  0.
         23    2    1    2    0    0  0.38597158054E+01  0.69117330282E+02 -0.27020970854E+03  0.29323481315E+03  0.90450352700E+02 0.  0.
         11    1    3    3    0    0 -0.26912749319E+02 -0.11027648343E+03 -0.50153770876E+03  0.51422297905E+03  0.00000000000E+00 0. -1.
        -12    1    3    3    0    0 -0.12275668357E+02  0.12800750900E+02 -0.64718723043E+02  0.67104875900E+02  0.00000000000E+00 0.  1.
        -13    1    4    4    0    0 -0.25903941715E+02  0.76738472129E+02 -0.21923007886E+03  0.23371271848E+03  0.00000000000E+00 0. -1.
         13    1    4    4    0    0  0.29763657521E+02 -0.76211418478E+01 -0.50979629678E+02  0.59522094673E+02  0.00000000000E+00 0.  1.
         -1    1    1    2    0  502  0.35328701870E+02  0.28358402253E+02 -0.23346746314E+03  0.23782214467E+03  0.00000000000E+00 0.  1.
<scales pt_clust_5="13000.00000" pt_clust_6="13000.00000" pt_clust_7="13000.00000" pt_clust_8="13000.00000" pt_clust_9="45.30252"></scales>
<clustering>
<clus scale="   45.303">  1  9  2 -1</clus>
<clus scale="   79.111">  5  6 -1 -1</clus>
<clus scale="   90.450">  7  8 -1 -1</clus>
<clus scale="  119.726">  2  5  1 -1</clus>
<clus scale="   45.303">  1  5  2 -1</clus>
</clustering>
</event>
<event>
 9    1  0.6675710E-005  0.1035468E+03  0.7546771E-02  0.1278196E+00
         -2   -1    0    0    0  501 -0.00000000000E+00  0.00000000000E+00  0.44702579557E+03  0.44702579557E+03  0.00000000000E+00 0.  1.
         21   -1    0    0  501  502  0.00000000000E+00 -0.00000000000E+00 -0.70925163518E+02  0.70925163518E+02  0.00000000000E+00 0.  1.
         23    2    1    2    0    0 -0.35593536625E+02  0.38618745918E+02  0.26341258229E+03  0.28327060552E+03  0.89987443895E+02 0.  0.
        -24    2    1    2    0    0  0.81763040149E+02  0.34086066283E+02  0.78405548439E+02  0.14198244275E+03  0.78514516969E+02 0.  0.
         13    1    4    4    0    0  0.76121456746E+02  0.39109540241E+01  0.80939694185E+02  0.11118006041E+03  0.00000000000E+00 0. -1.
        -14    1    4    4    0    0  0.56415834027E+01  0.30175112259E+02 -0.25341457466E+01  0.30802382339E+02  0.00000000000E+00 0.  1.
        -11    1    3    3    0    0  0.89355358679E+01 -0.20329502659E+02  0.23903774921E+02  0.32627027678E+02  0.00000000000E+00 0. -1.
         11    1    3    3    0    0 -0.44529072493E+02  0.58948248577E+02  0.23950880736E+03  0.25064357784E+03  0.00000000000E+00 0.  1.
         -1    1    1    2    0  502 -0.46169503524E+02 -0.72704812201E+02  0.34282501331E+02  0.92697910820E+02  0.00000000000E+00 0.  1.
<scales pt_clust_5="13000.00000" pt_clust_6="13000.00000" pt_clust_7="13000.00000" pt_clust_8="13000.00000" pt_clust_9="86.12556"></scales>
<clustering>
<clus scale="   78.515">  5  6 -1 -1</clus>
<clus scale="   86.126">  2  9  1 -1</clus>
<clus scale="   89.987">  7  8 -1 -1</clus>
<clus scale="   93.748">  2  5  1 -1</clus>
<clus scale="   86.126">  2  5  1 -1</clus>
</clustering>
</event>
<event>
 9    1  0.6675710E-005  0.1072904E+03  0.7546771E-02  0.1273309E+00
         21   -1    0    0  501  502  0.00000000000E+00  0.00000000000E+00  0.24266174018E+03  0.24266174018E+03  0.00000000000E+00 0.  1.
         -4   -1    0    0    0  501 -0.00000000000E+00 -0.00000000000E+00 -0.19461011949E+03  0.19461011949E+03  0.00000000000E+00 0.  1.
        -24    2    1    2    0    0  0.35305812734E+02 -0.38146546110E+02 -0.13242817890E+03  0.16383959068E+03  0.81268256501E+02 0.  0.
         23    2    1    2    0    0 -0.27011924284E+01  0.19951895236E+02  0.11575448141E+02  0.10045022796E+03  0.97728617780E+02 0.  0.
         11    1    3    3    0    0  0.64460598698E+01 -0.59474484003E+02 -0.92458630381E+02  0.11012431279E+03  0.00000000000E+00 0. -1.
        -12    1    3    3    0    0  0.28859752864E+02  0.21327937893E+02 -0.39969548514E+02  0.53715277888E+02  0.00000000000E+00 0.  1.
        -11    1    4    4    0    0  0.29281996269E+02  0.41833228893E+02 -0.15282154440E+02  0.53301018652E+02  0.00000000000E+00 0.  1.
         11    1    4    4    0    0 -0.31983188697E+02 -0.21881333657E+02  0.26857602581E+02  0.47149209306E+02  0.00000000000E+00 0. -1.
         -3    1    1    2    0  502 -0.32604620306E+02  0.18194650874E+02  0.16890435144E+03  0.17298204103E+03  0.00000000000E+00 0.  1.
<scales pt_clust_5="13000.00000" pt_clust_6="13000.00000" pt_clust_7="13000.00000" pt_clust_8="13000.00000" pt_clust_9="37.33774"></scales>
<clustering>
<clus scale="   37.338">  1  9  2 -1</clus>
<clus scale="   81.268">  5  6 -1 -1</clus>
<clus scale="   92.547">  2  5  1 -1</clus>
<clus scale="   97.729">  7  8 -1 -1</clus>
<clus scale="   37.338">  1  5  2 -1</clus>
</clustering>
</event>
<event>
 9    1  0.6675710E-005  0.8852760E+02  0.7546771E-02  0.1311724E+00
         21   -1    0    0  501  502  0.00000000000E+00  0.00000000000E+00  0.19681165106E+03  0.19681165106E+03  0.00000000000E+00 0. -1.
         -2   -1    0    0    0  501 -0.00000000000E+00 -0.00000000000E+00 -0.67587761627E+02  0.67587761627E+02  0.00000000000E+00 0.  1.
         23    2    1    2    0    0  0.78676165949E+01 -0.13261998286E+02  0.25732759939E+02  0.93017412192E+02  0.88047055870E+02 0.  0.
        -24    2    1    2    0    0  0.23882464050E+02 -0.44118647764E+01  0.28855139876E+02  0.88370169996E+02  0.79917652668E+02 0.  0.
         11    1    4    4    0    0  0.28021152358E+02  0.29303503573E+02 -0.44623379547E+01  0.40789615850E+02  0.00000000000E+00 0. -1.
        -12    1    4    4    0    0 -0.41386883079E+01 -0.33715368350E+02  0.33317477830E+02  0.47580554146E+02  0.00000000000E+00 0.  1.
        -13    1    3    3    0    0 -0.24759080740E+02  0.75938412881E+01 -0.20269706712E+02  0.32886768080E+02  0.00000000000E+00 0.  1.
         13    1    3    3    0    0  0.32626697334E+02 -0.20855839575E+02  0.46002466651E+02  0.60130644112E+02  0.00000000000E+00 0. -1.
         -1    1    1    2    0  502 -0.31750080645E+02  0.17673863063E+02  0.74635989619E+02  0.83011830499E+02  0.00000000000E+00 0.  1.
<scales pt_clust_5="13000.00000" pt_clust_6="13000.00000" pt_clust_7="13000.00000" pt_clust_8="13000.00000" pt_clust_9="36.33776"></scales>
<clustering>
<clus scale="   36.338">  1  9  2 -1</clus>
<clus scale="   79.918">  5  6 -1 -1</clus>
<clus scale="   80.447">  1  5  2 -1</clus>
<clus scale="   88.047">  7  8 -1 -1</clus>
<clus scale="   36.338">  1  5  2 -1</clus>
</clustering>
</event>
<event>
 9    1  0.6675710E-005  0.1345951E+03  0.7546771E-02  0.1223059E+00
         21   -1    0    0  501  502  0.00000000000E+00  0.00000000000E+00  0.17964413688E+03  0.17964413688E+03  0.00000000000E+00 0. -1.
          1   -1    0    0  502    0 -0.00000000000E+00 -0.00000000000E+00 -0.20411858271E+03  0.20411858271E+03  0.00000000000E+00 0. -1.
        -24    2    1    2    0    0 -0.88933246268E+02  0.20420975945E+02 -0.98501824894E+02  0.15716825856E+03  0.81689126817E+02 0.  0.
         23    2    1    2    0    0  0.12362579834E+03 -0.52586793371E+02  0.75946154389E+02  0.17924581080E+03  0.91173096189E+02 0.  0.
         13    1    3    3    0    0 -0.35468266761E+02  0.43101796060E+02 -0.19522954526E+02  0.59134664318E+02  0.00000000000E+00 0. -1.
        -14    1    3    3    0    0 -0.53464979508E+02 -0.22680820115E+02 -0.78978870367E+02  0.98033594239E+02  0.00000000000E+00 0.  1.
        -11    1    4    4    0    0  0.61265254036E+02  0.14984690982E+02  0.53055383675E+01  0.63293925880E+02  0.00000000000E+00 0.  1.
         11    1    4    4    0    0  0.62360544308E+02 -0.67571484353E+02  0.70640616022E+02  0.11595188492E+03  0.00000000000E+00 0. -1.
          2    1    1    2  501    0 -0.34692552076E+02  0.32165817425E+02 -0.19187753218E+01  0.47348650233E+02  0.00000000000E+00 0. -1.
<scales pt_clust_5="13000.00000" pt_clust_6="13000.00000" pt_clust_7="13000.00000" pt_clust_8="13000.00000" pt_clust_9="47.30976"></scales>
<clustering>
<clus scale="   47.310">  1  9  2 -1</clus>
<clus scale="   81.689">  5  6 -1 -1</clus>
<clus scale="   91.173">  7  8 -1 -1</clus>
<clus scale="  128.361">  2  5  1 -1</clus>
<clus scale="   47.310">  1  5  2 -1</clus>
</clustering>
</event>
<event>
 9    1  0.6675710E-005  0.1267549E+03  0.7546771E-02  0.1244180E+00
         21   -1    0    0  501  502  0.00000000000E+00  0.00000000000E+00  0.11746219579E+03  0.11746219579E+03  0.00000000000E+00 0.  1.
          1   -1    0    0  502    0 -0.00000000000E+00 -0.00000000000E+00 -0.20180365637E+03  0.20180365637E+03  0.00000000000E+00 0. -1.
         23    2    1    2    0    0 -0.56552564987E+02  0.42710471621E+02 -0.12959266435E+03  0.18543192217E+03  0.11210870668E+03 0.  0.
        -24    2    1    2    0    0  0.29136211288E+02 -0.14749119431E+02  0.34923573576E+02  0.93335119994E+02  0.80158176755E+02 0.  0.
         13    1    4    4    0    0  0.12975645474E+02  0.27334085483E+02 -0.77785323300E+01  0.31241401535E+02  0.00000000000E+00 0. -1.
        -14    1    4    4    0    0  0.16160565814E+02 -0.42083204914E+02  0.42702105906E+02  0.62093718459E+02  0.00000000000E+00 0.  1.
        -11    1    3    3    0    0  0.10669032148E+02 -0.31010294398E+02 -0.34666794565E+02  0.47720574714E+02  0.00000000000E+00 0.  1.
         11    1    3    3    0    0 -0.67221597135E+02  0.73720766019E+02 -0.94925869782E+02  0.13771134745E+03  0.00000000000E+00 0. -1.
          2    1    1    2  501    0  0.27416353699E+02 -0.27961352190E+02  0.10327630188E+02  0.40498810004E+02  0.00000000000E+00 0. -1.
<scales pt_clust_5="13000.00000" pt_clust_6="13000.00000" pt_clust_7="13000.00000" pt_clust_8="13000.00000" pt_clust_9="39.15985"></scales>
<clustering>
<clus scale="   39.160">  1  9  2 -1</clus>
<clus scale="   80.158">  5  6 -1 -1</clus>
<clus scale="   99.618">  1  5  2 -1</clus>
<clus scale="  112.109">  7  8 -1 -1</clus>
<clus scale="   39.160">  1  5  2 -1</clus>
</clustering>
</event>
<event>
 9    1  0.6675710E-005  0.9771215E+02  0.7546771E-02  0.1290767E+00
          3   -1    0    0  502    0 -0.00000000000E+00  0.00000000000E+00  0.14222589733E+03  0.14222589733E+03  0.00000000000E+00 0. -1.
         21   -1    0    0  501  502  0.00000000000E+00 -0.00000000000E+00 -0.11408743388E+03  0.11408743388E+03  0.00000000000E+00 0.  1.
         23    2    1    2    0    0 -0.21889080942E+02  0.41345512757E+02  0.58037430334E+02  0.11797926969E+03  0.91444964138E+02 0.  0.
        -24    2    1    2    0    0 -0.16921574750E+02 -0.15640793243E+02 -0.35681077178E+02  0.91425294745E+02  0.80959688397E+02 0.  0.
         13    1    4    4    0    0 -0.32244958496E+02  0.42506403676E+01  0.14271257679E+02  0.35517236487E+02  0.00000000000E+00 0. -1.
        -14    1    4    4    0    0  0.15323383746E+02 -0.19891433611E+02 -0.49952334857E+02  0.55908058258E+02  0.00000000000E+00 0.  1.
        -11    1    3    3    0    0  0.24742185476E+02 -0.14616729174E+02  0.24596244894E+02  0.37825914090E+02  0.00000000000E+00 0.  1.
         11    1    3    3    0    0 -0.46631266418E+02  0.55962241931E+02  0.33441185439E+02  0.80153355596E+02  0.00000000000E+00 0. -1.
          4    1    1    2  501    0  0.38810655692E+02 -0.25704719514E+02  0.57821102955E+01  0.46908766771E+02  0.00000000000E+00 0. -1.
<scales pt_clust_5="13000.00000" pt_clust_6="13000.00000" pt_clust_7="13000.00000" pt_clust_8="13000.00000" pt_clust_9="46.55107"></scales>
<clustering>
<clus scale="   46.551">  2  9  1 -1</clus>
<clus scale="   80.960">  5  6 -1 -1</clus>
<clus scale="   87.977">  2  5  1 -1</clus>
<clus scale="   91.445">  7  8 -1 -1</clus>
<clus scale="   46.551">  2  5  1 -1</clus>
</clustering>
</event>
<event>
 9    1  0.6675710E-005  0.1990055E+03  0.7546771E-02  0.1151733E+00
         -2   -1    0    0    0  501 -0.00000000000E+00  0.00000000000E+00  0.25752021475E+03  0.25752021475E+03  0.00000000000E+00 0.  1.
         21   -1    0    0  501  502  0.00000000000E+00 -0.00000000000E+00 -0.31186135517E+03  0.31186135517E+03  0.00000000000E+00 0.  1.
         23    2    1    2    0    0 -0.14276611495E+03  0.12589526772E+03  0.15333262531E+03  0.26105699472E+03  0.91695575112E+02 0.  0.
        -24    2    1    2    0    0  0.12223378669E+03 -0.57916867114E+02 -0.14514369113E+03  0.21370613259E+03  0.79423912819E+02 0.  0.
         13    1    4    4    0    0  0.94970283644E+02 -0.53502639965E+02 -0.60494795844E+02  0.12466558299E+03  0.00000000000E+00 0. -1.
        -14    1    4    4    0    0  0.27263503044E+02 -0.44142271487E+01 -0.84648895286E+02  0.89040549598E+02  0.00000000000E+00 0.  1.
        -13    1    3    3    0    0 -0.12397064333E+03  0.13895472267E+03  0.14717658810E+03  0.23735644808E+03  0.00000000000E+00 0.  1.
         13    1    3    3    0    0 -0.18795471620E+02 -0.13059454948E+02  0.61560372106E+01  0.23700546641E+02  0.00000000000E+00 0. -1.
         -1    1    1    2    0  502  0.20532328266E+02 -0.67978400605E+02 -0.62530074598E+02  0.94618442611E+02  0.00000000000E+00 0.  1.
<scales pt_clust_5="13000.00000" pt_clust_6="13000.00000" pt_clust_7="13000.00000" pt_clust_8="13000.00000" pt_clust_9="71.01154"></scales>
<clustering>
<clus scale="   71.012">  2  9  1 -1</clus>
<clus scale="   79.424">  5  6 -1 -1</clus>
<clus scale="   91.696">  7  8 -1 -1</clus>
<clus scale="  193.658">  2  5  1 -1</clus>
<clus scale="   71.012">  2  5  1 -1</clus>
</clustering>
</event>
<event>
 9    1  0.6675710E-005  0.1467463E+03  0.7546771E-02  0.1206471E+00
          1   -1    0    0  502    0 -0.00000000000E+00  0.00000000000E+00  0.47573561483E+03  0.47573561483E+03  0.00000000000E+00 0. -1.
         21   -1    0    0  501  502  0.00000000000E+00 -0.00000000000E+00 -0.75418929317E+02  0.75418929317E+02  0.00000000000E+00 0. -1.
        -24    2    1    2    0    0  0.82040087549E+02 -0.97392182352E+01  0.10633844404E+03  0.15666843911E+03  0.80073134035E+02 0.  0.
         23    2    1    2    0    0 -0.16045466541E+03  0.82579321847E+01  0.21552294283E+03  0.28355245769E+03  0.90210666096E+02 0.  0.
         11    1    3    3    0    0  0.55572346631E+02  0.30593100601E+02  0.78653367471E+02  0.10104739348E+03  0.00000000000E+00 0. -1.
        -12    1    3    3    0    0  0.26467740918E+02 -0.40332318836E+02  0.27685076571E+02  0.55621045628E+02  0.00000000000E+00 0.  1.
        -11    1    4    4    0    0 -0.12607037290E+03 -0.32992790940E+02  0.14589848815E+03  0.19562370005E+03  0.00000000000E+00 0.  1.
         11    1    4    4    0    0 -0.34384292513E+02  0.41250723124E+02  0.69624454685E+02  0.87928757639E+02  0.00000000000E+00 0. -1.
          2    1    1    2  501    0  0.78414577865E+02  0.14812860505E+01  0.78455298638E+02  0.11093364735E+03  0.00000000000E+00 0. -1.
<scales pt_clust_5="13000.00000" pt_clust_6="13000.00000" pt_clust_7="13000.00000" pt_clust_8="13000.00000" pt_clust_9="78.42857"></scales>
<clustering>
<clus scale="   78.429">  2  9  1 -1</clus>
<clus scale="   80.073">  5  6 -1 -1</clus>
<clus scale="   90.211">  7  8 -1 -1</clus>
<clus scale="  140.742">  1  5  2 -1</clus>
<clus scale="   78.429">  2  5  1 -1</clus>
</clustering>
</event>
<event>
 9    1  0.6675710E-005  0.1790834E+03  0.7546771E-02  0.1188807E+00
          1   -1    0    0  502    0 -0.00000000000E+00  0.00000000000E+00  0.11082706674E+04  0.11082706674E+04  0.00000000000E+00 0. -1.
         21   -1    0    0  501  502  0.00000000000E+00 -0.00000000000E+00 -0.51667359665E+02  0.51667359665E+02  0.00000000000E+00 0. -1.
         23    2    1    2    0    0 -0.41347774143E+01 -0.66574321374E+02  0.29222248473E+03  0.31361003757E+03  0.92239028806E+02 0.  0.
        -24    2    1    2    0    0  0.13957098371E+03  0.10592266885E+03  0.26624365995E+03  0.32861002415E+03  0.79994938831E+02 0.  0.
         11    1    4    4    0    0  0.10885589001E+03  0.10778266374E+03  0.17634037089E+03  0.23358645894E+03  0.00000000000E+00 0. -1.
        -12    1    4    4    0    0  0.30715093696E+02 -0.18599948918E+01  0.89903289063E+02  0.95023565214E+02  0.00000000000E+00 0.  1.
        -11    1    3    3    0    0  0.44084459130E+02 -0.33161051515E+02  0.14092240322E+03  0.15133478980E+03  0.00000000000E+00 0. -1.
         11    1    3    3    0    0 -0.48219236544E+02 -0.33413269859E+02  0.15130008151E+03  0.16227524777E+03  0.00000000000E+00 0.  1.
          2    1    1    2  501    0 -0.13543620629E+03 -0.39348347474E+02  0.49813716308E+03  0.51771796537E+03  0.00000000000E+00 0. -1.
<scales pt_clust_5="13000.00000" pt_clust_6="13000.00000" pt_clust_7="13000.00000" pt_clust_8="13000.00000" pt_clust_9="160.22392"></scales>
<clustering>
<clus scale="   79.995">  5  6 -1 -1</clus>
<clus scale="   92.239">  7  8 -1 -1</clus>
<clus scale="  113.830">  1  7  2 -1</clus>
<clus scale="  160.224">  2  9  1 -1</clus>
<clus scale="  160.224">  2  5  1 -1</clus>
</clustering>
</event>
<event>
 9    1  0.6675710E-005  0.1098014E+03  0.7546771E-02  0.1266252E+00
          1   -1    0    0  502    0 -0.00000000000E+00  0.00000000000E+00  0.80631826888E+03  0.80631826888E+03  0.00000000000E+00 0. -1.
         21   -1    0    0  501  502  0.00000000000E+00 -0.00000000000E+00 -0.21660003008E+02  0.21660003008E+02  0.00000000000E+00 0. -1.
        -24    2    1    2    0    0 -0.76982444620E+02 -0.21033396070E+02  0.39487546773E+03  0.41088762106E+03  0.80828841331E+02 0.  0.
         23    2    1    2    0    0  0.29170614124E+02  0.78481900365E+01  0.24607879650E+03  0.26506874162E+03  0.93777102115E+02 0.  0.
         11    1    3    3    0    0 -0.73594613679E+02 -0.21704390941E+02  0.39853607331E+03  0.40585496114E+03  0.00000000000E+00 0. -1.
        -12    1    3    3    0    0 -0.33878309403E+01  0.67099487081E+00 -0.36606055831E+01  0.50326599162E+01  0.00000000000E+00 0.  1.
        -13    1    4    4    0    0  0.50106582590E+01 -0.36198847270E+02  0.17011184341E+03  0.17399282315E+03  0.00000000000E+00 0.  1.
         13    1    4    4    0    0  0.24159955865E+02  0.44047037306E+02  0.75966953092E+02  0.91075918469E+02  0.00000000000E+00 0. -1.
          2    1    1    2  501    0  0.47811830496E+02  0.13185206033E+02  0.14370400163E+03  0.15202190921E+03  0.00000000000E+00 0. -1.
<scales pt_clust_5="13000.00000" pt_clust_6="13000.00000" pt_clust_7="13000.00000" pt_clust_8="13000.00000" pt_clust_9="49.59658"></scales>
<clustering>
<clus scale="   49.597">  2  9  1 -1</clus>
<clus scale="   80.829">  5  6 -1 -1</clus>
<clus scale="   93.777">  7  8 -1 -1</clus>
<clus scale="   98.972">  1  5  2 -1</clus>
<clus scale="   49.597">  2  5  1 -1</clus>
</clustering>
</event>
<event>
 9    1  0.6675710E-005  0.9566424E+02  0.7546771E-02  0.1297999E+00
         -2   -1    0    0    0  501 -0.00000000000E+00  0.00000000000E+00  0.11688689266E+03  0.11688689266E+03  0.00000000000E+00 0.  1.
         21   -1    0    0  501  502  0.00000000000E+00 -0.00000000000E+00 -0.16783533851E+03  0.16783533851E+03  0.00000000000E+00 0.  1.
        -24    2    1    2    0    0 -0.13266551966E+02  0.31207637665E+02  0.35115838878E+02  0.92326793300E+02  0.78365786995E+02 0.  0.
         23    2    1    2    0    0  0.35080456415E+02  0.32875643706E+02 -0.50440256997E+02  0.11589978616E+03  0.92612604619E+02 0.  0.
         13    1    3    3    0    0 -0.21168789255E+02 -0.19675761146E+02 -0.18173416115E+01  0.28957830473E+02  0.00000000000E+00 0. -1.
        -14    1    3    3    0    0  0.79022372896E+01  0.50883398810E+02  0.36933180490E+02  0.63368962827E+02  0.00000000000E+00 0.  1.
        -11    1    4    4    0    0  0.29129319776E+02  0.55945332548E+02 -0.33951566914E+01  0.63165849899E+02  0.00000000000E+00 0.  1.
         11    1    4    4    0    0  0.59511366388E+01 -0.23069688842E+02 -0.47045100306E+02  0.52733936259E+02  0.00000000000E+00 0. -1.
         -1    1    1    2    0  502 -0.21813904449E+02 -0.64083281371E+02 -0.35624027739E+02  0.76495651712E+02  0.00000000000E+00 0.  1.
<scales pt_clust_5="13000.00000" pt_clust_6="13000.00000" pt_clust_7="13000.00000" pt_clust_8="13000.00000" pt_clust_9="67.69426"></scales>
<clustering>
<clus scale="   67.694">  2  9  1 -1</clus>
<clus scale="   78.366">  5  6 -1 -1</clus>
<clus scale="   81.950">  1  5  2 -1</clus>
<clus scale="   92.613">  7  8 -1 -1</clus>
<clus scale="   67.694">  2  5  1 -1</clus>
</clustering>
</event>
<event>
 9    1  0.6675710E-005  0.9671590E+02  0.7546771E-02  0.1294563E+00
         -4   -1    0    0    0  501 -0.00000000000E+00  0.00000000000E+00  0.10727660120E+03  0.10727660120E+03  0.00000000000E+00 0.  1.
         21   -1    0    0  501  502  0.00000000000E+00 -0.00000000000E+00 -0.31470646800E+03  0.31470646800E+03  0.00000000000E+00 0.  1.
        -24    2    1    2    0    0 -0.35133832507E+02  0.37802535162E+01  0.67061062476E+02  0.10959906154E+03  0.79158648843E+02 0.  0.
         23    2    1    2    0    0 -0.94093909903E+01 -0.11880717974E+02 -0.12369525302E+03  0.15493861311E+03  0.92063945799E+02 0.  0.
         11    1    3    3    0    0 -0.25950154242E+01 -0.24564187801E+02 -0.53789851313E+01  0.25279772713E+02  0.00000000000E+00 0. -1.
        -12    1    3    3    0    0 -0.32538817082E+02  0.28344441318E+02  0.72440047607E+02  0.84319288825E+02  0.00000000000E+00 0.  1.
        -13    1    4    4    0    0  0.25395261628E+02 -0.28271126235E+02 -0.17211050805E+02  0.41718055583E+02  0.00000000000E+00 0. -1.
         13    1    4    4    0    0 -0.34804652619E+02  0.16390408261E+02 -0.10648420221E+03  0.11322055753E+03  0.00000000000E+00 0.  1.
         -3    1    1    2    0  502  0.44543223497E+02  0.81004644583E+01 -0.15079567626E+03  0.15744539454E+03  0.00000000000E+00 0.  1.
<scales pt_clust_5="13000.00000" pt_clust_6="13000.00000" pt_clust_7="13000.00000" pt_clust_8="13000.00000" pt_clust_9="45.27379"></scales>
<clustering>
<clus scale="   45.274">  2  9  1 -1</clus>
<clus scale="   79.159">  5  6 -1 -1</clus>
<clus scale="   84.524">  1  5  2 -1</clus>
<clus scale="   92.064">  7  8 -1 -1</clus>
<clus scale="   45.274">  2  5  1 -1</clus>
</clustering>
</event>
<event>
 9    1  0.6675710E-005  0.9563861E+02  0.7546771E-02  0.1296496E+00
         -4   -1    0    0    0  501 -0.00000000000E+00  0.00000000000E+00  0.41645490932E+02  0.41645490932E+02  0.00000000000E+00 0.  1.
         21   -1    0    0  501  502  0.00000000000E+00 -0.00000000000E+00 -0.27330986194E+03  0.27330986194E+03  0.00000000000E+00 0.  1.
        -24    2    1    2    0    0  0.14424055802E+02 -0.25844012408E+02 -0.49201958615E+02  0.96263702741E+02  0.77265136839E+02 0.  0.
         23    2    1    2    0    0 -0.72022916605E+01  0.44682043434E+02 -0.15533051956E+03  0.18488092847E+03  0.89470829861E+02 0.  0.
         13    1    3    3    0    0  0.43766421936E+00 -0.32542289361E+02 -0.65885882860E+02  0.73485656472E+02  0.00000000000E+00 0. -1.
        -14    1    3    3    0    0  0.13986391583E+02  0.66982769534E+01  0.16683924245E+02  0.22778046270E+02  0.00000000000E+00 0.  1.
        -11    1    4    4    0    0 -0.29692483883E+02  0.24776676612E+02 -0.14932651513E+03  0.15425282955E+03  0.00000000000E+00 0.  1.
         11    1    4    4    0    0  0.22490192223E+02  0.19905366822E+02 -0.60040044296E+01  0.30628098925E+02  0.00000000000E+00 0. -1.
         -3    1    1    2    0  502 -0.72217641415E+01 -0.18838031026E+02 -0.27131892834E+02  0.33810721658E+02  0.00000000000E+00 0.  1.
<scales pt_clust_5="13000.00000" pt_clust_6="13000.00000" pt_clust_7="13000.00000" pt_clust_8="13000.00000" pt_clust_9="20.17487"></scales>
<clustering>
<clus scale="   20.175">  2  9  1 -1</clus>
<clus scale="   77.265">  5  6 -1 -1</clus>
<clus scale="   84.330">  1  5  2 -1</clus>
<clus scale="   89.471">  7  8 -1 -1</clus>
<clus scale="   20.175">  2  5  1 -1</clus>
</clustering>
</event>
<event>
 9    1  0.6675710E-005  0.1788144E+03  0.7546771E-02  0.1170076E+00
         21   -1    0    0  501  502  0.00000000000E+00  0.00000000000E+00  0.74728267246E+03  0.74728267246E+03  0.00000000000E+00 0. -1.
          3   -1    0    0  502    0 -0.00000000000E+00 -0.00000000000E+00 -0.72094063537E+02  0.72094063537E+02  0.00000000000E+00 0. -1.
         23    2    1    2    0    0 -0.13743233778E+03  0.11508168511E+02  0.17528202176E+03  0.24069874372E+03  0.90509737969E+02 0.  0.
        -24    2    1    2    0    0  0.18409261492E+03 -0.61203783497E+02  0.44102302519E+03  0.48859964037E+03  0.81193015945E+02 0.  0.
         13    1    4    4    0    0  0.12901120521E+03 -0.32720243886E+02  0.20384070430E+03  0.24344514405E+03  0.00000000000E+00 0. -1.
        -14    1    4    4    0    0  0.55081409706E+02 -0.28483539610E+02  0.23718232089E+03  0.24515449633E+03  0.00000000000E+00 0.  1.
        -13    1    3    3    0    0 -0.73177301785E+02  0.87948518080E+01  0.26004495318E+02  0.78156897914E+02  0.00000000000E+00 0. -1.
         13    1    3    3    0    0 -0.64255035997E+02  0.27133167025E+01  0.14927752644E+03  0.16254184581E+03  0.00000000000E+00 0.  1.
          4    1    1    2  501    0 -0.46660277133E+02  0.49695614986E+02  0.58883561966E+02  0.90078351899E+02  0.00000000000E+00 0. -1.
<scales pt_clust_5="13000.00000" pt_clust_6="13000.00000" pt_clust_7="13000.00000" pt_clust_8="13000.00000" pt_clust_9="68.16774"></scales>
<clustering>
<clus scale="   68.168">  1  9  2 -1</clus>
<clus scale="   81.193">  5  6 -1 -1</clus>
<clus scale="   90.510">  7  8 -1 -1</clus>
<clus scale="  174.284">  1  5  2 -1</clus>
<clus scale="   68.168">  1  5  2 -1</clus>
</clustering>
</event>
<event>
 9    1  0.6675710E-005  0.1088792E+03  0.7546771E-02  0.1265929E+00
         21   -1    0    0  501  502  0.00000000000E+00  0.00000000000E+00  0.48434018249E+03  0.48434018249E+03  0.00000000000E+00 0.  1.
          1   -1    0    0  502    0 -0.00000000000E+00 -0.00000000000E+00 -0.63086792863E+02  0.63086792863E+02  0.00000000000E+00 0. -1.
        -24    2    1    2    0    0  0.45554748394E+02  0.41132565160E+02  0.10732925694E+02  0.10150534555E+03  0.80131245244E+02 0.  0.
         23    2    1    2    0    0 -0.78943466227E+02 -0.15267217044E+02  0.21636764330E+03  0.24722804542E+03  0.88552756033E+02 0.  0.
         11    1    3    3    0    0  0.50914768472E+02  0.17061003822E+01 -0.16200878185E+02  0.53457393138E+02  0.00000000000E+00 0. -1.
        -12    1    3    3    0    0 -0.53600200782E+01  0.39426464777E+02  0.26933803879E+02  0.48047952417E+02  0.00000000000E+00 0.  1.
        -13    1    4    4    0    0 -0.69464074699E+02 -0.44339749342E+02  0.18902287924E+03  0.20620601330E+03  0.00000000000E+00 0.  1.
         13    1    4    4    0    0 -0.94793915282E+01  0.29072532298E+02  0.27344764056E+02  0.41022032120E+02  0.00000000000E+00 0. -1.
          2    1    1    2  501    0  0.33388717833E+02 -0.25865348116E+02  0.19415282064E+03  0.19869358438E+03  0.00000000000E+00 0. -1.
<scales pt_clust_5="13000.00000" pt_clust_6="13000.00000" pt_clust_7="13000.00000" pt_clust_8="13000.00000" pt_clust_9="42.23533"></scales>
<clustering>
<clus scale="   42.235">  1  9  2 -1</clus>
<clus scale="   80.131">  5  6 -1 -1</clus>
<clus scale="   88.553">  7  8 -1 -1</clus>
<clus scale="  102.147">  2  5  1 -1</clus>
<clus scale="   42.235">  1  5  2 -1</clus>
</clustering>
</event>
<event>
 9    1  0.6675710E-005  0.2488397E+03  0.7546771E-02  0.1115055E+00
         21   -1    0    0  501  502  0.00000000000E+00  0.00000000000E+00  0.15014234572E+04  0.15014234572E+04  0.00000000000E+00 0. -1.
          1   -1    0    0  502    0 -0.00000000000E+00 -0.00000000000E+00 -0.58167965119E+02  0.58167965119E+02  0.00000000000E+00 0. -1.
         23    2    1    2    0    0 -0.20429630194E+03 -0.11154692073E+03  0.45685461873E+03  0.52075811915E+03  0.91066906714E+02 0.  0.
        -24    2    1    2    0    0  0.16434686626E+03  0.16979416182E+03  0.85072668181E+03  0.88587518879E+03  0.72104182395E+02 0.  0.
         11    1    4    4    0    0  0.15704663319E+03  0.15680982056E+03  0.69819910519E+03  0.73262197299E+03  0.00000000000E+00 0. -1.
        -12    1    4    4    0    0  0.73002330687E+01  0.12984341261E+02  0.15252757663E+03  0.15325321580E+03  0.00000000000E+00 0.  1.
        -11    1    3    3    0    0 -0.74085287632E+02 -0.40779794778E+02  0.26601149302E+03  0.27913032069E+03  0.00000000000E+00 0.  1.
         11    1    3    3    0    0 -0.13021101431E+03 -0.70767125949E+02  0.19084312570E+03  0.24162779846E+03  0.00000000000E+00 0. -1.
          2    1    1    2  501    0  0.39949435683E+02 -0.58247241096E+02  0.13567419159E+03  0.15295811443E+03  0.00000000000E+00 0. -1.
<scales pt_clust_5="13000.00000" pt_clust_6="13000.00000" pt_clust_7="13000.00000" pt_clust_8="13000.00000" pt_clust_9="70.63075"></scales>
<clustering>
<clus scale="   70.631">  1  9  2 -1</clus>
<clus scale="   72.104">  5  6 -1 -1</clus>
<clus scale="   91.067">  7  8 -1 -1</clus>
<clus scale="  242.543">  1  5  2 -1</clus>
<clus scale="   70.631">  1  5  2 -1</clus>
</clustering>
</event>
<event>
 9    1  0.6675710E-005  0.1583948E+03  0.7546771E-02  0.1223072E+00
          1   -1    0    0  502    0 -0.00000000000E+00  0.00000000000E+00  0.23281600877E+03  0.23281600877E+03  0.00000000000E+00 0. -1.
         21   -1    0    0  501  502  0.00000000000E+00 -0.00000000000E+00 -0.20447458434E+03  0.20447458434E+03  0.00000000000E+00 0. -1.
        -24    2    1    2    0    0 -0.23814608670E+02  0.27679988419E+01  0.11713131650E+03  0.14113494480E+03  0.74996866162E+02 0.  0.
         23    2    1    2    0    0  0.68890343660E+02  0.10835340904E+03 -0.54635080855E+02  0.17147068409E+03  0.99653714142E+02 0.  0.
         13    1    3    3    0    0 -0.44742231119E+02  0.72364064678E+01  0.10933956814E+03  0.11836120135E+03  0.00000000000E+00 0. -1.
        -14    1    3    3    0    0  0.20927622449E+02 -0.44684076259E+01  0.77917483607E+01  0.22773743447E+02  0.00000000000E+00 0.  1.
        -13    1    4    4    0    0 -0.23182932304E+02  0.43375445760E+01 -0.66739657338E+01  0.24511312935E+02  0.00000000000E+00 0.  1.
         13    1    4    4    0    0  0.92073275964E+02  0.10401586447E+03 -0.47961115121E+02  0.14695937116E+03  0.00000000000E+00 0. -1.
          2    1    1    2  501    0 -0.45075734990E+02 -0.11112140788E+03 -0.34154811217E+02  0.12468496423E+03  0.00000000000E+00 0. -1.
<scales pt_clust_5="13000.00000" pt_clust_6="13000.00000" pt_clust_7="13000.00000" pt_clust_8="13000.00000" pt_clust_9="123.11809"></scales>
<clustering>
<clus scale="   74.997">  5  6 -1 -1</clus>
<clus scale="   78.736">  1  5  2 -1</clus>
<clus scale="   99.654">  7  8 -1 -1</clus>
<clus scale="  123.118">  2  9  1 -1</clus>
<clus scale="  123.118">  2  5  1 -1</clus>
</clustering>
</event>
<event>
 9    1  0.6675710E-005  0.8986572E+02  0.7546771E-02  0.1309362E+00
         -2   -1    0    0    0  501 -0.00000000000E+00  0.00000000000E+00  0.32546712259E+03  0.32546712259E+03  0.00000000000E+00 0.  1.
         21   -1    0    0  501  502  0.00000000000E+00 -0.00000000000E+00 -0.70674501683E+02  0.70674501683E+02  0.00000000000E+00 0. -1.
        -24    2    1    2    0    0 -0.48971163267E+01 -0.14186253163E+02  0.22217375565E+03  0.23662436377E+03  0.80029246544E+02 0.  0.
         23    2    1    2    0    0 -0.11342389095E+02 -0.40533880977E+02  0.22170217214E+02  0.10148977682E+03  0.89649377974E+02 0.  0.
         13    1    3    3    0    0 -0.14022181355E+01  0.31956639666E+02  0.12449428487E+03  0.12853800994E+03  0.00000000000E+00 0. -1.
        -14    1    3    3    0    0 -0.34948981912E+01 -0.46142892828E+02  0.97679470784E+02  0.10808635383E+03  0.00000000000E+00 0.  1.
        -13    1    4    4    0    0 -0.25290353073E+02 -0.60727090215E+01 -0.28538803166E+02  0.38612731573E+02  0.00000000000E+00 0. -1.
         13    1    4    4    0    0  0.13947963978E+02 -0.34461171956E+02  0.50709020380E+02  0.62877045252E+02  0.00000000000E+00 0.  1.
         -1    1    1    2    0  502  0.16239505421E+02  0.54720134140E+02  0.10448648047E+02  0.58027483683E+02  0.00000000000E+00 0.  1.
<scales pt_clust_5="13000.00000" pt_clust_6="13000.00000" pt_clust_7="13000.00000" pt_clust_8="13000.00000" pt_clust_9="57.07902"></scales>
<clustering>
<clus scale="   57.079">  2  9  1 -1</clus>
<clus scale="   80.029">  5  6 -1 -1</clus>
<clus scale="   80.272">  1  5  2 -1</clus>
<clus scale="   89.649">  7  8 -1 -1</clus>
<clus scale="   57.079">  2  5  1 -1</clus>
</clustering>
</event>
<event>
 9    1  0.6675710E-005  0.1102306E+03  0.7546771E-02  0.1267856E+00
         -4   -1    0    0    0  501 -0.00000000000E+00  0.00000000000E+00  0.51528123330E+03  0.51528123330E+03  0.00000000000E+00 0.  1.
         21   -1    0    0  501  502  0.00000000000E+00 -0.00000000000E+00 -0.39685378101E+02  0.39685378101E+02  0.00000000000E+00 0. -1.
        -24    2    1    2    0    0  0.26046945840E+02  0.66982664345E+02  0.34038839596E+03  0.35493663737E+03  0.70360754210E+02 0.  0.
         23    2    1    2    0    0 -0.35651445964E+02 -0.31094340802E+02  0.12565202693E+03  0.16166951945E+03  0.90059524863E+02 0.  0.
         11    1    3    3    0    0  0.18744928962E+02 -0.10639264844E+02  0.54479953885E+02  0.58588665231E+02  0.00000000000E+00 0. -1.
        -12    1    3    3    0    0  0.73020168788E+01  0.77621929188E+02  0.28590844207E+03  0.29634797214E+03  0.00000000000E+00 0.  1.
        -13    1    4    4    0    0  0.20091919094E+02 -0.76199661057E+01  0.87631678164E+02  0.90227823393E+02  0.00000000000E+00 0.  1.
         13    1    4    4    0    0 -0.55743365057E+02 -0.23474374696E+02  0.38020348764E+02  0.71441696057E+02  0.00000000000E+00 0. -1.
         -3    1    1    2    0  502  0.96045001234E+01 -0.35888323542E+02  0.95554323153E+01  0.38360454586E+02  0.00000000000E+00 0.  1.
<scales pt_clust_5="13000.00000" pt_clust_6="13000.00000" pt_clust_7="13000.00000" pt_clust_8="13000.00000" pt_clust_9="37.15129"></scales>
<clustering>
<clus scale="   37.151">  2  9  1 -1</clus>
<clus scale="   70.361">  5  6 -1 -1</clus>
<clus scale="   90.060">  7  8 -1 -1</clus>
<clus scale="   94.819">  1  5  2 -1</clus>
<clus scale="   37.151">  2  5  1 -1</clus>
</clustering>
</event>
<event>
 9    1  0.6675710E-005  0.1030622E+03  0.7546771E-02  0.1283338E+00
         -2   -1    0    0    0  501 -0.00000000000E+00  0.00000000000E+00  0.35472928018E+03  0.35472928018E+03  0.00000000000E+00 0.  1.
         21   -1    0    0  501  502  0.00000000000E+00 -0.00000000000E+00 -0.46404232364E+02  0.46404232364E+02  0.00000000000E+00 0.  1.
         23    2    1    2    0    0 -0.12202790466E+02  0.17316715118E+02  0.16031989595E+03  0.18920888591E+03  0.98228085352E+02 0.  0.
        -24    2    1    2    0    0 -0.13184373064E+02 -0.43849172202E+02  0.14877790743E+03  0.17519484986E+03  0.80385272791E+02 0.  0.
         13    1    4    4    0    0 -0.19865587069E+02  0.16553759944E+02  0.76562927804E+02  0.80811821114E+02  0.00000000000E+00 0. -1.
        -14    1    4    4    0    0  0.66812140049E+01 -0.60402932147E+02  0.72214979626E+02  0.94383028744E+02  0.00000000000E+00 0.  1.
        -13    1    3    3    0    0  0.27318266995E+02 -0.29936355393E+01  0.13560865977E+03  0.13836530696E+03  0.00000000000E+00 0.  1.
         13    1    3    3    0    0 -0.39521057461E+02  0.20310350657E+02  0.24711236176E+02  0.50843578945E+02  0.00000000000E+00 0. -1.
         -1    1    1    2    0  502  0.25387163530E+02  0.26532457085E+02 -0.77275556226E+00  0.36729776778E+02  0.00000000000E+00 0.  1.
<scales pt_clust_5="13000.00000" pt_clust_6="13000.00000" pt_clust_7="13000.00000" pt_clust_8="13000.00000" pt_clust_9="36.72165"></scales>
<clustering>
<clus scale="   36.722">  2  9  1 -1</clus>
<clus scale="   80.385">  5  6 -1 -1</clus>
<clus scale="   86.226">  2  5  1 -1</clus>
<clus scale="   98.228">  7  8 -1 -1</clus>
<clus scale="   36.722">  2  5  1 -1</clus>
</clustering>
</event>
<event>
 9    1  0.6675710E-005  0.2488094E+03  0.7546771E-02  0.1143239E+00
         -2   -1    0    0    0  501 -0.00000000000E+00  0.00000000000E+00  0.74537982148E+03  0.74537982148E+03  0.00000000000E+00 0.  1.
         21   -1    0    0  501  502  0.00000000000E+00 -0.00000000000E+00 -0.28782170229E+03  0.28782170229E+03  0.00000000000E+00 0. -1.
        -24    2    1    2    0    0 -0.46118730717E+02 -0.78237114536E+02 -0.13169188590E+03  0.17903636013E+03  0.80394539762E+02 0.  0.
         23    2    1    2    0    0 -0.22168895071E+03  0.15717093931E+02  0.45726116581E+02  0.24502813096E+03  0.92492644648E+02 0.  0.
         11    1    3    3    0    0 -0.65751079336E+02 -0.49211764313E+02 -0.11186066263E+03  0.13877251178E+03  0.00000000000E+00 0. -1.
        -12    1    3    3    0    0  0.19632348620E+02 -0.29025350224E+02 -0.19831223265E+02  0.40263848352E+02  0.00000000000E+00 0.  1.
        -13    1    4    4    0    0 -0.12213959566E+03  0.49894140042E+02  0.45749872993E+01  0.13201680404E+03  0.00000000000E+00 0. -1.
         13    1    4    4    0    0 -0.99549355052E+02 -0.34177046111E+02  0.41151129282E+02  0.11301132693E+03  0.00000000000E+00 0.  1.
         -1    1    1    2    0  502  0.26780768143E+03  0.62520020605E+02  0.54352388850E+03  0.60913703268E+03  0.00000000000E+00 0.  1.
<scales pt_clust_5="13000.00000" pt_clust_6="13000.00000" pt_clust_7="13000.00000" pt_clust_8="13000.00000" pt_clust_9="230.97899"></scales>
<clustering>
<clus scale="   80.395">  5  6 -1 -1</clus>
<clus scale="   92.493">  7  8 -1 -1</clus>
<clus scale="  121.290">  1  5  2 -1</clus>
<clus scale="  230.979">  2  9  1 -1</clus>
<clus scale="  230.979">  2  5  1 -1</clus>
</clustering>
</event>
<event>
 9    1  0.6675710E-005  0.9822228E+02  0.7546771E-02  0.1290972E+00
         -2   -1    0    0    0  501 -0.00000000000E+00  0.00000000000E+00  0.17742104772E+03  0.17742104772E+03  0.00000000000E+00 0.  1.
         21   -1    0    0  501  502  0.00000000000E+00 -0.00000000000E+00 -0.25604459321E+03  0.25604459321E+03  0.00000000000E+00 0. -1.
        -24    2    1    2    0    0 -0.19250974486E+02 -0.22985625143E+02  0.12742037555E+03  0.15385147923E+03  0.80841737810E+02 0.  0.
         23    2    1    2    0    0  0.67959600501E+02 -0.24464078923E+02 -0.10644417516E+03  0.15901518141E+03  0.93479768067E+02 0.  0.
         13    1    3    3    0    0  0.29970452163E+02 -0.17576247565E+01  0.64832441295E+02  0.71446222376E+02  0.00000000000E+00 0. -1.
        -14    1    3    3    0    0 -0.49221426649E+02 -0.21228000387E+02  0.62587934258E+02  0.82405256850E+02  0.00000000000E+00 0.  1.
        -11    1    4    4    0    0  0.54403409293E+02 -0.53697439693E+02 -0.10046867605E+03  0.12624223081E+03  0.00000000000E+00 0. -1.
         11    1    4    4    0    0  0.13556191209E+02  0.29233360770E+02 -0.59754991094E+01  0.32772950609E+02  0.00000000000E+00 0.  1.
         -1    1    1    2    0  502 -0.48708626015E+02  0.47449704066E+02 -0.99599745887E+02  0.12059898028E+03  0.00000000000E+00 0.  1.
<scales pt_clust_5="13000.00000" pt_clust_6="13000.00000" pt_clust_7="13000.00000" pt_clust_8="13000.00000" pt_clust_9="68.00003"></scales>
<clustering>
<clus scale="   68.000">  2  9  1 -1</clus>
<clus scale="   80.842">  5  6 -1 -1</clus>
<clus scale="   86.282">  1  5  2 -1</clus>
<clus scale="   93.480">  7  8 -1 -1</clus>
<clus scale="   68.000">  2  5  1 -1</clus>
</clustering>
</event>
<event>
 9    1  0.6675710E-005  0.1571882E+03  0.7546771E-02  0.1219704E+00
          1   -1    0    0  502    0 -0.00000000000E+00  0.00000000000E+00  0.29509283033E+03  0.29509283033E+03  0.00000000000E+00 0. -1.
         21   -1    0    0  501  502  0.00000000000E+00 -0.00000000000E+00 -0.18582781494E+03  0.18582781494E+03  0.00000000000E+00 0. -1.
         23    2    1    2    0    0 -0.25339118834E+01  0.11022179766E+02 -0.73948355873E+02  0.11376484250E+03  0.85709806296E+02 0.  0.
        -24    2    1    2    0    0  0.96762655557E+02  0.84435972039E+02  0.17479886556E+03  0.23276042046E+03  0.84441252039E+02 0.  0.
         11    1    4    4    0    0  0.79183019360E+02  0.19265546374E+02  0.12356724932E+03  0.14802019097E+03  0.00000000000E+00 0. -1.
        -12    1    4    4    0    0  0.17579636197E+02  0.65170425665E+02  0.51231616245E+02  0.84740229485E+02  0.00000000000E+00 0.  1.
        -11    1    3    3    0    0  0.13926657956E+02 -0.34158050639E+02 -0.42656973120E+02  0.56394517296E+02  0.00000000000E+00 0.  1.
         11    1    3    3    0    0 -0.16460569840E+02  0.45180230405E+02 -0.31291382754E+02  0.57370325200E+02  0.00000000000E+00 0. -1.
          2    1    1    2  501    0 -0.94228743673E+02 -0.95458151805E+02  0.84145057050E+01  0.13439538231E+03  0.00000000000E+00 0. -1.
<scales pt_clust_5="13000.00000" pt_clust_6="13000.00000" pt_clust_7="13000.00000" pt_clust_8="13000.00000" pt_clust_9="132.58133"></scales>
<clustering>
<clus scale="   84.441">  5  6 -1 -1</clus>
<clus scale="   85.710">  7  8 -1 -1</clus>
<clus scale="   86.453">  1  7  2 -1</clus>
<clus scale="  132.581">  2  9  1 -1</clus>
<clus scale="  132.581">  2  5  1 -1</clus>
</clustering>
</event>
<event>
 9    1  0.6675710E-005  0.9501336E+02  0.7546771E-02  0.1298725E+00
          1   -1    0    0  502    0 -0.00000000000E+00  0.00000000000E+00  0.89090874398E+02  0.89090874398E+02  0.00000000000E+00 0. -1.
         21   -1    0    0  501  502  0.00000000000E+00 -0.00000000000E+00 -0.37753116071E+03  0.37753116071E+03  0.00000000000E+00 0.  1.
        -24    2    1    2    0    0  0.19717528520E+02  0.16768266186E+02  0.29797058810E+02  0.88079419197E+02  0.78741118169E+02 0.  0.
         23    2    1    2    0    0  0.47525287801E+01 -0.21737997555E+02 -0.33527669615E+03  0.34831313662E+03  0.91741218091E+02 0.  0.
         11    1    3    3    0    0  0.45218418578E+02 -0.52006662844E+01  0.40389640694E+01  0.45695355773E+02  0.00000000000E+00 0. -1.
        -12    1    3    3    0    0 -0.25500890058E+02  0.21968932470E+02  0.25758094740E+02  0.42384063423E+02  0.00000000000E+00 0.  1.
        -11    1    4    4    0    0  0.56500263876E+01  0.35516070262E+02 -0.10357523836E+03  0.10964097796E+03  0.00000000000E+00 0. -1.
         11    1    4    4    0    0 -0.89749760751E+00 -0.57254067817E+02 -0.23170145779E+03  0.23867215867E+03  0.00000000000E+00 0.  1.
          2    1    1    2  501    0 -0.24470057300E+02  0.49697313692E+01  0.17039351032E+02  0.30229479283E+02  0.00000000000E+00 0. -1.
<scales pt_clust_5="13000.00000" pt_clust_6="13000.00000" pt_clust_7="13000.00000" pt_clust_8="13000.00000" pt_clust_9="24.96963"></scales>
<clustering>
<clus scale="   24.970">  2  9  1 -1</clus>
<clus scale="   78.741">  5  6 -1 -1</clus>
<clus scale="   82.530">  1  5  2 -1</clus>
<clus scale="   91.741">  7  8 -1 -1</clus>
<clus scale="   24.970">  2  5  1 -1</clus>
</clustering>
</event>
<event>
 9    1  0.6675710E-005  0.1427096E+03  0.7546771E-02  0.1225441E+00
         21   -1    0    0  501  502  0.00000000000E+00  0.00000000000E+00  0.26728320892E+03  0.26728320892E+03  0.00000000000E+00 0. -1.
          1   -1    0    0  502    0 -0.00000000000E+00 -0.00000000000E+00 -0.17486059071E+03  0.17486059071E+03  0.00000000000E+00 0. -1.
        -24    2    1    2    0    0  0.11680253256E+00 -0.60170193818E+02 -0.73628369562E+02  0.12617847126E+03  0.82942172254E+02 0.  0.
         23    2    1    2    0    0 -0.51260244565E+02 -0.47208090539E+02  0.10213181311E+02  0.11992663440E+03  0.97066328251E+02 0.  0.
         11    1    3    3    0    0  0.14663821983E+02 -0.34279229379E+02 -0.86208937921E+02  0.93925897491E+02  0.00000000000E+00 0. -1.
        -12    1    3    3    0    0 -0.14547019451E+02 -0.25890964438E+02  0.12580568360E+02  0.32252573768E+02  0.00000000000E+00 0.  1.
        -11    1    4    4    0    0 -0.57457292987E+02  0.11576769746E+02  0.15363530884E+02  0.60592080311E+02  0.00000000000E+00 0.  1.
         11    1    4    4    0    0  0.61970484228E+01 -0.58784860285E+02 -0.51503495729E+01  0.59334554086E+02  0.00000000000E+00 0. -1.
          2    1    1    2  501    0  0.51143442032E+02  0.10737828436E+03  0.15583780645E+03  0.19603869397E+03  0.00000000000E+00 0. -1.
<scales pt_clust_5="13000.00000" pt_clust_6="13000.00000" pt_clust_7="13000.00000" pt_clust_8="13000.00000" pt_clust_9="104.61434"></scales>
<clustering>
<clus scale="   82.942">  5  6 -1 -1</clus>
<clus scale="   97.066">  7  8 -1 -1</clus>
<clus scale="  102.469">  2  5  1 -1</clus>
<clus scale="  104.614">  1  9  2 -1</clus>
<clus scale="  104.614">  1  5  2 -1</clus>
</clustering>
</event>
<event>
 9    1  0.6675710E-005  0.1282410E+03  0.7546771E-02  0.1247832E+00
         21   -1    0    0  501  502  0.00000000000E+00  0.00000000000E+00  0.27575552058E+03  0.27575552058E+03  0.00000000000E+00 0. -1.
          1   -1    0    0  502    0 -0.00000000000E+00 -0.00000000000E+00 -0.10505428953E+03  0.10505428953E+03  0.00000000000E+00 0. -1.
        -24    2    1    2    0    0  0.27912329173E+02  0.45765822090E+01  0.33730363977E+02  0.95536350423E+02  0.84790409679E+02 0.  0.
         23    2    1    2    0    0  0.39629387076E+02  0.60896756139E+02 -0.25002339410E+01  0.11704495590E+03  0.91729860476E+02 0.  0.
         11    1    3    3    0    0  0.49281045467E+02  0.18163178469E+02 -0.10285427327E+01  0.52531708468E+02  0.00000000000E+00 0. -1.
        -12    1    3    3    0    0 -0.21368716294E+02 -0.13586596260E+02  0.34758906709E+02  0.43004641954E+02  0.00000000000E+00 0.  1.
        -13    1    4    4    0    0  0.30944948479E+02 -0.10036669639E+02  0.24422166230E+02  0.40678824678E+02  0.00000000000E+00 0.  1.
         13    1    4    4    0    0  0.86844385973E+01  0.70933425779E+02 -0.26922400171E+02  0.76366131219E+02  0.00000000000E+00 0. -1.
          2    1    1    2  501    0 -0.67541716249E+02 -0.65473338348E+02  0.13947110102E+03  0.16822850379E+03  0.00000000000E+00 0. -1.
<scales pt_clust_5="13000.00000" pt_clust_6="13000.00000" pt_clust_7="13000.00000" pt_clust_8="13000.00000" pt_clust_9="89.61796"></scales>
<clustering>
<clus scale="   84.790">  5  6 -1 -1</clus>
<clus scale="   89.384">  2  5  1 -1</clus>
<clus scale="   89.618">  1  9  2 -1</clus>
<clus scale="   91.730">  7  8 -1 -1</clus>
<clus scale="   89.618">  1  5  2 -1</clus>
</clustering>
</event>
<event>
 9    1  0.6675710E-005  0.8923393E+02  0.7546771E-02  0.1307074E+00
          1   -1    0    0  502    0 -0.00000000000E+00  0.00000000000E+00  0.47452750222E+03  0.47452750222E+03  0.00000000000E+00 0. -1.
         21   -1    0    0  501  502  0.00000000000E+00 -0.00000000000E+00 -0.76085019025E+02  0.76085019025E+02  0.00000000000E+00 0.  1.
        -24    2    1    2    0    0  0.50149799191E+01  0.99611231423E+01  0.87468258077E+02  0.11983464337E+03  0.81149686275E+02 0.  0.
         23    2    1    2    0    0 -0.17745086125E+02 -0.79824911876E+02  0.65737753621E+01  0.11820366526E+03  0.85099866750E+02 0.  0.
         11    1    3    3    0    0 -0.48505549027E+01 -0.34246292962E+02  0.51300470423E+02  0.61871437111E+02  0.00000000000E+00 0. -1.
        -12    1    3    3    0    0  0.98655348218E+01  0.44207416104E+02  0.36167787653E+02  0.57963206258E+02  0.00000000000E+00 0.  1.
        -11    1    4    4    0    0 -0.62437257909E+01 -0.96653743071E+02  0.22913504629E+00  0.96855473073E+02  0.00000000000E+00 0.  1.
         11    1    4    4    0    0 -0.11501360335E+02  0.16828831195E+02  0.63446403158E+01  0.21348192187E+02  0.00000000000E+00 0. -1.
          2    1    1    2  501    0  0.12730106206E+02  0.69863788734E+02  0.30440044976E+03  0.31257421261E+03  0.00000000000E+00 0. -1.
<scales pt_clust_5="13000.00000" pt_clust_6="13000.00000" pt_clust_7="13000.00000" pt_clust_8="13000.00000" pt_clust_9="71.01415"></scales>
<clustering>
<clus scale="   71.014">  2  9  1 -1</clus>
<clus scale="   81.150">  5  6 -1 -1</clus>
<clus scale="   85.100">  7  8 -1 -1</clus>
<clus scale="   85.475">  1  5  2 -1</clus>
<clus scale="   71.014">  2  5  1 -1</clus>
</clustering>
</event>
<event>
 9    1  0.6675710E-005  0.9945038E+02  0.7546771E-02  0.1289475E+00
         -2   -1    0    0    0  501 -0.00000000000E+00  0.00000000000E+00  0.21390275049E+03  0.21390275049E+03  0.00000000000E+00 0.  1.
         21   -1    0    0  501  502  0.00000000000E+00 -0.00000000000E+00 -0.25245749715E+03  0.25245749715E+03  0.00000000000E+00 0.  1.
        -24    2    1    2    0    0  0.27997500715E+02  0.81766001676E-02  0.16369775565E+03  0.18456192670E+03  0.80512666512E+02 0.  0.
         23    2    1    2    0    0 -0.32338546234E+02  0.23185348225E+02 -0.29333992998E+02  0.10727727599E+03  0.95208134390E+02 0.  0.
         11    1    3    3    0    0 -0.23214975782E+02  0.64225122984E+01  0.18225804899E+02  0.30205359276E+02  0.00000000000E+00 0. -1.
        -12    1    3    3    0    0  0.51212476497E+02 -0.64143356982E+01  0.14547195075E+03  0.15435656742E+03  0.00000000000E+00 0.  1.
        -13    1    4    4    0    0 -0.64428524216E+02  0.26871930442E+02 -0.12731853252E+02  0.70959393075E+02  0.00000000000E+00 0. -1.
         13    1    4    4    0    0  0.32089977982E+02 -0.36865822166E+01 -0.16602139747E+02  0.36317882916E+02  0.00000000000E+00 0.  1.
         -1    1    1    2    0  502  0.43410455186E+01 -0.23193524826E+02 -0.17291850931E+03  0.17452104496E+03  0.00000000000E+00 0.  1.
<scales pt_clust_5="13000.00000" pt_clust_6="13000.00000" pt_clust_7="13000.00000" pt_clust_8="13000.00000" pt_clust_9="23.59628"></scales>
<clustering>
<clus scale="   23.596">  2  9  1 -1</clus>
<clus scale="   80.513">  5  6 -1 -1</clus>
<clus scale="   85.487">  1  5  2 -1</clus>
<clus scale="   95.208">  7  8 -1 -1</clus>
<clus scale="   23.596">  2  5  1 -1</clus>
</clustering>
</event>
<event>
 9    1  0.6675710E-005  0.1994258E+03  0.7546771E-02  0.1151640E+00
          3   -1    0    0  502    0 -0.00000000000E+00  0.00000000000E+00  0.49792280868E+03  0.49792280868E+03  0.00000000000E+00 0. -1.
         21   -1    0    0  501  502  0.00000000000E+00 -0.00000000000E+00 -0.15266265502E+03  0.15266265502E+03  0.00000000000E+00 0. -1.
         23    2    1    2    0    0 -0.16608467619E+03 -0.89893473629E+02  0.33206047803E+03  0.39236436731E+03  0.89558245842E+02 0.  0.
        -24    2    1    2    0    0  0.15468042228E+03  0.11605963399E+02 -0.18969833580E+02  0.17281694785E+03  0.73790998475E+02 0.  0.
         11    1    4    4    0    0  0.12891023133E+03 -0.12691080536E+02  0.56920374549E+01  0.12965843805E+03  0.00000000000E+00 0. -1.
        -12    1    4    4    0    0  0.25770190949E+02  0.24297043935E+02 -0.24661871035E+02  0.43158509804E+02  0.00000000000E+00 0.  1.
        -11    1    3    3    0    0 -0.57801362940E+02 -0.81261928531E+02  0.14338921324E+03  0.17465670631E+03  0.00000000000E+00 0.  1.
         11    1    3    3    0    0 -0.10828331325E+03 -0.86315450975E+01  0.18867126480E+03  0.21770766100E+03  0.00000000000E+00 0. -1.
          4    1    1    2  501    0  0.11404253910E+02  0.78287510230E+02  0.32169509199E+02  0.85404148537E+02  0.00000000000E+00 0. -1.
<scales pt_clust_5="13000.00000" pt_clust_6="13000.00000" pt_clust_7="13000.00000" pt_clust_8="13000.00000" pt_clust_9="79.11379"></scales>
<clustering>
<clus scale="   73.791">  5  6 -1 -1</clus>
<clus scale="   79.114">  2  9  1 -1</clus>
<clus scale="   89.558">  7  8 -1 -1</clus>
<clus scale="  192.860">  2  5  1 -1</clus>
<clus scale="   79.114">  2  5  1 -1</clus>
</clustering>
</event>
<event>
 9    1  0.6675710E-005  0.1093235E+03  0.7546771E-02  0.1266200E+00
         21   -1    0    0  501  502  0.00000000000E+00  0.00000000000E+00  0.10988905593E+03  0.10988905593E+03  0.00000000000E+00 0.  1.
         -2   -1    0    0    0  501 -0.00000000000E+00 -0.00000000000E+00 -0.30855128789E+03  0.30855128789E+03  0.00000000000E+00 0.  1.
        -24    2    1    2    0    0 -0.39213435998E+02 -0.61358811125E+02 -0.23054596100E+03  0.25461968202E+03  0.79857028942E+02 0.  0.
         23    2    1    2    0    0  0.16723656052E+02  0.13397512080E+02 -0.13189145670E+02  0.94267513462E+02  0.90847325382E+02 0.  0.
         11    1    3    3    0    0 -0.11172568566E+02  0.19506370675E+02 -0.48902644447E+02  0.53821867482E+02  0.00000000000E+00 0. -1.
        -12    1    3    3    0    0 -0.28040867431E+02 -0.80865181800E+02 -0.18164331656E+03  0.20079781454E+03  0.00000000000E+00 0.  1.
        -13    1    4    4    0    0 -0.33406003824E+02 -0.83149810432E+01 -0.19015374193E+02  0.39327909389E+02  0.00000000000E+00 0. -1.
         13    1    4    4    0    0  0.50129659876E+02  0.21712493123E+02  0.58262285233E+01  0.54939604073E+02  0.00000000000E+00 0.  1.
         -1    1    1    2    0  502  0.22489779946E+02  0.47961299045E+02  0.45072874718E+02  0.69553148336E+02  0.00000000000E+00 0.  1.
<scales pt_clust_5="13000.00000" pt_clust_6="13000.00000" pt_clust_7="13000.00000" pt_clust_8="13000.00000" pt_clust_9="52.97241"></scales>
<clustering>
<clus scale="   52.972">  1  9  2 -1</clus>
<clus scale="   79.857">  5  6 -1 -1</clus>
<clus scale="   90.847">  7  8 -1 -1</clus>
<clus scale="  100.377">  2  5  1 -1</clus>
<clus scale="   52.972">  1  5  2 -1</clus>
</clustering>
</event>
<event>
 9    1  0.6675710E-005  0.1064449E+03  0.7546771E-02  0.1269486E+00
         21   -1    0    0  501  502  0.00000000000E+00  0.00000000000E+00  0.72416518061E+02  0.72416518061E+02  0.00000000000E+00 0.  1.
          1   -1    0    0  502    0 -0.00000000000E+00 -0.00000000000E+00 -0.33384691294E+03  0.33384691294E+03  0.00000000000E+00 0. -1.
        -24    2    1    2    0    0  0.14822699955E+02 -0.47744812128E+02 -0.18309313412E+03  0.20834893176E+03  0.85947088878E+02 0.  0.
         23    2    1    2    0    0 -0.20711666587E+02  0.74782278723E+02 -0.53136203663E+01  0.11982380463E+03  0.91149038673E+02 0.  0.
         11    1    3    3    0    0 -0.28853277814E+02 -0.47535655519E+02 -0.96918522617E+02  0.11173786383E+03  0.00000000000E+00 0. -1.
        -12    1    3    3    0    0  0.43675977769E+02 -0.20915660899E+00 -0.86174611499E+02  0.96611067935E+02  0.00000000000E+00 0.  1.
        -13    1    4    4    0    0 -0.11866899965E+02  0.23858009243E+02 -0.46594278547E+02  0.53675457270E+02  0.00000000000E+00 0. -1.
         13    1    4    4    0    0 -0.88447666221E+01  0.50924269481E+02  0.41280658181E+02  0.66148347361E+02  0.00000000000E+00 0.  1.
          2    1    1    2  501    0  0.58889666314E+01 -0.27037466595E+02 -0.73023640401E+02  0.78090694614E+02  0.00000000000E+00 0. -1.
<scales pt_clust_5="13000.00000" pt_clust_6="13000.00000" pt_clust_7="13000.00000" pt_clust_8="13000.00000" pt_clust_9="27.67138"></scales>
<clustering>
<clus scale="   27.671">  1  9  2 -1</clus>
<clus scale="   85.947">  5  6 -1 -1</clus>
<clus scale="   91.149">  7  8 -1 -1</clus>
<clus scale="  102.026">  2  5  1 -1</clus>
<clus scale="   27.671">  1  5  2 -1</clus>
</clustering>
</event>
<event>
 9    1  0.6675710E-005  0.9784708E+02  0.7546771E-02  0.1289731E+00
          3   -1    0    0  502    0 -0.00000000000E+00  0.00000000000E+00  0.31165356302E+02  0.31165356302E+02  0.00000000000E+00 0. -1.
         21   -1    0    0  501  502  0.00000000000E+00 -0.00000000000E+00 -0.45399081685E+03  0.45399081685E+03  0.00000000000E+00 0.  1.
         23    2    1    2    0    0 -0.17758650308E+02 -0.60268434861E+01 -0.17600221201E+03  0.19845481476E+03  0.89754344550E+02 0.  0.
        -24    2    1    2    0    0  0.58570918412E+02  0.18176905458E+02 -0.19477241942E+03  0.21945142125E+03  0.80384566593E+02 0.  0.
         13    1    4    4    0    0 -0.71839046892E+01 -0.22605009389E+02 -0.47210653690E+02  0.52834087083E+02  0.00000000000E+00 0. -1.
        -14    1    4    4    0    0  0.65754823101E+02  0.40781914846E+02 -0.14756176573E+03  0.16661733416E+03  0.00000000000E+00 0.  1.
        -13    1    3    3    0    0 -0.40647607618E+02  0.28939512882E+02 -0.94888150974E+02  0.10720767046E+03  0.00000000000E+00 0.  1.
         13    1    3    3    0    0  0.22888957310E+02 -0.34966356368E+02 -0.81114061037E+02  0.91247144297E+02  0.00000000000E+00 0. -1.
          4    1    1    2  501    0 -0.40812268104E+02 -0.12150061971E+02 -0.52050829118E+02  0.67249937142E+02  0.00000000000E+00 0. -1.
<scales pt_clust_5="13000.00000" pt_clust_6="13000.00000" pt_clust_7="13000.00000" pt_clust_8="13000.00000" pt_clust_9="42.58247"></scales>
<clustering>
<clus scale="   42.582">  2  9  1 -1</clus>
<clus scale="   80.385">  5  6 -1 -1</clus>
<clus scale="   89.330">  2  5  1 -1</clus>
<clus scale="   89.754">  7  8 -1 -1</clus>
<clus scale="   42.582">  2  5  1 -1</clus>
</clustering>
</event>
<event>
 9    1  0.6675710E-005  0.1123175E+03  0.7546771E-02  0.1260213E+00
          1   -1    0    0  502    0 -0.00000000000E+00  0.00000000000E+00  0.11080117976E+03  0.11080117976E+03  0.00000000000E+00 0. -1.
         21   -1    0    0  501  502  0.00000000000E+00 -0.00000000000E+00 -0.18101089305E+03  0.18101089305E+03  0.00000000000E+00 0.  1.
        -24    2    1    2    0    0  0.59723016645E+02 -0.16670204413E+02  0.25914059368E+02  0.10430576067E+03  0.79771039879E+02 0.  0.
         23    2    1    2    0    0 -0.79878126701E+02 -0.35076348845E+01 -0.44530974949E+02  0.12855556630E+03  0.90281267546E+02 0.  0.
         11    1    3    3    0    0  0.33471306256E+02 -0.31284115880E+02  0.48500060745E+02  0.66717914695E+02  0.00000000000E+00 0. -1.
        -12    1    3    3    0    0  0.26251710388E+02  0.14613911468E+02 -0.22586001378E+02  0.37587845974E+02  0.00000000000E+00 0.  1.
        -13    1    4    4    0    0 -0.98768821438E+02 -0.12360431465E+02 -0.39538022758E+02  0.10710422773E+03  0.00000000000E+00 0.  1.
         13    1    4    4    0    0  0.18890694737E+02  0.88527965810E+01 -0.49929521913E+01  0.21451338572E+02  0.00000000000E+00 0. -1.
          2    1    1    2  501    0  0.20155110056E+02  0.20177839297E+02 -0.51592797710E+02  0.58950745844E+02  0.00000000000E+00 0. -1.
<scales pt_clust_5="13000.00000" pt_clust_6="13000.00000" pt_clust_7="13000.00000" pt_clust_8="13000.00000" pt_clust_9="28.51971"></scales>
<clustering>
<clus scale="   28.520">  2  9  1 -1</clus>
<clus scale="   79.771">  5  6 -1 -1</clus>
<clus scale="   90.281">  7  8 -1 -1</clus>
<clus scale="  104.057">  1  5  2 -1</clus>
<clus scale="   28.520">  2  5  1 -1</clus>
</clustering>
</event>
<event>
 9    1  0.6675710E-005  0.9315149E+02  0.7546771E-02  0.1300704E+00
          1   -1    0    0  502    0 -0.00000000000E+00  0.00000000000E+00  0.15893696594E+03  0.15893696594E+03  0.00000000000E+00 0. -1.
         21   -1    0    0  501  502  0.00000000000E+00 -0.00000000000E+00 -0.26972132335E+03  0.26972132335E+03  0.00000000000E+00 0. -1.
        -24    2    1    2    0    0  0.26856347410E+02 -0.74651890592E+01  0.11869109065E+03  0.14660255311E+03  0.81410939897E+02 0.  0.
         23    2    1    2    0    0  0.98091737481E+01 -0.16327490043E+02 -0.67880200213E+02  0.11465359716E+03  0.90415258341E+02 0.  0.
         13    1    3    3    0    0 -0.19401766913E+01 -0.31519371386E+02  0.99634720031E+02  0.10451943596E+03  0.00000000000E+00 0. -1.
        -14    1    3    3    0    0  0.28796524101E+02  0.24054182327E+02  0.19056370617E+02  0.42083117147E+02  0.00000000000E+00 0.  1.
        -11    1    4    4    0    0 -0.12817103688E+02 -0.35130882687E+02 -0.75508157544E+02  0.84261135294E+02  0.00000000000E+00 0.  1.
         11    1    4    4    0    0  0.22626277436E+02  0.18803392643E+02  0.76279573304E+01  0.30392461870E+02  0.00000000000E+00 0. -1.
          2    1    1    2  501    0 -0.36665521158E+02  0.23792679102E+02 -0.16159524785E+03  0.16740213902E+03  0.00000000000E+00 0. -1.
<scales pt_clust_5="13000.00000" pt_clust_6="13000.00000" pt_clust_7="13000.00000" pt_clust_8="13000.00000" pt_clust_9="43.70872"></scales>
<clustering>
<clus scale="   43.709">  2  9  1 -1</clus>
<clus scale="   81.411">  5  6 -1 -1</clus>
<clus scale="   84.439">  1  5  2 -1</clus>
<clus scale="   90.415">  7  8 -1 -1</clus>
<clus scale="   43.709">  2  5  1 -1</clus>
</clustering>
</event>
<event>
 9    1  0.6675710E-005  0.1310580E+03  0.7546771E-02  0.1227587E+00
         21   -1    0    0  501  502  0.00000000000E+00  0.00000000000E+00  0.24837943840E+03  0.24837943840E+03  0.00000000000E+00 0. -1.
         -2   -1    0    0    0  501 -0.00000000000E+00 -0.00000000000E+00 -0.91954072630E+02  0.91954072630E+02  0.00000000000E+00 0.  1.
         23    2    1    2    0    0 -0.50957927584E+02 -0.73864688436E+02  0.23337811175E+02  0.12936209675E+03  0.90206408113E+02 0.  0.
        -24    2    1    2    0    0  0.75906898969E+02  0.72867818857E+02  0.91716617247E+02  0.16264958299E+03  0.83494746127E+02 0.  0.
         13    1    4    4    0    0  0.73818330882E+02  0.63249645950E+02  0.10694147541E+03  0.14452038905E+03  0.00000000000E+00 0. -1.
        -14    1    4    4    0    0  0.20885680872E+01  0.96181729071E+01 -0.15224858166E+02  0.18129193940E+02  0.00000000000E+00 0.  1.
        -13    1    3    3    0    0  0.28912644576E+01 -0.26919336626E+02  0.46886069893E+02  0.54141607333E+02  0.00000000000E+00 0. -1.
         13    1    3    3    0    0 -0.53849192042E+02 -0.46945351810E+02 -0.23548258718E+02  0.75220489421E+02  0.00000000000E+00 0.  1.
         -1    1    1    2    0  502 -0.24948971385E+02  0.99686957891E+00  0.41370937350E+02  0.48321831291E+02  0.00000000000E+00 0.  1.
<scales pt_clust_5="13000.00000" pt_clust_6="13000.00000" pt_clust_7="13000.00000" pt_clust_8="13000.00000" pt_clust_9="24.96888"></scales>
<clustering>
<clus scale="   24.969">  1  9  2 -1</clus>
<clus scale="   83.495">  5  6 -1 -1</clus>
<clus scale="   90.206">  7  8 -1 -1</clus>
<clus scale="  126.532">  1  5  2 -1</clus>
<clus scale="   24.969">  1  5  2 -1</clus>
</clustering>
</event>
<event>
 9    1  0.6675710E-005  0.1240268E+03  0.7546771E-02  0.1240633E+00
         21   -1    0    0  501  502  0.00000000000E+00  0.00000000000E+00  0.63888344831E+03  0.63888344831E+03  0.00000000000E+00 0.  1.
         -2   -1    0    0    0  501 -0.00000000000E+00 -0.00000000000E+00 -0.80932364598E+02  0.80932364598E+02  0.00000000000E+00 0.  1.
        -24    2    1    2    0    0 -0.12324578657E+02 -0.83728772950E+02 -0.21917745807E+02  0.11812318284E+03  0.79437372082E+02 0.  0.
         23    2    1    2    0    0 -0.19977345585E+02  0.66529270733E+02  0.34506612131E+03  0.36405519832E+03  0.92953327798E+02 0.  0.
         11    1    3    3    0    0 -0.14350712765E+02 -0.86937463631E+02  0.75270565252E+01  0.88434846748E+02  0.00000000000E+00 0. -1.
        -12    1    3    3    0    0  0.20261341076E+01  0.32086906812E+01 -0.29444802332E+02  0.29688336088E+02  0.00000000000E+00 0.  1.
        -13    1    4    4    0    0 -0.56696158117E+02  0.38953956905E+02  0.17917818505E+03  0.19192885948E+03  0.00000000000E+00 0.  1.
         13    1    4    4    0    0  0.36718812532E+02  0.27575313828E+02  0.16588793626E+03  0.17212633884E+03  0.00000000000E+00 0. -1.
         -1    1    1    2    0  502  0.32301924242E+02  0.17199502217E+02  0.23480270821E+03  0.23763743175E+03  0.00000000000E+00 0.  1.
<scales pt_clust_5="13000.00000" pt_clust_6="13000.00000" pt_clust_7="13000.00000" pt_clust_8="13000.00000" pt_clust_9="36.59559"></scales>
<clustering>
<clus scale="   36.596">  1  9  2 -1</clus>
<clus scale="   79.437">  5  6 -1 -1</clus>
<clus scale="   92.953">  7  8 -1 -1</clus>
<clus scale="  114.248">  2  5  1 -1</clus>
<clus scale="   36.596">  1  5  2 -1</clus>
</clustering>
</event>
<event>
 9    1  0.6675710E-005  0.3625758E+03  0.7546771E-02  0.1057569E+00
          1   -1    0    0  502    0 -0.00000000000E+00  0.00000000000E+00  0.58888577191E+03  0.58888577191E+03  0.00000000000E+00 0. -1.
         21   -1    0    0  501  502  0.00000000000E+00 -0.00000000000E+00 -0.19598102063E+03  0.19598102063E+03  0.00000000000E+00 0.  1.
        -24    2    1    2    0    0  0.98055928404E+02 -0.60502510339E+01  0.84960246963E+02  0.15311899702E+03  0.81090153842E+02 0.  0.
         23    2    1    2    0    0  0.19861904644E+03  0.83863567806E+02  0.19477509039E+03  0.30482537473E+03  0.92187578490E+02 0.  0.
         13    1    3    3    0    0  0.17134725373E+02 -0.35948500478E+02  0.37287972903E+02  0.54555351923E+02  0.00000000000E+00 0. -1.
        -14    1    3    3    0    0  0.80921203031E+02  0.29898249444E+02  0.47672274060E+02  0.98563645092E+02  0.00000000000E+00 0.  1.
        -13    1    4    4    0    0  0.19544677029E+03  0.55197688167E+02  0.18396747730E+03  0.27402601610E+03  0.00000000000E+00 0. -1.
         13    1    4    4    0    0  0.31722761549E+01  0.28665879639E+02  0.10807613095E+02  0.30799358634E+02  0.00000000000E+00 0.  1.
          2    1    1    2  501    0 -0.29667497485E+03 -0.77813316772E+02  0.11316941392E+03  0.32692242079E+03  0.00000000000E+00 0. -1.
<scales pt_clust_5="13000.00000" pt_clust_6="13000.00000" pt_clust_7="13000.00000" pt_clust_8="13000.00000" pt_clust_9="306.70988"></scales>
<clustering>
<clus scale="   81.090">  5  6 -1 -1</clus>
<clus scale="   92.188">  7  8 -1 -1</clus>
<clus scale="  103.294">  5  7 -1 -1</clus>
<clus scale="  306.710">  2  9  1 -1</clus>
<clus scale="  306.710">  2  5  1 -1</clus>
</clustering>
</event>
<event>
 9    1  0.6675710E-005  0.1503642E+03  0.7546771E-02  0.1223350E+00
         21   -1    0    0  501  502  0.00000000000E+00  0.00000000000E+00  0.46875231245E+03  0.46875231245E+03  0.00000000000E+00 0. -1.
          1   -1    0    0  502    0 -0.00000000000E+00 -0.00000000000E+00 -0.82195563590E+02  0.82195563590E+02  0.00000000000E+00 0. -1.
         23    2    1    2    0    0 -0.65780992664E+01  0.53062799199E+01  0.13289611958E+03  0.16135155263E+03  0.91112660705E+02 0.  0.
        -24    2    1    2    0    0 -0.18098142739E+02  0.12130882466E+03  0.63392649785E+02  0.15972199764E+03  0.80306380650E+02 0.  0.
         11    1    4    4    0    0 -0.20187240906E+02  0.68218230468E+02 -0.70473308157E+01  0.71490674463E+02  0.00000000000E+00 0. -1.
        -12    1    4    4    0    0  0.20890981668E+01  0.53090594189E+02  0.70439980601E+02  0.88231323177E+02  0.00000000000E+00 0.  1.
        -13    1    3    3    0    0  0.37332591000E+02  0.36348630413E+01  0.98960720995E+02  0.10583080308E+03  0.00000000000E+00 0. -1.
         13    1    3    3    0    0 -0.43910690266E+02  0.16714168787E+01  0.33935398585E+02  0.55520749555E+02  0.00000000000E+00 0.  1.
          2    1    1    2  501    0  0.24676242006E+02 -0.12661510458E+03  0.19026797950E+03  0.22987432577E+03  0.00000000000E+00 0. -1.
<scales pt_clust_5="13000.00000" pt_clust_6="13000.00000" pt_clust_7="13000.00000" pt_clust_8="13000.00000" pt_clust_9="127.12306"></scales>
<clustering>
<clus scale="   80.306">  5  6 -1 -1</clus>
<clus scale="   91.113">  7  8 -1 -1</clus>
<clus scale="   91.504">  2  7  1 -1</clus>
<clus scale="  127.123">  1  9  2 -1</clus>
<clus scale="  127.123">  1  5  2 -1</clus>
</clustering>
</event>
<event>
 9    1  0.6675710E-005  0.1027325E+03  0.7546771E-02  0.1274819E+00
         21   -1    0    0  501  502  0.00000000000E+00  0.00000000000E+00  0.42171252526E+02  0.42171252526E+02  0.00000000000E+00 0.  1.
          3   -1    0    0  502    0 -0.00000000000E+00 -0.00000000000E+00 -0.73825506156E+03  0.73825506156E+03  0.00000000000E+00 0. -1.
        -24    2    1    2    0    0 -0.19190610602E+02 -0.35571726358E+02 -0.44304081711E+03  0.45391771431E+03  0.90124904886E+02 0.  0.
         23    2    1    2    0    0  0.17298162239E+02  0.64214350985E+02 -0.27051759165E+03  0.29290290172E+03  0.90496591932E+02 0.  0.
         11    1    3    3    0    0 -0.43643877379E+02 -0.48505636105E+02 -0.37203254635E+03  0.37771126580E+03  0.00000000000E+00 0. -1.
        -12    1    3    3    0    0  0.24453266777E+02  0.12933909747E+02 -0.71008270759E+02  0.76206448504E+02  0.00000000000E+00 0.  1.
        -13    1    4    4    0    0  0.47530291432E+02  0.58045947876E+02 -0.14051417276E+03  0.15928808309E+03  0.00000000000E+00 0.  1.
         13    1    4    4    0    0 -0.30232129193E+02  0.61684031084E+01 -0.13000341890E+03  0.13361481863E+03  0.00000000000E+00 0. -1.
          4    1    1    2  501    0  0.18924483629E+01 -0.28642624627E+02  0.17474599734E+02  0.33605698061E+02  0.00000000000E+00 0. -1.
<scales pt_clust_5="13000.00000" pt_clust_6="13000.00000" pt_clust_7="13000.00000" pt_clust_8="13000.00000" pt_clust_9="28.70507"></scales>
<clustering>
<clus scale="   28.705">  1  9  2 -1</clus>
<clus scale="   90.125">  5  6 -1 -1</clus>
<clus scale="   90.497">  7  8 -1 -1</clus>
<clus scale="  102.405">  2  5  1 -1</clus>
<clus scale="   28.705">  1  5  2 -1</clus>
</clustering>
</event>
<event>
 9    1  0.6675710E-005  0.9803126E+02  0.7546771E-02  0.1288884E+00
         21   -1    0    0  501  502  0.00000000000E+00  0.00000000000E+00  0.11217878709E+03  0.11217878709E+03  0.00000000000E+00 0.  1.
          1   -1    0    0  502    0 -0.00000000000E+00 -0.00000000000E+00 -0.22078960731E+03  0.22078960731E+03  0.00000000000E+00 0. -1.
         23    2    1    2    0    0 -0.35860667799E+02 -0.12162041967E+02 -0.15575019746E+03  0.18349202378E+03  0.89315709834E+02 0.  0.
        -24    2    1    2    0    0  0.43480466940E+02  0.43106920995E+02  0.56852454474E+02  0.11615984699E+03  0.80697898548E+02 0.  0.
         13    1    4    4    0    0 -0.14329961595E+02  0.25861330078E+02  0.46271741018E+02  0.54911111895E+02  0.00000000000E+00 0. -1.
        -14    1    4    4    0    0  0.57810428535E+02  0.17245590918E+02  0.10580713456E+02  0.61248735095E+02  0.00000000000E+00 0.  1.
        -13    1    3    3    0    0  0.80479949077E-01  0.29890726886E+02 -0.17623078220E+02  0.34699206284E+02  0.00000000000E+00 0.  1.
         13    1    3    3    0    0 -0.35941147748E+02 -0.42052768853E+02 -0.13812711924E+03  0.14879281750E+03  0.00000000000E+00 0. -1.
          2    1    1    2  501    0 -0.76197991407E+01 -0.30944879028E+02 -0.97130772434E+01  0.33316523626E+02  0.00000000000E+00 0. -1.
<scales pt_clust_5="13000.00000" pt_clust_6="13000.00000" pt_clust_7="13000.00000" pt_clust_8="13000.00000" pt_clust_9="31.86922"></scales>
<clustering>
<clus scale="   31.869">  1  9  2 -1</clus>
<clus scale="   80.698">  5  6 -1 -1</clus>
<clus scale="   89.316">  7  8 -1 -1</clus>
<clus scale="   90.250">  1  5  2 -1</clus>
<clus scale="   31.869">  1  5  2 -1</clus>
</clustering>
</event>
<event>
 9    1  0.6675710E-005  0.9725339E+02  0.7546771E-02  0.1295481E+00
         21   -1    0    0  501  502  0.00000000000E+00  0.00000000000E+00  0.22626396485E+03  0.22626396485E+03  0.00000000000E+00 0.  1.
          1   -1    0    0  502    0 -0.00000000000E+00 -0.00000000000E+00 -0.12286473676E+03  0.12286473676E+03  0.00000000000E+00 0. -1.
         23    2    1    2    0    0 -0.30433922434E+02 -0.91721552168E+01  0.96989992320E+02  0.13845886097E+03  0.93559849849E+02 0.  0.
        -24    2    1    2    0    0  0.21131716830E+02 -0.22036191816E+02  0.89074662120E+02  0.12182129159E+03  0.77291580701E+02 0.  0.
         13    1    4    4    0    0  0.16687520490E+00  0.27460861943E+02  0.43012706363E+02  0.51031555871E+02  0.00000000000E+00 0. -1.
        -14    1    4    4    0    0  0.20964841625E+02 -0.49497053759E+02  0.46061955757E+02  0.70789735720E+02  0.00000000000E+00 0.  1.
        -11    1    3    3    0    0 -0.53535435585E+02 -0.32736962185E+02  0.78948070464E+02  0.10084914172E+03  0.00000000000E+00 0.  1.
         11    1    3    3    0    0  0.23101513151E+02  0.23564806968E+02  0.18041921856E+02  0.37609719243E+02  0.00000000000E+00 0. -1.
          2    1    1    2  501    0  0.93022056041E+01  0.31208347032E+02 -0.82665426353E+02  0.88848549047E+02  0.00000000000E+00 0. -1.
<scales pt_clust_5="13000.00000" pt_clust_6="13000.00000" pt_clust_7="13000.00000" pt_clust_8="13000.00000" pt_clust_9="32.56521"></scales>
<clustering>
<clus scale="   32.565">  1  9  2 -1</clus>
<clus scale="   77.292">  5  6 -1 -1</clus>
<clus scale="   81.724">  1  5  2 -1</clus>
<clus scale="   93.560">  7  8 -1 -1</clus>
<clus scale="   32.565">  1  5  2 -1</clus>
</clustering>
</event>
<event>
 9    1  0.6675710E-005  0.1069368E+03  0.7546771E-02  0.1273439E+00
         -2   -1    0    0    0  501 -0.00000000000E+00  0.00000000000E+00  0.22165680797E+03  0.22165680797E+03  0.00000000000E+00 0.  1.
         21   -1    0    0  501  502  0.00000000000E+00 -0.00000000000E+00 -0.26469049713E+03  0.26469049713E+03  0.00000000000E+00 0.  1.
        -24    2    1    2    0    0  0.40359819099E+02 -0.35032864470E+02  0.17502107185E+03  0.19846698118E+03  0.76815040432E+02 0.  0.
         23    2    1    2    0    0 -0.62289988322E+02 -0.15617303757E+01 -0.65947527263E+02  0.12990340392E+03  0.92969545293E+02 0.  0.
         13    1    3    3    0    0  0.42930583703E+02  0.11845285688E+02  0.10617326440E+03  0.11513517222E+03  0.00000000000E+00 0. -1.
        -14    1    3    3    0    0 -0.25707646041E+01 -0.46878150159E+02  0.68847807450E+02  0.83331808954E+02  0.00000000000E+00 0.  1.
        -13    1    4    4    0    0 -0.73060245006E+02 -0.29379317332E+02 -0.32783578408E+02  0.85297753197E+02  0.00000000000E+00 0.  1.
         13    1    4    4    0    0  0.10770256684E+02  0.27817586957E+02 -0.33163948854E+02  0.44605650726E+02  0.00000000000E+00 0. -1.
         -1    1    1    2    0  502  0.21930169222E+02  0.36594594846E+02 -0.15210723375E+03  0.15797692000E+03  0.00000000000E+00 0.  1.
<scales pt_clust_5="13000.00000" pt_clust_6="13000.00000" pt_clust_7="13000.00000" pt_clust_8="13000.00000" pt_clust_9="42.66259"></scales>
<clustering>
<clus scale="   42.663">  2  9  1 -1</clus>
<clus scale="   76.815">  5  6 -1 -1</clus>
<clus scale="   92.970">  7  8 -1 -1</clus>
<clus scale="   93.235">  1  5  2 -1</clus>
<clus scale="   42.663">  2  5  1 -1</clus>
</clustering>
</event>
<event>
 9    1  0.6675710E-005  0.1004370E+03  0.7546771E-02  0.1285439E+00
          1   -1    0    0  502    0 -0.00000000000E+00  0.00000000000E+00  0.44891872056E+03  0.44891872056E+03  0.00000000000E+00 0. -1.
         21   -1    0    0  501  502  0.00000000000E+00 -0.00000000000E+00 -0.59982729116E+02  0.59982729116E+02  0.00000000000E+00 0. -1.
         23    2    1    2    0    0 -0.13412086052E+02  0.25489588771E+02  0.19605525411E+03  0.21780442976E+03  0.90396370340E+02 0.  0.
        -24    2    1    2    0    0  0.55890881210E+02 -0.82365538449E+02  0.59097623312E+02  0.13964655512E+03  0.78107354001E+02 0.  0.
         11    1    4    4    0    0  0.19062110661E+02 -0.78858510289E+02  0.15725763891E+02  0.82639750470E+02  0.00000000000E+00 0. -1.
        -12    1    4    4    0    0  0.36828770550E+02 -0.35070281609E+01  0.43371859421E+02  0.57006804650E+02  0.00000000000E+00 0.  1.
        -11    1    3    3    0    0 -0.45405065599E+02  0.19398996661E+02  0.59008531056E+02  0.76941196968E+02  0.00000000000E+00 0.  1.
         11    1    3    3    0    0  0.31992979547E+02  0.60905921105E+01  0.13704672305E+03  0.14086323279E+03  0.00000000000E+00 0. -1.
          2    1    1    2  501    0 -0.42478795158E+02  0.56875949678E+02  0.13378311402E+03  0.15145046479E+03  0.00000000000E+00 0. -1.
<scales pt_clust_5="13000.00000" pt_clust_6="13000.00000" pt_clust_7="13000.00000" pt_clust_8="13000.00000" pt_clust_9="70.98822"></scales>
<clustering>
<clus scale="   70.988">  2  9  1 -1</clus>
<clus scale="   78.107">  5  6 -1 -1</clus>
<clus scale="   89.537">  2  5  1 -1</clus>
<clus scale="   90.396">  7  8 -1 -1</clus>
<clus scale="   70.988">  2  5  1 -1</clus>
</clustering>
</event>
<event>
 9    1  0.6675710E-005  0.1265016E+03  0.7546771E-02  0.1258400E+00
         -2   -1    0    0    0  501 -0.00000000000E+00  0.00000000000E+00  0.40501865457E+03  0.40501865457E+03  0.00000000000E+00 0.  1.
         21   -1    0    0  501  502  0.00000000000E+00 -0.00000000000E+00 -0.14762343370E+03  0.14762343370E+03  0.00000000000E+00 0.  1.
        -24    2    1    2    0    0  0.59773497050E+01  0.13071210515E+02 -0.96593676968E+02  0.12258544091E+03  0.74096333501E+02 0.  0.
         23    2    1    2    0    0  0.38805841104E+02 -0.81887811392E+02  0.31053185791E+03  0.33716007555E+03  0.95054588602E+02 0.  0.
         11    1    3    3    0    0 -0.21470488675E+02 -0.22042001335E+02 -0.43135696274E+02  0.52986035895E+02  0.00000000000E+00 0. -1.
        -12    1    3    3    0    0  0.27447838380E+02  0.35113211850E+02 -0.53457980694E+02  0.69599405012E+02  0.00000000000E+00 0.  1.
        -11    1    4    4    0    0  0.36909956191E+02 -0.70641040550E+01  0.20109167727E+03  0.20457299211E+03  0.00000000000E+00 0.  1.
         11    1    4    4    0    0  0.18958849136E+01 -0.74823707337E+02  0.10944018063E+03  0.13258708344E+03  0.00000000000E+00 0. -1.
         -1    1    1    2    0  502 -0.44783190809E+02  0.68816600877E+02  0.43457039935E+02  0.92896571816E+02  0.00000000000E+00 0.  1.
<scales pt_clust_5="13000.00000" pt_clust_6="13000.00000" pt_clust_7="13000.00000" pt_clust_8="13000.00000" pt_clust_9="83.47018"></scales>
<clustering>
<clus scale="   74.096">  5  6 -1 -1</clus>
<clus scale="   75.478">  1  5  2 -1</clus>
<clus scale="   83.470">  2  9  1 -1</clus>
<clus scale="   95.055">  7  8 -1 -1</clus>
<clus scale="   83.470">  2  5  1 -1</clus>
</clustering>
</event>
<event>
 9    1  0.6675710E-005  0.1130317E+03  0.7546771E-02  0.1258991E+00
          1   -1    0    0  502    0 -0.00000000000E+00  0.00000000000E+00  0.22726286966E+03  0.22726286966E+03  0.00000000000E+00 0. -1.
         21   -1    0    0  501  502  0.00000000000E+00 -0.00000000000E+00 -0.23432832664E+03  0.23432832664E+03  0.00000000000E+00 0. -1.
        -24    2    1    2    0    0 -0.38378533883E+02  0.45154912736E+02  0.13865619568E+03  0.17022022042E+03  0.78977875580E+02 0.  0.
         23    2    1    2    0    0  0.68970223852E+02 -0.11424626264E+03 -0.48108226047E+02  0.16792930066E+03  0.89870731056E+02 0.  0.
         11    1    3    3    0    0 -0.50097895193E+02  0.55116313141E+02  0.13534660619E+03  0.15448725153E+03  0.00000000000E+00 0. -1.
        -12    1    3    3    0    0  0.11719361311E+02 -0.99614004051E+01  0.33095894930E+01  0.15732968893E+02  0.00000000000E+00 0.  1.
        -13    1    4    4    0    0  0.18494117327E+02 -0.16967082441E+02  0.25602297712E+02  0.35852362689E+02  0.00000000000E+00 0.  1.
         13    1    4    4    0    0  0.50476106526E+02 -0.97279180203E+02 -0.73710523759E+02  0.13207693797E+03  0.00000000000E+00 0. -1.
          2    1    1    2  501    0 -0.30591689970E+02  0.69091349908E+02 -0.97613426615E+02  0.12344167523E+03  0.00000000000E+00 0. -1.
<scales pt_clust_5="13000.00000" pt_clust_6="13000.00000" pt_clust_7="13000.00000" pt_clust_8="13000.00000" pt_clust_9="75.56101"></scales>
<clustering>
<clus scale="   75.561">  2  9  1 -1</clus>
<clus scale="   78.978">  5  6 -1 -1</clus>
<clus scale="   89.871">  7  8 -1 -1</clus>
<clus scale="  104.580">  1  5  2 -1</clus>
<clus scale="   75.561">  2  5  1 -1</clus>
</clustering>
</event>
<event>
 9    1  0.6675710E-005  0.1310671E+03  0.7546771E-02  0.1250696E+00
         21   -1    0    0  501  502  0.00000000000E+00  0.00000000000E+00  0.24293886015E+03  0.24293886015E+03  0.00000000000E+00 0. -1.
          1   -1    0    0  502    0 -0.00000000000E+00 -0.00000000000E+00 -0.24271577861E+03  0.24271577861E+03  0.00000000000E+00 0. -1.
        -24    2    1    2    0    0 -0.11259323945E+02  0.22588375412E+02 -0.12984414819E+03  0.15202168440E+03  0.74927182171E+02 0.  0.
         23    2    1    2    0    0  0.37069544074E+02  0.84400830871E+02  0.17296359279E+03  0.21551032449E+03  0.89613861553E+02 0.  0.
         13    1    3    3    0    0 -0.12383230401E+02  0.43806134704E+02 -0.12049646547E+03  0.12880885072E+03  0.00000000000E+00 0. -1.
        -14    1    3    3    0    0  0.11239064556E+01 -0.21217759291E+02 -0.93476827194E+01  0.23212833676E+02  0.00000000000E+00 0.  1.
        -11    1    4    4    0    0  0.24160551595E+01  0.87845307268E+02  0.14983841327E+03  0.17370718299E+03  0.00000000000E+00 0. -1.
         11    1    4    4    0    0  0.34653488914E+02 -0.34444763963E+01  0.23125179521E+02  0.41803141502E+02  0.00000000000E+00 0.  1.
          2    1    1    2  501    0 -0.25810220128E+02 -0.10698920628E+03 -0.42896363052E+02  0.11812262987E+03  0.00000000000E+00 0. -1.
<scales pt_clust_5="13000.00000" pt_clust_6="13000.00000" pt_clust_7="13000.00000" pt_clust_8="13000.00000" pt_clust_9="95.64493"></scales>
<clustering>
<clus scale="   74.927">  5  6 -1 -1</clus>
<clus scale="   79.064">  2  5  1 -1</clus>
<clus scale="   89.614">  7  8 -1 -1</clus>
<clus scale="   95.645">  1  9  2 -1</clus>
<clus scale="   95.645">  1  5  2 -1</clus>
</clustering>
</event>
<event>
 9    1  0.6675710E-005  0.1325038E+03  0.7546771E-02  0.1244986E+00
         21   -1    0    0  501  502  0.00000000000E+00  0.00000000000E+00  0.10850101422E+03  0.10850101422E+03  0.00000000000E+00 0.  1.
          1   -1    0    0  502    0 -0.00000000000E+00 -0.00000000000E+00 -0.47092166824E+03  0.47092166824E+03  0.00000000000E+00 0. -1.
         23    2    1    2    0    0  0.60756615246E+00 -0.96753859421E+01 -0.36345241601E+02  0.93181703598E+02  0.85251809767E+02 0.  0.
        -24    2    1    2    0    0 -0.94452805465E+02  0.45214421219E+02  0.11993395288E+02  0.13359317906E+03  0.82083004412E+02 0.  0.
         11    1    4    4    0    0 -0.71026232403E+02  0.22779362770E+02 -0.30115353742E+02  0.80439788591E+02  0.00000000000E+00 0. -1.
        -12    1    4    4    0    0 -0.23426573062E+02  0.22435058449E+02  0.42108749030E+02  0.53153390464E+02  0.00000000000E+00 0.  1.
        -11    1    3    3    0    0  0.35778150805E+02  0.18195487693E+02 -0.23465894508E+02  0.46495161602E+02  0.00000000000E+00 0. -1.
         11    1    3    3    0    0 -0.35170584652E+02 -0.27870873635E+02 -0.12879347093E+02  0.46686541995E+02  0.00000000000E+00 0.  1.
          2    1    1    2  501    0  0.93845239312E+02 -0.35539035277E+02 -0.33806880771E+03  0.35264779982E+03  0.00000000000E+00 0. -1.
<scales pt_clust_5="13000.00000" pt_clust_6="13000.00000" pt_clust_7="13000.00000" pt_clust_8="13000.00000" pt_clust_9="104.01749"></scales>
<clustering>
<clus scale="   82.083">  5  6 -1 -1</clus>
<clus scale="   85.252">  7  8 -1 -1</clus>
<clus scale="   85.801">  2  7  1 -1</clus>
<clus scale="  104.017">  1  9  2 -1</clus>
<clus scale="  104.017">  1  5  2 -1</clus>
</clustering>
</event>
<event>
 9    1  0.6675710E-005  0.9085522E+02  0.7546771E-02  0.1303361E+00
         -2   -1    0    0    0  501 -0.00000000000E+00  0.00000000000E+00  0.15450923964E+03  0.15450923964E+03  0.00000000000E+00 0.  1.
         21   -1    0    0  501  502  0.00000000000E+00 -0.00000000000E+00 -0.77632815808E+02  0.77632815808E+02  0.00000000000E+00 0. -1.
         23    2    1    2    0    0  0.89892450193E+01 -0.72193243913E+01  0.50312996125E+02  0.10444320415E+03  0.90796806896E+02 0.  0.
        -24    2    1    2    0    0  0.16829948790E+02 -0.16418808005E+02  0.16215546036E+02  0.91195827771E+02  0.86607797784E+02 0.  0.
         11    1    4    4    0    0 -0.18879995836E+02  0.85727982700E+01 -0.24121337402E+02  0.31808584234E+02  0.00000000000E+00 0. -1.
        -12    1    4    4    0    0  0.35709944626E+02 -0.24991606275E+02  0.40336883439E+02  0.59387243537E+02  0.00000000000E+00 0.  1.
        -13    1    3    3    0    0 -0.22919989623E+02 -0.39627382658E+02  0.21252307849E+02  0.50470941833E+02  0.00000000000E+00 0.  1.
         13    1    3    3    0    0  0.31909234642E+02  0.32408058267E+02  0.29060688275E+02  0.53972262312E+02  0.00000000000E+00 0. -1.
         -1    1    1    2    0  502 -0.25819193809E+02  0.23638132396E+02  0.10347881676E+02  0.36503023536E+02  0.00000000000E+00 0.  1.
<scales pt_clust_5="13000.00000" pt_clust_6="13000.00000" pt_clust_7="13000.00000" pt_clust_8="13000.00000" pt_clust_9="35.00560"></scales>
<clustering>
<clus scale="   35.006">  2  9  1 -1</clus>
<clus scale="   86.608">  5  6 -1 -1</clus>
<clus scale="   86.669">  2  5  1 -1</clus>
<clus scale="   90.797">  7  8 -1 -1</clus>
<clus scale="   35.006">  2  5  1 -1</clus>
</clustering>
</event>
<event>
 9    1  0.6675710E-005  0.9664459E+02  0.7546771E-02  0.1296020E+00
          1   -1    0    0  502    0 -0.00000000000E+00  0.00000000000E+00  0.29678801015E+03  0.29678801015E+03  0.00000000000E+00 0. -1.
         21   -1    0    0  501  502  0.00000000000E+00 -0.00000000000E+00 -0.72453989433E+02  0.72453989433E+02  0.00000000000E+00 0.  1.
        -24    2    1    2    0    0 -0.55055840977E+01 -0.16652262592E+02  0.22719811155E+03  0.24160180927E+03  0.80279779800E+02 0.  0.
         23    2    1    2    0    0  0.25630191754E+02  0.17741572533E+02  0.14743796618E+02  0.10087782625E+03  0.94801298327E+02 0.  0.
         11    1    3    3    0    0 -0.94649841371E-01 -0.48585927782E+02  0.11551124387E+03  0.12531340230E+03  0.00000000000E+00 0. -1.
        -12    1    3    3    0    0 -0.54109342564E+01  0.31933665190E+02  0.11168686769E+03  0.11628840697E+03  0.00000000000E+00 0.  1.
        -11    1    4    4    0    0  0.11405231610E+02  0.43967950865E+02  0.40957735908E+02  0.61162048216E+02  0.00000000000E+00 0.  1.
         11    1    4    4    0    0  0.14224960144E+02 -0.26226378332E+02 -0.26213939290E+02  0.39715778031E+02  0.00000000000E+00 0. -1.
          2    1    1    2  501    0 -0.20124607657E+02 -0.10893099412E+01 -0.17607887456E+02  0.26762364061E+02  0.00000000000E+00 0. -1.
<scales pt_clust_5="13000.00000" pt_clust_6="13000.00000" pt_clust_7="13000.00000" pt_clust_8="13000.00000" pt_clust_9="20.15407"></scales>
<clustering>
<clus scale="   20.154">  2  9  1 -1</clus>
<clus scale="   80.280">  5  6 -1 -1</clus>
<clus scale="   82.448">  1  5  2 -1</clus>
<clus scale="   94.801">  7  8 -1 -1</clus>
<clus scale="   20.154">  2  5  1 -1</clus>
</clustering>
</event>
<event>
 9    1  0.6675710E-005  0.1057788E+03  0.7546771E-02  0.1274988E+00
         21   -1    0    0  501  502  0.00000000000E+00  0.00000000000E+00  0.60062839631E+03  0.60062839631E+03  0.00000000000E+00 0.  1.
         -2   -1    0    0    0  501 -0.00000000000E+00 -0.00000000000E+00 -0.88195481635E+02  0.88195481635E+02  0.00000000000E+00 0.  1.
        -24    2    1    2    0    0 -0.46033511727E+02 -0.15305881487E+02 -0.41787981910E+02  0.10247201567E+03  0.80005776998E+02 0.  0.
         23    2    1    2    0    0  0.27278995423E+02  0.60901822475E+02  0.49974212569E+03  0.51287630039E+03  0.94057066410E+02 0.  0.
         11    1    3    3    0    0  0.19512281026E+02 -0.12682193689E+02  0.23756751962E+01  0.23392541124E+02  0.00000000000E+00 0. -1.
        -12    1    3    3    0    0 -0.65545792753E+02 -0.26236877987E+01 -0.44163657107E+02  0.79079474545E+02  0.00000000000E+00 0.  1.
        -11    1    4    4    0    0 -0.26997100779E+02 -0.74248887561E+01  0.11415965812E+03  0.11754318340E+03  0.00000000000E+00 0. -1.
         11    1    4    4    0    0  0.54276096202E+02  0.68326711231E+02  0.38558246757E+03  0.39533311699E+03  0.00000000000E+00 0.  1.
         -1    1    1    2    0  502  0.18754516303E+02 -0.45595940988E+02  0.54478770899E+02  0.73475561890E+02  0.00000000000E+00 0.  1.
<scales pt_clust_5="13000.00000" pt_clust_6="13000.00000" pt_clust_7="13000.00000" pt_clust_8="13000.00000" pt_clust_9="49.30237"></scales>
<clustering>
<clus scale="   49.302">  1  9  2 -1</clus>
<clus scale="   80.006">  5  6 -1 -1</clus>
<clus scale="   93.506">  2  5  1 -1</clus>
<clus scale="   94.057">  7  8 -1 -1</clus>
<clus scale="   49.302">  1  5  2 -1</clus>
</clustering>
</event>
<event>
 9    1  0.6675710E-005  0.9155702E+02  0.7546771E-02  0.1302749E+00
         21   -1    0    0  501  502  0.00000000000E+00  0.00000000000E+00  0.19661455713E+02  0.19661455713E+02  0.00000000000E+00 0. -1.
          1   -1    0    0  502    0 -0.00000000000E+00 -0.00000000000E+00 -0.12368895266E+04  0.12368895266E+04  0.00000000000E+00 0. -1.
         23    2    1    2    0    0 -0.31877113305E+02 -0.30058812383E+02 -0.33168408899E+03  0.34671098864E+03  0.90964235856E+02 0.  0.
        -24    2    1    2    0    0 -0.41384693081E+02 -0.14304975792E+02 -0.21408172814E+03  0.23293749241E+03  0.80694261851E+02 0.  0.
         13    1    4    4    0    0 -0.57595181506E+02  0.64579477647E+01 -0.97567534053E+02  0.11348274637E+03  0.00000000000E+00 0. -1.
        -14    1    4    4    0    0  0.16210488426E+02 -0.20762923556E+02 -0.11651419408E+03  0.11945474604E+03  0.00000000000E+00 0.  1.
        -13    1    3    3    0    0 -0.20553339430E+02  0.30617000080E+02 -0.16215285285E+03  0.16629307906E+03  0.00000000000E+00 0.  1.
         13    1    3    3    0    0 -0.11323773874E+02 -0.60675812463E+02 -0.16953123614E+03  0.18041790958E+03  0.00000000000E+00 0. -1.
          2    1    1    2  501    0  0.73261806386E+02  0.44363788174E+02 -0.67146225372E+03  0.67690250121E+03  0.00000000000E+00 0. -1.
<scales pt_clust_5="13000.00000" pt_clust_6="13000.00000" pt_clust_7="13000.00000" pt_clust_8="13000.00000" pt_clust_9="85.64721"></scales>
<clustering>
<clus scale="   80.694">  5  6 -1 -1</clus>
<clus scale="   85.647">  1  9  2 -1</clus>
<clus scale="   85.647">  1  5  2 -1</clus>
<clus scale="   90.964">  7  8 -1 -1</clus>
<clus scale="   85.647">  1  5  2 -1</clus>
</clustering>
</event>
<event>
 9    1  0.6675710E-005  0.1005216E+03  0.7546771E-02  0.1287109E+00
          1   -1    0    0  502    0 -0.00000000000E+00  0.00000000000E+00  0.45517275348E+03  0.45517275348E+03  0.00000000000E+00 0. -1.
         21   -1    0    0  501  502  0.00000000000E+00 -0.00000000000E+00 -0.40991176029E+02  0.40991176029E+02  0.00000000000E+00 0.  1.
        -24    2    1    2    0    0  0.19234049015E+02 -0.42008080780E+02  0.28231567756E+03  0.29652036297E+03  0.78022793878E+02 0.  0.
         23    2    1    2    0    0 -0.69084884862E+00  0.22447269363E+01  0.47863670734E+02  0.10487358667E+03  0.93284629681E+02 0.  0.
         11    1    3    3    0    0  0.27628687980E+02 -0.52390018683E+02  0.27498038241E+03  0.28128680944E+03  0.00000000000E+00 0. -1.
        -12    1    3    3    0    0 -0.83946389643E+01  0.10381937903E+02  0.73352951529E+01  0.15233553523E+02  0.00000000000E+00 0.  1.
        -13    1    4    4    0    0 -0.59189943929E+00  0.22774443222E+02  0.70632549083E+02  0.74215784029E+02  0.00000000000E+00 0. -1.
         13    1    4    4    0    0 -0.98949409331E-01 -0.20529716286E+02 -0.22768878349E+02  0.30657802646E+02  0.00000000000E+00 0.  1.
          2    1    1    2  501    0 -0.18543200167E+02  0.39763353843E+02  0.84002229157E+02  0.94769979870E+02  0.00000000000E+00 0. -1.
<scales pt_clust_5="13000.00000" pt_clust_6="13000.00000" pt_clust_7="13000.00000" pt_clust_8="13000.00000" pt_clust_9="43.87455"></scales>
<clustering>
<clus scale="   43.875">  2  9  1 -1</clus>
<clus scale="   78.023">  5  6 -1 -1</clus>
<clus scale="   86.546">  1  5  2 -1</clus>
<clus scale="   93.285">  7  8 -1 -1</clus>
<clus scale="   43.875">  2  5  1 -1</clus>
</clustering>
</event>
<event>
 9    1  0.6675710E-005  0.9585239E+02  0.7546771E-02  0.1292744E+00
          1   -1    0    0  502    0 -0.00000000000E+00  0.00000000000E+00  0.45586562390E+02  0.45586562390E+02  0.00000000000E+00 0. -1.
         21   -1    0    0  501  502  0.00000000000E+00 -0.00000000000E+00 -0.29201087167E+03  0.29201087167E+03  0.00000000000E+00 0.  1.
         23    2    1    2    0    0 -0.37716815188E+02  0.35560593065E+01 -0.70825912491E+02  0.12155128410E+03  0.91231579403E+02 0.  0.
        -24    2    1    2    0    0  0.20011476740E+02  0.11477280506E+02 -0.84255039716E+02  0.12179600833E+03  0.84871483781E+02 0.  0.
         11    1    4    4    0    0  0.18226525288E+02 -0.33624510480E+02 -0.19689249831E+02  0.43017211532E+02  0.00000000000E+00 0. -1.
        -12    1    4    4    0    0  0.17849514519E+01  0.45101790986E+02 -0.64565789885E+02  0.78778796800E+02  0.00000000000E+00 0.  1.
        -13    1    3    3    0    0 -0.51487640092E+02  0.26825776605E+02 -0.15686080203E+02  0.60138610600E+02  0.00000000000E+00 0. -1.
         13    1    3    3    0    0  0.13770824904E+02 -0.23269717299E+02 -0.55139832288E+02  0.61412673500E+02  0.00000000000E+00 0.  1.
          2    1    1    2  501    0  0.17705338448E+02 -0.15033339813E+02 -0.91343357075E+02  0.94250141630E+02  0.00000000000E+00 0. -1.
<scales pt_clust_5="13000.00000" pt_clust_6="13000.00000" pt_clust_7="13000.00000" pt_clust_8="13000.00000" pt_clust_9="23.22672"></scales>
<clustering>
<clus scale="   23.227">  2  9  1 -1</clus>
<clus scale="   84.871">  5  6 -1 -1</clus>
<clus scale="   89.820">  2  5  1 -1</clus>
<clus scale="   91.232">  7  8 -1 -1</clus>
<clus scale="   23.227">  2  5  1 -1</clus>
</clustering>
</event>
<event>
 9    1  0.6675710E-005  0.3286907E+03  0.7546771E-02  0.1121712E+00
          1   -1    0    0  502    0 -0.00000000000E+00  0.00000000000E+00  0.12992438323E+04  0.12992438323E+04  0.00000000000E+00 0. -1.
         21   -1    0    0  501  502  0.00000000000E+00 -0.00000000000E+00 -0.18899452276E+03  0.18899452276E+03  0.00000000000E+00 0. -1.
        -24    2    1    2    0    0 -0.29507679762E+02  0.25812033667E+02  0.65748153735E+02  0.11069818457E+03  0.79964392709E+02 0.  0.
         23    2    1    2    0    0  0.23757549810E+03  0.21168021460E+03  0.10064864437E+04  0.10595151662E+04  0.91141624163E+02 0.  0.
         13    1    3    3    0    0 -0.51824936945E+02  0.25054070763E+02  0.67001305728E+02  0.88332924328E+02  0.00000000000E+00 0. -1.
        -14    1    3    3    0    0  0.22317257183E+02  0.75796290401E+00 -0.12531519920E+01  0.22365260245E+02  0.00000000000E+00 0.  1.
        -13    1    4    4    0    0  0.13779038694E+03  0.73891749548E+02  0.39545085485E+03  0.42523823909E+03  0.00000000000E+00 0.  1.
         13    1    4    4    0    0  0.99785111160E+02  0.13778846505E+03  0.61103558881E+03  0.63427692714E+03  0.00000000000E+00 0. -1.
          2    1    1    2  501    0 -0.20806781834E+03 -0.23749224827E+03  0.38014712181E+02  0.31802500430E+03  0.00000000000E+00 0. -1.
<scales pt_clust_5="13000.00000" pt_clust_6="13000.00000" pt_clust_7="13000.00000" pt_clust_8="13000.00000" pt_clust_9="315.80179"></scales>
<clustering>
<clus scale="   79.964">  5  6 -1 -1</clus>
<clus scale="   89.058">  1  5  2 -1</clus>
<clus scale="   91.142">  7  8 -1 -1</clus>
<clus scale="  315.802">  2  9  1 -1</clus>
<clus scale="  315.802">  2  5  1 -1</clus>
</clustering>
</event>
<event>
 9    1  0.6675710E-005  0.9938361E+02  0.7546771E-02  0.1287145E+00
         21   -1    0    0  501  502  0.00000000000E+00  0.00000000000E+00  0.26168896789E+03  0.26168896789E+03  0.00000000000E+00 0. -1.
         -4   -1    0    0    0  501 -0.00000000000E+00 -0.00000000000E+00 -0.65524328324E+02  0.65524328324E+02  0.00000000000E+00 0.  1.
        -24    2    1    2    0    0 -0.23910944719E+02 -0.37529816905E+02 -0.81322595611E+01  0.91035728250E+02  0.79000947704E+02 0.  0.
         23    2    1    2    0    0  0.33759521039E+01  0.33604820674E+02  0.18031892361E+03  0.20436507314E+03  0.90052695026E+02 0.  0.
         11    1    3    3    0    0 -0.23192998968E+01 -0.29144910759E+02  0.32840312845E+02  0.43969206530E+02  0.00000000000E+00 0. -1.
        -12    1    3    3    0    0 -0.21591644822E+02 -0.83849061457E+01 -0.40972572406E+02  0.47066521719E+02  0.00000000000E+00 0.  1.
        -13    1    4    4    0    0  0.30820725829E+02 -0.13404637687E+02  0.32137961984E+02  0.46502151054E+02  0.00000000000E+00 0.  1.
         13    1    4    4    0    0 -0.27444773726E+02  0.47009458360E+02  0.14818096163E+03  0.15786292209E+03  0.00000000000E+00 0. -1.
         -3    1    1    2    0  502  0.20534992615E+02  0.39249962307E+01  0.23977975512E+02  0.31812494821E+02  0.00000000000E+00 0.  1.
<scales pt_clust_5="13000.00000" pt_clust_6="13000.00000" pt_clust_7="13000.00000" pt_clust_8="13000.00000" pt_clust_9="20.90673"></scales>
<clustering>
<clus scale="   20.907">  1  9  2 -1</clus>
<clus scale="   79.001">  5  6 -1 -1</clus>
<clus scale="   89.492">  2  5  1 -1</clus>
<clus scale="   90.053">  7  8 -1 -1</clus>
<clus scale="   20.907">  1  5  2 -1</clus>
</clustering>
</event>
<event>
 9    1  0.6675710E-005  0.9390223E+02  0.7546771E-02  0.1301437E+00
         21   -1    0    0  501  502  0.00000000000E+00  0.00000000000E+00  0.10220169595E+03  0.10220169595E+03  0.00000000000E+00 0. -1.
          3   -1    0    0  502    0 -0.00000000000E+00 -0.00000000000E+00 -0.55382982647E+03  0.55382982647E+03  0.00000000000E+00 0. -1.
        -24    2    1    2    0    0  0.10062046098E+02  0.24047844317E+02 -0.47382725339E+03  0.48087425969E+03  0.77770457036E+02 0.  0.
         23    2    1    2    0    0 -0.36165277833E+01  0.33115201581E+02  0.52561870508E+02  0.11011070274E+03  0.90840083536E+02 0.  0.
         13    1    3    3    0    0 -0.31278578073E+02  0.25795185269E+02 -0.22249176517E+03  0.22615553629E+03  0.00000000000E+00 0. -1.
        -14    1    3    3    0    0  0.41340624171E+02 -0.17473409522E+01 -0.25133548823E+03  0.25471872340E+03  0.00000000000E+00 0.  1.
        -13    1    4    4    0    0 -0.20220811917E+01  0.62246396799E+02  0.51669219475E+02  0.80922252613E+02  0.00000000000E+00 0. -1.
         13    1    4    4    0    0 -0.15944465915E+01 -0.29131195218E+02  0.89265103336E+00  0.29188450124E+02  0.00000000000E+00 0.  1.
          4    1    1    2  501    0 -0.64455183148E+01 -0.57163045898E+02 -0.30362747636E+02  0.65046559991E+02  0.00000000000E+00 0. -1.
<scales pt_clust_5="13000.00000" pt_clust_6="13000.00000" pt_clust_7="13000.00000" pt_clust_8="13000.00000" pt_clust_9="57.52529"></scales>
<clustering>
<clus scale="   57.525">  1  9  2 -1</clus>
<clus scale="   77.770">  5  6 -1 -1</clus>
<clus scale="   81.326">  2  5  1 -1</clus>
<clus scale="   90.840">  7  8 -1 -1</clus>
<clus scale="   57.525">  1  5  2 -1</clus>
</clustering>
</event>
<event>
 9    1  0.6675710E-005  0.1434707E+03  0.7546771E-02  0.1210547E+00
         -4   -1    0    0    0  501 -0.00000000000E+00  0.00000000000E+00  0.88284846966E+03  0.88284846966E+03  0.00000000000E+00 0.  1.
         21   -1    0    0  501  502  0.00000000000E+00 -0.00000000000E+00 -0.57319557314E+02  0.57319557314E+02  0.00000000000E+00 0.  1.
         23    2    1    2    0    0  0.13400482699E+03  0.30897597298E+02  0.37940684643E+03  0.41332846854E+03  0.89324759239E+02 0.  0.
        -24    2    1    2    0    0 -0.76912896048E+02  0.88411259808E+02  0.17680368589E+03  0.22679542537E+03  0.80277501128E+02 0.  0.
         13    1    4    4    0    0 -0.21907950653E+02  0.18966241854E+02 -0.68792481513E-01  0.28977255983E+02  0.00000000000E+00 0. -1.
        -14    1    4    4    0    0 -0.55004945395E+02  0.69445017954E+02  0.17687247837E+03  0.19781816939E+03  0.00000000000E+00 0.  1.
        -13    1    3    3    0    0  0.27841939824E+02 -0.28007162094E+02  0.62165897869E+02  0.73648989128E+02  0.00000000000E+00 0. -1.
         13    1    3    3    0    0  0.10616288717E+03  0.58904759392E+02  0.31724094856E+03  0.33967947941E+03  0.00000000000E+00 0.  1.
         -3    1    1    2    0  502 -0.57091930941E+02 -0.11930885711E+03  0.26931838003E+03  0.30004413306E+03  0.00000000000E+00 0.  1.
<scales pt_clust_5="13000.00000" pt_clust_6="13000.00000" pt_clust_7="13000.00000" pt_clust_8="13000.00000" pt_clust_9="132.26530"></scales>
<clustering>
<clus scale="   80.278">  5  6 -1 -1</clus>
<clus scale="   89.325">  7  8 -1 -1</clus>
<clus scale="  132.265">  2  9  1 -1</clus>
<clus scale="  138.020">  2  5  1 -1</clus>
<clus scale="  132.265">  2  5  1 -1</clus>
</clustering>
</event>
<event>
 9    1  0.6675710E-005  0.9252722E+02  0.7546771E-02  0.1302195E+00
          1   -1    0    0  502    0 -0.00000000000E+00  0.00000000000E+00  0.33284424992E+03  0.33284424992E+03  0.00000000000E+00 0. -1.
         21   -1    0    0  501  502  0.00000000000E+00 -0.00000000000E+00 -0.12363096299E+03  0.12363096299E+03  0.00000000000E+00 0. -1.
         23    2    1    2    0    0  0.43921173070E+01  0.24878705432E+02  0.21518500609E+03  0.23453945694E+03  0.89810519063E+02 0.  0.
        -24    2    1    2    0    0  0.18558788743E+02 -0.16714197672E+02  0.89650024295E+02  0.12325991750E+03  0.80821329879E+02 0.  0.
         13    1    4    4    0    0 -0.11778509022E+02 -0.23467701802E+02 -0.21459166253E+01  0.26345232222E+02  0.00000000000E+00 0. -1.
        -14    1    4    4    0    0  0.30337297765E+02  0.67535041303E+01  0.91795940920E+02  0.96914685281E+02  0.00000000000E+00 0.  1.
        -11    1    3    3    0    0  0.34352274603E+02 -0.35411728936E+01  0.16939288936E+03  0.17287732541E+03  0.00000000000E+00 0. -1.
         11    1    3    3    0    0 -0.29960157296E+02  0.28419878325E+02  0.45792116734E+02  0.61662131525E+02  0.00000000000E+00 0.  1.
          2    1    1    2  501    0 -0.22950906050E+02 -0.81645077596E+01 -0.95621743461E+02  0.98675838471E+02  0.00000000000E+00 0. -1.
<scales pt_clust_5="13000.00000" pt_clust_6="13000.00000" pt_clust_7="13000.00000" pt_clust_8="13000.00000" pt_clust_9="24.35987"></scales>
<clustering>
<clus scale="   24.360">  2  9  1 -1</clus>
<clus scale="   80.821">  5  6 -1 -1</clus>
<clus scale="   83.830">  2  5  1 -1</clus>
<clus scale="   89.811">  7  8 -1 -1</clus>
<clus scale="   24.360">  2  5  1 -1</clus>
</clustering>
</event>
<event>
 9    1  0.6675710E-005  0.1044742E+03  0.7546771E-02  0.1278569E+00
         21   -1    0    0  501  502  0.00000000000E+00  0.00000000000E+00  0.82627037270E+02  0.82627037270E+02  0.00000000000E+00 0.  1.
         -4   -1    0    0    0  501 -0.00000000000E+00 -0.00000000000E+00 -0.29327458631E+03  0.29327458631E+03  0.00000000000E+00 0.  1.
        -24    2    1    2    0    0 -0.10764888448E+02  0.58350242449E+02 -0.20756577566E+03  0.22833662109E+03  0.74387012921E+02 0.  0.
         23    2    1    2    0    0  0.30584143795E+02 -0.11310840957E+02 -0.40237582041E+01  0.96512132728E+02  0.90747320395E+02 0.  0.
         11    1    3    3    0    0 -0.30219212512E+02 -0.33873539592E+01 -0.64518078995E+02  0.71325013066E+02  0.00000000000E+00 0. -1.
        -12    1    3    3    0    0  0.19454324064E+02  0.61737596408E+02 -0.14304769666E+03  0.15701160803E+03  0.00000000000E+00 0.  1.
        -13    1    4    4    0    0  0.49224758607E+02  0.16799645134E+02  0.19328447369E+02  0.55487780765E+02  0.00000000000E+00 0.  1.
         13    1    4    4    0    0 -0.18640614812E+02 -0.28110486091E+02 -0.23352205573E+02  0.41024351963E+02  0.00000000000E+00 0. -1.
         -3    1    1    2    0  502 -0.19819255346E+02 -0.47039401492E+02  0.94198482061E+00  0.51052869758E+02  0.00000000000E+00 0.  1.
<scales pt_clust_5="13000.00000" pt_clust_6="13000.00000" pt_clust_7="13000.00000" pt_clust_8="13000.00000" pt_clust_9="51.04418"></scales>
<clustering>
<clus scale="   51.044">  1  9  2 -1</clus>
<clus scale="   74.387">  5  6 -1 -1</clus>
<clus scale="   90.627">  2  5  1 -1</clus>
<clus scale="   90.747">  7  8 -1 -1</clus>
<clus scale="   51.044">  1  5  2 -1</clus>
</clustering>
</event>
<event>
 9    1  0.6675710E-005  0.1007010E+03  0.7546771E-02  0.1286617E+00
          1   -1    0    0  502    0 -0.00000000000E+00  0.00000000000E+00  0.56657892376E+03  0.56657892376E+03  0.00000000000E+00 0. -1.
         21   -1    0    0  501  502  0.00000000000E+00 -0.00000000000E+00 -0.29891313471E+02  0.29891313471E+02  0.00000000000E+00 0.  1.
         23    2    1    2    0    0 -0.18651872316E+02 -0.15363644339E+02  0.31058239082E+03  0.32593825749E+03  0.95866533795E+02 0.  0.
        -24    2    1    2    0    0  0.44691151108E+02  0.21875806451E+02  0.87484648548E+02  0.12933667182E+03  0.81231527445E+02 0.  0.
         13    1    4    4    0    0  0.62817423967E+02  0.15918343205E+01  0.78787680359E+02  0.10077728547E+03  0.00000000000E+00 0. -1.
        -14    1    4    4    0    0 -0.18126272858E+02  0.20283972130E+02  0.86969681889E+01  0.28559386352E+02  0.00000000000E+00 0.  1.
        -11    1    3    3    0    0 -0.58087199676E+02 -0.11433235509E+02  0.19013510316E+03  0.19913864289E+03  0.00000000000E+00 0.  1.
         11    1    3    3    0    0  0.39435327360E+02 -0.39304088294E+01  0.12044728766E+03  0.12679961460E+03  0.00000000000E+00 0. -1.
          2    1    1    2  501    0 -0.26039278793E+02 -0.65121621121E+01  0.13862057092E+03  0.14119530792E+03  0.00000000000E+00 0. -1.
<scales pt_clust_5="13000.00000" pt_clust_6="13000.00000" pt_clust_7="13000.00000" pt_clust_8="13000.00000" pt_clust_9="26.84126"></scales>
<clustering>
<clus scale="   26.841">  2  9  1 -1</clus>
<clus scale="   81.232">  5  6 -1 -1</clus>
<clus scale="   86.884">  2  5  1 -1</clus>
<clus scale="   95.867">  7  8 -1 -1</clus>
<clus scale="   26.841">  2  5  1 -1</clus>
</clustering>
</event>
<event>
 9    1  0.6675710E-005  0.8987941E+02  0.7546771E-02  0.1303517E+00
          3   -1    0    0  502    0 -0.00000000000E+00  0.00000000000E+00  0.40760207875E+03  0.40760207875E+03  0.00000000000E+00 0. -1.
         21   -1    0    0  501  502  0.00000000000E+00 -0.00000000000E+00 -0.43519057128E+02  0.43519057128E+02  0.00000000000E+00 0.  1.
        -24    2    1    2    0    0  0.28080370828E+01 -0.30856548737E+02  0.23542782398E+03  0.25064947744E+03  0.80242685433E+02 0.  0.
         23    2    1    2    0    0 -0.41298879421E+02  0.55494080347E+02  0.10266028724E+03  0.14789515918E+03  0.80923748909E+02 0.  0.
         13    1    3    3    0    0 -0.23749345646E+02 -0.45223337989E+02  0.10491030991E+03  0.11668485267E+03  0.00000000000E+00 0. -1.
        -14    1    3    3    0    0  0.26557382729E+02  0.14366789252E+02  0.13051751407E+03  0.13396462477E+03  0.00000000000E+00 0.  1.
        -11    1    4    4    0    0  0.40562584321E+01  0.30871532035E+02  0.89319321613E+02  0.94590940031E+02  0.00000000000E+00 0. -1.
         11    1    4    4    0    0 -0.45355137853E+02  0.24622548312E+02  0.13340965627E+02  0.53304219147E+02  0.00000000000E+00 0.  1.
          4    1    1    2  501    0  0.38490842338E+02 -0.24637531610E+02  0.25994910412E+02  0.52576499266E+02  0.00000000000E+00 0. -1.
<scales pt_clust_5="13000.00000" pt_clust_6="13000.00000" pt_clust_7="13000.00000" pt_clust_8="13000.00000" pt_clust_9="45.70069"></scales>
<clustering>
<clus scale="   45.701">  2  9  1 -1</clus>
<clus scale="   80.243">  5  6 -1 -1</clus>
<clus scale="   80.924">  7  8 -1 -1</clus>
<clus scale="   89.267">  1  5  2 -1</clus>
<clus scale="   45.701">  2  5  1 -1</clus>
</clustering>
</event>
<event>
 9    1  0.6675710E-005  0.1235676E+03  0.7546771E-02  0.1248667E+00
          1   -1    0    0  502    0 -0.00000000000E+00  0.00000000000E+00  0.12269645596E+03  0.12269645596E+03  0.00000000000E+00 0. -1.
         21   -1    0    0  501  502  0.00000000000E+00 -0.00000000000E+00 -0.26150965710E+03  0.26150965710E+03  0.00000000000E+00 0. -1.
        -24    2    1    2    0    0 -0.52708362409E+02  0.20099954663E+02  0.37597968249E+02  0.10520301920E+03  0.80448047747E+02 0.  0.
         23    2    1    2    0    0 -0.25256702103E+01  0.66798558028E+02 -0.90362478463E+02  0.14481469244E+03  0.91309864027E+02 0.  0.
         11    1    3    3    0    0 -0.29163007539E+02  0.46217441141E+02  0.43114598285E+02  0.69608917960E+02  0.00000000000E+00 0. -1.
        -12    1    3    3    0    0 -0.23545354870E+02 -0.26117486478E+02 -0.55166300356E+01  0.35594101236E+02  0.00000000000E+00 0.  1.
        -11    1    4    4    0    0 -0.11188635263E+02  0.88537447020E+02 -0.76987783536E+02  0.11786086669E+03  0.00000000000E+00 0. -1.
         11    1    4    4    0    0  0.86629650526E+01 -0.21738888992E+02 -0.13374694927E+02  0.26953825749E+02  0.00000000000E+00 0.  1.
          2    1    1    2  501    0  0.55234032619E+02 -0.86898512691E+02 -0.86048690925E+02  0.13418840143E+03  0.00000000000E+00 0. -1.
<scales pt_clust_5="13000.00000" pt_clust_6="13000.00000" pt_clust_7="13000.00000" pt_clust_8="13000.00000" pt_clust_9="83.25543"></scales>
<clustering>
<clus scale="   80.448">  5  6 -1 -1</clus>
<clus scale="   91.310">  7  8 -1 -1</clus>
<clus scale="   98.255">  1  5  2 -1</clus>
<clus scale="   83.255">  2  9  1 -1</clus>
<clus scale="   83.255">  2  5  1 -1</clus>
</clustering>
</event>
<event>
 9    1  0.6675710E-005  0.1386302E+03  0.7546771E-02  0.1218125E+00
          1   -1    0    0  502    0 -0.00000000000E+00  0.00000000000E+00  0.50485977999E+03  0.50485977999E+03  0.00000000000E+00 0. -1.
         21   -1    0    0  501  502  0.00000000000E+00 -0.00000000000E+00 -0.77644547207E+02  0.77644547207E+02  0.00000000000E+00 0. -1.
         23    2    1    2    0    0  0.40633399205E+02  0.11587292110E+03  0.21658276130E+03  0.26535067460E+03  0.91789329678E+02 0.  0.
        -24    2    1    2    0    0 -0.40999248509E+02 -0.54914742297E+02  0.69300588056E+01  0.10452555864E+03  0.78619332192E+02 0.  0.
         11    1    4    4    0    0 -0.59492113071E+02 -0.38006670118E+02  0.23592391527E+02  0.74433993773E+02  0.00000000000E+00 0. -1.
        -12    1    4    4    0    0  0.18492864561E+02 -0.16908072179E+02 -0.16662332721E+02  0.30091564868E+02  0.00000000000E+00 0.  1.
        -13    1    3    3    0    0 -0.19386325386E+02  0.13002958880E+02  0.83755097371E+02  0.86947241976E+02  0.00000000000E+00 0.  1.
         13    1    3    3    0    0  0.60019724590E+02  0.10286996222E+03  0.13282766393E+03  0.17840343262E+03  0.00000000000E+00 0. -1.
          2    1    1    2  501    0  0.36584930486E+00 -0.60958178803E+02  0.20370241268E+03  0.21262809396E+03  0.00000000000E+00 0. -1.
<scales pt_clust_5="13000.00000" pt_clust_6="13000.00000" pt_clust_7="13000.00000" pt_clust_8="13000.00000" pt_clust_9="60.95931"></scales>
<clustering>
<clus scale="   60.959">  2  9  1 -1</clus>
<clus scale="   78.619">  5  6 -1 -1</clus>
<clus scale="   91.789">  7  8 -1 -1</clus>
<clus scale="  130.285">  2  5  1 -1</clus>
<clus scale="   60.959">  2  5  1 -1</clus>
</clustering>
</event>
<event>
 9    1  0.6675710E-005  0.2336205E+03  0.7546771E-02  0.1124842E+00
         -2   -1    0    0    0  501 -0.00000000000E+00  0.00000000000E+00  0.11329523022E+03  0.11329523022E+03  0.00000000000E+00 0.  1.
         21   -1    0    0  501  502  0.00000000000E+00 -0.00000000000E+00 -0.80884320419E+03  0.80884320419E+03  0.00000000000E+00 0.  1.
        -24    2    1    2    0    0 -0.16829078698E+03 -0.16192827990E+03 -0.11731127814E+03  0.27346879710E+03  0.80502734093E+02 0.  0.
         23    2    1    2    0    0  0.86797365720E+02  0.14723566899E+03 -0.49323536615E+03  0.53000086901E+03  0.91693346610E+02 0.  0.
         13    1    3    3    0    0 -0.34444011658E+02 -0.19212694381E+02 -0.55871118632E+02  0.68389322717E+02  0.00000000000E+00 0. -1.
        -14    1    3    3    0    0 -0.13384677532E+03 -0.14271558552E+03 -0.61440159506E+02  0.20507947438E+03  0.00000000000E+00 0.  1.
        -13    1    4    4    0    0  0.68992213526E+02  0.31750355561E+02 -0.16662125841E+03  0.18311377436E+03  0.00000000000E+00 0. -1.
         13    1    4    4    0    0  0.17805152194E+02  0.11548531343E+03 -0.32661410773E+03  0.34688709465E+03  0.00000000000E+00 0.  1.
         -1    1    1    2    0  502  0.81493421256E+02  0.14692610913E+02 -0.85001329688E+02  0.11866876831E+03  0.00000000000E+00 0.  1.
<scales pt_clust_5="13000.00000" pt_clust_6="13000.00000" pt_clust_7="13000.00000" pt_clust_8="13000.00000" pt_clust_9="82.80735"></scales>
<clustering>
<clus scale="   80.503">  5  6 -1 -1</clus>
<clus scale="   82.807">  2  9  1 -1</clus>
<clus scale="   91.693">  7  8 -1 -1</clus>
<clus scale="  229.459">  1  5  2 -1</clus>
<clus scale="   82.807">  2  5  1 -1</clus>
</clustering>
</event>
<event>
 9    1  0.6675710E-005  0.9299541E+02  0.7546771E-02  0.1301593E+00
         21   -1    0    0  501  502  0.00000000000E+00  0.00000000000E+00  0.11484696781E+03  0.11484696781E+03  0.00000000000E+00 0.  1.
         -4   -1    0    0    0  501 -0.00000000000E+00 -0.00000000000E+00 -0.24483319373E+03  0.24483319373E+03  0.00000000000E+00 0.  1.
        -24    2    1    2    0    0  0.51827667962E+01 -0.56017703141E+01 -0.14642628600E+03  0.16809501341E+03  0.82201188563E+02 0.  0.
         23    2    1    2    0    0 -0.38081586135E+00  0.36819187694E+02 -0.55191545430E+02  0.11329930784E+03  0.91841324399E+02 0.  0.
         11    1    3    3    0    0 -0.82562888315E+01 -0.35107630367E+02 -0.29011033265E+02  0.46285549217E+02  0.00000000000E+00 0. -1.
        -12    1    3    3    0    0  0.13439055628E+02  0.29505860053E+02 -0.11741525273E+03  0.12180946419E+03  0.00000000000E+00 0.  1.
        -13    1    4    4    0    0 -0.31412597210E+02 -0.52788143579E+01 -0.51901710104E+02  0.60896671964E+02  0.00000000000E+00 0. -1.
         13    1    4    4    0    0  0.31031781349E+02  0.42098002052E+02 -0.32898353258E+01  0.52402635878E+02  0.00000000000E+00 0.  1.
         -3    1    1    2    0  502 -0.48019509349E+01 -0.31217417380E+02  0.71631605505E+02  0.78285840277E+02  0.00000000000E+00 0.  1.
<scales pt_clust_5="13000.00000" pt_clust_6="13000.00000" pt_clust_7="13000.00000" pt_clust_8="13000.00000" pt_clust_9="31.58458"></scales>
<clustering>
<clus scale="   31.585">  1  9  2 -1</clus>
<clus scale="   82.201">  5  6 -1 -1</clus>
<clus scale="   83.489">  2  5  1 -1</clus>
<clus scale="   91.841">  7  8 -1 -1</clus>
<clus scale="   31.585">  1  5  2 -1</clus>
</clustering>
</event>
<event>
 9    1  0.6675710E-005  0.1151735E+03  0.7546771E-02  0.1255378E+00
         21   -1    0    0  501  502  0.00000000000E+00  0.00000000000E+00  0.75139144260E+02  0.75139144260E+02  0.00000000000E+00 0. -1.
         -4   -1    0    0    0  501 -0.00000000000E+00 -0.00000000000E+00 -0.26078278656E+03  0.26078278656E+03  0.00000000000E+00 0.  1.
        -24    2    1    2    0    0  0.24886072272E+02 -0.57310779223E+02 -0.11769357214E+03  0.15560617536E+03  0.80359584857E+02 0.  0.
         23    2    1    2    0    0 -0.14558902387E+01  0.88218912876E+02 -0.59456044930E+02  0.14061141538E+03  0.91933958103E+02 0.  0.
         11    1    3    3    0    0  0.19212880328E+02  0.14491691153E+02 -0.10030866120E+02  0.26072248812E+02  0.00000000000E+00 0. -1.
        -12    1    3    3    0    0  0.56731919437E+01 -0.71802470377E+02 -0.10766270602E+03  0.12953392655E+03  0.00000000000E+00 0.  1.
        -13    1    4    4    0    0  0.37609504209E+02  0.21776334424E+02 -0.44302928944E+02  0.62059915088E+02  0.00000000000E+00 0. -1.
         13    1    4    4    0    0 -0.39065394448E+02  0.66442578452E+02 -0.15153115986E+02  0.78551500297E+02  0.00000000000E+00 0.  1.
         -3    1    1    2    0  502 -0.23430182033E+02 -0.30908133653E+02 -0.84940252236E+01  0.39704340071E+02  0.00000000000E+00 0.  1.
<scales pt_clust_5="13000.00000" pt_clust_6="13000.00000" pt_clust_7="13000.00000" pt_clust_8="13000.00000" pt_clust_9="38.78513"></scales>
<clustering>
<clus scale="   38.785">  1  9  2 -1</clus>
<clus scale="   80.360">  5  6 -1 -1</clus>
<clus scale="   91.934">  7  8 -1 -1</clus>
<clus scale="  106.164">  2  5  1 -1</clus>
<clus scale="   38.785">  1  5  2 -1</clus>
</clustering>
</event>
<event>
 9    1  0.6675710E-005  0.1458839E+03  0.7546771E-02  0.1230504E+00
          1   -1    0    0  502    0 -0.00000000000E+00  0.00000000000E+00  0.32308480181E+03  0.32308480181E+03  0.00000000000E+00 0. -1.
         21   -1    0    0  501  502  0.00000000000E+00 -0.00000000000E+00 -0.17354942856E+03  0.17354942856E+03  0.00000000000E+00 0.  1.
        -24    2    1    2    0    0  0.16740849532E+02  0.15654380702E+02  0.46237822254E+02  0.97969131244E+02  0.83274838887E+02 0.  0.
         23    2    1    2    0    0  0.78148159602E+02 -0.75527492971E+02 -0.92795845744E+02  0.17274180711E+03  0.97041877013E+02 0.  0.
         13    1    3    3    0    0  0.35107029960E+02  0.10936917802E+02  0.62812411271E+02  0.72784055488E+02  0.00000000000E+00 0. -1.
        -14    1    3    3    0    0 -0.18366180429E+02  0.47174629003E+01 -0.16574589017E+02  0.25185075756E+02  0.00000000000E+00 0.  1.
        -11    1    4    4    0    0  0.34140716817E+02  0.18010251503E+02 -0.43687361523E+02  0.58297026175E+02  0.00000000000E+00 0.  1.
         11    1    4    4    0    0  0.44007442784E+02 -0.93537744475E+02 -0.49108484222E+02  0.11444478094E+03  0.00000000000E+00 0. -1.
          2    1    1    2  501    0 -0.94889009133E+02  0.59873112269E+02  0.19609339674E+03  0.22592329201E+03  0.00000000000E+00 0. -1.
<scales pt_clust_5="13000.00000" pt_clust_6="13000.00000" pt_clust_7="13000.00000" pt_clust_8="13000.00000" pt_clust_9="108.92652"></scales>
<clustering>
<clus scale="   83.275">  5  6 -1 -1</clus>
<clus scale="   86.371">  1  5  2 -1</clus>
<clus scale="   97.042">  7  8 -1 -1</clus>
<clus scale="  108.927">  2  9  1 -1</clus>
<clus scale="  108.927">  2  5  1 -1</clus>
</clustering>
</event>
<event>
 9    1  0.6675710E-005  0.1372407E+03  0.7546771E-02  0.1232789E+00
         21   -1    0    0  501  502  0.00000000000E+00  0.00000000000E+00  0.41613853492E+03  0.41613853492E+03  0.00000000000E+00 0. -1.
         -4   -1    0    0    0  501 -0.00000000000E+00 -0.00000000000E+00 -0.12409162810E+03  0.12409162810E+03  0.00000000000E+00 0.  1.
        -24    2    1    2    0    0  0.54131636934E+02  0.40198823268E+01 -0.57752303157E+02  0.11458779254E+03  0.82756510975E+02 0.  0.
         23    2    1    2    0    0 -0.23143568507E+02  0.96190599184E+02  0.18559216319E+03  0.23079279978E+03  0.95040040277E+02 0.  0.
         13    1    3    3    0    0  0.32910813987E+01  0.37516784417E+02 -0.27288387859E+02  0.46508025562E+02  0.00000000000E+00 0. -1.
        -14    1    3    3    0    0  0.50840555535E+02 -0.33496902090E+02 -0.30463915299E+02  0.68079766980E+02  0.00000000000E+00 0.  1.
        -13    1    4    4    0    0 -0.28609662040E+02 -0.51531327149E+01  0.16081233193E+02  0.33221583343E+02  0.00000000000E+00 0.  1.
         13    1    4    4    0    0  0.54660935335E+01  0.10134373190E+03  0.16951093000E+03  0.19757121643E+03  0.00000000000E+00 0. -1.
         -3    1    1    2    0  502 -0.30988068428E+02 -0.10021048151E+03  0.16420704678E+03  0.19484957070E+03  0.00000000000E+00 0.  1.
<scales pt_clust_5="13000.00000" pt_clust_6="13000.00000" pt_clust_7="13000.00000" pt_clust_8="13000.00000" pt_clust_9="99.00706"></scales>
<clustering>
<clus scale="   82.757">  5  6 -1 -1</clus>
<clus scale="   95.040">  7  8 -1 -1</clus>
<clus scale="   98.970">  2  5  1 -1</clus>
<clus scale="   99.007">  1  9  2 -1</clus>
<clus scale="   99.007">  1  5  2 -1</clus>
</clustering>
</event>
<event>
 9    1  0.6675710E-005  0.1357022E+03  0.7546771E-02  0.1240741E+00
          1   -1    0    0  502    0 -0.00000000000E+00  0.00000000000E+00  0.84510522859E+02  0.84510522859E+02  0.00000000000E+00 0. -1.
         21   -1    0    0  501  502  0.00000000000E+00 -0.00000000000E+00 -0.33203976276E+03  0.33203976276E+03  0.00000000000E+00 0. -1.
        -24    2    1    2    0    0 -0.34354121475E+02  0.93543923126E+01 -0.35292276944E+02  0.93915958600E+02  0.79416321685E+02 0.  0.
         23    2    1    2    0    0 -0.78781522103E+02 -0.13886083799E+02 -0.65082463167E+02  0.13696080472E+03  0.90128705021E+02 0.  0.
         11    1    3    3    0    0 -0.54584353885E+02 -0.88920353902E+01 -0.89565263157E+01  0.56024453108E+02  0.00000000000E+00 0. -1.
        -12    1    3    3    0    0  0.20230232410E+02  0.18246427703E+02 -0.26335750628E+02  0.37891505492E+02  0.00000000000E+00 0.  1.
        -13    1    4    4    0    0 -0.26771639146E+02 -0.30982531216E+01  0.22112576694E+02  0.34860950690E+02  0.00000000000E+00 0.  1.
         13    1    4    4    0    0 -0.52009882957E+02 -0.10787830678E+02 -0.87195039861E+02  0.10209985403E+03  0.00000000000E+00 0. -1.
          2    1    1    2  501    0  0.11313564358E+03  0.45316914866E+01 -0.14715449979E+03  0.18567352230E+03  0.00000000000E+00 0. -1.
<scales pt_clust_5="13000.00000" pt_clust_6="13000.00000" pt_clust_7="13000.00000" pt_clust_8="13000.00000" pt_clust_9="101.44902"></scales>
<clustering>
<clus scale="   79.416">  5  6 -1 -1</clus>
<clus scale="   87.033">  1  5  2 -1</clus>
<clus scale="   90.129">  7  8 -1 -1</clus>
<clus scale="  101.449">  2  9  1 -1</clus>
<clus scale="  101.449">  2  5  1 -1</clus>
</clustering>
</event>
<event>
 9    1  0.6675710E-005  0.9316483E+02  0.7546771E-02  0.1301116E+00
         21   -1    0    0  501  502  0.00000000000E+00  0.00000000000E+00  0.22540899252E+03  0.22540899252E+03  0.00000000000E+00 0. -1.
         -4   -1    0    0    0  501 -0.00000000000E+00 -0.00000000000E+00 -0.79172868604E+02  0.79172868604E+02  0.00000000000E+00 0.  1.
        -24    2    1    2    0    0  0.63032599996E+01 -0.21931429964E+02 -0.87245935818E+01  0.84181641522E+02  0.80558745828E+02 0.  0.
         23    2    1    2    0    0  0.14897009771E+02  0.27006290823E+02  0.16928028650E+03  0.19431850747E+03  0.90291784258E+02 0.  0.
         11    1    3    3    0    0  0.51971317479E+01  0.29215139177E+02 -0.13888477081E+02  0.32763155086E+02  0.00000000000E+00 0. -1.
        -12    1    3    3    0    0  0.11061282517E+01 -0.51146569141E+02  0.51638834988E+01  0.51418486437E+02  0.00000000000E+00 0.  1.
        -11    1    4    4    0    0 -0.16463494388E+02 -0.21236062263E+02  0.10346546608E+03  0.10689770652E+03  0.00000000000E+00 0. -1.
         11    1    4    4    0    0  0.31360504159E+02  0.48242353086E+02  0.65814820423E+02  0.87420800955E+02  0.00000000000E+00 0.  1.
         -3    1    1    2    0  502 -0.21200269771E+02 -0.50748608589E+01 -0.14319569004E+02  0.26081712128E+02  0.00000000000E+00 0.  1.
<scales pt_clust_5="13000.00000" pt_clust_6="13000.00000" pt_clust_7="13000.00000" pt_clust_8="13000.00000" pt_clust_9="21.79922"></scales>
<clustering>
<clus scale="   21.799">  1  9  2 -1</clus>
<clus scale="   80.559">  5  6 -1 -1</clus>
<clus scale="   83.766">  2  5  1 -1</clus>
<clus scale="   90.292">  7  8 -1 -1</clus>
<clus scale="   21.799">  1  5  2 -1</clus>
</clustering>
</event>
<event>
 9    1  0.2877327E-004  0.9741349E+02  0.7546771E-02  0.1291282E+00
         21   -1    0    0  501  502  0.00000000000E+00  0.00000000000E+00  0.39087250988E+03  0.39087250988E+03  0.00000000000E+00 0. -1.
          1   -1    0    0  502    0 -0.00000000000E+00 -0.00000000000E+00 -0.33027044994E+03  0.33027044994E+03  0.00000000000E+00 0. -1.
         23    2    1    2    0    0 -0.16708855692E+02  0.34346267621E+02 -0.30926396044E+03  0.32438326541E+03  0.90119108398E+02 0.  0.
        -24    2    1    2    0    0  0.36509956200E+02  0.14184993833E+02  0.19698998165E+03  0.21611227073E+03  0.79782640572E+02 0.  0.
         11    1    4    4    0    0  0.89650667978E+01  0.45926158457E+02  0.99827344149E+02  0.11025009339E+03  0.00000000000E+00 0. -1.
        -12    1    4    4    0    0  0.27544889402E+02 -0.31741164623E+02  0.97162637504E+02  0.10586217734E+03  0.00000000000E+00 0.  1.
        -13    1    3    3    0    0 -0.43645990701E+02 -0.86769902105E+01 -0.18219575991E+03  0.18755147985E+03  0.00000000000E+00 0.  1.
         13    1    3    3    0    0  0.26937135008E+02  0.43023257831E+02 -0.12706820052E+03  0.13683178556E+03  0.00000000000E+00 0. -1.
          2    1    1    2  501    0 -0.19801100508E+02 -0.48531261454E+02  0.17287603872E+03  0.18064742368E+03  0.00000000000E+00 0. -1.
<scales pt_clust_5="13000.00000" pt_clust_6="13000.00000" pt_clust_7="13000.00000" pt_clust_8="13000.00000" pt_clust_9="52.41533"></scales>
<clustering>
<clus scale="   52.415">  1  9  2 -1</clus>
<clus scale="   79.783">  5  6 -1 -1</clus>
<clus scale="   87.939">  1  5  2 -1</clus>
<clus scale="   90.119">  7  8 -1 -1</clus>
<clus scale="   52.415">  1  5  2 -1</clus>
</clustering>
</event>
<event>
 9    1  0.6675710E-005  0.1041825E+03  0.7546771E-02  0.1277079E+00
         -2   -1    0    0    0  501 -0.00000000000E+00  0.00000000000E+00  0.58100828194E+02  0.58100828194E+02  0.00000000000E+00 0.  1.
         21   -1    0    0  501  502  0.00000000000E+00 -0.00000000000E+00 -0.32316140527E+03  0.32316140527E+03  0.00000000000E+00 0. -1.
         23    2    1    2    0    0  0.25061760630E+02  0.54375760469E+02 -0.30330094046E+02  0.11359084894E+03  0.91641427236E+02 0.  0.
        -24    2    1    2    0    0 -0.90149943315E+01 -0.18338442657E+02 -0.19479401556E+03  0.21153665002E+03  0.79909180965E+02 0.  0.
         13    1    4    4    0    0 -0.12061775471E+02  0.22930092946E+02 -0.14257165770E+03  0.14490670505E+03  0.00000000000E+00 0. -1.
        -14    1    4    4    0    0  0.30467811394E+01 -0.41268535603E+02 -0.52222357863E+02  0.66629944972E+02  0.00000000000E+00 0.  1.
        -13    1    3    3    0    0 -0.11440897092E+02  0.31056849971E+02  0.26314228260E+02  0.42283101416E+02  0.00000000000E+00 0.  1.
         13    1    3    3    0    0  0.36502657722E+02  0.23318910497E+02 -0.56644322306E+02  0.71307747524E+02  0.00000000000E+00 0. -1.
         -1    1    1    2    0  502 -0.16046766298E+02 -0.36037317811E+02 -0.39936467472E+02  0.56134734504E+02  0.00000000000E+00 0.  1.
<scales pt_clust_5="13000.00000" pt_clust_6="13000.00000" pt_clust_7="13000.00000" pt_clust_8="13000.00000" pt_clust_9="39.44854"></scales>
<clustering>
<clus scale="   39.449">  2  9  1 -1</clus>
<clus scale="   79.909">  5  6 -1 -1</clus>
<clus scale="   91.641">  7  8 -1 -1</clus>
<clus scale="   94.028">  2  5  1 -1</clus>
<clus scale="   39.449">  2  5  1 -1</clus>
</clustering>
</event>
<event>
 9    1  0.6675710E-005  0.2958011E+03  0.7546771E-02  0.1131284E+00
         21   -1    0    0  501  502  0.00000000000E+00  0.00000000000E+00  0.65071522748E+02  0.65071522748E+02  0.00000000000E+00 0. -1.
         -2   -1    0    0    0  501 -0.00000000000E+00 -0.00000000000E+00 -0.18520021975E+04  0.18520021975E+04  0.00000000000E+00 0.  1.
        -24    2    1    2    0    0  0.99938891658E+01  0.55877521816E+02 -0.42030028809E+03  0.43122388439E+03  0.77971347518E+02 0.  0.
         23    2    1    2    0    0 -0.62648549471E+02 -0.30101074770E+03 -0.61660956769E+03  0.69503124694E+03  0.91262063749E+02 0.  0.
         13    1    3    3    0    0 -0.11631527201E+02  0.33299744326E+02 -0.60226419038E+02  0.69795321816E+02  0.00000000000E+00 0. -1.
        -14    1    3    3    0    0  0.21625416367E+02  0.22577777490E+02 -0.36007386905E+03  0.36142856258E+03  0.00000000000E+00 0.  1.
        -11    1    4    4    0    0  0.11275639181E+02 -0.14429111068E+03 -0.32598653898E+03  0.35667112058E+03  0.00000000000E+00 0. -1.
         11    1    4    4    0    0 -0.73924188653E+02 -0.15671963702E+03 -0.29062302870E+03  0.33836012636E+03  0.00000000000E+00 0.  1.
         -1    1    1    2    0  502  0.52654660305E+02  0.24513322588E+03 -0.75002081893E+03  0.79081858888E+03  0.00000000000E+00 0.  1.
<scales pt_clust_5="13000.00000" pt_clust_6="13000.00000" pt_clust_7="13000.00000" pt_clust_8="13000.00000" pt_clust_9="281.37098"></scales>
<clustering>
<clus scale="   77.971">  5  6 -1 -1</clus>
<clus scale="   91.262">  7  8 -1 -1</clus>
<clus scale="   96.445">  2  5  1 -1</clus>
<clus scale="  281.371">  1  9  2 -1</clus>
<clus scale="  281.371">  1  5  2 -1</clus>
</clustering>
</event>
<event>
 9    1  0.6675710E-005  0.1663983E+03  0.7546771E-02  0.1211695E+00
         21   -1    0    0  501  502  0.00000000000E+00  0.00000000000E+00  0.31418733463E+03  0.31418733463E+03  0.00000000000E+00 0. -1.
          3   -1    0    0  502    0 -0.00000000000E+00 -0.00000000000E+00 -0.13114049952E+03  0.13114049952E+03  0.00000000000E+00 0. -1.
        -24    2    1    2    0    0 -0.22472018280E+02 -0.18308772595E+02  0.77750668488E+02  0.11618037000E+03  0.81317336180E+02 0.  0.
         23    2    1    2    0    0  0.15111567659E+03  0.34108911733E+02  0.42553900321E+02  0.18514945306E+03  0.92033254660E+02 0.  0.
         11    1    3    3    0    0 -0.38212906420E+02  0.19439287281E+02  0.25707539499E+02  0.49989895920E+02  0.00000000000E+00 0. -1.
        -12    1    3    3    0    0  0.15740888140E+02 -0.37748059876E+02  0.52043128989E+02  0.66190474079E+02  0.00000000000E+00 0.  1.
        -13    1    4    4    0    0  0.10129268054E+03  0.56759026584E+02  0.55824183351E+02  0.12883374433E+03  0.00000000000E+00 0. -1.
         13    1    4    4    0    0  0.49822996050E+02 -0.22650114851E+02 -0.13270283030E+02  0.56315708731E+02  0.00000000000E+00 0.  1.
          4    1    1    2  501    0 -0.12864365831E+03 -0.15800139138E+02  0.62742266303E+02  0.14399801110E+03  0.00000000000E+00 0. -1.
<scales pt_clust_5="13000.00000" pt_clust_6="13000.00000" pt_clust_7="13000.00000" pt_clust_8="13000.00000" pt_clust_9="138.63000"></scales>
<clustering>
<clus scale="   81.317">  5  6 -1 -1</clus>
<clus scale="   86.329">  2  5  1 -1</clus>
<clus scale="   92.033">  7  8 -1 -1</clus>
<clus scale="  138.630">  1  9  2 -1</clus>
<clus scale="  138.630">  1  5  2 -1</clus>
</clustering>
</event>
<event>
 9    1  0.6675710E-005  0.9699302E+02  0.7546771E-02  0.1291757E+00
          1   -1    0    0  502    0 -0.00000000000E+00  0.00000000000E+00  0.46608054985E+02  0.46608054985E+02  0.00000000000E+00 0. -1.
         21   -1    0    0  501  502  0.00000000000E+00 -0.00000000000E+00 -0.39683761414E+03  0.39683761414E+03  0.00000000000E+00 0. -1.
         23    2    1    2    0    0 -0.15508859296E+02  0.11475768880E+02 -0.64295589735E+02  0.11269674513E+03  0.90523010970E+02 0.  0.
        -24    2    1    2    0    0  0.67899146080E+02  0.16692504677E+01 -0.14256898994E+03  0.17754627708E+03  0.81139898782E+02 0.  0.
         13    1    4    4    0    0  0.62930635263E+02 -0.32799513072E+02 -0.97419120616E+02  0.12052617132E+03  0.00000000000E+00 0. -1.
        -14    1    4    4    0    0  0.49685108167E+01  0.34468763539E+02 -0.45149869327E+02  0.57020105752E+02  0.00000000000E+00 0.  1.
        -11    1    3    3    0    0  0.29685881167E+02 -0.21389973110E+02 -0.23086134783E+02  0.43263750525E+02  0.00000000000E+00 0.  1.
         11    1    3    3    0    0 -0.45194740463E+02  0.32865741990E+02 -0.41209454952E+02  0.69432994603E+02  0.00000000000E+00 0. -1.
          2    1    1    2  501    0 -0.52390286784E+02 -0.13145019347E+02 -0.14336497948E+03  0.15320264692E+03  0.00000000000E+00 0. -1.
<scales pt_clust_5="13000.00000" pt_clust_6="13000.00000" pt_clust_7="13000.00000" pt_clust_8="13000.00000" pt_clust_9="54.01420"></scales>
<clustering>
<clus scale="   54.014">  2  9  1 -1</clus>
<clus scale="   81.140">  5  6 -1 -1</clus>
<clus scale="   88.300">  2  5  1 -1</clus>
<clus scale="   90.523">  7  8 -1 -1</clus>
<clus scale="   54.014">  2  5  1 -1</clus>
</clustering>
</event>
<event>
 9    1  0.6675710E-005  0.9714409E+02  0.7546771E-02  0.1291825E+00
          1   -1    0    0  502    0 -0.00000000000E+00  0.00000000000E+00  0.37633971687E+03  0.37633971687E+03  0.00000000000E+00 0. -1.
         21   -1    0    0  501  502  0.00000000000E+00 -0.00000000000E+00 -0.80706205595E+02  0.80706205595E+02  0.00000000000E+00 0. -1.
        -24    2    1    2    0    0  0.29200549981E+02  0.23861265002E+01  0.45079408611E+02  0.98134031039E+02  0.82096097644E+02 0.  0.
         23    2    1    2    0    0 -0.12418408889E+02 -0.54975466429E+02  0.58802462499E+01  0.10808809880E+03  0.92043147589E+02 0.  0.
         13    1    3    3    0    0  0.30553264751E+02  0.39281132557E+02  0.30944312893E+02  0.58600852061E+02  0.00000000000E+00 0. -1.
        -14    1    3    3    0    0 -0.13527147693E+01 -0.36895006057E+02  0.14135095718E+02  0.39533178978E+02  0.00000000000E+00 0.  1.
        -13    1    4    4    0    0 -0.47380224182E+02 -0.55240169046E+02  0.69635618858E+01  0.73108502337E+02  0.00000000000E+00 0. -1.
         13    1    4    4    0    0  0.34961815293E+02  0.26470261748E+00 -0.10833156359E+01  0.34979596464E+02  0.00000000000E+00 0.  1.
          2    1    1    2  501    0 -0.16782141092E+02  0.52589339929E+02  0.24467385641E+03  0.25082379262E+03  0.00000000000E+00 0. -1.
<scales pt_clust_5="13000.00000" pt_clust_6="13000.00000" pt_clust_7="13000.00000" pt_clust_8="13000.00000" pt_clust_9="55.20219"></scales>
<clustering>
<clus scale="   55.202">  2  9  1 -1</clus>
<clus scale="   82.096">  5  6 -1 -1</clus>
<clus scale="   87.777">  1  5  2 -1</clus>
<clus scale="   92.043">  7  8 -1 -1</clus>
<clus scale="   55.202">  2  5  1 -1</clus>
</clustering>
</event>
<event>
 9    1  0.6675710E-005  0.9089888E+02  0.7546771E-02  0.1303914E+00
         21   -1    0    0  501  502  0.00000000000E+00  0.00000000000E+00  0.13649619317E+03  0.13649619317E+03  0.00000000000E+00 0. -1.
          1   -1    0    0  502    0 -0.00000000000E+00 -0.00000000000E+00 -0.37525422931E+03  0.37525422931E+03  0.00000000000E+00 0. -1.
        -24    2    1    2    0    0  0.14890423353E+02  0.93572464314E+01 -0.25271230679E+03  0.26629225481E+03  0.82090024978E+02 0.  0.
         23    2    1    2    0    0 -0.64099807996E+02  0.22997886534E+02 -0.78476031748E+02  0.13585990597E+03  0.87531356218E+02 0.  0.
         13    1    3    3    0    0  0.44396986309E+02 -0.96136839788E+01 -0.10381239215E+03  0.11331605392E+03  0.00000000000E+00 0. -1.
        -14    1    3    3    0    0 -0.29506562956E+02  0.18970930410E+02 -0.14889991464E+03  0.15297620089E+03  0.00000000000E+00 0.  1.
        -13    1    4    4    0    0 -0.30088128945E+02 -0.43441982908E+01  0.14102293425E+02  0.33511822422E+02  0.00000000000E+00 0.  1.
         13    1    4    4    0    0 -0.34011679050E+02  0.27342084825E+02 -0.92578325172E+02  0.10234808355E+03  0.00000000000E+00 0. -1.
          2    1    1    2  501    0  0.49209384643E+02 -0.32355132966E+02  0.92430302396E+02  0.10959826170E+03  0.00000000000E+00 0. -1.
<scales pt_clust_5="13000.00000" pt_clust_6="13000.00000" pt_clust_7="13000.00000" pt_clust_8="13000.00000" pt_clust_9="58.89328"></scales>
<clustering>
<clus scale="   58.893">  1  9  2 -1</clus>
<clus scale="   82.090">  5  6 -1 -1</clus>
<clus scale="   85.672">  2  5  1 -1</clus>
<clus scale="   87.531">  7  8 -1 -1</clus>
<clus scale="   58.893">  1  5  2 -1</clus>
</clustering>
</event>
<event>
 9    1  0.6675710E-005  0.1125351E+03  0.7546771E-02  0.1258474E+00
          1   -1    0    0  502    0 -0.00000000000E+00  0.00000000000E+00  0.63720650027E+03  0.63720650027E+03  0.00000000000E+00 0. -1.
         21   -1    0    0  501  502  0.00000000000E+00 -0.00000000000E+00 -0.45634254716E+02  0.45634254716E+02  0.00000000000E+00 0.  1.
         23    2    1    2    0    0 -0.35239920149E+02 -0.17508274279E+02  0.14872347689E+03  0.17683370848E+03  0.87195735196E+02 0.  0.
        -24    2    1    2    0    0  0.96985635918E+02  0.79695090171E+02  0.21161954323E+03  0.25872848257E+03  0.80000472778E+02 0.  0.
         13    1    4    4    0    0  0.19221904027E+02 -0.75136206316E+01  0.48062150418E+01  0.21190464659E+02  0.00000000000E+00 0. -1.
        -14    1    4    4    0    0  0.77763731891E+02  0.87208710802E+02  0.20681332819E+03  0.23753801791E+03  0.00000000000E+00 0.  1.
        -11    1    3    3    0    0 -0.22234835158E+02 -0.53189746208E+02  0.87285558160E+02  0.10460547624E+03  0.00000000000E+00 0.  1.
         11    1    3    3    0    0 -0.13005084991E+02  0.35681471929E+02  0.61437918728E+02  0.72228232239E+02  0.00000000000E+00 0. -1.
          2    1    1    2  501    0 -0.61745715769E+02 -0.62186815892E+02  0.23122922544E+03  0.24727856394E+03  0.00000000000E+00 0. -1.
<scales pt_clust_5="13000.00000" pt_clust_6="13000.00000" pt_clust_7="13000.00000" pt_clust_8="13000.00000" pt_clust_9="87.63413"></scales>
<clustering>
<clus scale="   80.000">  5  6 -1 -1</clus>
<clus scale="   87.196">  7  8 -1 -1</clus>
<clus scale="   87.634">  2  9  1 -1</clus>
<clus scale="  107.057">  2  5  1 -1</clus>
<clus scale="   87.634">  2  5  1 -1</clus>
</clustering>
</event>
<event>
 9    1  0.6675710E-005  0.1108749E+03  0.7546771E-02  0.1265185E+00
         21   -1    0    0  501  502  0.00000000000E+00  0.00000000000E+00  0.12672102775E+03  0.12672102775E+03  0.00000000000E+00 0.  1.
          1   -1    0    0  502    0 -0.00000000000E+00 -0.00000000000E+00 -0.38019945472E+03  0.38019945472E+03  0.00000000000E+00 0. -1.
        -24    2    1    2    0    0  0.46807783633E+02 -0.16778642825E+02 -0.37749355539E+02  0.10158425581E+03  0.80136481839E+02 0.  0.
         23    2    1    2    0    0 -0.84416156069E+02 -0.39452201972E+02  0.41311253464E+02  0.13954302469E+03  0.95305154277E+02 0.  0.
         13    1    3    3    0    0  0.53977277598E+02  0.18816091882E+02 -0.29597471737E+02  0.64370817486E+02  0.00000000000E+00 0. -1.
        -14    1    3    3    0    0 -0.71694939646E+01 -0.35594734707E+02 -0.81518838025E+01  0.37213438327E+02  0.00000000000E+00 0.  1.
        -11    1    4    4    0    0 -0.69670214361E+02 -0.70146954627E+02  0.26141623710E+02  0.10226396483E+03  0.00000000000E+00 0. -1.
         11    1    4    4    0    0 -0.14745941707E+02  0.30694752655E+02  0.15169629754E+02  0.37279059863E+02  0.00000000000E+00 0.  1.
          2    1    1    2  501    0  0.37608372436E+02  0.56230844797E+02 -0.25704032490E+03  0.26579320196E+03  0.00000000000E+00 0. -1.
<scales pt_clust_5="13000.00000" pt_clust_6="13000.00000" pt_clust_7="13000.00000" pt_clust_8="13000.00000" pt_clust_9="67.64837"></scales>
<clustering>
<clus scale="   67.648">  1  9  2 -1</clus>
<clus scale="   80.136">  5  6 -1 -1</clus>
<clus scale="   95.305">  7  8 -1 -1</clus>
<clus scale="   98.143">  2  5  1 -1</clus>
<clus scale="   67.648">  1  5  2 -1</clus>
</clustering>
</event>
<event>
 9    1  0.6675710E-005  0.9188775E+02  0.7546771E-02  0.1307934E+00
          3   -1    0    0  502    0 -0.00000000000E+00  0.00000000000E+00  0.16303251681E+03  0.16303251681E+03  0.00000000000E+00 0. -1.
         21   -1    0    0  501  502  0.00000000000E+00 -0.00000000000E+00 -0.10121106254E+03  0.10121106254E+03  0.00000000000E+00 0. -1.
        -24    2    1    2    0    0 -0.11246153026E+02  0.20504499547E+01  0.10053312836E+03  0.12704088009E+03  0.76823141126E+02 0.  0.
         23    2    1    2    0    0 -0.19305589982E+02 -0.85929228583E+01 -0.97394100715E+01  0.94592782175E+02  0.91686390502E+02 0.  0.
         11    1    3    3    0    0 -0.32601277649E+02 -0.77464132600E+01  0.97807291280E+02  0.10338818332E+03  0.00000000000E+00 0. -1.
        -12    1    3    3    0    0  0.21355124622E+02  0.97968632147E+01  0.27258370784E+01  0.23652696765E+02  0.00000000000E+00 0.  1.
        -13    1    4    4    0    0  0.36803773078E+02 -0.58949137435E+01 -0.93054576938E+01  0.38416913771E+02  0.00000000000E+00 0.  1.
         13    1    4    4    0    0 -0.56109363060E+02 -0.26980091148E+01 -0.43395237771E+00  0.56175868404E+02  0.00000000000E+00 0. -1.
          4    1    1    2  501    0  0.30551743009E+02  0.65424729037E+01 -0.28972264016E+02  0.42609917094E+02  0.00000000000E+00 0. -1.
<scales pt_clust_5="13000.00000" pt_clust_6="13000.00000" pt_clust_7="13000.00000" pt_clust_8="13000.00000" pt_clust_9="31.24441"></scales>
<clustering>
<clus scale="   31.244">  2  9  1 -1</clus>
<clus scale="   76.823">  5  6 -1 -1</clus>
<clus scale="   77.063">  1  5  2 -1</clus>
<clus scale="   91.686">  7  8 -1 -1</clus>
<clus scale="   31.244">  2  5  1 -1</clus>
</clustering>
</event>
<event>
 9    1  0.6675710E-005  0.1226974E+03  0.7546771E-02  0.1241438E+00
          1   -1    0    0  502    0 -0.00000000000E+00  0.00000000000E+00  0.16206598965E+03  0.16206598965E+03  0.00000000000E+00 0. -1.
         21   -1    0    0  501  502  0.00000000000E+00 -0.00000000000E+00 -0.17349362965E+03  0.17349362965E+03  0.00000000000E+00 0. -1.
         23    2    1    2    0    0  0.51049337227E+02  0.68697109956E+02  0.37322359522E+01  0.12395777124E+03  0.89589462090E+02 0.  0.
        -24    2    1    2    0    0 -0.96135253036E+02 -0.15780609670E+02 -0.47547968047E+02  0.13490840429E+03  0.80302265006E+02 0.  0.
         11    1    4    4    0    0 -0.18359012175E+02 -0.37368702608E+02 -0.82301510777E+00  0.41643134086E+02  0.00000000000E+00 0. -1.
        -12    1    4    4    0    0 -0.77776240861E+02  0.21588092938E+02 -0.46724952940E+02  0.93265270205E+02  0.00000000000E+00 0.  1.
        -13    1    3    3    0    0  0.26406562247E+02 -0.16544492690E+02  0.14873406603E+02  0.34528900823E+02  0.00000000000E+00 0.  1.
         13    1    3    3    0    0  0.24642774980E+02  0.85241602646E+02 -0.11141170651E+02  0.89428870416E+02  0.00000000000E+00 0. -1.
          2    1    1    2  501    0  0.45085915809E+02 -0.52916500286E+02  0.32388092095E+02  0.76693443764E+02  0.00000000000E+00 0. -1.
<scales pt_clust_5="13000.00000" pt_clust_6="13000.00000" pt_clust_7="13000.00000" pt_clust_8="13000.00000" pt_clust_9="69.51907"></scales>
<clustering>
<clus scale="   69.519">  2  9  1 -1</clus>
<clus scale="   80.302">  5  6 -1 -1</clus>
<clus scale="   89.589">  7  8 -1 -1</clus>
<clus scale="  116.090">  2  5  1 -1</clus>
<clus scale="   69.519">  2  5  1 -1</clus>
</clustering>
</event>
<event>
 9    1  0.6675710E-005  0.2020196E+03  0.7546771E-02  0.1187256E+00
         -2   -1    0    0    0  501 -0.00000000000E+00  0.00000000000E+00  0.13831893234E+03  0.13831893234E+03  0.00000000000E+00 0.  1.
         21   -1    0    0  501  502  0.00000000000E+00 -0.00000000000E+00 -0.60131206458E+03  0.60131206458E+03  0.00000000000E+00 0.  1.
        -24    2    1    2    0    0 -0.87856379325E+01 -0.80057649068E+00 -0.10239449181E+03  0.13122413116E+03  0.81592354347E+02 0.  0.
         23    2    1    2    0    0 -0.16346663745E+03  0.72926292525E+02 -0.37058320289E+03  0.42139708854E+03  0.90575991645E+02 0.  0.
         13    1    3    3    0    0  0.31656977071E+02 -0.19822586982E+02 -0.45034097526E+02  0.58507854959E+02  0.00000000000E+00 0. -1.
        -14    1    3    3    0    0 -0.40442615003E+02  0.19022010491E+02 -0.57360394285E+02  0.72716276197E+02  0.00000000000E+00 0.  1.
        -11    1    4    4    0    0 -0.12620618332E+03  0.24408348249E+02 -0.17964495473E+03  0.22089834298E+03  0.00000000000E+00 0. -1.
         11    1    4    4    0    0 -0.37260454132E+02  0.48517944276E+02 -0.19093824816E+03  0.20049874556E+03  0.00000000000E+00 0.  1.
         -1    1    1    2    0  502  0.17225227538E+03 -0.72125716034E+02  0.99845624684E+01  0.18700977722E+03  0.00000000000E+00 0.  1.
<scales pt_clust_5="13000.00000" pt_clust_6="13000.00000" pt_clust_7="13000.00000" pt_clust_8="13000.00000" pt_clust_9="180.57665"></scales>
<clustering>
<clus scale="   81.592">  5  6 -1 -1</clus>
<clus scale="   82.068">  1  5  2 -1</clus>
<clus scale="   90.576">  7  8 -1 -1</clus>
<clus scale="  180.577">  2  9  1 -1</clus>
<clus scale="  180.577">  2  5  1 -1</clus>
</clustering>
</event>
<event>
 9    1  0.6675710E-005  0.4462532E+03  0.7546771E-02  0.1028980E+00
          1   -1    0    0  502    0 -0.00000000000E+00  0.00000000000E+00  0.12662028688E+04  0.12662028688E+04  0.00000000000E+00 0. -1.
         21   -1    0    0  501  502  0.00000000000E+00 -0.00000000000E+00 -0.40413960742E+03  0.40413960742E+03  0.00000000000E+00 0. -1.
        -24    2    1    2    0    0 -0.15430939861E+03  0.44331375171E+03  0.83527029234E+03  0.96160083798E+03  0.81616403979E+02 0.  0.
         23    2    1    2    0    0  0.16054812419E+03 -0.23925685876E+03 -0.23070735439E+03  0.38013160518E+03  0.90854880122E+02 0.  0.
         11    1    3    3    0    0 -0.99264385039E+02  0.35158516308E+03  0.58900087925E+03  0.69309997894E+03  0.00000000000E+00 0. -1.
        -12    1    3    3    0    0 -0.55045013574E+02  0.91728588626E+02  0.24626941308E+03  0.26850085905E+03  0.00000000000E+00 0.  1.
        -11    1    4    4    0    0  0.13070947984E+03 -0.20923573992E+03 -0.23075327395E+03  0.33780413913E+03  0.00000000000E+00 0. -1.
         11    1    4    4    0    0  0.29838644352E+02 -0.30021118846E+02  0.45919556316E-01  0.42327466049E+02  0.00000000000E+00 0.  1.
          2    1    1    2  501    0 -0.62387255806E+01 -0.20405689295E+03  0.25750032340E+03  0.32861003303E+03  0.00000000000E+00 0. -1.
<scales pt_clust_5="13000.00000" pt_clust_6="13000.00000" pt_clust_7="13000.00000" pt_clust_8="13000.00000" pt_clust_9="204.15234"></scales>
<clustering>
<clus scale="   81.616">  5  6 -1 -1</clus>
<clus scale="   90.855">  7  8 -1 -1</clus>
<clus scale="  204.152">  2  9  1 -1</clus>
<clus scale="  444.464">  1  5  2 -1</clus>
<clus scale="  204.152">  2  5  1 -1</clus>
</clustering>
</event>
<event>
 9    1  0.6675710E-005  0.2106500E+03  0.7546771E-02  0.1163160E+00
         -4   -1    0    0    0  501 -0.00000000000E+00  0.00000000000E+00  0.75119624078E+03  0.75119624078E+03  0.00000000000E+00 0.  1.
         21   -1    0    0  501  502  0.00000000000E+00 -0.00000000000E+00 -0.14213000090E+03  0.14213000090E+03  0.00000000000E+00 0. -1.
         23    2    1    2    0    0  0.30788900458E+02  0.77937322564E+02  0.35452957660E+03  0.37591916821E+03  0.92745984857E+02 0.  0.
        -24    2    1    2    0    0  0.47320276428E+02  0.16232693447E+03  0.51551808565E+02  0.19332250431E+03  0.78273619392E+02 0.  0.
         11    1    4    4    0    0  0.22263235953E+02  0.14483910407E+03  0.64536648208E+02  0.16012181833E+03  0.00000000000E+00 0. -1.
        -12    1    4    4    0    0  0.25057040475E+02  0.17487830402E+02 -0.12984839643E+02  0.33200685989E+02  0.00000000000E+00 0.  1.
        -13    1    3    3    0    0  0.59072771377E+02  0.27909864076E+02  0.15324212585E+03  0.16658842087E+03  0.00000000000E+00 0.  1.
         13    1    3    3    0    0 -0.28283870919E+02  0.50027458488E+02  0.20128745074E+03  0.20933074734E+03  0.00000000000E+00 0. -1.
         -3    1    1    2    0  502 -0.78109176886E+02 -0.24026425703E+03  0.20298485471E+03  0.32408456916E+03  0.00000000000E+00 0.  1.
<scales pt_clust_5="13000.00000" pt_clust_6="13000.00000" pt_clust_7="13000.00000" pt_clust_8="13000.00000" pt_clust_9="195.56761"></scales>
<clustering>
<clus scale="   78.274">  5  6 -1 -1</clus>
<clus scale="   92.746">  7  8 -1 -1</clus>
<clus scale="  124.996">  1  7  2 -1</clus>
<clus scale="  195.568">  2  9  1 -1</clus>
<clus scale="  195.568">  2  5  1 -1</clus>
</clustering>
</event>
<event>
 9    1  0.6675710E-005  0.8462851E+02  0.7546771E-02  0.1317718E+00
         21   -1    0    0  501  502  0.00000000000E+00  0.00000000000E+00  0.11009998681E+03  0.11009998681E+03  0.00000000000E+00 0.  1.
         -2   -1    0    0    0  501 -0.00000000000E+00 -0.00000000000E+00 -0.15074492171E+03  0.15074492171E+03  0.00000000000E+00 0.  1.
        -24    2    1    2    0    0  0.17642921621E+01  0.29974607389E+02 -0.92901605653E+02  0.12726294553E+03  0.81630626339E+02 0.  0.
         23    2    1    2    0    0 -0.32144916774E+01 -0.28234065978E+01  0.60026536336E+01  0.79928213051E+02  0.79587579492E+02 0.  0.
         13    1    3    3    0    0 -0.22089736968E+02 -0.94005682210E+01 -0.48185217125E+00  0.24011650167E+02  0.00000000000E+00 0. -1.
        -14    1    3    3    0    0  0.23854029130E+02  0.39375175610E+02 -0.92419753482E+02  0.10325129536E+03  0.00000000000E+00 0.  1.
        -11    1    4    4    0    0 -0.16256212241E+02 -0.18660088561E+02  0.35939619086E+02  0.43636218461E+02  0.00000000000E+00 0. -1.
         11    1    4    4    0    0  0.13041720563E+02  0.15836681963E+02 -0.29936965452E+02  0.36291994590E+02  0.00000000000E+00 0.  1.
         -1    1    1    2    0  502  0.14501995152E+01 -0.27151200791E+02  0.46254017115E+02  0.53653749937E+02  0.00000000000E+00 0.  1.
<scales pt_clust_5="13000.00000" pt_clust_6="13000.00000" pt_clust_7="13000.00000" pt_clust_8="13000.00000" pt_clust_9="27.18990"></scales>
<clustering>
<clus scale="   27.190">  1  9  2 -1</clus>
<clus scale="   79.588">  7  8 -1 -1</clus>
<clus scale="   81.631">  5  6 -1 -1</clus>
<clus scale="   82.660">  1  7  2 -1</clus>
<clus scale="   27.190">  1  5  2 -1</clus>
</clustering>
</event>
<event>
 9    1  0.6688275E-005  0.1803674E+03  0.7546771E-02  0.1189093E+00
          1   -1    0    0  502    0 -0.00000000000E+00  0.00000000000E+00  0.51146905082E+03  0.51146905082E+03  0.00000000000E+00 0. -1.
         21   -1    0    0  501  502  0.00000000000E+00 -0.00000000000E+00 -0.25079408740E+03  0.25079408740E+03  0.00000000000E+00 0. -1.
        -24    2    1    2    0    0  0.76656985402E+02 -0.17495636027E+01  0.63970266326E+02  0.12786391115E+03  0.79860067726E+02 0.  0.
         23    2    1    2    0    0  0.46976543737E+02  0.49592713666E+02  0.38115534791E+03  0.40725112753E+03  0.12612632049E+03 0.  0.
         13    1    3    3    0    0  0.47224868611E+02  0.21311464589E+02  0.72886495106E+02  0.89424872977E+02  0.00000000000E+00 0. -1.
        -14    1    3    3    0    0  0.29432116791E+02 -0.23061028192E+02 -0.89162287794E+01  0.38439038174E+02  0.00000000000E+00 0.  1.
        -11    1    4    4    0    0 -0.41038354218E+02  0.34879463699E+02  0.15730581324E+03  0.16627038938E+03  0.00000000000E+00 0.  1.
         11    1    4    4    0    0  0.88014897955E+02  0.14713249967E+02  0.22384953468E+03  0.24098073815E+03  0.00000000000E+00 0. -1.
          2    1    1    2  501    0 -0.12363352914E+03 -0.47843150064E+02 -0.18445065082E+03  0.22714809954E+03  0.00000000000E+00 0. -1.
<scales pt_clust_5="13000.00000" pt_clust_6="13000.00000" pt_clust_7="13000.00000" pt_clust_8="13000.00000" pt_clust_9="128.93621"></scales>
<clustering>
<clus scale="   79.860">  5  6 -1 -1</clus>
<clus scale="  110.711">  1  5  2 -1</clus>
<clus scale="  126.126">  7  8 -1 -1</clus>
<clus scale="  128.936">  2  9  1 -1</clus>
<clus scale="  128.936">  2  5  1 -1</clus>
</clustering>
</event>
<event>
 9    1  0.6675710E-005  0.1426326E+03  0.7546771E-02  0.1233776E+00
         21   -1    0    0  501  502  0.00000000000E+00  0.00000000000E+00  0.12910839050E+03  0.12910839050E+03  0.00000000000E+00 0.  1.
          1   -1    0    0  502    0 -0.00000000000E+00 -0.00000000000E+00 -0.37022363143E+03  0.37022363143E+03  0.00000000000E+00 0. -1.
        -24    2    1    2    0    0  0.16165214082E+02  0.36716485665E+02 -0.17439737111E+03  0.19462515330E+03  0.76518578020E+02 0.  0.
         23    2    1    2    0    0 -0.92916074115E+02 -0.10456924325E+03 -0.10276204567E+03  0.19610726531E+03  0.91268274962E+02 0.  0.
         13    1    3    3    0    0  0.16338661911E+02  0.35496557556E+02 -0.18239462618E+03  0.18653352817E+03  0.00000000000E+00 0. -1.
        -14    1    3    3    0    0 -0.17344782844E+00  0.12199281092E+01  0.79972550679E+01  0.80916251372E+01  0.00000000000E+00 0.  1.
        -11    1    4    4    0    0 -0.23394398859E+02  0.15577402703E+02 -0.20011939733E+02  0.34502624608E+02  0.00000000000E+00 0. -1.
         11    1    4    4    0    0 -0.69521675256E+02 -0.12014664595E+03 -0.82750105939E+02  0.16160464070E+03  0.00000000000E+00 0.  1.
          2    1    1    2  501    0  0.76750860033E+02  0.67852757583E+02  0.36044175858E+02  0.10859960332E+03  0.00000000000E+00 0. -1.
<scales pt_clust_5="13000.00000" pt_clust_6="13000.00000" pt_clust_7="13000.00000" pt_clust_8="13000.00000" pt_clust_9="109.60909"></scales>
<clustering>
<clus scale="   76.519">  5  6 -1 -1</clus>
<clus scale="   86.397">  2  5  1 -1</clus>
<clus scale="   91.268">  7  8 -1 -1</clus>
<clus scale="  109.609">  1  9  2 -1</clus>
<clus scale="  109.609">  1  5  2 -1</clus>
</clustering>
</event>
<event>
 9    1  0.6675710E-005  0.1662543E+03  0.7546771E-02  0.1213407E+00
         21   -1    0    0  501  502  0.00000000000E+00  0.00000000000E+00  0.11481012649E+03  0.11481012649E+03  0.00000000000E+00 0. -1.
          1   -1    0    0  502    0 -0.00000000000E+00 -0.00000000000E+00 -0.49797133554E+03  0.49797133554E+03  0.00000000000E+00 0. -1.
        -24    2    1    2    0    0  0.14743745848E+02 -0.21969518027E+02 -0.45021848817E+02  0.94828275993E+02  0.79154262633E+02 0.  0.
         23    2    1    2    0    0  0.10096722900E+02 -0.13659950611E+03 -0.22101181358E+02  0.16349399966E+03  0.86489634196E+02 0.  0.
         13    1    3    3    0    0  0.38132578462E+02  0.67905170423E+01 -0.30834586949E+01  0.38855017429E+02  0.00000000000E+00 0. -1.
        -14    1    3    3    0    0 -0.23388832615E+02 -0.28760035069E+02 -0.41938390122E+02  0.55973258564E+02  0.00000000000E+00 0.  1.
        -11    1    4    4    0    0  0.32242386532E+02 -0.10783984697E+02 -0.83345076132E+01  0.35004711574E+02  0.00000000000E+00 0.  1.
         11    1    4    4    0    0 -0.22145663631E+02 -0.12581552141E+03 -0.13766673745E+02  0.12848928808E+03  0.00000000000E+00 0. -1.
          2    1    1    2  501    0 -0.24840468748E+02  0.15856902414E+03 -0.31603817888E+03  0.35445918638E+03  0.00000000000E+00 0. -1.
<scales pt_clust_5="13000.00000" pt_clust_6="13000.00000" pt_clust_7="13000.00000" pt_clust_8="13000.00000" pt_clust_9="141.98606"></scales>
<clustering>
<clus scale="   79.154">  5  6 -1 -1</clus>
<clus scale="   83.459">  2  5  1 -1</clus>
<clus scale="   86.490">  7  8 -1 -1</clus>
<clus scale="  141.986">  1  9  2 -1</clus>
<clus scale="  141.986">  1  5  2 -1</clus>
</clustering>
</event>
<event>
 9    1  0.6675710E-005  0.1822998E+03  0.7546771E-02  0.1166601E+00
         21   -1    0    0  501  502  0.00000000000E+00  0.00000000000E+00  0.46781004600E+03  0.46781004600E+03  0.00000000000E+00 0.  1.
          1   -1    0    0  502    0 -0.00000000000E+00 -0.00000000000E+00 -0.17676541929E+03  0.17676541929E+03  0.00000000000E+00 0. -1.
        -24    2    1    2    0    0 -0.57544532471E+02  0.13968594612E+03 -0.61888721839E+02  0.18215307221E+03  0.80783606395E+02 0.  0.
         23    2    1    2    0    0  0.15150820635E+02 -0.20045229451E+03  0.22611372920E+03  0.31554492118E+03  0.89613107344E+02 0.  0.
         13    1    3    3    0    0 -0.26035596786E+02  0.81630293521E+02 -0.76087597187E+02  0.11458917735E+03  0.00000000000E+00 0. -1.
        -14    1    3    3    0    0 -0.31508935685E+02  0.58055652600E+02  0.14198875348E+02  0.67563894855E+02  0.00000000000E+00 0.  1.
        -13    1    4    4    0    0  0.39771534949E+02 -0.18514513753E+03  0.20832550170E+03  0.28153154637E+03  0.00000000000E+00 0. -1.
         13    1    4    4    0    0 -0.24620714314E+02 -0.15307156975E+02  0.17788227504E+02  0.34013374806E+02  0.00000000000E+00 0.  1.
          2    1    1    2  501    0  0.42393711837E+02  0.60766348387E+02  0.12681961935E+03  0.14687747190E+03  0.00000000000E+00 0. -1.
<scales pt_clust_5="13000.00000" pt_clust_6="13000.00000" pt_clust_7="13000.00000" pt_clust_8="13000.00000" pt_clust_9="74.09302"></scales>
<clustering>
<clus scale="   74.093">  1  9  2 -1</clus>
<clus scale="   80.784">  5  6 -1 -1</clus>
<clus scale="   89.613">  7  8 -1 -1</clus>
<clus scale="  178.126">  2  5  1 -1</clus>
<clus scale="   74.093">  1  5  2 -1</clus>
</clustering>
</event>
<event>
 9    1  0.6675710E-005  0.9528640E+02  0.7546771E-02  0.1299045E+00
         21   -1    0    0  501  502  0.00000000000E+00  0.00000000000E+00  0.68712546671E+02  0.68712546671E+02  0.00000000000E+00 0.  1.
         -2   -1    0    0    0  501 -0.00000000000E+00 -0.00000000000E+00 -0.43869144120E+03  0.43869144120E+03  0.00000000000E+00 0.  1.
         23    2    1    2    0    0 -0.14821242033E+02  0.21036734388E+02 -0.21912400344E+03  0.24011458407E+03  0.94749518150E+02 0.  0.
        -24    2    1    2    0    0 -0.20056259394E+01  0.36182753951E+02 -0.18025303916E+03  0.20079531051E+03  0.80711736316E+02 0.  0.
         13    1    4    4    0    0 -0.12797710562E+02  0.32786687413E+02 -0.18515117395E+03  0.18846672248E+03  0.00000000000E+00 0. -1.
        -14    1    4    4    0    0  0.10792084622E+02  0.33960665384E+01  0.48981347923E+01  0.12328588032E+02  0.00000000000E+00 0.  1.
        -11    1    3    3    0    0 -0.38093671931E+02  0.22995359702E+02 -0.21060569399E+03  0.21525490181E+03  0.00000000000E+00 0.  1.
         11    1    3    3    0    0  0.23272429898E+02 -0.19586253143E+01 -0.85183094498E+01  0.24859682266E+02  0.00000000000E+00 0. -1.
         -1    1    1    2    0  502  0.16826867973E+02 -0.57219488339E+02  0.29398148075E+02  0.66494093285E+02  0.00000000000E+00 0.  1.
<scales pt_clust_5="13000.00000" pt_clust_6="13000.00000" pt_clust_7="13000.00000" pt_clust_8="13000.00000" pt_clust_9="59.64238"></scales>
<clustering>
<clus scale="   59.642">  1  9  2 -1</clus>
<clus scale="   80.712">  5  6 -1 -1</clus>
<clus scale="   81.341">  1  5  2 -1</clus>
<clus scale="   94.750">  7  8 -1 -1</clus>
<clus scale="   59.642">  1  5  2 -1</clus>
</clustering>
</event>
<event>
 9    1  0.7174599E-005  0.1111209E+03  0.7546771E-02  0.1262309E+00
         21   -1    0    0  501  502  0.00000000000E+00  0.00000000000E+00  0.10960166648E+03  0.10960166648E+03  0.00000000000E+00 0. -1.
          1   -1    0    0  502    0 -0.00000000000E+00 -0.00000000000E+00 -0.22597810999E+03  0.22597810999E+03  0.00000000000E+00 0. -1.
        -24    2    1    2    0    0  0.60759784594E+02 -0.33951308082E+02 -0.15764869674E+03  0.18978551601E+03  0.79504639851E+02 0.  0.
         23    2    1    2    0    0 -0.30253656714E+02  0.38685645527E+02  0.49909002802E+02  0.11373757266E+03  0.89629593106E+02 0.  0.
         13    1    3    3    0    0  0.65286974203E+02 -0.38549305982E+02 -0.16403337181E+03  0.18070801050E+03  0.00000000000E+00 0. -1.
        -14    1    3    3    0    0 -0.45271896090E+01  0.45979979005E+01  0.63846750698E+01  0.90775055052E+01  0.00000000000E+00 0.  1.
        -13    1    4    4    0    0 -0.83804263607E+01  0.18719434369E+02  0.73226271236E+02  0.76044300037E+02  0.00000000000E+00 0. -1.
         13    1    4    4    0    0 -0.21873230353E+02  0.19966211157E+02 -0.23317268434E+02  0.37693272626E+02  0.00000000000E+00 0.  1.
          2    1    1    2  501    0 -0.30506127880E+02 -0.47343374450E+01 -0.86367495705E+01  0.32056687795E+02  0.00000000000E+00 0. -1.
<scales pt_clust_5="13000.00000" pt_clust_6="13000.00000" pt_clust_7="13000.00000" pt_clust_8="13000.00000" pt_clust_9="30.87131"></scales>
<clustering>
<clus scale="   30.871">  1  9  2 -1</clus>
<clus scale="   79.505">  5  6 -1 -1</clus>
<clus scale="   89.630">  7  8 -1 -1</clus>
<clus scale="  103.128">  2  5  1 -1</clus>
<clus scale="   30.871">  1  5  2 -1</clus>
</clustering>
</event>
<event>
 9    1  0.6675710E-005  0.1004981E+03  0.7546771E-02  0.1283738E+00
         21   -1    0    0  501  502  0.00000000000E+00  0.00000000000E+00  0.22429530498E+02  0.22429530498E+02  0.00000000000E+00 0.  1.
          1   -1    0    0  502    0 -0.00000000000E+00 -0.00000000000E+00 -0.69793953620E+03  0.69793953620E+03  0.00000000000E+00 0. -1.
         23    2    1    2    0    0 -0.57459524064E-01  0.48792020788E+02 -0.51280895859E+03  0.52319561509E+03  0.91542116257E+02 0.  0.
        -24    2    1    2    0    0 -0.11802335959E+01 -0.23569513339E+02 -0.13210809002E+03  0.15750437309E+03  0.82450986560E+02 0.  0.
         13    1    4    4    0    0 -0.14624901471E+02  0.21374045025E+02 -0.92660183165E+02  0.96211470668E+02  0.00000000000E+00 0. -1.
        -14    1    4    4    0    0  0.13444667875E+02 -0.44943558364E+02 -0.39447906852E+02  0.61292902425E+02  0.00000000000E+00 0.  1.
        -13    1    3    3    0    0 -0.40181267541E+02  0.10345509773E+01 -0.16402806260E+03  0.16888105245E+03  0.00000000000E+00 0. -1.
         13    1    3    3    0    0  0.40123808016E+02  0.47757469811E+02 -0.34878089599E+03  0.35431456264E+03  0.00000000000E+00 0.  1.
          2    1    1    2  501    0  0.12376931199E+01 -0.25222507449E+02 -0.30592957101E+02  0.39669078518E+02  0.00000000000E+00 0. -1.
<scales pt_clust_5="13000.00000" pt_clust_6="13000.00000" pt_clust_7="13000.00000" pt_clust_8="13000.00000" pt_clust_9="25.25286"></scales>
<clustering>
<clus scale="   25.253">  1  9  2 -1</clus>
<clus scale="   82.451">  5  6 -1 -1</clus>
<clus scale="   91.542">  7  8 -1 -1</clus>
<clus scale="   92.293">  1  5  2 -1</clus>
<clus scale="   25.253">  1  5  2 -1</clus>
</clustering>
</event>
<event>
 9    1  0.6675710E-005  0.1315934E+03  0.7546771E-02  0.1227327E+00
         21   -1    0    0  501  502  0.00000000000E+00  0.00000000000E+00  0.27656096147E+03  0.27656096147E+03  0.00000000000E+00 0. -1.
          1   -1    0    0  502    0 -0.00000000000E+00 -0.00000000000E+00 -0.10654923517E+03  0.10654923517E+03  0.00000000000E+00 0. -1.
        -24    2    1    2    0    0  0.10054808096E+03 -0.83061338177E+01  0.12413792820E+02  0.12974560777E+03  0.80628233509E+02 0.  0.
         23    2    1    2    0    0 -0.75847403677E+02  0.65263881794E+02  0.12390501894E+03  0.18272804731E+03  0.89581709317E+02 0.  0.
         11    1    3    3    0    0  0.98289317967E+02  0.17349339139E+02  0.22106039781E+02  0.10222752364E+03  0.00000000000E+00 0. -1.
        -12    1    3    3    0    0  0.22587629955E+01 -0.25655472956E+02 -0.96922469615E+01  0.27518084127E+02  0.00000000000E+00 0.  1.
        -11    1    4    4    0    0 -0.46188959729E+02  0.66073046299E+02  0.33010028999E+02  0.87113313923E+02  0.00000000000E+00 0. -1.
         11    1    4    4    0    0 -0.29658443949E+02 -0.80916450569E+00  0.90894989937E+02  0.95614733385E+02  0.00000000000E+00 0.  1.
          2    1    1    2  501    0 -0.24700677285E+02 -0.56957747976E+02  0.33692914551E+02  0.70636541561E+02  0.00000000000E+00 0. -1.
<scales pt_clust_5="13000.00000" pt_clust_6="13000.00000" pt_clust_7="13000.00000" pt_clust_8="13000.00000" pt_clust_9="62.08308"></scales>
<clustering>
<clus scale="   62.083">  1  9  2 -1</clus>
<clus scale="   80.628">  5  6 -1 -1</clus>
<clus scale="   89.582">  7  8 -1 -1</clus>
<clus scale="  125.670">  2  5  1 -1</clus>
<clus scale="   62.083">  1  5  2 -1</clus>
</clustering>
</event>
<event>
 9    1  0.6675710E-005  0.1447382E+03  0.7546771E-02  0.1209027E+00
         21   -1    0    0  501  502  0.00000000000E+00  0.00000000000E+00  0.19522052489E+03  0.19522052489E+03  0.00000000000E+00 0. -1.
          1   -1    0    0  502    0 -0.00000000000E+00 -0.00000000000E+00 -0.18457582704E+03  0.18457582704E+03  0.00000000000E+00 0. -1.
         23    2    1    2    0    0 -0.33019135735E+02 -0.13368848753E+03 -0.13358128845E+01  0.16403589233E+03  0.89124152459E+02 0.  0.
        -24    2    1    2    0    0  0.49360489557E+02  0.73667641101E+02  0.63668032905E+02  0.13488313398E+03  0.79224126017E+02 0.  0.
         13    1    4    4    0    0  0.47432691727E+02  0.54510948359E+02  0.81303967796E+02  0.10877333733E+03  0.00000000000E+00 0. -1.
        -14    1    4    4    0    0  0.19277978301E+01  0.19156692742E+02 -0.17635934892E+02  0.26109796644E+02  0.00000000000E+00 0.  1.
        -13    1    3    3    0    0 -0.14627624516E+02 -0.10521178287E+03  0.37350027772E+02  0.11259889532E+03  0.00000000000E+00 0.  1.
         13    1    3    3    0    0 -0.18391511220E+02 -0.28476704667E+02 -0.38685840657E+02  0.51436997005E+02  0.00000000000E+00 0. -1.
          2    1    1    2  501    0 -0.16341353821E+02  0.60020846432E+02 -0.51687522175E+02  0.80877325622E+02  0.00000000000E+00 0. -1.
<scales pt_clust_5="13000.00000" pt_clust_6="13000.00000" pt_clust_7="13000.00000" pt_clust_8="13000.00000" pt_clust_9="62.20567"></scales>
<clustering>
<clus scale="   62.206">  1  9  2 -1</clus>
<clus scale="   79.224">  5  6 -1 -1</clus>
<clus scale="   89.124">  7  8 -1 -1</clus>
<clus scale="  138.861">  1  5  2 -1</clus>
<clus scale="   62.206">  1  5  2 -1</clus>
</clustering>
</event>
<event>
 9    1  0.6675710E-005  0.1600679E+03  0.7546771E-02  0.1190618E+00
         -4   -1    0    0    0  501 -0.00000000000E+00  0.00000000000E+00  0.25605211321E+03  0.25605211321E+03  0.00000000000E+00 0.  1.
         21   -1    0    0  501  502  0.00000000000E+00 -0.00000000000E+00 -0.13517510504E+03  0.13517510504E+03  0.00000000000E+00 0.  1.
        -24    2    1    2    0    0  0.10620035883E+03 -0.88723722446E+02  0.13274146705E+03  0.20772385121E+03  0.79865425216E+02 0.  0.
         23    2    1    2    0    0 -0.96071954444E+02  0.59988201531E+02 -0.28260081512E+02  0.14890378353E+03  0.92440790717E+02 0.  0.
         11    1    3    3    0    0  0.64900181191E+02 -0.35148900849E+01  0.57507015935E+02  0.86783897427E+02  0.00000000000E+00 0. -1.
        -12    1    3    3    0    0  0.41300177639E+02 -0.85208832361E+02  0.75234451116E+02  0.12093995378E+03  0.00000000000E+00 0.  1.
        -11    1    4    4    0    0 -0.75321340527E+02  0.25558087034E+02 -0.58386051042E+02  0.98668389608E+02  0.00000000000E+00 0.  1.
         11    1    4    4    0    0 -0.20750613917E+02  0.34430114497E+02  0.30125969529E+02  0.50235393920E+02  0.00000000000E+00 0. -1.
         -3    1    1    2    0  502 -0.10128404386E+02  0.28735520915E+02  0.16395622631E+02  0.34599583511E+02  0.00000000000E+00 0.  1.
<scales pt_clust_5="13000.00000" pt_clust_6="13000.00000" pt_clust_7="13000.00000" pt_clust_8="13000.00000" pt_clust_9="30.46827"></scales>
<clustering>
<clus scale="   30.468">  2  9  1 -1</clus>
<clus scale="   79.865">  5  6 -1 -1</clus>
<clus scale="   92.441">  7  8 -1 -1</clus>
<clus scale="  153.150">  1  5  2 -1</clus>
<clus scale="   30.468">  2  5  1 -1</clus>
</clustering>
</event>
<event>
 9    1  0.6675710E-005  0.9130160E+02  0.7546771E-02  0.1305300E+00
         21   -1    0    0  501  502  0.00000000000E+00  0.00000000000E+00  0.27743736836E+02  0.27743736836E+02  0.00000000000E+00 0. -1.
         -2   -1    0    0    0  501 -0.00000000000E+00 -0.00000000000E+00 -0.43331047223E+03  0.43331047223E+03  0.00000000000E+00 0.  1.
         23    2    1    2    0    0  0.23404731721E+02  0.75297057122E+01 -0.25438591452E+03  0.27082643533E+03  0.89611866593E+02 0.  0.
        -24    2    1    2    0    0 -0.71657564687E+01  0.19896128162E+02 -0.11537539148E+03  0.14229125889E+03  0.80548851118E+02 0.  0.
         11    1    4    4    0    0  0.18821621944E+02 -0.24390833534E+02 -0.32374182975E+02  0.44690647080E+02  0.00000000000E+00 0. -1.
        -12    1    4    4    0    0 -0.25987378413E+02  0.44286961696E+02 -0.83001208505E+02  0.97600611813E+02  0.00000000000E+00 0.  1.
        -11    1    3    3    0    0  0.32047259474E+01  0.36518564952E+02 -0.42989152794E+02  0.56497284116E+02  0.00000000000E+00 0.  1.
         11    1    3    3    0    0  0.20200005774E+02 -0.28988859240E+02 -0.21139676172E+03  0.21432915121E+03  0.00000000000E+00 0. -1.
         -1    1    1    2    0  502 -0.16238975253E+02 -0.27425833874E+02 -0.35805429398E+02  0.47936514843E+02  0.00000000000E+00 0.  1.
<scales pt_clust_5="13000.00000" pt_clust_6="13000.00000" pt_clust_7="13000.00000" pt_clust_8="13000.00000" pt_clust_9="31.87288"></scales>
<clustering>
<clus scale="   31.873">  1  9  2 -1</clus>
<clus scale="   80.549">  5  6 -1 -1</clus>
<clus scale="   82.425">  1  5  2 -1</clus>
<clus scale="   89.612">  7  8 -1 -1</clus>
<clus scale="   31.873">  1  5  2 -1</clus>
</clustering>
</event>
<event>
 9    1  0.6675710E-005  0.9193805E+02  0.7546771E-02  0.1304089E+00
         21   -1    0    0  501  502  0.00000000000E+00  0.00000000000E+00  0.40464170827E+02  0.40464170827E+02  0.00000000000E+00 0.  1.
          1   -1    0    0  502    0 -0.00000000000E+00 -0.00000000000E+00 -0.41523930557E+03  0.41523930557E+03  0.00000000000E+00 0. -1.
         23    2    1    2    0    0  0.28735675228E+02 -0.21933782314E+02 -0.12631171953E+03  0.15835743890E+03  0.88405871555E+02 0.  0.
        -24    2    1    2    0    0 -0.11456980696E+02 -0.46490960639E+00 -0.43708658297E+02  0.90646339476E+02  0.78580108823E+02 0.  0.
         13    1    4    4    0    0  0.31807552582E+02  0.12608879910E+02 -0.18857348265E+02  0.39067938741E+02  0.00000000000E+00 0. -1.
        -14    1    4    4    0    0 -0.43264533278E+02 -0.13073789517E+02 -0.24851310032E+02  0.51578400735E+02  0.00000000000E+00 0.  1.
        -13    1    3    3    0    0  0.59616843843E+02 -0.17639593425E+02 -0.99028823061E+02  0.11692746094E+03  0.00000000000E+00 0.  1.
         13    1    3    3    0    0 -0.30881168615E+02 -0.42941888884E+01 -0.27282896470E+02  0.41429977951E+02  0.00000000000E+00 0. -1.
          2    1    1    2  501    0 -0.17278694532E+02  0.22398691920E+02 -0.20475475692E+03  0.20669969803E+03  0.00000000000E+00 0. -1.
<scales pt_clust_5="13000.00000" pt_clust_6="13000.00000" pt_clust_7="13000.00000" pt_clust_8="13000.00000" pt_clust_9="28.28879"></scales>
<clustering>
<clus scale="   28.289">  1  9  2 -1</clus>
<clus scale="   78.580">  5  6 -1 -1</clus>
<clus scale="   82.534">  1  5  2 -1</clus>
<clus scale="   88.406">  7  8 -1 -1</clus>
<clus scale="   28.289">  1  5  2 -1</clus>
</clustering>
</event>
<event>
 9    1  0.8759791E-005  0.1205974E+03  0.7546771E-02  0.1250873E+00
          1   -1    0    0  502    0 -0.00000000000E+00  0.00000000000E+00  0.33684101559E+03  0.33684101559E+03  0.00000000000E+00 0. -1.
         21   -1    0    0  501  502  0.00000000000E+00 -0.00000000000E+00 -0.10975778928E+03  0.10975778928E+03  0.00000000000E+00 0. -1.
         23    2    1    2    0    0 -0.26772085112E+02 -0.61274097545E+02  0.27877123553E+03  0.30464743925E+03  0.10307958532E+03 0.  0.
        -24    2    1    2    0    0  0.23156309548E+02  0.40296423294E+02 -0.68171752724E+01  0.92287209643E+02  0.79438270266E+02 0.  0.
         13    1    4    4    0    0  0.18966893717E+02 -0.18782457118E+02 -0.17754609570E+02  0.32058538856E+02  0.00000000000E+00 0. -1.
        -14    1    4    4    0    0  0.41894158318E+01  0.59078880412E+02  0.10937434297E+02  0.60228670786E+02  0.00000000000E+00 0.  1.
        -13    1    3    3    0    0 -0.65953425581E+02 -0.29950184398E+02  0.15467388786E+03  0.17079484617E+03  0.00000000000E+00 0.  1.
         13    1    3    3    0    0  0.39181340470E+02 -0.31323913147E+02  0.12409734767E+03  0.13385259308E+03  0.00000000000E+00 0. -1.
          2    1    1    2  501    0  0.36157755635E+01  0.20977674251E+02 -0.44870833943E+02  0.49664155974E+02  0.00000000000E+00 0. -1.
<scales pt_clust_5="13000.00000" pt_clust_6="13000.00000" pt_clust_7="13000.00000" pt_clust_8="13000.00000" pt_clust_9="21.28701"></scales>
<clustering>
<clus scale="   21.287">  2  9  1 -1</clus>
<clus scale="   79.438">  5  6 -1 -1</clus>
<clus scale="  101.137">  2  5  1 -1</clus>
<clus scale="  103.080">  7  8 -1 -1</clus>
<clus scale="   21.287">  2  5  1 -1</clus>
</clustering>
</event>
<event>
 9    1  0.6675710E-005  0.8927030E+02  0.7546771E-02  0.1304664E+00
         -4   -1    0    0    0  501 -0.00000000000E+00  0.00000000000E+00  0.33450363550E+03  0.33450363550E+03  0.00000000000E+00 0.  1.
         21   -1    0    0  501  502  0.00000000000E+00 -0.00000000000E+00 -0.21921231961E+03  0.21921231961E+03  0.00000000000E+00 0.  1.
        -24    2    1    2    0    0 -0.24583175027E+02  0.61228697883E+01  0.28008515297E+03  0.29379472089E+03  0.85004841498E+02 0.  0.
         23    2    1    2    0    0  0.42707106423E+02  0.43896267320E+01 -0.13982015891E+01  0.95187742881E+02  0.84944603509E+02 0.  0.
         11    1    3    3    0    0  0.88274870747E+01 -0.34781043902E+02  0.11256958236E+03  0.11815056672E+03  0.00000000000E+00 0. -1.
        -12    1    3    3    0    0 -0.33410662102E+02  0.40903913690E+02  0.16751557061E+03  0.17564415417E+03  0.00000000000E+00 0.  1.
        -11    1    4    4    0    0  0.23799891780E+02 -0.22720815437E+02  0.33614625423E+02  0.47038424137E+02  0.00000000000E+00 0.  1.
         11    1    4    4    0    0  0.18907214642E+02  0.27110442169E+02 -0.35012827012E+02  0.48149318744E+02  0.00000000000E+00 0. -1.
         -3    1    1    2    0  502 -0.18123931396E+02 -0.10512496520E+02 -0.16339563549E+03  0.16473349134E+03  0.00000000000E+00 0.  1.
<scales pt_clust_5="13000.00000" pt_clust_6="13000.00000" pt_clust_7="13000.00000" pt_clust_8="13000.00000" pt_clust_9="20.95208"></scales>
<clustering>
<clus scale="   20.952">  2  9  1 -1</clus>
<clus scale="   84.945">  7  8 -1 -1</clus>
<clus scale="   85.005">  5  6 -1 -1</clus>
<clus scale="   89.213">  2  7  1 -1</clus>
<clus scale="   20.952">  2  5  1 -1</clus>
</clustering>
</event>
<event>
 9    1  0.6675710E-005  0.9964816E+02  0.7546771E-02  0.1285993E+00
         21   -1    0    0  501  502  0.00000000000E+00  0.00000000000E+00  0.47346510239E+03  0.47346510239E+03  0.00000000000E+00 0.  1.
         -2   -1    0    0    0  501 -0.00000000000E+00 -0.00000000000E+00 -0.13821341108E+03  0.13821341108E+03  0.00000000000E+00 0.  1.
        -24    2    1    2    0    0  0.14064279743E+02 -0.49142944117E+02 -0.94891450586E+02  0.13439239176E+03  0.80275118487E+02 0.  0.
         23    2    1    2    0    0  0.44720404730E+02 -0.14751601663E+02  0.13156568075E+03  0.16634134782E+03  0.90235199853E+02 0.  0.
         13    1    3    3    0    0  0.36686666566E+02  0.29069077627E+01 -0.49711845261E+02  0.61851670759E+02  0.00000000000E+00 0. -1.
        -14    1    3    3    0    0 -0.22622386823E+02 -0.52049851880E+02 -0.45179605325E+02  0.72540721003E+02  0.00000000000E+00 0.  1.
        -13    1    4    4    0    0 -0.16472146361E+02 -0.25909425376E+02  0.79508511350E+02  0.85230471700E+02  0.00000000000E+00 0.  1.
         13    1    4    4    0    0  0.61192551091E+02  0.11157823714E+02  0.52057169401E+02  0.81110876121E+02  0.00000000000E+00 0. -1.
         -1    1    1    2    0  502 -0.58784684473E+02  0.63894545780E+02  0.29857746114E+03  0.31094477389E+03  0.00000000000E+00 0.  1.
<scales pt_clust_5="13000.00000" pt_clust_6="13000.00000" pt_clust_7="13000.00000" pt_clust_8="13000.00000" pt_clust_9="86.82253"></scales>
<clustering>
<clus scale="   80.275">  5  6 -1 -1</clus>
<clus scale="   86.823">  1  9  2 -1</clus>
<clus scale="   90.235">  7  8 -1 -1</clus>
<clus scale="   90.727">  2  5  1 -1</clus>
<clus scale="   86.823">  1  5  2 -1</clus>
</clustering>
</event>
<event>
 9    1  0.6675710E-005  0.1186545E+03  0.7546771E-02  0.1249519E+00
         21   -1    0    0  501  502  0.00000000000E+00  0.00000000000E+00  0.19889709462E+03  0.19889709462E+03  0.00000000000E+00 0. -1.
         -2   -1    0    0    0  501 -0.00000000000E+00 -0.00000000000E+00 -0.22471592107E+03  0.22471592107E+03  0.00000000000E+00 0.  1.
        -24    2    1    2    0    0  0.50170768636E+02 -0.63042648594E+02 -0.14909488830E+03  0.18708992555E+03  0.79258267448E+02 0.  0.
         23    2    1    2    0    0 -0.24189787302E+02  0.15290646135E+02  0.14817578259E+03  0.17672960200E+03  0.91969234040E+02 0.  0.
         11    1    3    3    0    0  0.33930949799E+02 -0.49567020152E+01 -0.10376112722E+02  0.35826553900E+02  0.00000000000E+00 0. -1.
        -12    1    3    3    0    0  0.16239818837E+02 -0.58085946579E+02 -0.13871877558E+03  0.15126337165E+03  0.00000000000E+00 0.  1.
        -11    1    4    4    0    0 -0.11798708093E+00 -0.32528879075E+02  0.20931759937E+02  0.38681784717E+02  0.00000000000E+00 0.  1.
         11    1    4    4    0    0 -0.24071800222E+02  0.47819525211E+02  0.12724402265E+03  0.13804781729E+03  0.00000000000E+00 0. -1.
         -1    1    1    2    0  502 -0.25980981333E+02  0.47752002459E+02 -0.24899720735E+02  0.59793488128E+02  0.00000000000E+00 0.  1.
<scales pt_clust_5="13000.00000" pt_clust_6="13000.00000" pt_clust_7="13000.00000" pt_clust_8="13000.00000" pt_clust_9="54.36238"></scales>
<clustering>
<clus scale="   54.362">  1  9  2 -1</clus>
<clus scale="   79.258">  5  6 -1 -1</clus>
<clus scale="   91.969">  7  8 -1 -1</clus>
<clus scale="  109.098">  2  5  1 -1</clus>
<clus scale="   54.362">  1  5  2 -1</clus>
</clustering>
</event>
<event>
 9    1  0.6675710E-005  0.1697220E+03  0.7546771E-02  0.1200286E+00
         21   -1    0    0  501  502  0.00000000000E+00  0.00000000000E+00  0.35964965404E+03  0.35964965404E+03  0.00000000000E+00 0. -1.
          1   -1    0    0  502    0 -0.00000000000E+00 -0.00000000000E+00 -0.16239256578E+03  0.16239256578E+03  0.00000000000E+00 0. -1.
        -24    2    1    2    0    0  0.56912731637E+02  0.37419225675E+02 -0.24679589353E+02  0.10686128795E+03  0.78555682536E+02 0.  0.
         23    2    1    2    0    0  0.50745198134E+02 -0.14980122646E+03  0.18798630638E+03  0.25589323100E+03  0.71603154278E+02 0.  0.
         11    1    3    3    0    0  0.16237821150E+02  0.53172110385E+02  0.21746091903E+01  0.55638737258E+02  0.00000000000E+00 0. -1.
        -12    1    3    3    0    0  0.40674910487E+02 -0.15752884710E+02 -0.26854198543E+02  0.51222550690E+02  0.00000000000E+00 0.  1.
        -11    1    4    4    0    0  0.12666128388E+02 -0.93725053819E+02  0.15233468252E+03  0.17930608472E+03  0.00000000000E+00 0.  1.
         11    1    4    4    0    0  0.38079069746E+02 -0.56076172639E+02  0.35651623867E+02  0.76587146277E+02  0.00000000000E+00 0. -1.
          2    1    1    2  501    0 -0.10765792977E+03  0.11238200078E+03  0.33950371232E+02  0.15928770087E+03  0.00000000000E+00 0. -1.
<scales pt_clust_5="13000.00000" pt_clust_6="13000.00000" pt_clust_7="13000.00000" pt_clust_8="13000.00000" pt_clust_9="153.87844"></scales>
<clustering>
<clus scale="   71.603">  7  8 -1 -1</clus>
<clus scale="   78.556">  5  6 -1 -1</clus>
<clus scale="  103.972">  2  5  1 -1</clus>
<clus scale="  153.878">  1  9  2 -1</clus>
<clus scale="  153.878">  1  5  2 -1</clus>
</clustering>
</event>
<event>
 9    1  0.6675710E-005  0.1034172E+03  0.7546771E-02  0.1279181E+00
          3   -1    0    0  502    0 -0.00000000000E+00  0.00000000000E+00  0.28096481726E+03  0.28096481726E+03  0.00000000000E+00 0. -1.
         21   -1    0    0  501  502  0.00000000000E+00 -0.00000000000E+00 -0.88564556042E+02  0.88564556042E+02  0.00000000000E+00 0. -1.
        -24    2    1    2    0    0 -0.21413634401E+02  0.47387350192E+02  0.17688328394E+03  0.20081976917E+03  0.79603887190E+02 0.  0.
         23    2    1    2    0    0 -0.35260211676E+02 -0.35442362818E+02 -0.10099389437E+02  0.10537868123E+03  0.92212933910E+02 0.  0.
         11    1    3    3    0    0 -0.40153381518E+02  0.38048986316E+02  0.17000953135E+03  0.17878271772E+03  0.00000000000E+00 0. -1.
        -12    1    3    3    0    0  0.18739747117E+02  0.93383638760E+01  0.68737525943E+01  0.22037051450E+02  0.00000000000E+00 0.  1.
        -11    1    4    4    0    0  0.30876703286E+02 -0.26612270187E+01 -0.10294398568E+01  0.31008267953E+02  0.00000000000E+00 0.  1.
         11    1    4    4    0    0 -0.66136914961E+02 -0.32781135799E+02 -0.90699495801E+01  0.74370413272E+02  0.00000000000E+00 0. -1.
          4    1    1    2  501    0  0.56673846077E+02 -0.11944987374E+02  0.25616366714E+02  0.63330922906E+02  0.00000000000E+00 0. -1.
<scales pt_clust_5="13000.00000" pt_clust_6="13000.00000" pt_clust_7="13000.00000" pt_clust_8="13000.00000" pt_clust_9="57.91897"></scales>
<clustering>
<clus scale="   57.919">  2  9  1 -1</clus>
<clus scale="   79.604">  5  6 -1 -1</clus>
<clus scale="   92.213">  7  8 -1 -1</clus>
<clus scale="   92.351">  1  5  2 -1</clus>
<clus scale="   57.919">  2  5  1 -1</clus>
</clustering>
</event>
<event>
 9    1  0.6675710E-005  0.9364845E+02  0.7546771E-02  0.1300795E+00
          1   -1    0    0  502    0 -0.00000000000E+00  0.00000000000E+00  0.21339698983E+03  0.21339698983E+03  0.00000000000E+00 0. -1.
         21   -1    0    0  501  502  0.00000000000E+00 -0.00000000000E+00 -0.75350786176E+02  0.75350786176E+02  0.00000000000E+00 0.  1.
         23    2    1    2    0    0  0.29299842396E+02 -0.40446798187E+02  0.52547712314E+02  0.11607658678E+03  0.90653668879E+02 0.  0.
        -24    2    1    2    0    0  0.12789539184E+02  0.20659809774E+01  0.14936965298E+02  0.81987496484E+02  0.79567556564E+02 0.  0.
         13    1    4    4    0    0  0.37827319352E+02 -0.15351479388E+02  0.27263724554E+02  0.49090576339E+02  0.00000000000E+00 0. -1.
        -14    1    4    4    0    0 -0.25037780167E+02  0.17417460365E+02 -0.12326759256E+02  0.32896920145E+02  0.00000000000E+00 0.  1.
        -11    1    3    3    0    0  0.43459574014E+02 -0.12354572492E+02  0.67515253834E+02  0.81238411698E+02  0.00000000000E+00 0.  1.
         11    1    3    3    0    0 -0.14159731617E+02 -0.28092225695E+02 -0.14967541520E+02  0.34838175083E+02  0.00000000000E+00 0. -1.
          2    1    1    2  501    0 -0.42089381581E+02  0.38380817209E+02  0.70561526038E+02  0.90683692737E+02  0.00000000000E+00 0. -1.
<scales pt_clust_5="13000.00000" pt_clust_6="13000.00000" pt_clust_7="13000.00000" pt_clust_8="13000.00000" pt_clust_9="56.96145"></scales>
<clustering>
<clus scale="   56.961">  2  9  1 -1</clus>
<clus scale="   79.568">  5  6 -1 -1</clus>
<clus scale="   82.963">  2  5  1 -1</clus>
<clus scale="   90.654">  7  8 -1 -1</clus>
<clus scale="   56.961">  2  5  1 -1</clus>
</clustering>
</event>
<event>
 9    1  0.6675710E-005  0.2473834E+03  0.7546771E-02  0.1133872E+00
         21   -1    0    0  501  502  0.00000000000E+00  0.00000000000E+00  0.21861686422E+03  0.21861686422E+03  0.00000000000E+00 0. -1.
          1   -1    0    0  502    0 -0.00000000000E+00 -0.00000000000E+00 -0.59045608542E+03  0.59045608542E+03  0.00000000000E+00 0. -1.
         23    2    1    2    0    0  0.10859662395E+03  0.63478892686E+02  0.31462750532E+02  0.15793905765E+03  0.90177850444E+02 0.  0.
        -24    2    1    2    0    0  0.14225228052E+03  0.64810792462E+02 -0.30744568581E+03  0.35352367082E+03  0.77588568585E+02 0.  0.
         13    1    4    4    0    0  0.13795015425E+03  0.63816930940E+02 -0.31207766586E+03  0.34712435130E+03  0.00000000000E+00 0. -1.
        -14    1    4    4    0    0  0.43021262735E+01  0.99386152163E+00  0.46319800527E+01  0.63993195268E+01  0.00000000000E+00 0.  1.
        -13    1    3    3    0    0  0.12586064695E+02 -0.22555576018E+02  0.41836624025E+01  0.26166124381E+02  0.00000000000E+00 0. -1.
         13    1    3    3    0    0  0.96010559253E+02  0.86034468704E+02  0.27279088129E+02  0.13177293327E+03  0.00000000000E+00 0.  1.
          2    1    1    2  501    0 -0.25084890447E+03 -0.12828968515E+03 -0.95856285918E+02  0.29761022116E+03  0.00000000000E+00 0. -1.
<scales pt_clust_5="13000.00000" pt_clust_6="13000.00000" pt_clust_7="13000.00000" pt_clust_8="13000.00000" pt_clust_9="234.90112"></scales>
<clustering>
<clus scale="   77.589">  5  6 -1 -1</clus>
<clus scale="   90.178">  7  8 -1 -1</clus>
<clus scale="  154.774">  2  7  1 -1</clus>
<clus scale="  234.901">  1  9  2 -1</clus>
<clus scale="  234.901">  1  5  2 -1</clus>
</clustering>
</event>
<event>
 9    1  0.6675710E-005  0.1571062E+03  0.7546771E-02  0.1207046E+00
         -2   -1    0    0    0  501 -0.00000000000E+00  0.00000000000E+00  0.50761195200E+03  0.50761195200E+03  0.00000000000E+00 0.  1.
         21   -1    0    0  501  502  0.00000000000E+00 -0.00000000000E+00 -0.11446206637E+03  0.11446206637E+03  0.00000000000E+00 0. -1.
         23    2    1    2    0    0 -0.20000357221E+01  0.63321052484E+02  0.24112912926E+03  0.26641548353E+03  0.93916968970E+02 0.  0.
        -24    2    1    2    0    0 -0.10972129016E+03 -0.99291628601E+02  0.63778703013E+01  0.16860937749E+03  0.80565848357E+02 0.  0.
         11    1    4    4    0    0 -0.50185497530E+02 -0.32760462991E+02  0.41255334324E+02  0.72758743171E+02  0.00000000000E+00 0. -1.
        -12    1    4    4    0    0 -0.59535792634E+02 -0.66531165611E+02 -0.34877464023E+02  0.95850634316E+02  0.00000000000E+00 0.  1.
        -13    1    3    3    0    0 -0.47413357910E+02  0.31862882467E+02  0.10563527811E+03  0.12009197212E+03  0.00000000000E+00 0.  1.
         13    1    3    3    0    0  0.45413322188E+02  0.31458170017E+02  0.13549385115E+03  0.14632351141E+03  0.00000000000E+00 0. -1.
         -1    1    1    2    0  502  0.11172132589E+03  0.35970576118E+02  0.14564288607E+03  0.18704915735E+03  0.00000000000E+00 0.  1.
<scales pt_clust_5="13000.00000" pt_clust_6="13000.00000" pt_clust_7="13000.00000" pt_clust_8="13000.00000" pt_clust_9="134.87597"></scales>
<clustering>
<clus scale="   80.566">  5  6 -1 -1</clus>
<clus scale="   93.917">  7  8 -1 -1</clus>
<clus scale="  113.287">  1  7  2 -1</clus>
<clus scale="  134.876">  2  9  1 -1</clus>
<clus scale="  134.876">  2  5  1 -1</clus>
</clustering>
</event>
<event>
 9    1  0.6675710E-005  0.1103550E+03  0.7546771E-02  0.1265042E+00
          3   -1    0    0  502    0 -0.00000000000E+00  0.00000000000E+00  0.53651938111E+02  0.53651938111E+02  0.00000000000E+00 0. -1.
         21   -1    0    0  501  502  0.00000000000E+00 -0.00000000000E+00 -0.43447377528E+03  0.43447377528E+03  0.00000000000E+00 0.  1.
         23    2    1    2    0    0  0.58376618873E+02 -0.48804313305E+00 -0.32532931634E+02  0.11367506281E+03  0.91954121427E+02 0.  0.
        -24    2    1    2    0    0 -0.68909215931E+02 -0.20079401312E+02 -0.22521448918E+03  0.24922578351E+03  0.78995332975E+02 0.  0.
         13    1    4    4    0    0 -0.27759332156E+02 -0.26295011156E+02 -0.27296890168E+02  0.46980084571E+02  0.00000000000E+00 0. -1.
        -14    1    4    4    0    0 -0.41149883775E+02  0.62156098434E+01 -0.19791759901E+03  0.20224569894E+03  0.00000000000E+00 0.  1.
        -13    1    3    3    0    0 -0.55541036002E+01  0.24615908304E+02 -0.37068351928E+02  0.44842543673E+02  0.00000000000E+00 0.  1.
         13    1    3    3    0    0  0.63930722474E+02 -0.25103951437E+02  0.45354202936E+01  0.68832519139E+02  0.00000000000E+00 0. -1.
          4    1    1    2  501    0  0.10532597057E+02  0.20567444446E+02 -0.12307441636E+03  0.12522486707E+03  0.00000000000E+00 0. -1.
<scales pt_clust_5="13000.00000" pt_clust_6="13000.00000" pt_clust_7="13000.00000" pt_clust_8="13000.00000" pt_clust_9="23.10747"></scales>
<clustering>
<clus scale="   23.107">  2  9  1 -1</clus>
<clus scale="   78.995">  5  6 -1 -1</clus>
<clus scale="   91.954">  7  8 -1 -1</clus>
<clus scale="   99.814">  2  5  1 -1</clus>
<clus scale="   23.107">  2  5  1 -1</clus>
</clustering>
</event>
<event>
 9    1  0.6675710E-005  0.9681326E+02  0.7546771E-02  0.1294301E+00
         21   -1    0    0  501  502  0.00000000000E+00  0.00000000000E+00  0.12136938419E+03  0.12136938419E+03  0.00000000000E+00 0. -1.
         -4   -1    0    0    0  501 -0.00000000000E+00 -0.00000000000E+00 -0.46798403131E+03  0.46798403131E+03  0.00000000000E+00 0.  1.
        -24    2    1    2    0    0  0.20466354652E+02 -0.21360629815E+02 -0.42224005245E+03  0.43058260219E+03  0.78990931356E+02 0.  0.
         23    2    1    2    0    0 -0.18817342867E+02  0.45805235197E+02  0.32753810940E+02  0.10939236074E+03  0.91878531193E+02 0.  0.
         13    1    3    3    0    0 -0.22740185168E+02  0.11765418151E+02 -0.78833427172E+02  0.82886973195E+02  0.00000000000E+00 0. -1.
        -14    1    3    3    0    0  0.43206539820E+02 -0.33126047966E+02 -0.34340662528E+03  0.34769562900E+03  0.00000000000E+00 0.  1.
        -13    1    4    4    0    0 -0.52419277530E+02  0.68567382356E+01  0.14628183581E+02  0.54852340615E+02  0.00000000000E+00 0.  1.
         13    1    4    4    0    0  0.33601934663E+02  0.38948496962E+02  0.18125627358E+02  0.54540020130E+02  0.00000000000E+00 0. -1.
         -3    1    1    2    0  502 -0.16490117847E+01 -0.24444605382E+02  0.42871594390E+02  0.49378452565E+02  0.00000000000E+00 0.  1.
<scales pt_clust_5="13000.00000" pt_clust_6="13000.00000" pt_clust_7="13000.00000" pt_clust_8="13000.00000" pt_clust_9="24.50016"></scales>
<clustering>
<clus scale="   24.500">  1  9  2 -1</clus>
<clus scale="   78.991">  5  6 -1 -1</clus>
<clus scale="   84.680">  2  5  1 -1</clus>
<clus scale="   91.879">  7  8 -1 -1</clus>
<clus scale="   24.500">  1  5  2 -1</clus>
</clustering>
</event>
<event>
 9    1  0.6675710E-005  0.1749795E+03  0.7546771E-02  0.1173800E+00
          1   -1    0    0  502    0 -0.00000000000E+00  0.00000000000E+00  0.15925960237E+04  0.15925960237E+04  0.00000000000E+00 0. -1.
         21   -1    0    0  501  502  0.00000000000E+00 -0.00000000000E+00 -0.21910898482E+02  0.21910898482E+02  0.00000000000E+00 0. -1.
        -24    2    1    2    0    0 -0.12664215775E+03 -0.54993703363E+02  0.78054036461E+03  0.79740061393E+03  0.86844313488E+02 0.  0.
         23    2    1    2    0    0  0.14666785351E+03  0.63101092261E+02  0.72871524773E+03  0.75198838984E+03  0.94696457607E+02 0.  0.
         11    1    3    3    0    0 -0.37635823667E+02 -0.25988024554E+02  0.94317133593E+02  0.10482153563E+03  0.00000000000E+00 0. -1.
        -12    1    3    3    0    0 -0.89006334078E+02 -0.29005678809E+02  0.68622323102E+03  0.69257907830E+03  0.00000000000E+00 0.  1.
        -11    1    4    4    0    0  0.60492473269E+02 -0.13163234354E+02  0.37356200383E+03  0.37865707542E+03  0.00000000000E+00 0.  1.
         11    1    4    4    0    0  0.86175380240E+02  0.76264326615E+02  0.35515324390E+03  0.37333131442E+03  0.00000000000E+00 0. -1.
          2    1    1    2  501    0 -0.20025695763E+02 -0.81073888976E+01  0.61429512859E+02  0.65117918391E+02  0.00000000000E+00 0. -1.
<scales pt_clust_5="13000.00000" pt_clust_6="13000.00000" pt_clust_7="13000.00000" pt_clust_8="13000.00000" pt_clust_9="21.60459"></scales>
<clustering>
<clus scale="   21.605">  2  9  1 -1</clus>
<clus scale="   86.844">  5  6 -1 -1</clus>
<clus scale="   94.696">  7  8 -1 -1</clus>
<clus scale="  170.858">  1  5  2 -1</clus>
<clus scale="   21.605">  2  5  1 -1</clus>
</clustering>
</event>
<event>
 9    1  0.6675710E-005  0.1196958E+03  0.7546771E-02  0.1247090E+00
         21   -1    0    0  501  502  0.00000000000E+00  0.00000000000E+00  0.11070018467E+03  0.11070018467E+03  0.00000000000E+00 0.  1.
         -2   -1    0    0    0  501 -0.00000000000E+00 -0.00000000000E+00 -0.46751246649E+03  0.46751246649E+03  0.00000000000E+00 0.  1.
        -24    2    1    2    0    0 -0.21965554174E+02  0.72857226702E+02 -0.30718661923E+03  0.32657402256E+03  0.80599703028E+02 0.  0.
         23    2    1    2    0    0  0.52159307532E+02 -0.66090986880E+02 -0.12121020058E+03  0.17365279127E+03  0.91513754611E+02 0.  0.
         11    1    3    3    0    0 -0.30269032762E+01  0.33560278956E+02 -0.27465642812E+02  0.43472014010E+02  0.00000000000E+00 0. -1.
        -12    1    3    3    0    0 -0.18938650898E+02  0.39296947745E+02 -0.27972097642E+03  0.28310200855E+03  0.00000000000E+00 0.  1.
        -13    1    4    4    0    0  0.76980344917E+02 -0.39135926278E+02 -0.72866654642E+02  0.11299178549E+03  0.00000000000E+00 0.  1.
         13    1    4    4    0    0 -0.24821037384E+02 -0.26955060601E+02 -0.48343545936E+02  0.60661005782E+02  0.00000000000E+00 0. -1.
         -1    1    1    2    0  502 -0.30193753359E+02 -0.67662398220E+01  0.71584537987E+02  0.77985837317E+02  0.00000000000E+00 0.  1.
<scales pt_clust_5="13000.00000" pt_clust_6="13000.00000" pt_clust_7="13000.00000" pt_clust_8="13000.00000" pt_clust_9="30.94260"></scales>
<clustering>
<clus scale="   30.943">  1  9  2 -1</clus>
<clus scale="   80.600">  5  6 -1 -1</clus>
<clus scale="   91.514">  7  8 -1 -1</clus>
<clus scale="  111.573">  2  5  1 -1</clus>
<clus scale="   30.943">  1  5  2 -1</clus>
</clustering>
</event>
<event>
 9    1  0.6675710E-005  0.1221393E+03  0.7546771E-02  0.1249054E+00
         -4   -1    0    0    0  501 -0.00000000000E+00  0.00000000000E+00  0.11606819334E+03  0.11606819334E+03  0.00000000000E+00 0.  1.
         21   -1    0    0  501  502  0.00000000000E+00 -0.00000000000E+00 -0.17807325380E+03  0.17807325380E+03  0.00000000000E+00 0. -1.
        -24    2    1    2    0    0  0.44718803587E+02 -0.25556352658E+02 -0.83344646352E+01  0.94070710200E+02  0.78274751110E+02 0.  0.
         23    2    1    2    0    0 -0.44051759065E+02  0.75704177405E+02 -0.15373325246E+02  0.13696819968E+03  0.10417422254E+03 0.  0.
         13    1    3    3    0    0  0.18081688571E+02  0.22928058445E+02  0.16380807920E+02  0.33480952701E+02  0.00000000000E+00 0. -1.
        -14    1    3    3    0    0  0.26637115016E+02 -0.48484411103E+02 -0.24715272556E+02  0.60589757500E+02  0.00000000000E+00 0.  1.
        -13    1    4    4    0    0 -0.88120744489E+01  0.61194479627E+02 -0.54450119852E+02  0.82384662072E+02  0.00000000000E+00 0. -1.
         13    1    4    4    0    0 -0.35239684616E+02  0.14509697778E+02  0.39076794606E+02  0.54583537611E+02  0.00000000000E+00 0.  1.
         -3    1    1    2    0  502 -0.66704452134E+00 -0.50147824747E+02 -0.38297270576E+02  0.63102537262E+02  0.00000000000E+00 0.  1.
<scales pt_clust_5="13000.00000" pt_clust_6="13000.00000" pt_clust_7="13000.00000" pt_clust_8="13000.00000" pt_clust_9="50.15226"></scales>
<clustering>
<clus scale="   50.152">  2  9  1 -1</clus>
<clus scale="   78.275">  5  6 -1 -1</clus>
<clus scale="  100.959">  1  5  2 -1</clus>
<clus scale="  104.174">  7  8 -1 -1</clus>
<clus scale="   50.152">  2  5  1 -1</clus>
</clustering>
</event>
<event>
 9    1  0.6675710E-005  0.1242649E+03  0.7546771E-02  0.1238305E+00
         -4   -1    0    0    0  501 -0.00000000000E+00  0.00000000000E+00  0.78990326957E+03  0.78990326957E+03  0.00000000000E+00 0.  1.
         21   -1    0    0  501  502  0.00000000000E+00 -0.00000000000E+00 -0.10731013586E+03  0.10731013586E+03  0.00000000000E+00 0.  1.
        -24    2    1    2    0    0 -0.67240814480E+02 -0.62258661060E+02  0.64555845957E+03  0.65749118649E+03  0.84566350173E+02 0.  0.
         23    2    1    2    0    0  0.61557037461E+02  0.91634334419E+01  0.10542052624E+03  0.15295797928E+03  0.91702882717E+02 0.  0.
         11    1    3    3    0    0 -0.69349744334E+02 -0.28796965973E+02  0.26426574611E+03  0.27472720444E+03  0.00000000000E+00 0. -1.
        -12    1    3    3    0    0  0.21089298533E+01 -0.33461695086E+02  0.38129271345E+03  0.38276398205E+03  0.00000000000E+00 0.  1.
        -13    1    4    4    0    0 -0.21336598444E+02  0.18458128842E+01  0.40330459851E+01  0.21792726270E+02  0.00000000000E+00 0.  1.
         13    1    4    4    0    0  0.82893635905E+02  0.73176205577E+01  0.10138748025E+03  0.13116525301E+03  0.00000000000E+00 0. -1.
         -3    1    1    2    0  502  0.56837770194E+01  0.53095227618E+02 -0.68385852095E+02  0.86764239660E+02  0.00000000000E+00 0.  1.
<scales pt_clust_5="13000.00000" pt_clust_6="13000.00000" pt_clust_7="13000.00000" pt_clust_8="13000.00000" pt_clust_9="53.39858"></scales>
<clustering>
<clus scale="   53.399">  2  9  1 -1</clus>
<clus scale="   84.566">  5  6 -1 -1</clus>
<clus scale="   91.703">  7  8 -1 -1</clus>
<clus scale="  119.096">  1  5  2 -1</clus>
<clus scale="   53.399">  2  5  1 -1</clus>
</clustering>
</event>
<event>
 9    1  0.6675710E-005  0.4176783E+03  0.7546771E-02  0.1083308E+00
          1   -1    0    0  502    0 -0.00000000000E+00  0.00000000000E+00  0.14674839477E+04  0.14674839477E+04  0.00000000000E+00 0. -1.
         21   -1    0    0  501  502  0.00000000000E+00 -0.00000000000E+00 -0.45370979056E+03  0.45370979056E+03  0.00000000000E+00 0. -1.
         23    2    1    2    0    0 -0.56217237019E+02 -0.46539685611E+02 -0.66146361341E+01  0.11724020841E+03  0.91516080461E+02 0.  0.
        -24    2    1    2    0    0 -0.35231954001E+03 -0.26948576406E+02  0.12692437809E+04  0.13199787084E+04  0.80676708276E+02 0.  0.
         11    1    4    4    0    0 -0.14932460392E+03  0.25971147738E+02  0.58362124635E+03  0.60298100885E+03  0.00000000000E+00 0. -1.
        -12    1    4    4    0    0 -0.20299493609E+03 -0.52919724144E+02  0.68562253459E+03  0.71699769959E+03  0.00000000000E+00 0.  1.
        -13    1    3    3    0    0 -0.20432556901E+02  0.20182485664E+01 -0.42396366754E+02  0.47106418063E+02  0.00000000000E+00 0.  1.
         13    1    3    3    0    0 -0.35784680118E+02 -0.48557934178E+02  0.35781730620E+02  0.70133790351E+02  0.00000000000E+00 0. -1.
          2    1    1    2  501    0  0.40853677703E+03  0.73488262017E+02 -0.24885498768E+03  0.48397482138E+03  0.00000000000E+00 0. -1.
<scales pt_clust_5="13000.00000" pt_clust_6="13000.00000" pt_clust_7="13000.00000" pt_clust_8="13000.00000" pt_clust_9="409.81268"></scales>
<clustering>
<clus scale="   80.677">  5  6 -1 -1</clus>
<clus scale="   91.516">  7  8 -1 -1</clus>
<clus scale="  117.054">  1  7  2 -1</clus>
<clus scale="  409.813">  2  9  1 -1</clus>
<clus scale="  409.813">  2  5  1 -1</clus>
</clustering>
</event>
<event>
 9    1  0.6675710E-005  0.1002308E+03  0.7546771E-02  0.1284286E+00
         21   -1    0    0  501  502  0.00000000000E+00  0.00000000000E+00  0.21823348756E+03  0.21823348756E+03  0.00000000000E+00 0.  1.
         -2   -1    0    0    0  501 -0.00000000000E+00 -0.00000000000E+00 -0.67686256018E+03  0.67686256018E+03  0.00000000000E+00 0.  1.
        -24    2    1    2    0    0 -0.13929600040E+02  0.39377761577E+02 -0.62454844518E+03  0.63122587473E+03  0.81490506733E+02 0.  0.
         23    2    1    2    0    0  0.30569771750E+02 -0.56978210691E+02  0.16532307836E+02  0.11253225236E+03  0.90604432451E+02 0.  0.
         11    1    3    3    0    0 -0.24938014553E+02  0.17870744514E+02 -0.73476153197E+02  0.79624199637E+02  0.00000000000E+00 0. -1.
        -12    1    3    3    0    0  0.11008414513E+02  0.21507017063E+02 -0.55107229198E+03  0.55160167509E+03  0.00000000000E+00 0.  1.
        -13    1    4    4    0    0  0.20591020133E+02  0.16026059898E+02  0.27647038012E+02  0.38015568085E+02  0.00000000000E+00 0. -1.
         13    1    4    4    0    0  0.99787516165E+01 -0.73004270589E+02 -0.11114730176E+02  0.74516684273E+02  0.00000000000E+00 0.  1.
         -1    1    1    2    0  502 -0.16640171709E+02  0.17600449114E+02  0.14938706472E+03  0.15133792066E+03  0.00000000000E+00 0.  1.
<scales pt_clust_5="13000.00000" pt_clust_6="13000.00000" pt_clust_7="13000.00000" pt_clust_8="13000.00000" pt_clust_9="24.22129"></scales>
<clustering>
<clus scale="   24.221">  1  9  2 -1</clus>
<clus scale="   81.491">  5  6 -1 -1</clus>
<clus scale="   90.604">  7  8 -1 -1</clus>
<clus scale="   92.075">  2  5  1 -1</clus>
<clus scale="   24.221">  1  5  2 -1</clus>
</clustering>
</event>
<event>
 9    1  0.6675710E-005  0.1304183E+03  0.7546771E-02  0.1229351E+00
          1   -1    0    0  502    0 -0.00000000000E+00  0.00000000000E+00  0.45834247502E+03  0.45834247502E+03  0.00000000000E+00 0. -1.
         21   -1    0    0  501  502  0.00000000000E+00 -0.00000000000E+00 -0.99062605734E+02  0.99062605734E+02  0.00000000000E+00 0.  1.
         23    2    1    2    0    0 -0.31052257473E+02  0.88700214800E+02  0.35567240521E+03  0.37882234837E+03  0.90396576262E+02 0.  0.
        -24    2    1    2    0    0 -0.13826756658E+02 -0.10276233897E+03 -0.11978911025E+01  0.13130736159E+03  0.80553775543E+02 0.  0.
         13    1    4    4    0    0 -0.37922950629E+01 -0.28239725626E+02  0.37213891480E+02  0.46869364454E+02  0.00000000000E+00 0. -1.
        -14    1    4    4    0    0 -0.10034461595E+02 -0.74522613340E+02 -0.38411782582E+02  0.84437997132E+02  0.00000000000E+00 0.  1.
        -11    1    3    3    0    0 -0.21761290566E+02  0.55180604023E+01  0.12718140278E+02  0.25802206298E+02  0.00000000000E+00 0.  1.
         11    1    3    3    0    0 -0.92909669070E+01  0.83182154398E+02  0.34295426493E+03  0.35302014207E+03  0.00000000000E+00 0. -1.
          2    1    1    2  501    0  0.44879014131E+02  0.14062124166E+02  0.48053551793E+01  0.47275370795E+02  0.00000000000E+00 0. -1.
<scales pt_clust_5="13000.00000" pt_clust_6="13000.00000" pt_clust_7="13000.00000" pt_clust_8="13000.00000" pt_clust_9="47.03051"></scales>
<clustering>
<clus scale="   47.031">  2  9  1 -1</clus>
<clus scale="   80.554">  5  6 -1 -1</clus>
<clus scale="   90.397">  7  8 -1 -1</clus>
<clus scale="  123.799">  2  5  1 -1</clus>
<clus scale="   47.031">  2  5  1 -1</clus>
</clustering>
</event>
<event>
 9    1  0.6675710E-005  0.1333491E+03  0.7546771E-02  0.1225892E+00
         21   -1    0    0  501  502  0.00000000000E+00  0.00000000000E+00  0.20604172927E+03  0.20604172927E+03  0.00000000000E+00 0.  1.
          1   -1    0    0  502    0 -0.00000000000E+00 -0.00000000000E+00 -0.16501954675E+03  0.16501954675E+03  0.00000000000E+00 0. -1.
         23    2    1    2    0    0  0.10404111430E+02 -0.86805676847E+02 -0.71622680053E+02  0.14619289377E+03  0.92731239745E+02 0.  0.
        -24    2    1    2    0    0 -0.43150628665E+02  0.11706168201E+03  0.71678878260E+02  0.16432111055E+03  0.79360894882E+02 0.  0.
         11    1    4    4    0    0  0.15279912995E+02  0.71987826602E+02  0.42378803527E+02  0.84921645700E+02  0.00000000000E+00 0. -1.
        -12    1    4    4    0    0 -0.58430541659E+02  0.45073855404E+02  0.29300074733E+02  0.79399464853E+02  0.00000000000E+00 0.  1.
        -11    1    3    3    0    0  0.48136215886E+02 -0.41032328477E+02 -0.56886541962E+02  0.85069535772E+02  0.00000000000E+00 0.  1.
         11    1    3    3    0    0 -0.37732104456E+02 -0.45773348371E+02 -0.14736138091E+02  0.61123358003E+02  0.00000000000E+00 0. -1.
          2    1    1    2  501    0  0.32746517234E+02 -0.30256005159E+02  0.40965984315E+02  0.60547271698E+02  0.00000000000E+00 0. -1.
<scales pt_clust_5="13000.00000" pt_clust_6="13000.00000" pt_clust_7="13000.00000" pt_clust_8="13000.00000" pt_clust_9="44.58430"></scales>
<clustering>
<clus scale="   44.584">  1  9  2 -1</clus>
<clus scale="   79.361">  5  6 -1 -1</clus>
<clus scale="   92.731">  7  8 -1 -1</clus>
<clus scale="  124.423">  1  5  2 -1</clus>
<clus scale="   44.584">  1  5  2 -1</clus>
</clustering>
</event>
<event>
 9    1  0.6675710E-005  0.1351402E+03  0.7546771E-02  0.1228710E+00
         21   -1    0    0  501  502  0.00000000000E+00  0.00000000000E+00  0.93494992738E+02  0.93494992738E+02  0.00000000000E+00 0. -1.
          1   -1    0    0  502    0 -0.00000000000E+00 -0.00000000000E+00 -0.37908701419E+03  0.37908701419E+03  0.00000000000E+00 0. -1.
         23    2    1    2    0    0 -0.59392414070E+02 -0.27895359996E+02 -0.11660834550E+03  0.16220756785E+03  0.91696122444E+02 0.  0.
        -24    2    1    2    0    0  0.33983585632E+02 -0.96434370802E+02 -0.60521325585E+02  0.14343860718E+03  0.80357521209E+02 0.  0.
         11    1    4    4    0    0  0.17785347218E+02 -0.57521290534E+02 -0.77378280636E+02  0.98042928121E+02  0.00000000000E+00 0. -1.
        -12    1    4    4    0    0  0.16198238414E+02 -0.38913080268E+02  0.16856955051E+02  0.45395679059E+02  0.00000000000E+00 0.  1.
        -11    1    3    3    0    0 -0.80250421415E+02 -0.17729648029E+02 -0.11138486884E+03  0.13842347909E+03  0.00000000000E+00 0. -1.
         11    1    3    3    0    0  0.20858007344E+02 -0.10165711967E+02 -0.52234766621E+01  0.23784088770E+02  0.00000000000E+00 0.  1.
          2    1    1    2  501    0  0.25408828438E+02  0.12432973080E+03 -0.10846235037E+03  0.16693583190E+03  0.00000000000E+00 0. -1.
<scales pt_clust_5="13000.00000" pt_clust_6="13000.00000" pt_clust_7="13000.00000" pt_clust_8="13000.00000" pt_clust_9="108.65341"></scales>
<clustering>
<clus scale="   80.358">  5  6 -1 -1</clus>
<clus scale="   91.696">  7  8 -1 -1</clus>
<clus scale="  112.755">  2  7  1 -1</clus>
<clus scale="  108.653">  1  9  2 -1</clus>
<clus scale="  108.653">  1  5  2 -1</clus>
</clustering>
</event>
<event>
 9    1  0.6675710E-005  0.2396718E+03  0.7546771E-02  0.1120732E+00
         -2   -1    0    0    0  501 -0.00000000000E+00  0.00000000000E+00  0.40918698730E+03  0.40918698730E+03  0.00000000000E+00 0.  1.
         21   -1    0    0  501  502  0.00000000000E+00 -0.00000000000E+00 -0.23321825423E+03  0.23321825423E+03  0.00000000000E+00 0.  1.
        -24    2    1    2    0    0  0.24698437307E+03 -0.52420627074E+02  0.23146246882E+03  0.35169600052E+03  0.79787214706E+02 0.  0.
         23    2    1    2    0    0 -0.15197512202E+03  0.28189351032E+02 -0.67446839863E+02  0.19193278013E+03  0.91640813269E+02 0.  0.
         13    1    3    3    0    0  0.21048770816E+02 -0.28038655263E+02  0.15987368230E+02  0.38533269843E+02  0.00000000000E+00 0. -1.
        -14    1    3    3    0    0  0.22593560225E+03 -0.24381971810E+02  0.21547510059E+03  0.31316273068E+03  0.00000000000E+00 0.  1.
        -11    1    4    4    0    0 -0.37077461169E+02  0.49720005952E+02 -0.31927626251E+02  0.69758085099E+02  0.00000000000E+00 0. -1.
         11    1    4    4    0    0 -0.11489766085E+03 -0.21530654921E+02 -0.35519213612E+02  0.12217469503E+03  0.00000000000E+00 0.  1.
         -1    1    1    2    0  502 -0.95009251047E+02  0.24231276042E+02  0.11953104119E+02  0.98776460866E+02  0.00000000000E+00 0.  1.
<scales pt_clust_5="13000.00000" pt_clust_6="13000.00000" pt_clust_7="13000.00000" pt_clust_8="13000.00000" pt_clust_9="98.05056"></scales>
<clustering>
<clus scale="   79.787">  5  6 -1 -1</clus>
<clus scale="   91.641">  7  8 -1 -1</clus>
<clus scale="   98.051">  2  9  1 -1</clus>
<clus scale="  235.394">  1  5  2 -1</clus>
<clus scale="   98.051">  2  5  1 -1</clus>
</clustering>
</event>
<event>
 9    1  0.6675710E-005  0.9455170E+02  0.7546771E-02  0.1303926E+00
         21   -1    0    0  501  502  0.00000000000E+00  0.00000000000E+00  0.56300637093E+02  0.56300637093E+02  0.00000000000E+00 0.  1.
         -2   -1    0    0    0  501 -0.00000000000E+00 -0.00000000000E+00 -0.56062313585E+03  0.56062313585E+03  0.00000000000E+00 0.  1.
        -24    2    1    2    0    0  0.21152782233E+02  0.71396765668E+01 -0.49013947257E+03  0.49602141809E+03  0.72815722602E+02 0.  0.
         23    2    1    2    0    0 -0.23995614814E+02  0.13528817559E+02 -0.52373821311E+00  0.95965544822E+02  0.91925475557E+02 0.  0.
         11    1    3    3    0    0 -0.28135211275E+01  0.21989756688E+02 -0.46787642934E+02  0.51774016955E+02  0.00000000000E+00 0. -1.
        -12    1    3    3    0    0  0.23966303361E+02 -0.14850080121E+02 -0.44335182964E+03  0.44424740114E+03  0.00000000000E+00 0.  1.
        -13    1    4    4    0    0  0.73604755982E+01  0.24880809520E+02 -0.37864497881E+02  0.45901541186E+02  0.00000000000E+00 0.  1.
         13    1    4    4    0    0 -0.31356090412E+02 -0.11351991961E+02  0.37340759668E+02  0.50064003636E+02  0.00000000000E+00 0. -1.
         -1    1    1    2    0  502  0.28428325806E+01 -0.20668494126E+02 -0.13659287975E+02  0.24936810031E+02  0.00000000000E+00 0.  1.
<scales pt_clust_5="13000.00000" pt_clust_6="13000.00000" pt_clust_7="13000.00000" pt_clust_8="13000.00000" pt_clust_9="20.86309"></scales>
<clustering>
<clus scale="   20.863">  1  9  2 -1</clus>
<clus scale="   72.816">  5  6 -1 -1</clus>
<clus scale="   76.104">  2  5  1 -1</clus>
<clus scale="   91.925">  7  8 -1 -1</clus>
<clus scale="   20.863">  1  5  2 -1</clus>
</clustering>
</event>
<event>
 9    1  0.6675710E-005  0.1052535E+03  0.7546771E-02  0.1273337E+00
         21   -1    0    0  501  502  0.00000000000E+00  0.00000000000E+00  0.30913521542E+03  0.30913521542E+03  0.00000000000E+00 0. -1.
          3   -1    0    0  502    0 -0.00000000000E+00 -0.00000000000E+00 -0.47348857496E+02  0.47348857496E+02  0.00000000000E+00 0. -1.
        -24    2    1    2    0    0 -0.13147123964E+02 -0.58445397469E+02  0.99636643521E+02  0.14215686288E+03  0.81807099808E+02 0.  0.
         23    2    1    2    0    0  0.37936058050E+02  0.35237596110E+02  0.13679875257E+03  0.17195074767E+03  0.90400930516E+02 0.  0.
         11    1    3    3    0    0 -0.43895522077E+02 -0.37039647962E+02  0.83541975691E+02  0.10138054094E+03  0.00000000000E+00 0. -1.
        -12    1    3    3    0    0  0.30748398113E+02 -0.21405749507E+02  0.16094667830E+02  0.40776321940E+02  0.00000000000E+00 0.  1.
        -13    1    4    4    0    0  0.56602842512E+02 -0.40837737370E+01  0.99875072512E+02  0.11487205534E+03  0.00000000000E+00 0. -1.
         13    1    4    4    0    0 -0.18666784462E+02  0.39321369847E+02  0.36923680057E+02  0.57078692327E+02  0.00000000000E+00 0.  1.
          4    1    1    2  501    0 -0.24788934086E+02  0.23207801359E+02  0.25350961836E+02  0.42376462371E+02  0.00000000000E+00 0. -1.
<scales pt_clust_5="13000.00000" pt_clust_6="13000.00000" pt_clust_7="13000.00000" pt_clust_8="13000.00000" pt_clust_9="33.95724"></scales>
<clustering>
<clus scale="   33.957">  1  9  2 -1</clus>
<clus scale="   81.807">  5  6 -1 -1</clus>
<clus scale="   90.401">  7  8 -1 -1</clus>
<clus scale="   97.971">  2  5  1 -1</clus>
<clus scale="   33.957">  1  5  2 -1</clus>
</clustering>
</event>
<event>
 9    1  0.6675710E-005  0.2525731E+03  0.7546771E-02  0.1127013E+00
          1   -1    0    0  502    0 -0.00000000000E+00  0.00000000000E+00  0.10565628525E+04  0.10565628525E+04  0.00000000000E+00 0. -1.
         21   -1    0    0  501  502  0.00000000000E+00 -0.00000000000E+00 -0.29263201546E+03  0.29263201546E+03  0.00000000000E+00 0. -1.
        -24    2    1    2    0    0 -0.13559272892E+03 -0.68900550148E+02  0.78278825811E+02  0.18905462441E+03  0.80507158032E+02 0.  0.
         23    2    1    2    0    0  0.34776392522E+03 -0.14182910113E+02  0.82003628129E+03  0.89560553899E+03  0.92243570030E+02 0.  0.
         13    1    3    3    0    0 -0.30168901051E+02  0.17894134722E+02  0.10572013667E+02  0.36635094118E+02  0.00000000000E+00 0. -1.
        -14    1    3    3    0    0 -0.10542382787E+03 -0.86794684870E+02  0.67706812144E+02  0.15241953030E+03  0.00000000000E+00 0.  1.
        -13    1    4    4    0    0  0.31201613043E+03 -0.29273863921E+02  0.77612134809E+03  0.83700380627E+03  0.00000000000E+00 0. -1.
         13    1    4    4    0    0  0.35747794792E+02  0.15090953808E+02  0.43914933205E+02  0.58601732719E+02  0.00000000000E+00 0.  1.
          2    1    1    2  501    0 -0.21217119630E+03  0.83083460261E+02 -0.13438427002E+03  0.26453470460E+03  0.00000000000E+00 0. -1.
<scales pt_clust_5="13000.00000" pt_clust_6="13000.00000" pt_clust_7="13000.00000" pt_clust_8="13000.00000" pt_clust_9="235.12614"></scales>
<clustering>
<clus scale="   80.507">  5  6 -1 -1</clus>
<clus scale="   92.244">  7  8 -1 -1</clus>
<clus scale="  172.087">  1  5  2 -1</clus>
<clus scale="  235.126">  2  9  1 -1</clus>
<clus scale="  235.126">  2  5  1 -1</clus>
</clustering>
</event>
<event>
 9    1  0.6675710E-005  0.9310912E+02  0.7546771E-02  0.1296272E+00
          3   -1    0    0  502    0 -0.00000000000E+00  0.00000000000E+00  0.16038217628E+03  0.16038217628E+03  0.00000000000E+00 0. -1.
         21   -1    0    0  501  502  0.00000000000E+00 -0.00000000000E+00 -0.18636893815E+03  0.18636893815E+03  0.00000000000E+00 0.  1.
         23    2    1    2    0    0 -0.17966504399E+02  0.20813283721E+02  0.69242579793E+02  0.11685694627E+03  0.90027901097E+02 0.  0.
        -24    2    1    2    0    0 -0.75786317163E+02 -0.18371283578E+02 -0.27325684527E+02  0.11410789277E+03  0.78694651833E+02 0.  0.
         11    1    4    4    0    0 -0.15353079004E+02  0.29315534844E+02 -0.14219974073E+02  0.36018401974E+02  0.00000000000E+00 0. -1.
        -12    1    4    4    0    0 -0.60433238160E+02 -0.47686818422E+02 -0.13105710454E+02  0.78089490792E+02  0.00000000000E+00 0.  1.
        -13    1    3    3    0    0 -0.14811597110E+00 -0.33564309299E+02  0.11285778307E+02  0.35411207111E+02  0.00000000000E+00 0.  1.
         13    1    3    3    0    0 -0.17818388427E+02  0.54377593020E+02  0.57956801486E+02  0.81445739160E+02  0.00000000000E+00 0. -1.
          4    1    1    2  501    0  0.93752821562E+02 -0.24420001425E+01 -0.67903657142E+02  0.11578627539E+03  0.00000000000E+00 0. -1.
<scales pt_clust_5="13000.00000" pt_clust_6="13000.00000" pt_clust_7="13000.00000" pt_clust_8="13000.00000" pt_clust_9="93.78462"></scales>
<clustering>
<clus scale="   78.695">  5  6 -1 -1</clus>
<clus scale="   90.028">  7  8 -1 -1</clus>
<clus scale="   93.785">  2  9  1 -1</clus>
<clus scale="   93.785">  2  5  1 -1</clus>
<clus scale="   93.109">  2  5  1 -1</clus>
</clustering>
</event>
<event>
 9    1  0.6675710E-005  0.1067928E+03  0.7546771E-02  0.1270276E+00
          1   -1    0    0  502    0 -0.00000000000E+00  0.00000000000E+00  0.56397202573E+03  0.56397202573E+03  0.00000000000E+00 0. -1.
         21   -1    0    0  501  502  0.00000000000E+00 -0.00000000000E+00 -0.25755503289E+02  0.25755503289E+02  0.00000000000E+00 0. -1.
         23    2    1    2    0    0 -0.33339133083E+02  0.35134510149E+02  0.21911554505E+03  0.24093341074E+03  0.87700369027E+02 0.  0.
        -24    2    1    2    0    0  0.56405951896E+02 -0.50793747495E+02  0.21729481898E+03  0.24323947019E+03  0.78655993464E+02 0.  0.
         11    1    4    4    0    0  0.22172092005E+02 -0.53835060897E+02  0.19181352316E+03  0.20045509001E+03  0.00000000000E+00 0. -1.
        -12    1    4    4    0    0  0.34233859891E+02  0.30413134018E+01  0.25481295823E+02  0.42784380176E+02  0.00000000000E+00 0.  1.
        -13    1    3    3    0    0 -0.59238768772E+02  0.42402218944E+02  0.16956223788E+03  0.18454953918E+03  0.00000000000E+00 0. -1.
         13    1    3    3    0    0  0.25899635689E+02 -0.72677087945E+01  0.49553307178E+02  0.56383871561E+02  0.00000000000E+00 0.  1.
          2    1    1    2  501    0 -0.23066818813E+02  0.15659237346E+02  0.10180615841E+03  0.10555464809E+03  0.00000000000E+00 0. -1.
<scales pt_clust_5="13000.00000" pt_clust_6="13000.00000" pt_clust_7="13000.00000" pt_clust_8="13000.00000" pt_clust_9="27.87993"></scales>
<clustering>
<clus scale="   27.880">  2  9  1 -1</clus>
<clus scale="   78.656">  5  6 -1 -1</clus>
<clus scale="   87.700">  7  8 -1 -1</clus>
<clus scale="   99.499">  2  5  1 -1</clus>
<clus scale="   27.880">  2  5  1 -1</clus>
</clustering>
</event>
<event>
 9    1  0.6675710E-005  0.1504658E+03  0.7546771E-02  0.1202196E+00
          1   -1    0    0  502    0 -0.00000000000E+00  0.00000000000E+00  0.92227104328E+03  0.92227104328E+03  0.00000000000E+00 0. -1.
         21   -1    0    0  501  502  0.00000000000E+00 -0.00000000000E+00 -0.52170302491E+02  0.52170302491E+02  0.00000000000E+00 0. -1.
        -24    2    1    2    0    0 -0.13116893515E+03 -0.26059641314E+02  0.59485619081E+03  0.61367451674E+03  0.69700289051E+02 0.  0.
         23    2    1    2    0    0  0.11268384695E+03 -0.12028493008E+02  0.28446729942E+03  0.31743712134E+03  0.83680030807E+02 0.  0.
         13    1    3    3    0    0 -0.10728519614E+03  0.49513592717E+00  0.51703783210E+03  0.52805158677E+03  0.00000000000E+00 0. -1.
        -14    1    3    3    0    0 -0.23883739009E+02 -0.26554777241E+02  0.77818358710E+02  0.85622929965E+02  0.00000000000E+00 0.  1.
        -11    1    4    4    0    0  0.62750338034E+02 -0.23191049859E+02  0.24158783909E+03  0.25067930452E+03  0.00000000000E+00 0. -1.
         11    1    4    4    0    0  0.49933508919E+02  0.11162556851E+02  0.42879460327E+02  0.66757816818E+02  0.00000000000E+00 0.  1.
          2    1    1    2  501    0  0.18485088199E+02  0.38088134321E+02 -0.92227494404E+01  0.43329707696E+02  0.00000000000E+00 0. -1.
<scales pt_clust_5="13000.00000" pt_clust_6="13000.00000" pt_clust_7="13000.00000" pt_clust_8="13000.00000" pt_clust_9="42.33680"></scales>
<clustering>
<clus scale="   42.337">  2  9  1 -1</clus>
<clus scale="   69.700">  5  6 -1 -1</clus>
<clus scale="   83.680">  7  8 -1 -1</clus>
<clus scale="  143.163">  1  5  2 -1</clus>
<clus scale="   42.337">  2  5  1 -1</clus>
</clustering>
</event>
<event>
 9    1  0.6675710E-005  0.1099802E+03  0.7546771E-02  0.1265475E+00
         21   -1    0    0  501  502  0.00000000000E+00  0.00000000000E+00  0.27515671625E+02  0.27515671625E+02  0.00000000000E+00 0.  1.
          1   -1    0    0  502    0 -0.00000000000E+00 -0.00000000000E+00 -0.49948106316E+03  0.49948106316E+03  0.00000000000E+00 0. -1.
         23    2    1    2    0    0  0.13091025079E+02  0.68518141411E+02 -0.28148513594E+03  0.30415113640E+03  0.91694718406E+02 0.  0.
        -24    2    1    2    0    0 -0.34318569485E+01 -0.49782221861E+02 -0.14475686858E+03  0.17249718897E+03  0.79439800753E+02 0.  0.
         11    1    4    4    0    0  0.23150992547E+02 -0.58515071507E+02 -0.78748684972E+02  0.10080345944E+03  0.00000000000E+00 0. -1.
        -12    1    4    4    0    0 -0.26582849496E+02  0.87328496465E+01 -0.66008183612E+02  0.71693729531E+02  0.00000000000E+00 0.  1.
        -11    1    3    3    0    0  0.17597769713E+02  0.90769707064E+02 -0.22947688197E+03  0.24740343688E+03  0.00000000000E+00 0. -1.
         11    1    3    3    0    0 -0.45067446338E+01 -0.22251565654E+02 -0.52008253963E+02  0.56747699526E+02  0.00000000000E+00 0.  1.
          2    1    1    2  501    0 -0.96591681303E+01 -0.18735919550E+02 -0.45723387015E+02  0.50348409414E+02  0.00000000000E+00 0. -1.
<scales pt_clust_5="13000.00000" pt_clust_6="13000.00000" pt_clust_7="13000.00000" pt_clust_8="13000.00000" pt_clust_9="21.07925"></scales>
<clustering>
<clus scale="   21.079">  1  9  2 -1</clus>
<clus scale="   79.440">  5  6 -1 -1</clus>
<clus scale="   91.695">  7  8 -1 -1</clus>
<clus scale="   99.992">  1  5  2 -1</clus>
<clus scale="   21.079">  1  5  2 -1</clus>
</clustering>
</event>
<event>
 9    1  0.6675710E-005  0.9139369E+02  0.7546771E-02  0.1309380E+00
         21   -1    0    0  501  502  0.00000000000E+00  0.00000000000E+00  0.14149023158E+03  0.14149023158E+03  0.00000000000E+00 0. -1.
          1   -1    0    0  502    0 -0.00000000000E+00 -0.00000000000E+00 -0.44618437062E+03  0.44618437062E+03  0.00000000000E+00 0. -1.
        -24    2    1    2    0    0  0.46391806265E+01 -0.18043889568E+01 -0.33911234110E+03  0.34746372499E+03  0.75558470608E+02 0.  0.
         23    2    1    2    0    0 -0.62066385779E+02 -0.42484076976E+02 -0.50745779516E+02  0.12835268186E+03  0.90786253148E+02 0.  0.
         13    1    3    3    0    0 -0.34387243745E+02  0.47675094224E+00 -0.11748679850E+03  0.12241673761E+03  0.00000000000E+00 0. -1.
        -14    1    3    3    0    0  0.39026424371E+02 -0.22811398990E+01 -0.22162554260E+03  0.22504698739E+03  0.00000000000E+00 0.  1.
        -11    1    4    4    0    0 -0.78556845393E+02 -0.22029889872E+02 -0.59143771957E+02  0.10076943866E+03  0.00000000000E+00 0. -1.
         11    1    4    4    0    0  0.16490459613E+02 -0.20454187104E+02  0.83979924415E+01  0.27583243199E+02  0.00000000000E+00 0.  1.
          2    1    1    2  501    0  0.57427205153E+02  0.44288465933E+02  0.85163981584E+02  0.11185819534E+03  0.00000000000E+00 0. -1.
<scales pt_clust_5="13000.00000" pt_clust_6="13000.00000" pt_clust_7="13000.00000" pt_clust_8="13000.00000" pt_clust_9="72.52139"></scales>
<clustering>
<clus scale="   72.521">  1  9  2 -1</clus>
<clus scale="   75.558">  5  6 -1 -1</clus>
<clus scale="   76.287">  2  5  1 -1</clus>
<clus scale="   90.786">  7  8 -1 -1</clus>
<clus scale="   72.521">  1  5  2 -1</clus>
</clustering>
</event>
<event>
 9    1  0.6675710E-005  0.9762062E+02  0.7546771E-02  0.1287488E+00
          1   -1    0    0  502    0 -0.00000000000E+00  0.00000000000E+00  0.30963820943E+03  0.30963820943E+03  0.00000000000E+00 0. -1.
         21   -1    0    0  501  502  0.00000000000E+00 -0.00000000000E+00 -0.11076228152E+03  0.11076228152E+03  0.00000000000E+00 0. -1.
         23    2    1    2    0    0 -0.41965914462E+02 -0.12740899296E+02  0.18269717327E+03  0.20906453817E+03  0.91685634128E+02 0.  0.
        -24    2    1    2    0    0  0.35279963647E+01 -0.72845670612E+02  0.35706841161E+02  0.11550338702E+03  0.82140826772E+02 0.  0.
         11    1    4    4    0    0  0.36687742251E+02 -0.25652267751E+02  0.36591357178E+02  0.57818307588E+02  0.00000000000E+00 0. -1.
        -12    1    4    4    0    0 -0.33159745886E+02 -0.47193402862E+02 -0.88451601689E+00  0.57685079435E+02  0.00000000000E+00 0.  1.
        -13    1    3    3    0    0  0.15700757704E+01  0.22359770719E+02  0.13100894832E+03  0.13291263681E+03  0.00000000000E+00 0.  1.
         13    1    3    3    0    0 -0.43535990232E+02 -0.35100670016E+02  0.51688224952E+02  0.76151901354E+02  0.00000000000E+00 0. -1.
          2    1    1    2  501    0  0.38437918097E+02  0.85586569909E+02 -0.19528086527E+02  0.95832565758E+02  0.00000000000E+00 0. -1.
<scales pt_clust_5="13000.00000" pt_clust_6="13000.00000" pt_clust_7="13000.00000" pt_clust_8="13000.00000" pt_clust_9="93.82182"></scales>
<clustering>
<clus scale="   82.141">  5  6 -1 -1</clus>
<clus scale="   91.686">  7  8 -1 -1</clus>
<clus scale="   93.822">  2  9  1 -1</clus>
<clus scale="   93.822">  2  5  1 -1</clus>
<clus scale="   93.822">  2  5  1 -1</clus>
</clustering>
</event>
<event>
 9    1  0.6675710E-005  0.1275801E+03  0.7546771E-02  0.1236662E+00
         21   -1    0    0  501  502  0.00000000000E+00  0.00000000000E+00  0.56914706180E+02  0.56914706180E+02  0.00000000000E+00 0. -1.
         -2   -1    0    0    0  501 -0.00000000000E+00 -0.00000000000E+00 -0.44563042426E+03  0.44563042426E+03  0.00000000000E+00 0.  1.
        -24    2    1    2    0    0 -0.34471864612E+02  0.72890246954E+02 -0.30626177759E+03  0.32690042608E+03  0.81032799591E+02 0.  0.
         23    2    1    2    0    0  0.11640188102E+02 -0.79304222879E+02 -0.82252844766E+02  0.15192836023E+03  0.99458747347E+02 0.  0.
         11    1    3    3    0    0 -0.12018225236E+02 -0.17225517649E+02 -0.68358131405E+02  0.71512169071E+02  0.00000000000E+00 0. -1.
        -12    1    3    3    0    0 -0.22453639376E+02  0.90115764603E+02 -0.23790364618E+03  0.25538825701E+03  0.00000000000E+00 0.  1.
        -13    1    4    4    0    0 -0.11423536668E+02  0.19167061325E+02 -0.31957588647E+02  0.38976414688E+02  0.00000000000E+00 0.  1.
         13    1    4    4    0    0  0.23063724771E+02 -0.98471284204E+02 -0.50295256119E+02  0.11295194554E+03  0.00000000000E+00 0. -1.
         -1    1    1    2    0  502  0.22831676510E+02  0.64139759256E+01 -0.20109572415E+00  0.23716344130E+02  0.00000000000E+00 0.  1.
<scales pt_clust_5="13000.00000" pt_clust_6="13000.00000" pt_clust_7="13000.00000" pt_clust_8="13000.00000" pt_clust_9="23.71549"></scales>
<clustering>
<clus scale="   23.715">  1  9  2 -1</clus>
<clus scale="   81.033">  5  6 -1 -1</clus>
<clus scale="   99.459">  7  8 -1 -1</clus>
<clus scale="  113.802">  2  5  1 -1</clus>
<clus scale="   23.715">  1  5  2 -1</clus>
</clustering>
</event>
<event>
 9    1  0.6675710E-005  0.1063906E+03  0.7546771E-02  0.1275401E+00
         21   -1    0    0  501  502  0.00000000000E+00  0.00000000000E+00  0.10070242871E+03  0.10070242871E+03  0.00000000000E+00 0. -1.
          1   -1    0    0  502    0 -0.00000000000E+00 -0.00000000000E+00 -0.19886230481E+03  0.19886230481E+03  0.00000000000E+00 0. -1.
        -24    2    1    2    0    0 -0.43958706668E+02  0.25708326701E+02 -0.11864940514E+03  0.15117372990E+03  0.78629061546E+02 0.  0.
         23    2    1    2    0    0  0.39797572270E+02  0.15868100183E+02  0.11226945604E+02  0.10559252511E+03  0.95854544434E+02 0.  0.
         11    1    3    3    0    0 -0.55138698471E+02  0.44821903891E+02 -0.83640524925E+02  0.10974979065E+03  0.00000000000E+00 0. -1.
        -12    1    3    3    0    0  0.11179991803E+02 -0.19113577190E+02 -0.35008880210E+02  0.41423939253E+02  0.00000000000E+00 0.  1.
        -11    1    4    4    0    0  0.47013578970E+02  0.49798445441E+02  0.16655968288E+02  0.70481082963E+02  0.00000000000E+00 0. -1.
         11    1    4    4    0    0 -0.72160067000E+01 -0.33930345259E+02 -0.54290226843E+01  0.35111442143E+02  0.00000000000E+00 0.  1.
          2    1    1    2  501    0  0.41611343979E+01 -0.41576426884E+02  0.92625834299E+01  0.42798478521E+02  0.00000000000E+00 0. -1.
<scales pt_clust_5="13000.00000" pt_clust_6="13000.00000" pt_clust_7="13000.00000" pt_clust_8="13000.00000" pt_clust_9="41.78414"></scales>
<clustering>
<clus scale="   41.784">  1  9  2 -1</clus>
<clus scale="   78.629">  5  6 -1 -1</clus>
<clus scale="   91.178">  2  5  1 -1</clus>
<clus scale="   95.855">  7  8 -1 -1</clus>
<clus scale="   41.784">  1  5  2 -1</clus>
</clustering>
</event>
<event>
 9    1  0.6675710E-005  0.2802417E+03  0.7546771E-02  0.1141879E+00
         -4   -1    0    0    0  501 -0.00000000000E+00  0.00000000000E+00  0.52174019469E+03  0.52174019469E+03  0.00000000000E+00 0.  1.
         21   -1    0    0  501  502  0.00000000000E+00 -0.00000000000E+00 -0.30570771683E+03  0.30570771683E+03  0.00000000000E+00 0. -1.
        -24    2    1    2    0    0 -0.32304487625E+02 -0.67542924703E+01  0.21166288967E+03  0.22911288986E+03  0.81254766302E+02 0.  0.
         23    2    1    2    0    0 -0.22308018731E+03 -0.12371205046E+03 -0.10595552717E+03  0.29106570997E+03  0.91778169396E+02 0.  0.
         11    1    3    3    0    0 -0.31206639633E+02 -0.40500904423E+02  0.97928705169E+02  0.11047266138E+03  0.00000000000E+00 0. -1.
        -12    1    3    3    0    0 -0.10978479921E+01  0.33746611953E+02  0.11373418450E+03  0.11864022848E+03  0.00000000000E+00 0.  1.
        -13    1    4    4    0    0 -0.18583724092E+03 -0.95548462041E+02 -0.12166590414E+03  0.24180070501E+03  0.00000000000E+00 0. -1.
         13    1    4    4    0    0 -0.37242946394E+02 -0.28163588422E+02  0.15710376971E+02  0.49265004958E+02  0.00000000000E+00 0.  1.
         -3    1    1    2    0  502  0.25538467494E+03  0.13046634293E+03  0.11032511536E+03  0.30726931170E+03  0.00000000000E+00 0.  1.
<scales pt_clust_5="13000.00000" pt_clust_6="13000.00000" pt_clust_7="13000.00000" pt_clust_8="13000.00000" pt_clust_9="264.78713"></scales>
<clustering>
<clus scale="   81.255">  5  6 -1 -1</clus>
<clus scale="   87.701">  1  5  2 -1</clus>
<clus scale="   91.778">  7  8 -1 -1</clus>
<clus scale="  264.787">  2  9  1 -1</clus>
<clus scale="  264.787">  2  5  1 -1</clus>
</clustering>
</event>
<event>
 9    1  0.6675710E-005  0.9537833E+02  0.7546771E-02  0.1295617E+00
         21   -1    0    0  501  502  0.00000000000E+00  0.00000000000E+00  0.16400744765E+03  0.16400744765E+03  0.00000000000E+00 0.  1.
         -2   -1    0    0    0  501 -0.00000000000E+00 -0.00000000000E+00 -0.13493017394E+03  0.13493017394E+03  0.00000000000E+00 0.  1.
        -24    2    1    2    0    0  0.39388014806E+01  0.33574754568E+02 -0.73668886032E+02  0.11407663738E+03  0.80272013342E+02 0.  0.
         23    2    1    2    0    0  0.16555312824E+02 -0.27465017346E+02  0.17520168893E+02  0.96992860714E+02  0.89845718601E+02 0.  0.
         11    1    3    3    0    0 -0.53895264859E+01 -0.25655769806E+02 -0.30351854443E+02  0.40106116593E+02  0.00000000000E+00 0. -1.
        -12    1    3    3    0    0  0.93283279665E+01  0.59230524373E+02 -0.43317031589E+02  0.73970520790E+02  0.00000000000E+00 0.  1.
        -11    1    4    4    0    0  0.53229289900E+01 -0.60330499828E+02  0.13273014419E+02  0.62002223302E+02  0.00000000000E+00 0.  1.
         11    1    4    4    0    0  0.11232383834E+02  0.32865482482E+02  0.42471544735E+01  0.34990637412E+02  0.00000000000E+00 0. -1.
         -1    1    1    2    0  502 -0.20494114304E+02 -0.61097372215E+01  0.85225990854E+02  0.87868123498E+02  0.00000000000E+00 0.  1.
<scales pt_clust_5="13000.00000" pt_clust_6="13000.00000" pt_clust_7="13000.00000" pt_clust_8="13000.00000" pt_clust_9="21.38545"></scales>
<clustering>
<clus scale="   21.385">  1  9  2 -1</clus>
<clus scale="   80.272">  5  6 -1 -1</clus>
<clus scale="   86.420">  2  5  1 -1</clus>
<clus scale="   89.846">  7  8 -1 -1</clus>
<clus scale="   21.385">  1  5  2 -1</clus>
</clustering>
</event>
<event>
 9    1  0.6675710E-005  0.9507637E+02  0.7546771E-02  0.1295730E+00
         21   -1    0    0  501  502  0.00000000000E+00  0.00000000000E+00  0.69781821409E+02  0.69781821409E+02  0.00000000000E+00 0. -1.
         -2   -1    0    0    0  501 -0.00000000000E+00 -0.00000000000E+00 -0.17574950140E+03  0.17574950140E+03  0.00000000000E+00 0.  1.
        -24    2    1    2    0    0 -0.38124978380E+02 -0.83089641856E+01 -0.44884158019E+02  0.10005694766E+03  0.80462738411E+02 0.  0.
         23    2    1    2    0    0  0.13015760482E+02  0.33881133275E+02 -0.43805280860E+02  0.10568811783E+03  0.89071512874E+02 0.  0.
         13    1    3    3    0    0 -0.13756793598E+02  0.32540411952E+02 -0.10048102074E+01  0.35343138282E+02  0.00000000000E+00 0. -1.
        -14    1    3    3    0    0 -0.24368184781E+02 -0.40849376137E+02 -0.43879347812E+02  0.64713809382E+02  0.00000000000E+00 0.  1.
        -13    1    4    4    0    0  0.20631264181E+02 -0.12283432099E+01  0.22328878147E+02  0.30425921318E+02  0.00000000000E+00 0. -1.
         13    1    4    4    0    0 -0.76155036985E+01  0.35109476485E+02 -0.66134159008E+02  0.75262196509E+02  0.00000000000E+00 0.  1.
         -1    1    1    2    0  502  0.25109217898E+02 -0.25572169089E+02 -0.17278241110E+02  0.39786257316E+02  0.00000000000E+00 0.  1.
<scales pt_clust_5="13000.00000" pt_clust_6="13000.00000" pt_clust_7="13000.00000" pt_clust_8="13000.00000" pt_clust_9="35.83867"></scales>
<clustering>
<clus scale="   35.839">  1  9  2 -1</clus>
<clus scale="   80.463">  5  6 -1 -1</clus>
<clus scale="   87.063">  2  5  1 -1</clus>
<clus scale="   89.072">  7  8 -1 -1</clus>
<clus scale="   35.839">  1  5  2 -1</clus>
</clustering>
</event>
<event>
 9    1  0.6675710E-005  0.1123921E+03  0.7546771E-02  0.1259253E+00
         21   -1    0    0  501  502  0.00000000000E+00  0.00000000000E+00  0.86598126887E+02  0.86598126887E+02  0.00000000000E+00 0.  1.
         -4   -1    0    0    0  501 -0.00000000000E+00 -0.00000000000E+00 -0.71765732850E+03  0.71765732850E+03  0.00000000000E+00 0.  1.
         23    2    1    2    0    0  0.59351254994E+02  0.65356118955E+02 -0.56082676790E+03  0.57474795066E+03  0.89524015986E+02 0.  0.
        -24    2    1    2    0    0 -0.10707899802E+02 -0.27437432084E+02 -0.12168466651E+03  0.14918730131E+03  0.81130888156E+02 0.  0.
         11    1    4    4    0    0  0.17186602136E+02 -0.48009661760E+02 -0.81297371208E+02  0.95966501868E+02  0.00000000000E+00 0. -1.
        -12    1    4    4    0    0 -0.27894501938E+02  0.20572229676E+02 -0.40387295298E+02  0.53220799447E+02  0.00000000000E+00 0.  1.
        -13    1    3    3    0    0  0.95700936162E+00 -0.20744863563E+02 -0.69936195676E+02  0.72954346662E+02  0.00000000000E+00 0. -1.
         13    1    3    3    0    0  0.58394245632E+02  0.86100982518E+02 -0.49089057222E+03  0.50179360399E+03  0.00000000000E+00 0.  1.
         -3    1    1    2    0  502 -0.48643355192E+02 -0.37918686871E+02  0.51452232789E+02  0.80320203419E+02  0.00000000000E+00 0.  1.
<scales pt_clust_5="13000.00000" pt_clust_6="13000.00000" pt_clust_7="13000.00000" pt_clust_8="13000.00000" pt_clust_9="61.67660"></scales>
<clustering>
<clus scale="   61.677">  1  9  2 -1</clus>
<clus scale="   81.131">  5  6 -1 -1</clus>
<clus scale="   89.524">  7  8 -1 -1</clus>
<clus scale="  105.828">  1  5  2 -1</clus>
<clus scale="   61.677">  1  5  2 -1</clus>
</clustering>
</event>
<event>
 9    1  0.6675710E-005  0.1091331E+03  0.7546771E-02  0.1268362E+00
         21   -1    0    0  501  502  0.00000000000E+00  0.00000000000E+00  0.68494373342E+03  0.68494373342E+03  0.00000000000E+00 0. -1.
          1   -1    0    0  502    0 -0.00000000000E+00 -0.00000000000E+00 -0.38659762993E+02  0.38659762993E+02  0.00000000000E+00 0. -1.
        -24    2    1    2    0    0  0.45959996406E+02 -0.79015571175E+01  0.21623660391E+03  0.23551741446E+03  0.80841992601E+02 0.  0.
         23    2    1    2    0    0 -0.67383169159E+02 -0.16987437276E+02  0.43857328521E+03  0.45415813385E+03  0.95310122911E+02 0.  0.
         11    1    3    3    0    0  0.56093137699E+02 -0.56488449683E+01  0.74629121627E+02  0.93529970283E+02  0.00000000000E+00 0. -1.
        -12    1    3    3    0    0 -0.10133141293E+02 -0.22527121492E+01  0.14160748229E+03  0.14198744418E+03  0.00000000000E+00 0.  1.
        -11    1    4    4    0    0  0.14768554210E+02 -0.29679177786E+02  0.16225717530E+03  0.16560904179E+03  0.00000000000E+00 0.  1.
         11    1    4    4    0    0 -0.82151723368E+02  0.12691740510E+02  0.27631610991E+03  0.28854909206E+03  0.00000000000E+00 0. -1.
          2    1    1    2  501    0  0.21423172753E+02  0.24888994393E+02 -0.85259186991E+01  0.33927948102E+02  0.00000000000E+00 0. -1.
<scales pt_clust_5="13000.00000" pt_clust_6="13000.00000" pt_clust_7="13000.00000" pt_clust_8="13000.00000" pt_clust_9="32.83924"></scales>
<clustering>
<clus scale="   32.839">  1  9  2 -1</clus>
<clus scale="   80.842">  5  6 -1 -1</clus>
<clus scale="   95.310">  7  8 -1 -1</clus>
<clus scale="   96.755">  2  5  1 -1</clus>
<clus scale="   32.839">  1  5  2 -1</clus>
</clustering>
</event>
<event>
 9    1  0.6675710E-005  0.1242532E+03  0.7546771E-02  0.1239104E+00
          1   -1    0    0  502    0 -0.00000000000E+00  0.00000000000E+00  0.13961367126E+03  0.13961367126E+03  0.00000000000E+00 0. -1.
         21   -1    0    0  501  502  0.00000000000E+00 -0.00000000000E+00 -0.53264092256E+03  0.53264092256E+03  0.00000000000E+00 0.  1.
        -24    2    1    2    0    0 -0.76540818294E+02 -0.32876911100E+02  0.98985730917E+02  0.15281742961E+03  0.81336361612E+02 0.  0.
         23    2    1    2    0    0  0.99267718057E+02  0.30665614037E+02 -0.45847393076E+03  0.47886291398E+03  0.91196959781E+02 0.  0.
         11    1    3    3    0    0 -0.68836001761E+02 -0.44553278394E+01  0.10208700858E+03  0.12320715241E+03  0.00000000000E+00 0. -1.
        -12    1    3    3    0    0 -0.77048165323E+01 -0.28421583260E+02 -0.31012776636E+01  0.29610277202E+02  0.00000000000E+00 0.  1.
        -13    1    4    4    0    0  0.83337201404E+02  0.60779523422E+02 -0.31767231650E+03  0.33399841358E+03  0.00000000000E+00 0.  1.
         13    1    4    4    0    0  0.15930516653E+02 -0.30113909385E+02 -0.14080161426E+03  0.14486450040E+03  0.00000000000E+00 0. -1.
          2    1    1    2  501    0 -0.22726899763E+02  0.22112970628E+01 -0.33539051460E+02  0.40574250213E+02  0.00000000000E+00 0. -1.
<scales pt_clust_5="13000.00000" pt_clust_6="13000.00000" pt_clust_7="13000.00000" pt_clust_8="13000.00000" pt_clust_9="22.83422"></scales>
<clustering>
<clus scale="   22.834">  2  9  1 -1</clus>
<clus scale="   81.336">  5  6 -1 -1</clus>
<clus scale="   91.197">  7  8 -1 -1</clus>
<clus scale="  117.207">  1  5  2 -1</clus>
<clus scale="   22.834">  2  5  1 -1</clus>
</clustering>
</event>
<event>
 9    1  0.6675710E-005  0.1770025E+03  0.7546771E-02  0.1172682E+00
         -4   -1    0    0    0  501 -0.00000000000E+00  0.00000000000E+00  0.51569816698E+03  0.51569816698E+03  0.00000000000E+00 0.  1.
         21   -1    0    0  501  502  0.00000000000E+00 -0.00000000000E+00 -0.11287021751E+03  0.11287021751E+03  0.00000000000E+00 0. -1.
        -24    2    1    2    0    0  0.75805692180E+02 -0.11626454729E+03  0.15353523266E+03  0.22199168168E+03  0.80270113629E+02 0.  0.
         23    2    1    2    0    0 -0.16688903478E+03  0.78419716375E+02  0.10735628921E+03  0.23373470557E+03  0.95419798310E+02 0.  0.
         13    1    3    3    0    0  0.99245655680E+01 -0.20658925563E+02  0.83073366475E+02  0.86176983149E+02  0.00000000000E+00 0. -1.
        -14    1    3    3    0    0  0.65881126612E+02 -0.95605621732E+02  0.70461866183E+02  0.13581469853E+03  0.00000000000E+00 0.  1.
        -13    1    4    4    0    0 -0.37655851574E+02  0.14503197421E+01 -0.14271057126E+02  0.40295528991E+02  0.00000000000E+00 0.  1.
         13    1    4    4    0    0 -0.12923318321E+03  0.76969396633E+02  0.12162734634E+03  0.19343917658E+03  0.00000000000E+00 0. -1.
         -3    1    1    2    0  502  0.91083342601E+02  0.37844830920E+02  0.14193642760E+03  0.17284199723E+03  0.00000000000E+00 0.  1.
<scales pt_clust_5="13000.00000" pt_clust_6="13000.00000" pt_clust_7="13000.00000" pt_clust_8="13000.00000" pt_clust_9="98.63273"></scales>
<clustering>
<clus scale="   80.270">  5  6 -1 -1</clus>
<clus scale="   95.420">  7  8 -1 -1</clus>
<clus scale="   98.633">  2  9  1 -1</clus>
<clus scale="  169.317">  1  5  2 -1</clus>
<clus scale="   98.633">  2  5  1 -1</clus>
</clustering>
</event>
<event>
 9    1  0.6675710E-005  0.1047495E+03  0.7546771E-02  0.1280472E+00
         21   -1    0    0  501  502  0.00000000000E+00  0.00000000000E+00  0.59451572912E+03  0.59451572912E+03  0.00000000000E+00 0.  1.
         -4   -1    0    0    0  501 -0.00000000000E+00 -0.00000000000E+00 -0.29119114941E+03  0.29119114941E+03  0.00000000000E+00 0.  1.
        -24    2    1    2    0    0  0.24618456853E+02 -0.49543449699E+02 -0.25982815061E+03  0.27485473735E+03  0.70525434890E+02 0.  0.
         23    2    1    2    0    0  0.18150036371E+02 -0.11456186124E+02  0.85016713246E+02  0.12694703643E+03  0.91798913423E+02 0.  0.
         11    1    3    3    0    0  0.28552842435E+02 -0.14794245130E+02 -0.35836966705E+02  0.48150001897E+02  0.00000000000E+00 0. -1.
        -12    1    3    3    0    0 -0.39343855816E+01 -0.34749204569E+02 -0.22399118390E+03  0.22670473545E+03  0.00000000000E+00 0.  1.
        -13    1    4    4    0    0 -0.10161434566E+02 -0.41522950841E+02  0.71841715845E+02  0.83598100065E+02  0.00000000000E+00 0.  1.
         13    1    4    4    0    0  0.28311470937E+02  0.30066764718E+02  0.13174997401E+02  0.43348936362E+02  0.00000000000E+00 0. -1.
         -3    1    1    2    0  502 -0.42768493224E+02  0.60999635823E+02  0.47813601707E+03  0.48390510475E+03  0.00000000000E+00 0.  1.
<scales pt_clust_5="13000.00000" pt_clust_6="13000.00000" pt_clust_7="13000.00000" pt_clust_8="13000.00000" pt_clust_9="74.49899"></scales>
<clustering>
<clus scale="   70.525">  5  6 -1 -1</clus>
<clus scale="   74.499">  1  9  2 -1</clus>
<clus scale="   86.714">  2  5  1 -1</clus>
<clus scale="   91.799">  7  8 -1 -1</clus>
<clus scale="   74.499">  1  5  2 -1</clus>
</clustering>
</event>
<event>
 9    1  0.6675710E-005  0.2718404E+03  0.7546771E-02  0.1100619E+00
         21   -1    0    0  501  502  0.00000000000E+00  0.00000000000E+00  0.10074369912E+04  0.10074369912E+04  0.00000000000E+00 0.  1.
          1   -1    0    0  502    0 -0.00000000000E+00 -0.00000000000E+00 -0.27034747420E+03  0.27034747420E+03  0.00000000000E+00 0. -1.
        -24    2    1    2    0    0  0.21753798980E+03  0.14144143188E+03 -0.94702003112E+02  0.28778264576E+03  0.80758443211E+02 0.  0.
         23    2    1    2    0    0 -0.25434448595E+03 -0.30489643697E+02  0.82986152482E+03  0.87308842289E+03  0.89400827193E+02 0.  0.
         11    1    3    3    0    0  0.11945047157E+03  0.90271165951E+02 -0.94682962180E+02  0.17715011117E+03  0.00000000000E+00 0. -1.
        -12    1    3    3    0    0  0.98087518229E+02  0.51170265925E+02 -0.19040932670E-01  0.11063253459E+03  0.00000000000E+00 0.  1.
        -11    1    4    4    0    0 -0.76575033429E+02 -0.35063798862E+02  0.17048657674E+03  0.19015488051E+03  0.00000000000E+00 0. -1.
         11    1    4    4    0    0 -0.17776945252E+03  0.45741551646E+01  0.65937494809E+03  0.68293354238E+03  0.00000000000E+00 0.  1.
          2    1    1    2  501    0  0.36806496146E+02 -0.11095178818E+03  0.19299952895E+01  0.11691339675E+03  0.00000000000E+00 0. -1.
<scales pt_clust_5="13000.00000" pt_clust_6="13000.00000" pt_clust_7="13000.00000" pt_clust_8="13000.00000" pt_clust_9="116.89752"></scales>
<clustering>
<clus scale="   80.758">  5  6 -1 -1</clus>
<clus scale="   89.401">  7  8 -1 -1</clus>
<clus scale="  116.898">  1  9  2 -1</clus>
<clus scale="  269.122">  2  5  1 -1</clus>
<clus scale="  116.898">  1  5  2 -1</clus>
</clustering>
</event>
<event>
 9    1  0.6675710E-005  0.1041720E+03  0.7546771E-02  0.1276127E+00
          3   -1    0    0  502    0 -0.00000000000E+00  0.00000000000E+00  0.39256478240E+03  0.39256478240E+03  0.00000000000E+00 0. -1.
         21   -1    0    0  501  502  0.00000000000E+00 -0.00000000000E+00 -0.43857780580E+02  0.43857780580E+02  0.00000000000E+00 0. -1.
         23    2    1    2    0    0 -0.20413558516E+02 -0.56478250915E+02  0.27554338464E+03  0.29642182400E+03  0.91297506696E+02 0.  0.
        -24    2    1    2    0    0  0.14346347035E+02  0.25647908844E+02  0.62173013437E+02  0.10671238639E+03  0.81599123203E+02 0.  0.
         11    1    4    4    0    0  0.33283712580E+02 -0.18475954135E+02  0.34003608040E+02  0.51043234263E+02  0.00000000000E+00 0. -1.
        -12    1    4    4    0    0 -0.18937365544E+02  0.44123862979E+02  0.28169405397E+02  0.55669152126E+02  0.00000000000E+00 0.  1.
        -13    1    3    3    0    0  0.34664490592E+02 -0.27478521977E+02  0.82779301491E+02  0.93856852885E+02  0.00000000000E+00 0.  1.
         13    1    3    3    0    0 -0.55078049108E+02 -0.28999728938E+02  0.19276408315E+03  0.20256497112E+03  0.00000000000E+00 0. -1.
          4    1    1    2  501    0  0.60672114809E+01  0.30830342071E+02  0.10990603744E+02  0.33288352588E+02  0.00000000000E+00 0. -1.
<scales pt_clust_5="13000.00000" pt_clust_6="13000.00000" pt_clust_7="13000.00000" pt_clust_8="13000.00000" pt_clust_9="31.42167"></scales>
<clustering>
<clus scale="   31.422">  2  9  1 -1</clus>
<clus scale="   81.599">  5  6 -1 -1</clus>
<clus scale="   91.298">  7  8 -1 -1</clus>
<clus scale="   95.786">  2  5  1 -1</clus>
<clus scale="   31.422">  2  5  1 -1</clus>
</clustering>
</event>
<event>
 9    1  0.6675710E-005  0.3335206E+03  0.7546771E-02  0.1069865E+00
         21   -1    0    0  501  502  0.00000000000E+00  0.00000000000E+00  0.55111142910E+03  0.55111142910E+03  0.00000000000E+00 0. -1.
          1   -1    0    0  502    0 -0.00000000000E+00 -0.00000000000E+00 -0.37040979008E+03  0.37040979008E+03  0.00000000000E+00 0. -1.
         23    2    1    2    0    0  0.32172599169E+03 -0.17043144486E+03  0.13549294449E+03  0.39899240516E+03  0.91006100017E+02 0.  0.
        -24    2    1    2    0    0 -0.23047681160E+03  0.15544665046E+03  0.19309512316E+03  0.34811163396E+03  0.81318886390E+02 0.  0.
         11    1    4    4    0    0 -0.15074770232E+03  0.14054546471E+03  0.15818427521E+03  0.25980793353E+03  0.00000000000E+00 0. -1.
        -12    1    4    4    0    0 -0.79729109284E+02  0.14901185753E+02  0.34910847950E+02  0.88303700424E+02  0.00000000000E+00 0.  1.
        -11    1    3    3    0    0  0.52775946326E+02 -0.62256601098E+02  0.70431178728E+01  0.81919414062E+02  0.00000000000E+00 0.  1.
         11    1    3    3    0    0  0.26895004537E+03 -0.10817484377E+03  0.12844982661E+03  0.31707299110E+03  0.00000000000E+00 0. -1.
          2    1    1    2  501    0 -0.91249180088E+02  0.14984794404E+02 -0.14788642862E+03  0.17441718006E+03  0.00000000000E+00 0. -1.
<scales pt_clust_5="13000.00000" pt_clust_6="13000.00000" pt_clust_7="13000.00000" pt_clust_8="13000.00000" pt_clust_9="92.47143"></scales>
<clustering>
<clus scale="   81.319">  5  6 -1 -1</clus>
<clus scale="   91.006">  7  8 -1 -1</clus>
<clus scale="   92.471">  1  9  2 -1</clus>
<clus scale="  331.009">  1  5  2 -1</clus>
<clus scale="   92.471">  1  5  2 -1</clus>
</clustering>
</event>
<event>
 9    1  0.6675710E-005  0.1005764E+03  0.7546771E-02  0.1283588E+00
         21   -1    0    0  501  502  0.00000000000E+00  0.00000000000E+00  0.94846093086E+02  0.94846093086E+02  0.00000000000E+00 0.  1.
          1   -1    0    0  502    0 -0.00000000000E+00 -0.00000000000E+00 -0.22268589337E+03  0.22268589337E+03  0.00000000000E+00 0. -1.
        -24    2    1    2    0    0 -0.50534245202E+02 -0.99491379702E+01 -0.15285136554E+03  0.18037546779E+03  0.80740783678E+02 0.  0.
         23    2    1    2    0    0  0.13375395711E+02 -0.15565837305E+01  0.34078116804E+02  0.97214509643E+02  0.90044537185E+02 0.  0.
         13    1    3    3    0    0 -0.37220066737E+02 -0.11105812347E+02 -0.16039369216E+03  0.16502972133E+03  0.00000000000E+00 0. -1.
        -14    1    3    3    0    0 -0.13314178465E+02  0.11566743766E+01  0.75423266190E+01  0.15345746467E+02  0.00000000000E+00 0.  1.
        -13    1    4    4    0    0  0.27734810747E+02  0.19799599053E+02  0.54557553570E+02  0.64325504284E+02  0.00000000000E+00 0.  1.
         13    1    4    4    0    0 -0.14359415036E+02 -0.21356182784E+02 -0.20479436766E+02  0.32889005359E+02  0.00000000000E+00 0. -1.
          2    1    1    2  501    0  0.37158849491E+02  0.11505721701E+02 -0.90665515417E+01  0.39942009016E+02  0.00000000000E+00 0. -1.
<scales pt_clust_5="13000.00000" pt_clust_6="13000.00000" pt_clust_7="13000.00000" pt_clust_8="13000.00000" pt_clust_9="38.89938"></scales>
<clustering>
<clus scale="   38.899">  1  9  2 -1</clus>
<clus scale="   80.741">  5  6 -1 -1</clus>
<clus scale="   90.045">  7  8 -1 -1</clus>
<clus scale="   92.340">  2  5  1 -1</clus>
<clus scale="   38.899">  1  5  2 -1</clus>
</clustering>
</event>
<event>
 9    1  0.6675710E-005  0.1189124E+03  0.7546771E-02  0.1247561E+00
         21   -1    0    0  501  502  0.00000000000E+00  0.00000000000E+00  0.51844078980E+02  0.51844078980E+02  0.00000000000E+00 0. -1.
          1   -1    0    0  502    0 -0.00000000000E+00 -0.00000000000E+00 -0.63184583577E+03  0.63184583577E+03  0.00000000000E+00 0. -1.
        -24    2    1    2    0    0  0.37760544135E+02  0.45238107784E+02 -0.11886430898E+03  0.15456774356E+03  0.79310266111E+02 0.  0.
         23    2    1    2    0    0 -0.12497144843E+03 -0.13646550331E+02 -0.20031237724E+03  0.25229463324E+03  0.87883116850E+02 0.  0.
         11    1    3    3    0    0  0.57251305137E+02  0.50387470987E+02 -0.78493104815E+02  0.10944302936E+03  0.00000000000E+00 0. -1.
        -12    1    3    3    0    0 -0.19490761001E+02 -0.51493632026E+01 -0.40371204160E+02  0.45124714194E+02  0.00000000000E+00 0.  1.
        -11    1    4    4    0    0 -0.15996691288E+02 -0.22724157056E+02 -0.10038863880E+03  0.10416410249E+03  0.00000000000E+00 0.  1.
         11    1    4    4    0    0 -0.10897475714E+03  0.90776067247E+01 -0.99923738440E+02  0.14813053076E+03  0.00000000000E+00 0. -1.
          2    1    1    2  501    0  0.87210904295E+02 -0.31591557453E+02 -0.26082507057E+03  0.27682753795E+03  0.00000000000E+00 0. -1.
<scales pt_clust_5="13000.00000" pt_clust_6="13000.00000" pt_clust_7="13000.00000" pt_clust_8="13000.00000" pt_clust_9="92.75655"></scales>
<clustering>
<clus scale="   79.310">  5  6 -1 -1</clus>
<clus scale="   87.883">  7  8 -1 -1</clus>
<clus scale="   92.757">  1  9  2 -1</clus>
<clus scale="  112.725">  2  5  1 -1</clus>
<clus scale="   92.757">  1  5  2 -1</clus>
</clustering>
</event>
<event>
 9    1  0.6675710E-005  0.1097235E+03  0.7546771E-02  0.1265273E+00
         21   -1    0    0  501  502  0.00000000000E+00  0.00000000000E+00  0.15029773171E+03  0.15029773171E+03  0.00000000000E+00 0.  1.
          1   -1    0    0  502    0 -0.00000000000E+00 -0.00000000000E+00 -0.23726561009E+03  0.23726561009E+03  0.00000000000E+00 0. -1.
        -24    2    1    2    0    0 -0.31983329038E+02  0.56843066778E+02 -0.19289148471E+03  0.21885413437E+03  0.80224308536E+02 0.  0.
         23    2    1    2    0    0  0.19941113412E+02 -0.30306491332E+02  0.61434088721E+02  0.11552535678E+03  0.90861594638E+02 0.  0.
         13    1    3    3    0    0  0.13781178622E+02  0.50397608795E+02 -0.13512915007E+03  0.14487831810E+03  0.00000000000E+00 0. -1.
        -14    1    3    3    0    0 -0.45764507660E+02  0.64454579824E+01 -0.57762334642E+02  0.73975816273E+02  0.00000000000E+00 0.  1.
        -13    1    4    4    0    0  0.52946386950E+02 -0.19123463740E+02  0.57477628978E+02  0.80453120446E+02  0.00000000000E+00 0.  1.
         13    1    4    4    0    0 -0.33005273539E+02 -0.11183027592E+02  0.39564597429E+01  0.35072236330E+02  0.00000000000E+00 0. -1.
          2    1    1    2  501    0  0.12042215626E+02 -0.26536575446E+02  0.44489517604E+02  0.53183850652E+02  0.00000000000E+00 0. -1.
<scales pt_clust_5="13000.00000" pt_clust_6="13000.00000" pt_clust_7="13000.00000" pt_clust_8="13000.00000" pt_clust_9="29.14112"></scales>
<clustering>
<clus scale="   29.141">  1  9  2 -1</clus>
<clus scale="   80.224">  5  6 -1 -1</clus>
<clus scale="   90.862">  7  8 -1 -1</clus>
<clus scale="  101.091">  2  5  1 -1</clus>
<clus scale="   29.141">  1  5  2 -1</clus>
</clustering>
</event>
<event>
 9    1  0.6675710E-005  0.1420367E+03  0.7546771E-02  0.1213098E+00
         21   -1    0    0  501  502  0.00000000000E+00  0.00000000000E+00  0.97584775233E+02  0.97584775233E+02  0.00000000000E+00 0. -1.
          3   -1    0    0  502    0 -0.00000000000E+00 -0.00000000000E+00 -0.60282561435E+03  0.60282561435E+03  0.00000000000E+00 0. -1.
        -24    2    1    2    0    0 -0.56725638322E+02 -0.95410292148E+02 -0.44676352717E+03  0.46734001190E+03  0.80548839989E+02 0.  0.
         23    2    1    2    0    0  0.63218863315E+02  0.59202567167E+02  0.36098464508E+02  0.13159260272E+03  0.92260204382E+02 0.  0.
         13    1    3    3    0    0 -0.18620526143E+02 -0.80325199145E+02 -0.38124506312E+03  0.39005981563E+03  0.00000000000E+00 0. -1.
        -14    1    3    3    0    0 -0.38105112178E+02 -0.15085093003E+02 -0.65518464048E+02  0.77280196274E+02  0.00000000000E+00 0.  1.
        -11    1    4    4    0    0  0.65036210859E+02  0.80971111227E+02  0.35447696018E+02  0.10973863827E+03  0.00000000000E+00 0. -1.
         11    1    4    4    0    0 -0.18173475439E+01 -0.21768544060E+02  0.65076849010E+00  0.21853964450E+02  0.00000000000E+00 0.  1.
          4    1    1    2  501    0 -0.64932249930E+01  0.36207724981E+02 -0.94575776458E+02  0.10147777496E+03  0.00000000000E+00 0. -1.
<scales pt_clust_5="13000.00000" pt_clust_6="13000.00000" pt_clust_7="13000.00000" pt_clust_8="13000.00000" pt_clust_9="36.78536"></scales>
<clustering>
<clus scale="   36.785">  1  9  2 -1</clus>
<clus scale="   80.549">  5  6 -1 -1</clus>
<clus scale="   92.260">  7  8 -1 -1</clus>
<clus scale="  134.724">  2  5  1 -1</clus>
<clus scale="   36.785">  1  5  2 -1</clus>
</clustering>
</event>
<event>
 9    1  0.6675710E-005  0.1692828E+03  0.7546771E-02  0.1192360E+00
          1   -1    0    0  502    0 -0.00000000000E+00  0.00000000000E+00  0.14732611951E+04  0.14732611951E+04  0.00000000000E+00 0. -1.
         21   -1    0    0  501  502  0.00000000000E+00 -0.00000000000E+00 -0.35149559148E+02  0.35149559148E+02  0.00000000000E+00 0. -1.
        -24    2    1    2    0    0 -0.43446707155E+02  0.84648051091E+02  0.34718603421E+03  0.36886770807E+03  0.80450822172E+02 0.  0.
         23    2    1    2    0    0  0.40467502405E+02  0.90700553263E+02  0.42281870717E+03  0.44880226175E+03  0.11306459172E+03 0.  0.
         13    1    3    3    0    0 -0.57771837184E+02  0.51124170722E+02  0.29688924366E+03  0.30674825021E+03  0.00000000000E+00 0. -1.
        -14    1    3    3    0    0  0.14325130028E+02  0.33523880369E+02  0.50296790550E+02  0.62119457861E+02  0.00000000000E+00 0.  1.
        -11    1    4    4    0    0  0.27117995801E+02  0.91462455429E+01  0.14269858674E+02  0.31979186518E+02  0.00000000000E+00 0. -1.
         11    1    4    4    0    0  0.13349506604E+02  0.81554307720E+02  0.40854884850E+03  0.41682307523E+03  0.00000000000E+00 0.  1.
          2    1    1    2  501    0  0.29792047502E+01 -0.17534860435E+03  0.66810689461E+03  0.69074078447E+03  0.00000000000E+00 0. -1.
<scales pt_clust_5="13000.00000" pt_clust_6="13000.00000" pt_clust_7="13000.00000" pt_clust_8="13000.00000" pt_clust_9="125.98839"></scales>
<clustering>
<clus scale="   80.451">  5  6 -1 -1</clus>
<clus scale="  113.065">  7  8 -1 -1</clus>
<clus scale="  124.600">  1  5  2 -1</clus>
<clus scale="  125.988">  2  9  1 -1</clus>
<clus scale="  125.988">  2  5  1 -1</clus>
</clustering>
</event>
<event>
 9    1  0.6675710E-005  0.1037228E+03  0.7546771E-02  0.1277693E+00
         21   -1    0    0  501  502  0.00000000000E+00  0.00000000000E+00  0.52096278441E+03  0.52096278441E+03  0.00000000000E+00 0.  1.
         -4   -1    0    0    0  501 -0.00000000000E+00 -0.00000000000E+00 -0.67380665057E+02  0.67380665057E+02  0.00000000000E+00 0.  1.
        -24    2    1    2    0    0  0.61035548233E+02  0.19086346959E+02  0.21810855062E+02  0.10525092914E+03  0.80699553269E+02 0.  0.
         23    2    1    2    0    0  0.22446455818E+02 -0.58687470537E+02  0.15085097623E+03  0.18736679904E+03  0.91663721150E+02 0.  0.
         11    1    3    3    0    0  0.25712372444E+02 -0.20813207358E+02  0.37203320218E+02  0.49783558856E+02  0.00000000000E+00 0. -1.
        -12    1    3    3    0    0  0.35323175790E+02  0.39899554317E+02 -0.15392465155E+02  0.55467370283E+02  0.00000000000E+00 0.  1.
        -13    1    4    4    0    0  0.24896026627E+02 -0.80884390157E+02  0.95065113989E+02  0.12727714882E+03  0.00000000000E+00 0.  1.
         13    1    4    4    0    0 -0.24495708090E+01  0.22196919620E+02  0.55785862241E+02  0.60089650222E+02  0.00000000000E+00 0. -1.
         -3    1    1    2    0  502 -0.83482004052E+02  0.39601123578E+02  0.28092028806E+03  0.29572572129E+03  0.00000000000E+00 0.  1.
<scales pt_clust_5="13000.00000" pt_clust_6="13000.00000" pt_clust_7="13000.00000" pt_clust_8="13000.00000" pt_clust_9="92.39856"></scales>
<clustering>
<clus scale="   80.700">  5  6 -1 -1</clus>
<clus scale="   91.664">  7  8 -1 -1</clus>
<clus scale="   92.399">  1  9  2 -1</clus>
<clus scale="   94.173">  2  5  1 -1</clus>
<clus scale="   92.399">  1  5  2 -1</clus>
</clustering>
</event>
<event>
 9    1  0.8674961E-005  0.1071886E+03  0.7546771E-02  0.1275092E+00
          1   -1    0    0  502    0 -0.00000000000E+00  0.00000000000E+00  0.39441634553E+03  0.39441634553E+03  0.00000000000E+00 0. -1.
         21   -1    0    0  501  502  0.00000000000E+00 -0.00000000000E+00 -0.87389744034E+02  0.87389744034E+02  0.00000000000E+00 0. -1.
         23    2    1    2    0    0  0.14183500562E+02 -0.51001327484E+02  0.31602535375E+03  0.33547176692E+03  0.99332648661E+02 0.  0.
        -24    2    1    2    0    0  0.10687909902E+02  0.25396487074E+01  0.21789323307E+02  0.83764146322E+02  0.80130995035E+02 0.  0.
         13    1    4    4    0    0  0.36482679966E+02 -0.23760518291E+02  0.16444658067E+02  0.46540035946E+02  0.00000000000E+00 0. -1.
        -14    1    4    4    0    0 -0.25794770064E+02  0.26300166998E+02  0.53446652400E+01  0.37224110376E+02  0.00000000000E+00 0.  1.
        -13    1    3    3    0    0  0.13227174522E+02 -0.78741819258E+02  0.18427977639E+03  0.20083393198E+03  0.00000000000E+00 0. -1.
         13    1    3    3    0    0  0.95632604029E+00  0.27740491773E+02  0.13174557736E+03  0.13463783494E+03  0.00000000000E+00 0.  1.
          2    1    1    2  501    0 -0.24871410464E+02  0.48461678777E+02 -0.30788075564E+02  0.62570176325E+02  0.00000000000E+00 0. -1.
<scales pt_clust_5="13000.00000" pt_clust_6="13000.00000" pt_clust_7="13000.00000" pt_clust_8="13000.00000" pt_clust_9="54.47129"></scales>
<clustering>
<clus scale="   54.471">  2  9  1 -1</clus>
<clus scale="   80.131">  5  6 -1 -1</clus>
<clus scale="   89.685">  2  5  1 -1</clus>
<clus scale="   99.333">  7  8 -1 -1</clus>
<clus scale="   54.471">  2  5  1 -1</clus>
</clustering>
</event>
<event>
 9    1  0.6675710E-005  0.9782923E+02  0.7546771E-02  0.1289014E+00
         21   -1    0    0  501  502  0.00000000000E+00  0.00000000000E+00  0.10090016281E+03  0.10090016281E+03  0.00000000000E+00 0.  1.
         -2   -1    0    0    0  501 -0.00000000000E+00 -0.00000000000E+00 -0.32823866507E+03  0.32823866507E+03  0.00000000000E+00 0.  1.
        -24    2    1    2    0    0  0.23183226961E+01  0.25670708896E+02 -0.25552796355E+02  0.90505407432E+02  0.82909127710E+02 0.  0.
         23    2    1    2    0    0 -0.80511583405E+02 -0.13653814052E+02 -0.21441942742E+00  0.12209341187E+03  0.90764605141E+02 0.  0.
         13    1    3    3    0    0 -0.38443084000E+02  0.25367334981E+02 -0.13220255596E+02  0.47918133827E+02  0.00000000000E+00 0. -1.
        -14    1    3    3    0    0  0.40761406696E+02  0.30337391471E+00 -0.12332540759E+02  0.42587273605E+02  0.00000000000E+00 0.  1.
        -13    1    4    4    0    0  0.11642165817E+02 -0.25822885676E+02  0.59180117611E+01  0.28937593417E+02  0.00000000000E+00 0. -1.
         13    1    4    4    0    0 -0.92153749222E+02  0.12169071624E+02 -0.61324311885E+01  0.93155818456E+02  0.00000000000E+00 0.  1.
         -1    1    1    2    0  502  0.78193260709E+02 -0.12016894843E+02 -0.20157128648E+03  0.21654000857E+03  0.00000000000E+00 0.  1.
<scales pt_clust_5="13000.00000" pt_clust_6="13000.00000" pt_clust_7="13000.00000" pt_clust_8="13000.00000" pt_clust_9="79.11130"></scales>
<clustering>
<clus scale="   79.111">  1  9  2 -1</clus>
<clus scale="   82.909">  5  6 -1 -1</clus>
<clus scale="   90.588">  2  5  1 -1</clus>
<clus scale="   90.765">  7  8 -1 -1</clus>
<clus scale="   79.111">  1  5  2 -1</clus>
</clustering>
</event>
<event>
 9    1  0.6675710E-005  0.9342519E+02  0.7546771E-02  0.1300838E+00
         21   -1    0    0  501  502  0.00000000000E+00  0.00000000000E+00  0.12290129442E+03  0.12290129442E+03  0.00000000000E+00 0. -1.
         -2   -1    0    0    0  501 -0.00000000000E+00 -0.00000000000E+00 -0.12715864972E+03  0.12715864972E+03  0.00000000000E+00 0.  1.
        -24    2    1    2    0    0  0.61366793844E+01  0.22990452254E+02 -0.45960552446E+02  0.96348962128E+02  0.81268261906E+02 0.  0.
         23    2    1    2    0    0 -0.25223776143E+02  0.78160546987E+01  0.60606715428E+02  0.11283677087E+03  0.91441966901E+02 0.  0.
         11    1    3    3    0    0  0.38713703533E+02  0.65446934898E+01 -0.21376711791E+01  0.39321158328E+02  0.00000000000E+00 0. -1.
        -12    1    3    3    0    0 -0.32577024149E+02  0.16445758764E+02 -0.43822881267E+02  0.57027803801E+02  0.00000000000E+00 0.  1.
        -13    1    4    4    0    0 -0.12235405370E+02 -0.34162586995E+02 -0.20063379402E+01  0.36342989513E+02  0.00000000000E+00 0.  1.
         13    1    4    4    0    0 -0.12988370773E+02  0.41978641694E+02  0.62613053368E+02  0.76493781354E+02  0.00000000000E+00 0. -1.
         -1    1    1    2    0  502  0.19087096758E+02 -0.30806506953E+02 -0.18903518279E+02  0.40874211144E+02  0.00000000000E+00 0.  1.
<scales pt_clust_5="13000.00000" pt_clust_6="13000.00000" pt_clust_7="13000.00000" pt_clust_8="13000.00000" pt_clust_9="36.24030"></scales>
<clustering>
<clus scale="   36.240">  1  9  2 -1</clus>
<clus scale="   81.268">  5  6 -1 -1</clus>
<clus scale="   83.493">  2  5  1 -1</clus>
<clus scale="   91.442">  7  8 -1 -1</clus>
<clus scale="   36.240">  1  5  2 -1</clus>
</clustering>
</event>
<event>
 9    1  0.6675710E-005  0.1099231E+03  0.7546771E-02  0.1264015E+00
         -2   -1    0    0    0  501 -0.00000000000E+00  0.00000000000E+00  0.72967452752E+02  0.72967452752E+02  0.00000000000E+00 0.  1.
         21   -1    0    0  501  502  0.00000000000E+00 -0.00000000000E+00 -0.30345121336E+03  0.30345121336E+03  0.00000000000E+00 0.  1.
        -24    2    1    2    0    0  0.33510994331E+02  0.33653648052E+02 -0.51909123968E+02  0.10960458041E+03  0.84041966471E+02 0.  0.
         23    2    1    2    0    0 -0.22798429833E+01 -0.92569390122E+02 -0.10683517223E+03  0.16887022304E+03  0.92353172838E+02 0.  0.
         13    1    3    3    0    0 -0.25287307710E+02  0.79055633941E+01 -0.33729775346E+02  0.42891066770E+02  0.00000000000E+00 0. -1.
        -14    1    3    3    0    0  0.58798302040E+02  0.25748084658E+02 -0.18179348622E+02  0.66713513644E+02  0.00000000000E+00 0.  1.
        -11    1    4    4    0    0 -0.31069504155E+02 -0.42648890165E+02 -0.96981264163E+02  0.11040655560E+03  0.00000000000E+00 0.  1.
         11    1    4    4    0    0  0.28789661172E+02 -0.49920499957E+02 -0.98539080629E+01  0.58463667439E+02  0.00000000000E+00 0. -1.
         -1    1    1    2    0  502 -0.31231151347E+02  0.58915742070E+02 -0.71739464419E+02  0.97943862663E+02  0.00000000000E+00 0.  1.
<scales pt_clust_5="13000.00000" pt_clust_6="13000.00000" pt_clust_7="13000.00000" pt_clust_8="13000.00000" pt_clust_9="66.68170"></scales>
<clustering>
<clus scale="   66.682">  2  9  1 -1</clus>
<clus scale="   84.042">  5  6 -1 -1</clus>
<clus scale="   92.353">  7  8 -1 -1</clus>
<clus scale="  103.039">  1  5  2 -1</clus>
<clus scale="   66.682">  2  5  1 -1</clus>
</clustering>
</event>
<event>
 9    1  0.6675710E-005  0.2026976E+03  0.7546771E-02  0.1181655E+00
          1   -1    0    0  502    0 -0.00000000000E+00  0.00000000000E+00  0.74115567352E+02  0.74115567352E+02  0.00000000000E+00 0. -1.
         21   -1    0    0  501  502  0.00000000000E+00 -0.00000000000E+00 -0.83430452733E+03  0.83430452733E+03  0.00000000000E+00 0. -1.
        -24    2    1    2    0    0 -0.20255959901E+02  0.41754696395E+02 -0.64984426205E+02  0.11268404879E+03  0.79504469182E+02 0.  0.
         23    2    1    2    0    0 -0.14649881991E+03  0.68338196517E+02 -0.29107625519E+03  0.34490651357E+03  0.90017239629E+02 0.  0.
         13    1    3    3    0    0 -0.44137950172E+02  0.32133696789E+01 -0.19175132927E+02  0.48230385784E+02  0.00000000000E+00 0. -1.
        -14    1    3    3    0    0  0.23881990271E+02  0.38541326716E+02 -0.45809293278E+02  0.64453663007E+02  0.00000000000E+00 0.  1.
        -11    1    4    4    0    0 -0.11001749098E+03  0.37417427513E+01 -0.18897472304E+03  0.21869909672E+03  0.00000000000E+00 0.  1.
         11    1    4    4    0    0 -0.36481328930E+02  0.64596453766E+02 -0.10210153215E+03  0.12620741684E+03  0.00000000000E+00 0. -1.
          2    1    1    2  501    0  0.16675477981E+03 -0.11009289291E+03 -0.40412827859E+03  0.45082953232E+03  0.00000000000E+00 0. -1.
<scales pt_clust_5="13000.00000" pt_clust_6="13000.00000" pt_clust_7="13000.00000" pt_clust_8="13000.00000" pt_clust_9="181.61283"></scales>
<clustering>
<clus scale="   79.504">  5  6 -1 -1</clus>
<clus scale="   90.017">  7  8 -1 -1</clus>
<clus scale="   92.058">  1  5  2 -1</clus>
<clus scale="  181.613">  2  9  1 -1</clus>
<clus scale="  181.613">  2  5  1 -1</clus>
</clustering>
</event>
<event>
 9    1  0.6675710E-005  0.1312795E+03  0.7546771E-02  0.1244842E+00
         21   -1    0    0  501  502  0.00000000000E+00  0.00000000000E+00  0.16145588403E+03  0.16145588403E+03  0.00000000000E+00 0.  1.
         -4   -1    0    0    0  501 -0.00000000000E+00 -0.00000000000E+00 -0.22147975525E+03  0.22147975525E+03  0.00000000000E+00 0.  1.
        -24    2    1    2    0    0  0.29245127856E+02 -0.20980553493E+02  0.74770762179E+02  0.11584218740E+03  0.80828734852E+02 0.  0.
         23    2    1    2    0    0  0.13618017986E+02  0.10243032392E+03 -0.92195508319E+02  0.16567353356E+03  0.90941114438E+02 0.  0.
         11    1    3    3    0    0 -0.21884949183E+02  0.13047157798E+02  0.32439527215E+02  0.41249269730E+02  0.00000000000E+00 0. -1.
        -12    1    3    3    0    0  0.51130077038E+02 -0.34027711291E+02  0.42331234964E+02  0.74592917675E+02  0.00000000000E+00 0.  1.
        -13    1    4    4    0    0 -0.79116746153E+01  0.92710945371E+02 -0.27845839844E+02  0.97125201588E+02  0.00000000000E+00 0.  1.
         13    1    4    4    0    0  0.21529692601E+02  0.97193785459E+01 -0.64349668475E+02  0.68548331968E+02  0.00000000000E+00 0. -1.
         -3    1    1    2    0  502 -0.42863145842E+02 -0.81449770424E+02 -0.42599125082E+02  0.10141991832E+03  0.00000000000E+00 0.  1.
<scales pt_clust_5="13000.00000" pt_clust_6="13000.00000" pt_clust_7="13000.00000" pt_clust_8="13000.00000" pt_clust_9="94.67847"></scales>
<clustering>
<clus scale="   80.829">  5  6 -1 -1</clus>
<clus scale="   88.480">  2  5  1 -1</clus>
<clus scale="   90.941">  7  8 -1 -1</clus>
<clus scale="   94.678">  1  9  2 -1</clus>
<clus scale="   94.678">  1  5  2 -1</clus>
</clustering>
</event>
<event>
 9    1  0.6675710E-005  0.1070678E+03  0.7546771E-02  0.1268902E+00
         -2   -1    0    0    0  501 -0.00000000000E+00  0.00000000000E+00  0.57497258469E+03  0.57497258469E+03  0.00000000000E+00 0.  1.
         21   -1    0    0  501  502  0.00000000000E+00 -0.00000000000E+00 -0.13518347414E+03  0.13518347414E+03  0.00000000000E+00 0.  1.
        -24    2    1    2    0    0  0.67307190077E+02  0.22324493095E+02  0.52125621643E+03  0.53246386690E+03  0.82347346992E+02 0.  0.
         23    2    1    2    0    0 -0.12504751535E+02 -0.29619909980E+02 -0.90417555656E+02  0.12168646964E+03  0.74823489928E+02 0.  0.
         11    1    3    3    0    0  0.39636098638E+02 -0.94690156338E+01  0.85945080700E+02  0.95116977816E+02  0.00000000000E+00 0. -1.
        -12    1    3    3    0    0  0.27671091439E+02  0.31793508729E+02  0.43531113573E+03  0.43734688909E+03  0.00000000000E+00 0.  1.
        -13    1    4    4    0    0  0.18413612432E+02 -0.39088461268E+02 -0.28284580214E+02  0.51642873710E+02  0.00000000000E+00 0.  1.
         13    1    4    4    0    0 -0.30918363967E+02  0.94685512885E+01 -0.62132975442E+02  0.70043595933E+02  0.00000000000E+00 0. -1.
         -1    1    1    2    0  502 -0.54802438542E+02  0.72954168849E+01  0.89504497683E+01  0.56005722285E+02  0.00000000000E+00 0.  1.
<scales pt_clust_5="13000.00000" pt_clust_6="13000.00000" pt_clust_7="13000.00000" pt_clust_8="13000.00000" pt_clust_9="55.28590"></scales>
<clustering>
<clus scale="   55.286">  2  9  1 -1</clus>
<clus scale="   74.823">  7  8 -1 -1</clus>
<clus scale="   82.347">  5  6 -1 -1</clus>
<clus scale="  101.395">  2  7  1 -1</clus>
<clus scale="   55.286">  2  5  1 -1</clus>
</clustering>
</event>
<event>
 9    1  0.6675710E-005  0.9767684E+02  0.7546771E-02  0.1295843E+00
          1   -1    0    0  502    0 -0.00000000000E+00  0.00000000000E+00  0.18631087034E+03  0.18631087034E+03  0.00000000000E+00 0. -1.
         21   -1    0    0  501  502  0.00000000000E+00 -0.00000000000E+00 -0.16280789883E+03  0.16280789883E+03  0.00000000000E+00 0. -1.
        -24    2    1    2    0    0  0.19824177402E+02 -0.19291972467E+02  0.13563387681E+03  0.15703787913E+03  0.74156380252E+02 0.  0.
         23    2    1    2    0    0 -0.62207553478E+02  0.14657702716E+02 -0.73615858648E+02  0.13462450796E+03  0.92843069424E+02 0.  0.
         13    1    3    3    0    0  0.41883902278E+01 -0.31425176174E+02  0.13340643892E+03  0.13712170599E+03  0.00000000000E+00 0. -1.
        -14    1    3    3    0    0  0.15635787174E+02  0.12133203707E+02  0.22274378902E+01  0.19916173134E+02  0.00000000000E+00 0.  1.
        -11    1    4    4    0    0 -0.63921860715E+02 -0.26460096164E+02 -0.59091238716E+02  0.90983050396E+02  0.00000000000E+00 0. -1.
         11    1    4    4    0    0  0.17143072375E+01  0.41117798880E+02 -0.14524619932E+02  0.43641457563E+02  0.00000000000E+00 0.  1.
          2    1    1    2  501    0  0.42383376076E+02  0.46342697504E+01 -0.38515046653E+02  0.57456382085E+02  0.00000000000E+00 0. -1.
<scales pt_clust_5="13000.00000" pt_clust_6="13000.00000" pt_clust_7="13000.00000" pt_clust_8="13000.00000" pt_clust_9="42.63598"></scales>
<clustering>
<clus scale="   42.636">  2  9  1 -1</clus>
<clus scale="   74.156">  5  6 -1 -1</clus>
<clus scale="   80.126">  1  5  2 -1</clus>
<clus scale="   92.843">  7  8 -1 -1</clus>
<clus scale="   42.636">  2  5  1 -1</clus>
</clustering>
</event>
<event>
 9    1  0.6675710E-005  0.1369471E+03  0.7546771E-02  0.1221049E+00
         -2   -1    0    0    0  501 -0.00000000000E+00  0.00000000000E+00  0.12110094761E+03  0.12110094761E+03  0.00000000000E+00 0.  1.
         21   -1    0    0  501  502  0.00000000000E+00 -0.00000000000E+00 -0.69759084720E+03  0.69759084720E+03  0.00000000000E+00 0.  1.
        -24    2    1    2    0    0 -0.66082789549E+02 -0.57614971409E+02  0.70052495902E+02  0.14464516943E+03  0.91260357510E+02 0.  0.
         23    2    1    2    0    0  0.10003816812E+03  0.34555779826E+02 -0.48032150572E+03  0.50283307964E+03  0.10454960604E+03 0.  0.
         11    1    3    3    0    0 -0.91514755850E+00 -0.35858525534E+02 -0.11818122631E+02  0.37766908412E+02  0.00000000000E+00 0. -1.
        -12    1    3    3    0    0 -0.65167641991E+02 -0.21756445875E+02  0.81870618532E+02  0.10687826102E+03  0.00000000000E+00 0.  1.
        -11    1    4    4    0    0  0.93597553060E+02 -0.17613413858E+02 -0.28123406388E+03  0.29692310953E+03  0.00000000000E+00 0.  1.
         11    1    4    4    0    0  0.64406150616E+01  0.52169193684E+02 -0.19908744185E+03  0.20590997011E+03  0.00000000000E+00 0. -1.
         -1    1    1    2    0  502 -0.33955378573E+02  0.23059191583E+02 -0.16622088977E+03  0.17121354574E+03  0.00000000000E+00 0.  1.
<scales pt_clust_5="13000.00000" pt_clust_6="13000.00000" pt_clust_7="13000.00000" pt_clust_8="13000.00000" pt_clust_9="41.04502"></scales>
<clustering>
<clus scale="   41.045">  2  9  1 -1</clus>
<clus scale="   91.260">  5  6 -1 -1</clus>
<clus scale="  104.550">  7  8 -1 -1</clus>
<clus scale="  127.092">  1  5  2 -1</clus>
<clus scale="   41.045">  2  5  1 -1</clus>
</clustering>
</event>
<event>
 9    1  0.6675710E-005  0.1265790E+03  0.7546771E-02  0.1243332E+00
         21   -1    0    0  501  502  0.00000000000E+00  0.00000000000E+00  0.23155825890E+03  0.23155825890E+03  0.00000000000E+00 0.  1.
          3   -1    0    0  502    0 -0.00000000000E+00 -0.00000000000E+00 -0.12369796913E+03  0.12369796913E+03  0.00000000000E+00 0. -1.
         23    2    1    2    0    0 -0.32855337094E+02  0.43026017401E+02  0.64574806603E+01  0.12651319633E+03  0.11416294688E+03 0.  0.
        -24    2    1    2    0    0 -0.44964573821E+02 -0.68632775313E+02  0.36485141397E+02  0.12421577131E+03  0.85826112301E+02 0.  0.
         13    1    4    4    0    0  0.23061515473E+02 -0.89246203590E+01  0.20886123372E+02  0.32368387262E+02  0.00000000000E+00 0. -1.
        -14    1    4    4    0    0 -0.68026089294E+02 -0.59708154954E+02  0.15599018024E+02  0.91847384045E+02  0.00000000000E+00 0.  1.
        -11    1    3    3    0    0 -0.10290313336E+02 -0.20117071601E+02  0.44146359924E+02  0.49593227490E+02  0.00000000000E+00 0.  1.
         11    1    3    3    0    0 -0.22565023759E+02  0.63143089002E+02 -0.37688879264E+02  0.76919968838E+02  0.00000000000E+00 0. -1.
          4    1    1    2  501    0  0.77819910916E+02  0.25606757911E+02  0.64917667706E+02  0.10452726040E+03  0.00000000000E+00 0. -1.
<scales pt_clust_5="13000.00000" pt_clust_6="13000.00000" pt_clust_7="13000.00000" pt_clust_8="13000.00000" pt_clust_9="81.92463"></scales>
<clustering>
<clus scale="   81.925">  1  9  2 -1</clus>
<clus scale="   85.826">  5  6 -1 -1</clus>
<clus scale="  101.760">  1  5  2 -1</clus>
<clus scale="  114.163">  7  8 -1 -1</clus>
<clus scale="   81.925">  1  5  2 -1</clus>
</clustering>
</event>
<event>
 9    1  0.6675710E-005  0.9608590E+02  0.7546771E-02  0.1294972E+00
          1   -1    0    0  502    0 -0.00000000000E+00  0.00000000000E+00  0.71630016654E+02  0.71630016654E+02  0.00000000000E+00 0. -1.
         21   -1    0    0  501  502  0.00000000000E+00 -0.00000000000E+00 -0.31750997278E+03  0.31750997278E+03  0.00000000000E+00 0. -1.
        -24    2    1    2    0    0 -0.45148217068E+02  0.36748305076E+02 -0.63432977778E+02  0.11764798841E+03  0.80177971272E+02 0.  0.
         23    2    1    2    0    0 -0.47479686366E+02 -0.16843011048E+02 -0.11457317229E+03  0.15494586091E+03  0.91341120899E+02 0.  0.
         13    1    3    3    0    0 -0.67558208510E+02  0.20392212669E+02 -0.51916712702E+02  0.87608783420E+02  0.00000000000E+00 0. -1.
        -14    1    3    3    0    0  0.22409991442E+02  0.16356092407E+02 -0.11516265076E+02  0.30039204992E+02  0.00000000000E+00 0.  1.
        -11    1    4    4    0    0 -0.35359735138E+01 -0.49389370576E+02 -0.50843422254E+02  0.70970885728E+02  0.00000000000E+00 0.  1.
         11    1    4    4    0    0 -0.43943712852E+02  0.32546359527E+02 -0.63729750033E+02  0.83974975183E+02  0.00000000000E+00 0. -1.
          2    1    1    2  501    0  0.92627903434E+02 -0.19905294027E+02 -0.67873806059E+02  0.11654614011E+03  0.00000000000E+00 0. -1.
<scales pt_clust_5="13000.00000" pt_clust_6="13000.00000" pt_clust_7="13000.00000" pt_clust_8="13000.00000" pt_clust_9="94.74259"></scales>
<clustering>
<clus scale="   80.178">  5  6 -1 -1</clus>
<clus scale="   91.341">  7  8 -1 -1</clus>
<clus scale="   94.743">  2  9  1 -1</clus>
<clus scale="   85.544">  1  5  2 -1</clus>
<clus scale="   94.743">  2  5  1 -1</clus>
</clustering>
</event>
<event>
 9    1  0.6675710E-005  0.2897578E+03  0.7546771E-02  0.1090476E+00
         21   -1    0    0  501  502  0.00000000000E+00  0.00000000000E+00  0.98432352012E+02  0.98432352012E+02  0.00000000000E+00 0. -1.
          1   -1    0    0  502    0 -0.00000000000E+00 -0.00000000000E+00 -0.92748047742E+03  0.92748047742E+03  0.00000000000E+00 0. -1.
        -24    2    1    2    0    0 -0.73798090708E+02 -0.35557983987E+02 -0.33445990028E+03  0.35386286141E+03  0.81516693823E+02 0.  0.
         23    2    1    2    0    0 -0.57714700327E+02 -0.13506377966E+03 -0.40204262643E+03  0.43758869558E+03  0.90952635074E+02 0.  0.
         11    1    3    3    0    0 -0.64845674531E+02  0.11013304506E+02 -0.22841967186E+03  0.23770107461E+03  0.00000000000E+00 0. -1.
        -12    1    3    3    0    0 -0.89524161765E+01 -0.46571288493E+02 -0.10604022842E+03  0.11616178679E+03  0.00000000000E+00 0.  1.
        -11    1    4    4    0    0  0.77393382584E+01 -0.48158475488E+02 -0.53209490437E+02  0.72183003475E+02  0.00000000000E+00 0.  1.
         11    1    4    4    0    0 -0.65454038585E+02 -0.86905304176E+02 -0.34883313599E+03  0.36540569211E+03  0.00000000000E+00 0. -1.
          2    1    1    2  501    0  0.13151279103E+03  0.17062176365E+03 -0.92545598705E+02  0.23446127244E+03  0.00000000000E+00 0. -1.
<scales pt_clust_5="13000.00000" pt_clust_6="13000.00000" pt_clust_7="13000.00000" pt_clust_8="13000.00000" pt_clust_9="215.42377"></scales>
<clustering>
<clus scale="   81.517">  5  6 -1 -1</clus>
<clus scale="   90.953">  7  8 -1 -1</clus>
<clus scale="  111.449">  5  7 -1 -1</clus>
<clus scale="  215.424">  1  9  2 -1</clus>
<clus scale="  215.424">  1  5  2 -1</clus>
</clustering>
</event>
<event>
 9    1  0.6675710E-005  0.1178487E+03  0.7546771E-02  0.1253068E+00
         21   -1    0    0  501  502  0.00000000000E+00  0.00000000000E+00  0.22722696083E+03  0.22722696083E+03  0.00000000000E+00 0. -1.
          1   -1    0    0  502    0 -0.00000000000E+00 -0.00000000000E+00 -0.75769733169E+02  0.75769733169E+02  0.00000000000E+00 0. -1.
        -24    2    1    2    0    0  0.56213288363E+02  0.29356571472E+02  0.13578975330E+02  0.10244728490E+03  0.79305204970E+02 0.  0.
         23    2    1    2    0    0 -0.74771678740E+02 -0.19145096623E+02  0.12314528998E+03  0.17474731128E+03  0.97028458146E+02 0.  0.
         13    1    3    3    0    0  0.75654898377E+02  0.21580507837E+02  0.18756530718E+02  0.80877619966E+02  0.00000000000E+00 0. -1.
        -14    1    3    3    0    0 -0.19441610013E+02  0.77760636354E+01 -0.51775553881E+01  0.21569664934E+02  0.00000000000E+00 0.  1.
        -13    1    4    4    0    0 -0.75232306583E+02 -0.43701005629E+02  0.12240562559E+03  0.15017594688E+03  0.00000000000E+00 0. -1.
         13    1    4    4    0    0  0.46062784283E+00  0.24555909006E+02  0.73966439414E+00  0.24571364401E+02  0.00000000000E+00 0.  1.
          2    1    1    2  501    0  0.18558390377E+02 -0.10211474849E+02  0.14732962349E+02  0.25802097813E+02  0.00000000000E+00 0. -1.
<scales pt_clust_5="13000.00000" pt_clust_6="13000.00000" pt_clust_7="13000.00000" pt_clust_8="13000.00000" pt_clust_9="21.18226"></scales>
<clustering>
<clus scale="   21.182">  1  9  2 -1</clus>
<clus scale="   79.305">  5  6 -1 -1</clus>
<clus scale="   97.028">  7  8 -1 -1</clus>
<clus scale="  103.745">  2  5  1 -1</clus>
<clus scale="   21.182">  1  5  2 -1</clus>
</clustering>
</event>
<event>
 9    1  0.6675710E-005  0.9885984E+02  0.7546771E-02  0.1284698E+00
          1   -1    0    0  502    0 -0.00000000000E+00  0.00000000000E+00  0.15271745183E+03  0.15271745183E+03  0.00000000000E+00 0. -1.
         21   -1    0    0  501  502  0.00000000000E+00 -0.00000000000E+00 -0.20043389058E+03  0.20043389058E+03  0.00000000000E+00 0. -1.
         23    2    1    2    0    0 -0.28524885629E+02  0.14042275984E+02  0.88451515492E+02  0.13450702384E+03  0.96216496797E+02 0.  0.
        -24    2    1    2    0    0  0.53105820232E+01  0.29862369745E+02 -0.30656707713E+02  0.10202894672E+03  0.92466798538E+02 0.  0.
         11    1    4    4    0    0 -0.30113872974E+02 -0.19718526288E+02 -0.15787432064E+02  0.39305325793E+02  0.00000000000E+00 0. -1.
        -12    1    4    4    0    0  0.35424454998E+02  0.49580896033E+02 -0.14869275649E+02  0.62723620923E+02  0.00000000000E+00 0.  1.
        -13    1    3    3    0    0  0.35839721973E+02  0.31865896809E+01  0.28914336299E+02  0.46159277166E+02  0.00000000000E+00 0.  1.
         13    1    3    3    0    0 -0.64364607603E+02  0.10855686303E+02  0.59537179193E+02  0.88347746679E+02  0.00000000000E+00 0. -1.
          2    1    1    2  501    0  0.23214303606E+02 -0.43904645729E+02 -0.10551124652E+03  0.11661537185E+03  0.00000000000E+00 0. -1.
<scales pt_clust_5="13000.00000" pt_clust_6="13000.00000" pt_clust_7="13000.00000" pt_clust_8="13000.00000" pt_clust_9="49.66409"></scales>
<clustering>
<clus scale="   49.664">  2  9  1 -1</clus>
<clus scale="   92.467">  5  6 -1 -1</clus>
<clus scale="   95.214">  2  5  1 -1</clus>
<clus scale="   96.216">  7  8 -1 -1</clus>
<clus scale="   49.664">  2  5  1 -1</clus>
</clustering>
</event>
<event>
 9    1  0.6675710E-005  0.1196347E+03  0.7546771E-02  0.1246927E+00
         21   -1    0    0  501  502  0.00000000000E+00  0.00000000000E+00  0.39459600912E+02  0.39459600912E+02  0.00000000000E+00 0. -1.
          1   -1    0    0  502    0 -0.00000000000E+00 -0.00000000000E+00 -0.46268995675E+03  0.46268995675E+03  0.00000000000E+00 0. -1.
        -24    2    1    2    0    0 -0.31410184330E+02 -0.83446374442E+02 -0.25430078305E+03  0.28029537344E+03  0.77114920911E+02 0.  0.
         23    2    1    2    0    0  0.39744388644E+02  0.56434460154E+02 -0.11104205864E+03  0.15743317236E+03  0.87694927160E+02 0.  0.
         13    1    3    3    0    0  0.35801378638E+01 -0.74603123905E+02 -0.21154990432E+03  0.22434751058E+03  0.00000000000E+00 0. -1.
        -14    1    3    3    0    0 -0.34990322194E+02 -0.88432505364E+01 -0.42750878726E+02  0.55947862865E+02  0.00000000000E+00 0.  1.
        -11    1    4    4    0    0  0.22199146814E+02  0.20534245319E+01 -0.95707843273E+02  0.98270086677E+02  0.00000000000E+00 0.  1.
         11    1    4    4    0    0  0.17545241830E+02  0.54381035622E+02 -0.15334215368E+02  0.59163085680E+02  0.00000000000E+00 0. -1.
          2    1    1    2  501    0 -0.83342043139E+01  0.27011914288E+02 -0.57887514143E+02  0.64421011857E+02  0.00000000000E+00 0. -1.
<scales pt_clust_5="13000.00000" pt_clust_6="13000.00000" pt_clust_7="13000.00000" pt_clust_8="13000.00000" pt_clust_9="28.26841"></scales>
<clustering>
<clus scale="   28.268">  1  9  2 -1</clus>
<clus scale="   77.115">  5  6 -1 -1</clus>
<clus scale="   87.695">  7  8 -1 -1</clus>
<clus scale="  112.111">  2  5  1 -1</clus>
<clus scale="   28.268">  1  5  2 -1</clus>
</clustering>
</event>
<event>
 9    1  0.6675710E-005  0.9608995E+02  0.7546771E-02  0.1293177E+00
          1   -1    0    0  502    0 -0.00000000000E+00  0.00000000000E+00  0.10976318682E+03  0.10976318682E+03  0.00000000000E+00 0. -1.
         21   -1    0    0  501  502  0.00000000000E+00 -0.00000000000E+00 -0.16611236335E+03  0.16611236335E+03  0.00000000000E+00 0.  1.
        -24    2    1    2    0    0  0.26532670678E+02 -0.98602265916E+01  0.50218592066E+02  0.10072722465E+03  0.82600606015E+02 0.  0.
         23    2    1    2    0    0 -0.33025829799E+02  0.40619384726E+02 -0.95675021854E+02  0.14187763488E+03  0.90746424849E+02 0.  0.
         11    1    3    3    0    0  0.27625485325E+02 -0.14966318706E+01  0.72127142652E+02  0.77251097426E+02  0.00000000000E+00 0. -1.
        -12    1    3    3    0    0 -0.10928146466E+01 -0.83635947210E+01 -0.21908550586E+02  0.23476127220E+02  0.00000000000E+00 0.  1.
        -11    1    4    4    0    0  0.27673013818E+02 -0.58575975610E+01 -0.24368083804E+02  0.37335112847E+02  0.00000000000E+00 0. -1.
         11    1    4    4    0    0 -0.60698843618E+02  0.46476982287E+02 -0.71306938050E+02  0.10454252203E+03  0.00000000000E+00 0.  1.
          2    1    1    2  501    0  0.64931591213E+01 -0.30759158134E+02 -0.10892746746E+02  0.33270690648E+02  0.00000000000E+00 0. -1.
<scales pt_clust_5="13000.00000" pt_clust_6="13000.00000" pt_clust_7="13000.00000" pt_clust_8="13000.00000" pt_clust_9="31.43703"></scales>
<clustering>
<clus scale="   31.437">  2  9  1 -1</clus>
<clus scale="   82.601">  5  6 -1 -1</clus>
<clus scale="   88.438">  1  5  2 -1</clus>
<clus scale="   90.746">  7  8 -1 -1</clus>
<clus scale="   31.437">  2  5  1 -1</clus>
</clustering>
</event>
<event>
 9    1  0.6675710E-005  0.1257886E+03  0.7546771E-02  0.1255999E+00
         21   -1    0    0  501  502  0.00000000000E+00  0.00000000000E+00  0.77104308312E+02  0.77104308312E+02  0.00000000000E+00 0. -1.
          1   -1    0    0  502    0 -0.00000000000E+00 -0.00000000000E+00 -0.46531017284E+03  0.46531017284E+03  0.00000000000E+00 0. -1.
        -24    2    1    2    0    0 -0.13194472717E+02 -0.15126224594E+02 -0.45558412190E+02  0.92493358106E+02  0.77952264827E+02 0.  0.
         23    2    1    2    0    0  0.60949761794E+02 -0.60116685135E+02 -0.36022204644E+02  0.13060763191E+03  0.91825187125E+02 0.  0.
         11    1    3    3    0    0 -0.33624412169E+01  0.28563601673E+02 -0.21234912003E+00  0.28761614065E+02  0.00000000000E+00 0. -1.
        -12    1    3    3    0    0 -0.98320314996E+01 -0.43689826267E+02 -0.45346063070E+02  0.63731744041E+02  0.00000000000E+00 0.  1.
        -11    1    4    4    0    0  0.11201234935E+02 -0.73189765357E+02 -0.23276755971E+02  0.77614539782E+02  0.00000000000E+00 0.  1.
         11    1    4    4    0    0  0.49748526859E+02  0.13073080221E+02 -0.12745448673E+02  0.52993092125E+02  0.00000000000E+00 0. -1.
          2    1    1    2  501    0 -0.47755289077E+02  0.75242909729E+02 -0.30662524769E+03  0.31931349114E+03  0.00000000000E+00 0. -1.
<scales pt_clust_5="13000.00000" pt_clust_6="13000.00000" pt_clust_7="13000.00000" pt_clust_8="13000.00000" pt_clust_9="85.97042"></scales>
<clustering>
<clus scale="   77.952">  5  6 -1 -1</clus>
<clus scale="   80.495">  2  5  1 -1</clus>
<clus scale="   85.970">  1  9  2 -1</clus>
<clus scale="   91.825">  7  8 -1 -1</clus>
<clus scale="   85.970">  1  5  2 -1</clus>
</clustering>
</event>
<event>
 9    1  0.6675710E-005  0.1699566E+03  0.7546771E-02  0.1201986E+00
         -4   -1    0    0    0  501 -0.00000000000E+00  0.00000000000E+00  0.51259844133E+02  0.51259844133E+02  0.00000000000E+00 0.  1.
         21   -1    0    0  501  502  0.00000000000E+00 -0.00000000000E+00 -0.98039640542E+03  0.98039640542E+03  0.00000000000E+00 0. -1.
         23    2    1    2    0    0 -0.40601581812E+02  0.58977351476E+01 -0.18152701065E+03  0.20714963040E+03  0.90970555961E+02 0.  0.
        -24    2    1    2    0    0 -0.86405113655E+02  0.11096376574E+03 -0.47872674650E+03  0.50499875783E+03  0.77882261336E+02 0.  0.
         13    1    4    4    0    0 -0.97219847485E+02  0.10936400953E+03 -0.46482355488E+03  0.48731214072E+03  0.00000000000E+00 0. -1.
        -14    1    4    4    0    0  0.10814733830E+02  0.15997562135E+01 -0.13903191617E+02  0.17686617113E+02  0.00000000000E+00 0.  1.
        -13    1    3    3    0    0 -0.63385694998E+02  0.18663804782E+02 -0.88007602051E+02  0.11005190575E+03  0.00000000000E+00 0. -1.
         13    1    3    3    0    0  0.22784113186E+02 -0.12766069634E+02 -0.93519408599E+02  0.97097724651E+02  0.00000000000E+00 0.  1.
         -3    1    1    2    0  502  0.12700669547E+03 -0.11686150089E+03 -0.26888280414E+03  0.31950786132E+03  0.00000000000E+00 0.  1.
<scales pt_clust_5="13000.00000" pt_clust_6="13000.00000" pt_clust_7="13000.00000" pt_clust_8="13000.00000" pt_clust_9="151.06170"></scales>
<clustering>
<clus scale="   77.882">  5  6 -1 -1</clus>
<clus scale="   90.971">  7  8 -1 -1</clus>
<clus scale="   99.794">  1  7  2 -1</clus>
<clus scale="  151.062">  2  9  1 -1</clus>
<clus scale="  151.062">  2  5  1 -1</clus>
</clustering>
</event>
<event>
 9    1  0.6675710E-005  0.1611208E+03  0.7546771E-02  0.1212157E+00
         21   -1    0    0  501  502  0.00000000000E+00  0.00000000000E+00  0.13602655660E+03  0.13602655660E+03  0.00000000000E+00 0.  1.
         -4   -1    0    0    0  501 -0.00000000000E+00 -0.00000000000E+00 -0.31409279030E+03  0.31409279030E+03  0.00000000000E+00 0.  1.
         23    2    1    2    0    0  0.12118271213E+02 -0.16757767518E+02 -0.90825864123E+02  0.13082717003E+03  0.91862590622E+02 0.  0.
        -24    2    1    2    0    0 -0.12226913973E+03 -0.67380192295E+02 -0.79588168567E+02  0.18047227089E+03  0.82134835112E+02 0.  0.
         11    1    4    4    0    0 -0.33015795100E+02  0.19297766283E+01 -0.55993060655E+02  0.65030682031E+02  0.00000000000E+00 0. -1.
        -12    1    4    4    0    0 -0.89253344634E+02 -0.69309968923E+02 -0.23595107912E+02  0.11544158886E+03  0.00000000000E+00 0.  1.
        -13    1    3    3    0    0 -0.34006128460E+02  0.16001851997E+02 -0.36872393919E+02  0.52650256158E+02  0.00000000000E+00 0. -1.
         13    1    3    3    0    0  0.46124399673E+02 -0.32759619515E+02 -0.53953470204E+02  0.78176913875E+02  0.00000000000E+00 0.  1.
         -3    1    1    2    0  502  0.11015086852E+03  0.84137959813E+02 -0.76522010146E+01  0.13881990599E+03  0.00000000000E+00 0.  1.
<scales pt_clust_5="13000.00000" pt_clust_6="13000.00000" pt_clust_7="13000.00000" pt_clust_8="13000.00000" pt_clust_9="138.61383"></scales>
<clustering>
<clus scale="   82.135">  5  6 -1 -1</clus>
<clus scale="   91.863">  7  8 -1 -1</clus>
<clus scale="   94.162">  2  7  1 -1</clus>
<clus scale="  138.614">  1  9  2 -1</clus>
<clus scale="  138.614">  1  5  2 -1</clus>
</clustering>
</event>
<event>
 9    1  0.6675710E-005  0.1384435E+03  0.7546771E-02  0.1232835E+00
          1   -1    0    0  502    0 -0.00000000000E+00  0.00000000000E+00  0.34886348820E+03  0.34886348820E+03  0.00000000000E+00 0. -1.
         21   -1    0    0  501  502  0.00000000000E+00 -0.00000000000E+00 -0.91220057657E+02  0.91220057657E+02  0.00000000000E+00 0. -1.
         23    2    1    2    0    0  0.24332672872E+02 -0.14523480646E+02  0.48631234586E+02  0.10790326806E+03  0.92060348802E+02 0.  0.
        -24    2    1    2    0    0  0.88767560301E+02 -0.36125850546E+02  0.15065692965E+03  0.19520453323E+03  0.78883093891E+02 0.  0.
         11    1    4    4    0    0  0.88296731387E+02 -0.10001165403E+02  0.14230945306E+03  0.16777460032E+03  0.00000000000E+00 0. -1.
        -12    1    4    4    0    0  0.47082891437E+00 -0.26124685143E+02  0.83474765854E+01  0.27429932903E+02  0.00000000000E+00 0.  1.
        -13    1    3    3    0    0  0.27792298919E+02  0.32979178400E+02  0.41300271749E+02  0.59713905698E+02  0.00000000000E+00 0.  1.
         13    1    3    3    0    0 -0.34596260473E+01 -0.47502659045E+02  0.73309628370E+01  0.48189362362E+02  0.00000000000E+00 0. -1.
          2    1    1    2  501    0 -0.11310023317E+03  0.50649331192E+02  0.58355266307E+02  0.13697574457E+03  0.00000000000E+00 0. -1.
<scales pt_clust_5="13000.00000" pt_clust_6="13000.00000" pt_clust_7="13000.00000" pt_clust_8="13000.00000" pt_clust_9="113.77197"></scales>
<clustering>
<clus scale="   78.883">  5  6 -1 -1</clus>
<clus scale="   92.060">  7  8 -1 -1</clus>
<clus scale="   96.323">  1  7  2 -1</clus>
<clus scale="  113.772">  2  9  1 -1</clus>
<clus scale="  113.772">  2  5  1 -1</clus>
</clustering>
</event>
<event>
 9    1  0.6675710E-005  0.1317299E+03  0.7546771E-02  0.1246017E+00
         21   -1    0    0  501  502  0.00000000000E+00  0.00000000000E+00  0.27137970401E+03  0.27137970401E+03  0.00000000000E+00 0.  1.
         -4   -1    0    0    0  501 -0.00000000000E+00 -0.00000000000E+00 -0.95046040564E+02  0.95046040564E+02  0.00000000000E+00 0.  1.
        -24    2    1    2    0    0  0.22322352448E+02 -0.20605426829E+02  0.50137334530E+02  0.99140585910E+02  0.79951437930E+02 0.  0.
         23    2    1    2    0    0 -0.55444137427E+02 -0.74677091735E+02  0.97408345961E+02  0.16238254217E+03  0.90713746112E+02 0.  0.
         13    1    3    3    0    0  0.18505975619E+02 -0.50608889652E+02  0.23309980080E+02  0.58711889910E+02  0.00000000000E+00 0. -1.
        -14    1    3    3    0    0  0.38163768285E+01  0.30003462823E+02  0.26827354450E+02  0.40428696000E+02  0.00000000000E+00 0.  1.
        -11    1    4    4    0    0 -0.46281667883E+02  0.39397212362E+01  0.56957173887E+02  0.73495808334E+02  0.00000000000E+00 0. -1.
         11    1    4    4    0    0 -0.91624695447E+01 -0.78616812971E+02  0.40451172074E+02  0.88886733836E+02  0.00000000000E+00 0.  1.
         -3    1    1    2    0  502  0.33121784980E+02  0.95282518564E+02  0.28787982950E+02  0.10490261649E+03  0.00000000000E+00 0.  1.
<scales pt_clust_5="13000.00000" pt_clust_6="13000.00000" pt_clust_7="13000.00000" pt_clust_8="13000.00000" pt_clust_9="95.51850"></scales>
<clustering>
<clus scale="   79.951">  5  6 -1 -1</clus>
<clus scale="   85.528">  2  5  1 -1</clus>
<clus scale="   90.714">  7  8 -1 -1</clus>
<clus scale="   95.519">  1  9  2 -1</clus>
<clus scale="   95.519">  1  5  2 -1</clus>
</clustering>
</event>
<event>
 9    1  0.6675710E-005  0.1007669E+03  0.7546771E-02  0.1288304E+00
          1   -1    0    0  502    0 -0.00000000000E+00  0.00000000000E+00  0.60109766401E+02  0.60109766401E+02  0.00000000000E+00 0. -1.
         21   -1    0    0  501  502  0.00000000000E+00 -0.00000000000E+00 -0.36951962845E+03  0.36951962845E+03  0.00000000000E+00 0. -1.
        -24    2    1    2    0    0 -0.22089277574E+02  0.24522096018E+02 -0.53328586462E+02  0.10130320469E+03  0.79555840570E+02 0.  0.
         23    2    1    2    0    0 -0.42264168477E+01 -0.98432554432E+01 -0.27561814092E+03  0.29241416934E+03  0.97087252244E+02 0.  0.
         13    1    3    3    0    0 -0.40195596259E+02  0.43926393990E+02 -0.38446030337E+02  0.70875322195E+02  0.00000000000E+00 0. -1.
        -14    1    3    3    0    0  0.18106318685E+02 -0.19404297972E+02 -0.14882556125E+02  0.30427882491E+02  0.00000000000E+00 0.  1.
        -11    1    4    4    0    0  0.35616434331E+02  0.64660195318E+01 -0.21521953314E+03  0.21824249643E+03  0.00000000000E+00 0. -1.
         11    1    4    4    0    0 -0.39842851178E+02 -0.16309274975E+02 -0.60398607781E+02  0.74171672909E+02  0.00000000000E+00 0.  1.
          2    1    1    2  501    0  0.26315694422E+02 -0.14678840575E+02  0.19536865326E+02  0.35912020833E+02  0.00000000000E+00 0. -1.
<scales pt_clust_5="13000.00000" pt_clust_6="13000.00000" pt_clust_7="13000.00000" pt_clust_8="13000.00000" pt_clust_9="30.13279"></scales>
<clustering>
<clus scale="   30.133">  2  9  1 -1</clus>
<clus scale="   79.556">  5  6 -1 -1</clus>
<clus scale="   84.007">  1  5  2 -1</clus>
<clus scale="   97.087">  7  8 -1 -1</clus>
<clus scale="   30.133">  2  5  1 -1</clus>
</clustering>
</event>
<event>
 9    1  0.6675710E-005  0.1215456E+03  0.7546771E-02  0.1242851E+00
         -4   -1    0    0    0  501 -0.00000000000E+00  0.00000000000E+00  0.53994507304E+03  0.53994507304E+03  0.00000000000E+00 0.  1.
         21   -1    0    0  501  502  0.00000000000E+00 -0.00000000000E+00 -0.55794516023E+02  0.55794516023E+02  0.00000000000E+00 0. -1.
         23    2    1    2    0    0  0.90215649279E+02  0.45846751116E+02  0.19764468834E+03  0.23919316172E+03  0.88933446019E+02 0.  0.
        -24    2    1    2    0    0 -0.67947350750E+02  0.22199353992E+02  0.70962037943E+02  0.12942246888E+03  0.81270602502E+02 0.  0.
         13    1    4    4    0    0 -0.49154805911E+02  0.43849380145E+02  0.16546999414E+02  0.67917348835E+02  0.00000000000E+00 0. -1.
        -14    1    4    4    0    0 -0.18792544839E+02 -0.21650026153E+02  0.54415038529E+02  0.61505120048E+02  0.00000000000E+00 0.  1.
        -13    1    3    3    0    0  0.20467488519E+01 -0.20853674670E+02  0.15278876809E+02  0.25932778575E+02  0.00000000000E+00 0.  1.
         13    1    3    3    0    0  0.88168900427E+02  0.66700425786E+02  0.18236581153E+03  0.21326038314E+03  0.00000000000E+00 0. -1.
         -3    1    1    2    0  502 -0.22268298529E+02 -0.68046105108E+02  0.21554383074E+03  0.22712395846E+03  0.00000000000E+00 0.  1.
<scales pt_clust_5="13000.00000" pt_clust_6="13000.00000" pt_clust_7="13000.00000" pt_clust_8="13000.00000" pt_clust_9="71.59717"></scales>
<clustering>
<clus scale="   71.597">  2  9  1 -1</clus>
<clus scale="   81.271">  5  6 -1 -1</clus>
<clus scale="   88.933">  7  8 -1 -1</clus>
<clus scale="  116.056">  2  5  1 -1</clus>
<clus scale="   71.597">  2  5  1 -1</clus>
</clustering>
</event>
<event>
 9    1  0.6675710E-005  0.3205253E+03  0.7546771E-02  0.1075854E+00
          1   -1    0    0  502    0 -0.00000000000E+00  0.00000000000E+00  0.19917704105E+03  0.19917704105E+03  0.00000000000E+00 0. -1.
         21   -1    0    0  501  502  0.00000000000E+00 -0.00000000000E+00 -0.72698585396E+03  0.72698585396E+03  0.00000000000E+00 0. -1.
        -24    2    1    2    0    0 -0.26575620566E+03 -0.75049328884E+02 -0.21316178368E+03  0.35746165436E+03  0.77987984361E+02 0.  0.
         23    2    1    2    0    0  0.34685172791E+03  0.57396258642E+02 -0.32168353577E+03  0.48540882176E+03  0.92417397682E+02 0.  0.
         13    1    3    3    0    0 -0.17744926824E+03 -0.15575334685E+02 -0.15509520652E+03  0.23618923967E+03  0.00000000000E+00 0. -1.
        -14    1    3    3    0    0 -0.88306937413E+02 -0.59473994198E+02 -0.58066577157E+02  0.12127241469E+03  0.00000000000E+00 0.  1.
        -11    1    4    4    0    0  0.32612815615E+03  0.75303498598E+02 -0.30771731837E+03  0.45466486466E+03  0.00000000000E+00 0. -1.
         11    1    4    4    0    0  0.20723571768E+02 -0.17907239957E+02 -0.13966217402E+02  0.30743957101E+02  0.00000000000E+00 0.  1.
          2    1    1    2  501    0 -0.81095522256E+02  0.17653070242E+02  0.70365065426E+01  0.83292418882E+02  0.00000000000E+00 0. -1.
<scales pt_clust_5="13000.00000" pt_clust_6="13000.00000" pt_clust_7="13000.00000" pt_clust_8="13000.00000" pt_clust_9="82.99471"></scales>
<clustering>
<clus scale="   77.988">  5  6 -1 -1</clus>
<clus scale="   82.995">  2  9  1 -1</clus>
<clus scale="   92.417">  7  8 -1 -1</clus>
<clus scale="  316.666">  1  5  2 -1</clus>
<clus scale="   82.995">  2  5  1 -1</clus>
</clustering>
</event>
<event>
 9    1  0.6675710E-005  0.9534267E+02  0.7546771E-02  0.1296307E+00
         21   -1    0    0  501  502  0.00000000000E+00  0.00000000000E+00  0.17136654043E+03  0.17136654043E+03  0.00000000000E+00 0. -1.
         -4   -1    0    0    0  501 -0.00000000000E+00 -0.00000000000E+00 -0.68265615133E+03  0.68265615133E+03  0.00000000000E+00 0.  1.
        -24    2    1    2    0    0  0.11858640700E+02  0.25492896921E+02 -0.64977448440E+03  0.65540825500E+03  0.81009783317E+02 0.  0.
         23    2    1    2    0    0  0.95859293194E+01 -0.29755537042E+01  0.49687087519E+02  0.10452964986E+03  0.91416065730E+02 0.  0.
         11    1    3    3    0    0 -0.29710723765E+02  0.15631643178E+02 -0.14530367029E+03  0.14913159281E+03  0.00000000000E+00 0. -1.
        -12    1    3    3    0    0  0.41569364465E+02  0.98612537430E+01 -0.50447081411E+03  0.50627666219E+03  0.00000000000E+00 0.  1.
        -11    1    4    4    0    0  0.49351824792E+02  0.83987817078E+01  0.21532215114E+02  0.54495673518E+02  0.00000000000E+00 0.  1.
         11    1    4    4    0    0 -0.39765895472E+02 -0.11374335412E+02  0.28154872405E+02  0.50033976345E+02  0.00000000000E+00 0. -1.
         -3    1    1    2    0  502 -0.21444570020E+02 -0.22517343217E+02  0.88797785987E+02  0.94084786894E+02  0.00000000000E+00 0.  1.
<scales pt_clust_5="13000.00000" pt_clust_6="13000.00000" pt_clust_7="13000.00000" pt_clust_8="13000.00000" pt_clust_9="31.09502"></scales>
<clustering>
<clus scale="   31.095">  1  9  2 -1</clus>
<clus scale="   81.010">  5  6 -1 -1</clus>
<clus scale="   85.416">  2  5  1 -1</clus>
<clus scale="   91.416">  7  8 -1 -1</clus>
<clus scale="   31.095">  1  5  2 -1</clus>
</clustering>
</event>
<event>
 9    1  0.6675710E-005  0.1359087E+03  0.7546771E-02  0.1223627E+00
          1   -1    0    0  502    0 -0.00000000000E+00  0.00000000000E+00  0.11122629528E+03  0.11122629528E+03  0.00000000000E+00 0. -1.
         21   -1    0    0  501  502  0.00000000000E+00 -0.00000000000E+00 -0.29028055402E+03  0.29028055402E+03  0.00000000000E+00 0.  1.
        -24    2    1    2    0    0  0.72246197232E+02  0.33532751010E+02 -0.29370119043E+02  0.10923196067E+03  0.68739064108E+02 0.  0.
         23    2    1    2    0    0 -0.11593467534E+03 -0.92434565369E+02 -0.78844393675E+02  0.19031226572E+03  0.89539501048E+02 0.  0.
         11    1    3    3    0    0  0.74563307019E+02  0.30011008680E+02 -0.82836089052E+00  0.80380554721E+02  0.00000000000E+00 0. -1.
        -12    1    3    3    0    0 -0.23171097862E+01  0.35217423302E+01 -0.28541758152E+02  0.28851405949E+02  0.00000000000E+00 0.  1.
        -11    1    4    4    0    0 -0.22663138404E+02  0.53775934184E+01 -0.45484068909E+02  0.51101241451E+02  0.00000000000E+00 0. -1.
         11    1    4    4    0    0 -0.93271536939E+02 -0.97812158788E+02 -0.33360324766E+02  0.13921102427E+03  0.00000000000E+00 0.  1.
          2    1    1    2  501    0  0.43688478111E+02  0.58901814359E+02 -0.70839746026E+02  0.10196262291E+03  0.00000000000E+00 0. -1.
<scales pt_clust_5="13000.00000" pt_clust_6="13000.00000" pt_clust_7="13000.00000" pt_clust_8="13000.00000" pt_clust_9="73.33558"></scales>
<clustering>
<clus scale="   68.739">  5  6 -1 -1</clus>
<clus scale="   73.336">  2  9  1 -1</clus>
<clus scale="   89.540">  7  8 -1 -1</clus>
<clus scale="  123.203">  1  5  2 -1</clus>
<clus scale="   73.336">  2  5  1 -1</clus>
</clustering>
</event>
<event>
 9    1  0.6675710E-005  0.9470051E+02  0.7546771E-02  0.1295527E+00
          1   -1    0    0  502    0 -0.00000000000E+00  0.00000000000E+00  0.19793443428E+03  0.19793443428E+03  0.00000000000E+00 0. -1.
         21   -1    0    0  501  502  0.00000000000E+00 -0.00000000000E+00 -0.15800093409E+03  0.15800093409E+03  0.00000000000E+00 0. -1.
        -24    2    1    2    0    0 -0.41541854826E+02  0.43471785843E+01  0.92432145345E+02  0.13362861187E+03  0.86995866300E+02 0.  0.
         23    2    1    2    0    0 -0.45451453605E+02  0.27023944060E+02  0.14283012422E+02  0.10823759837E+03  0.93355476910E+02 0.  0.
         11    1    3    3    0    0 -0.56018621393E+02 -0.39728681762E+01  0.10046771670E+03  0.11509835674E+03  0.00000000000E+00 0. -1.
        -12    1    3    3    0    0  0.14476766567E+02  0.83200467605E+01 -0.80355713555E+01  0.18530255134E+02  0.00000000000E+00 0.  1.
        -11    1    4    4    0    0 -0.69544658623E+02  0.30355799128E+02 -0.66169950297E+01  0.76169014087E+02  0.00000000000E+00 0. -1.
         11    1    4    4    0    0  0.24093205019E+02 -0.33318550679E+01  0.20900007452E+02  0.32068584280E+02  0.00000000000E+00 0.  1.
          2    1    1    2  501    0  0.86993308430E+02 -0.31371122645E+02 -0.66781657580E+02  0.11406915813E+03  0.00000000000E+00 0. -1.
<scales pt_clust_5="13000.00000" pt_clust_6="13000.00000" pt_clust_7="13000.00000" pt_clust_8="13000.00000" pt_clust_9="92.47693"></scales>
<clustering>
<clus scale="   86.996">  5  6 -1 -1</clus>
<clus scale="   92.477">  2  9  1 -1</clus>
<clus scale="   88.438">  1  5  2 -1</clus>
<clus scale="   93.355">  7  8 -1 -1</clus>
<clus scale="   92.477">  2  5  1 -1</clus>
</clustering>
</event>
<event>
 9    1  0.6675710E-005  0.1188291E+03  0.7546771E-02  0.1247629E+00
         -2   -1    0    0    0  501 -0.00000000000E+00  0.00000000000E+00  0.28590154157E+03  0.28590154157E+03  0.00000000000E+00 0.  1.
         21   -1    0    0  501  502  0.00000000000E+00 -0.00000000000E+00 -0.10034686196E+03  0.10034686196E+03  0.00000000000E+00 0. -1.
         23    2    1    2    0    0 -0.30982892831E+02 -0.45990555930E+02  0.11510606616E+03  0.15727924813E+03  0.91718507087E+02 0.  0.
        -24    2    1    2    0    0  0.98966489989E+02  0.39217822183E+02  0.26655091785E+02  0.14781798816E+03  0.99031611058E+02 0.  0.
         11    1    4    4    0    0  0.10921192607E+03  0.16612063488E+02  0.42511949541E+02  0.11836583672E+03  0.00000000000E+00 0. -1.
        -12    1    4    4    0    0 -0.10245436079E+02  0.22605758695E+02 -0.15856857757E+02  0.29452151442E+02  0.00000000000E+00 0.  1.
        -11    1    3    3    0    0 -0.43494521224E+02 -0.23919093138E+02  0.11959274783E+02  0.51058012558E+02  0.00000000000E+00 0. -1.
         11    1    3    3    0    0  0.12511628394E+02 -0.22071462792E+02  0.10314679138E+03  0.10622123557E+03  0.00000000000E+00 0.  1.
         -1    1    1    2    0  502 -0.67983597158E+02  0.67727337465E+01  0.43793521663E+02  0.81151167242E+02  0.00000000000E+00 0.  1.
<scales pt_clust_5="13000.00000" pt_clust_6="13000.00000" pt_clust_7="13000.00000" pt_clust_8="13000.00000" pt_clust_9="68.32016"></scales>
<clustering>
<clus scale="   68.320">  2  9  1 -1</clus>
<clus scale="   91.719">  7  8 -1 -1</clus>
<clus scale="   99.032">  5  6 -1 -1</clus>
<clus scale="  112.807">  1  7  2 -1</clus>
<clus scale="   68.320">  2  5  1 -1</clus>
</clustering>
</event>
<event>
 9    1  0.6675710E-005  0.3435971E+03  0.7546771E-02  0.1065274E+00
          1   -1    0    0  502    0 -0.00000000000E+00  0.00000000000E+00  0.80022344924E+03  0.80022344924E+03  0.00000000000E+00 0. -1.
         21   -1    0    0  501  502  0.00000000000E+00 -0.00000000000E+00 -0.21841371409E+03  0.21841371409E+03  0.00000000000E+00 0. -1.
        -24    2    1    2    0    0  0.61668802172E+02 -0.16774157444E+03  0.30358354476E+03  0.36122312541E+03  0.79868020651E+02 0.  0.
         23    2    1    2    0    0  0.51432855348E+02 -0.95927539301E+02  0.33594472667E+03  0.36476268237E+03  0.91353837748E+02 0.  0.
         13    1    3    3    0    0  0.28351150697E+02 -0.15204051629E+03  0.27109557882E+03  0.31211042789E+03  0.00000000000E+00 0. -1.
        -14    1    3    3    0    0  0.33317651475E+02 -0.15701058149E+02  0.32487965940E+02  0.49112697521E+02  0.00000000000E+00 0.  1.
        -13    1    4    4    0    0  0.65691331310E+02 -0.38653130300E+02  0.24288917662E+03  0.25456741270E+03  0.00000000000E+00 0. -1.
         13    1    4    4    0    0 -0.14258475961E+02 -0.57274409001E+02  0.93055550048E+02  0.11019526967E+03  0.00000000000E+00 0.  1.
          2    1    1    2  501    0 -0.11310165752E+03  0.26366911374E+03 -0.57718536280E+02  0.29265135555E+03  0.00000000000E+00 0. -1.
<scales pt_clust_5="13000.00000" pt_clust_6="13000.00000" pt_clust_7="13000.00000" pt_clust_8="13000.00000" pt_clust_9="286.90310"></scales>
<clustering>
<clus scale="   79.868">  5  6 -1 -1</clus>
<clus scale="   91.354">  7  8 -1 -1</clus>
<clus scale="  109.599">  5  7 -1 -1</clus>
<clus scale="  286.903">  2  9  1 -1</clus>
<clus scale="  286.903">  2  5  1 -1</clus>
</clustering>
</event>
<event>
 9    1  0.6675710E-005  0.9684195E+02  0.7546771E-02  0.1292916E+00
          1   -1    0    0  502    0 -0.00000000000E+00  0.00000000000E+00  0.29272841997E+03  0.29272841997E+03  0.00000000000E+00 0. -1.
         21   -1    0    0  501  502  0.00000000000E+00 -0.00000000000E+00 -0.10430801565E+03  0.10430801565E+03  0.00000000000E+00 0. -1.
        -24    2    1    2    0    0  0.33834696862E+02 -0.17283431998E+00  0.23115682688E+03  0.24748526242E+03  0.81674107987E+02 0.  0.
         23    2    1    2    0    0 -0.57390682331E+01  0.78365073091E+01  0.57965105911E+01  0.92951333695E+02  0.92260517827E+02 0.  0.
         13    1    3    3    0    0  0.53995194116E+02  0.21180396907E+02  0.17045884936E+03  0.18005640651E+03  0.00000000000E+00 0. -1.
        -14    1    3    3    0    0 -0.20160497253E+02 -0.21353231227E+02  0.60697977528E+02  0.67428855910E+02  0.00000000000E+00 0.  1.
        -11    1    4    4    0    0 -0.27075115518E+02  0.42969634674E+02 -0.31455778889E+01  0.50885617267E+02  0.00000000000E+00 0.  1.
         11    1    4    4    0    0  0.21336047285E+02 -0.35133127365E+02  0.89420884800E+01  0.42065716428E+02  0.00000000000E+00 0. -1.
          2    1    1    2  501    0 -0.28095628629E+02 -0.76636729891E+01 -0.48532933150E+02  0.56599839504E+02  0.00000000000E+00 0. -1.
<scales pt_clust_5="13000.00000" pt_clust_6="13000.00000" pt_clust_7="13000.00000" pt_clust_8="13000.00000" pt_clust_9="29.12209"></scales>
<clustering>
<clus scale="   29.122">  2  9  1 -1</clus>
<clus scale="   81.674">  5  6 -1 -1</clus>
<clus scale="   86.816">  1  5  2 -1</clus>
<clus scale="   92.261">  7  8 -1 -1</clus>
<clus scale="   29.122">  2  5  1 -1</clus>
</clustering>
</event>
<event>
 9    1  0.6675710E-005  0.1151788E+03  0.7546771E-02  0.1254222E+00
          3   -1    0    0  502    0 -0.00000000000E+00  0.00000000000E+00  0.26382562535E+03  0.26382562535E+03  0.00000000000E+00 0. -1.
         21   -1    0    0  501  502  0.00000000000E+00 -0.00000000000E+00 -0.10712666257E+03  0.10712666257E+03  0.00000000000E+00 0. -1.
        -24    2    1    2    0    0  0.20581601833E+02 -0.53225675599E+02  0.89976067555E+01  0.10007695704E+03  0.81718208048E+02 0.  0.
         23    2    1    2    0    0 -0.91146772115E+02  0.40130741341E+02  0.37815739233E+02  0.13962835249E+03  0.90265365543E+02 0.  0.
         13    1    3    3    0    0 -0.14551069434E+02 -0.59102444015E+02 -0.65345475164E+01  0.61217095826E+02  0.00000000000E+00 0. -1.
        -14    1    3    3    0    0  0.35132671267E+02  0.58767684155E+01  0.15532154272E+02  0.38859861216E+02  0.00000000000E+00 0.  1.
        -11    1    4    4    0    0 -0.29226020331E+02  0.16364923733E+02 -0.29858348203E+02  0.44871950600E+02  0.00000000000E+00 0.  1.
         11    1    4    4    0    0 -0.61920751784E+02  0.23765817608E+02  0.67674087437E+02  0.94756401887E+02  0.00000000000E+00 0. -1.
          4    1    1    2  501    0  0.70565170283E+02  0.13094934258E+02  0.10988561679E+03  0.13124697839E+03  0.00000000000E+00 0. -1.
<scales pt_clust_5="13000.00000" pt_clust_6="13000.00000" pt_clust_7="13000.00000" pt_clust_8="13000.00000" pt_clust_9="71.76995"></scales>
<clustering>
<clus scale="   71.770">  2  9  1 -1</clus>
<clus scale="   81.718">  5  6 -1 -1</clus>
<clus scale="   90.265">  7  8 -1 -1</clus>
<clus scale="  108.610">  1  5  2 -1</clus>
<clus scale="   71.770">  2  5  1 -1</clus>
</clustering>
</event>
<event>
 9    1  0.6675710E-005  0.2940419E+03  0.7546771E-02  0.1123452E+00
          1   -1    0    0  502    0 -0.00000000000E+00  0.00000000000E+00  0.40033215075E+03  0.40033215075E+03  0.00000000000E+00 0. -1.
         21   -1    0    0  501  502  0.00000000000E+00 -0.00000000000E+00 -0.64149555453E+03  0.64149555453E+03  0.00000000000E+00 0.  1.
         23    2    1    2    0    0  0.31335572818E+02 -0.56735045266E+02  0.23458193208E+03  0.26309454377E+03  0.99946348683E+02 0.  0.
        -24    2    1    2    0    0 -0.13724728332E+03  0.29463266119E+03 -0.16966376195E+03  0.37686440686E+03  0.87153698811E+02 0.  0.
         11    1    4    4    0    0  0.51354831110E+01  0.67594924382E+02 -0.24484263657E+02  0.72075836143E+02  0.00000000000E+00 0. -1.
        -12    1    4    4    0    0 -0.14238276643E+03  0.22703773681E+03 -0.14517949829E+03  0.30478857071E+03  0.00000000000E+00 0.  1.
        -13    1    3    3    0    0 -0.16780998200E+01 -0.67930340954E+02  0.81585635927E+02  0.10617703721E+03  0.00000000000E+00 0. -1.
         13    1    3    3    0    0  0.33013672638E+02  0.11195295688E+02  0.15299629615E+03  0.15691750656E+03  0.00000000000E+00 0.  1.
          2    1    1    2  501    0  0.10591171051E+03 -0.23789761593E+03 -0.30608157390E+03  0.40186875466E+03  0.00000000000E+00 0. -1.
<scales pt_clust_5="13000.00000" pt_clust_6="13000.00000" pt_clust_7="13000.00000" pt_clust_8="13000.00000" pt_clust_9="280.82889"></scales>
<clustering>
<clus scale="   87.154">  5  6 -1 -1</clus>
<clus scale="   99.946">  7  8 -1 -1</clus>
<clus scale="  119.122">  1  7  2 -1</clus>
<clus scale="  280.829">  2  9  1 -1</clus>
<clus scale="  280.829">  2  5  1 -1</clus>
</clustering>
</event>
<event>
 9    1  0.6675710E-005  0.1753253E+03  0.7546771E-02  0.1193638E+00
         21   -1    0    0  501  502  0.00000000000E+00  0.00000000000E+00  0.26733517579E+03  0.26733517579E+03  0.00000000000E+00 0. -1.
          1   -1    0    0  502    0 -0.00000000000E+00 -0.00000000000E+00 -0.50049424256E+03  0.50049424256E+03  0.00000000000E+00 0. -1.
        -24    2    1    2    0    0  0.69329503685E+02 -0.16009416913E+02  0.46569418045E+02  0.11857889207E+03  0.82639950605E+02 0.  0.
         23    2    1    2    0    0 -0.18812459847E+03  0.10059157943E+03 -0.39875612498E+03  0.46101132769E+03  0.89529138572E+02 0.  0.
         11    1    3    3    0    0  0.61375501924E+02 -0.42322088779E+02  0.13821355868E+02  0.75823092215E+02  0.00000000000E+00 0. -1.
        -12    1    3    3    0    0  0.79540017613E+01  0.26312671866E+02  0.32748062177E+02  0.42755799853E+02  0.00000000000E+00 0.  1.
        -11    1    4    4    0    0 -0.91561846537E+02  0.98785336956E+02 -0.22614453858E+03  0.26321752766E+03  0.00000000000E+00 0. -1.
         11    1    4    4    0    0 -0.96562751933E+02  0.18062424755E+01 -0.17261158640E+03  0.19779380003E+03  0.00000000000E+00 0.  1.
          2    1    1    2  501    0  0.11879509478E+03 -0.84582162518E+02  0.11902764017E+03  0.18823919859E+03  0.00000000000E+00 0. -1.
<scales pt_clust_5="13000.00000" pt_clust_6="13000.00000" pt_clust_7="13000.00000" pt_clust_8="13000.00000" pt_clust_9="150.74316"></scales>
<clustering>
<clus scale="   82.640">  5  6 -1 -1</clus>
<clus scale="   89.529">  7  8 -1 -1</clus>
<clus scale="  109.052">  2  5  1 -1</clus>
<clus scale="  150.743">  1  9  2 -1</clus>
<clus scale="  150.743">  1  5  2 -1</clus>
</clustering>
</event>
<event>
 9    1  0.6675710E-005  0.1178690E+03  0.7546771E-02  0.1250152E+00
         -2   -1    0    0    0  501 -0.00000000000E+00  0.00000000000E+00  0.48153086919E+03  0.48153086919E+03  0.00000000000E+00 0.  1.
         21   -1    0    0  501  502  0.00000000000E+00 -0.00000000000E+00 -0.59786678190E+02  0.59786678190E+02  0.00000000000E+00 0. -1.
         23    2    1    2    0    0  0.19512067410E+02  0.66230053789E+02  0.31709057130E+03  0.33691032977E+03  0.90526234288E+02 0.  0.
        -24    2    1    2    0    0 -0.45518527713E+02 -0.82341236835E+02  0.11825795273E+03  0.17092611736E+03  0.79867255875E+02 0.  0.
         13    1    4    4    0    0 -0.12310965613E+02 -0.71632110874E+02  0.35036604591E+02  0.80686323772E+02  0.00000000000E+00 0. -1.
        -14    1    4    4    0    0 -0.33207562100E+02 -0.10709125961E+02  0.83221348142E+02  0.90239793584E+02  0.00000000000E+00 0.  1.
        -13    1    3    3    0    0 -0.13278527950E+01  0.61255441515E+02  0.30730959344E+03  0.31335790804E+03  0.00000000000E+00 0.  1.
         13    1    3    3    0    0  0.20839920205E+02  0.49746122747E+01  0.97809778639E+01  0.23552421731E+02  0.00000000000E+00 0. -1.
         -1    1    1    2    0  502  0.26006460303E+02  0.16111183045E+02 -0.13604333042E+02  0.33481100252E+02  0.00000000000E+00 0.  1.
<scales pt_clust_5="13000.00000" pt_clust_6="13000.00000" pt_clust_7="13000.00000" pt_clust_8="13000.00000" pt_clust_9="30.59258"></scales>
<clustering>
<clus scale="   30.593">  2  9  1 -1</clus>
<clus scale="   79.867">  5  6 -1 -1</clus>
<clus scale="   90.526">  7  8 -1 -1</clus>
<clus scale="  109.895">  2  5  1 -1</clus>
<clus scale="   30.593">  2  5  1 -1</clus>
</clustering>
</event>
<event>
 9    1  0.6675710E-005  0.1034304E+03  0.7546771E-02  0.1279945E+00
          1   -1    0    0  502    0 -0.00000000000E+00  0.00000000000E+00  0.46997005560E+03  0.46997005560E+03  0.00000000000E+00 0. -1.
         21   -1    0    0  501  502  0.00000000000E+00 -0.00000000000E+00 -0.14539604552E+03  0.14539604552E+03  0.00000000000E+00 0.  1.
        -24    2    1    2    0    0 -0.44712920803E+01 -0.47749867935E+02  0.42728273669E+03  0.43677249319E+03  0.76809057996E+02 0.  0.
         23    2    1    2    0    0 -0.11463828039E+02  0.65368316061E+02 -0.55435643901E+02  0.12568725560E+03  0.91212606076E+02 0.  0.
         13    1    3    3    0    0 -0.54162102707E+01 -0.66725562611E+02  0.37934958791E+03  0.38521130031E+03  0.00000000000E+00 0. -1.
        -14    1    3    3    0    0  0.94491819045E+00  0.18975694676E+02  0.47933148780E+02  0.51561192876E+02  0.00000000000E+00 0.  1.
        -11    1    4    4    0    0 -0.41754044687E+02  0.54498329816E+02 -0.90751575404E+01  0.69251907445E+02  0.00000000000E+00 0. -1.
         11    1    4    4    0    0  0.30290216648E+02  0.10869986245E+02 -0.46360486361E+02  0.56435348153E+02  0.00000000000E+00 0.  1.
          2    1    1    2  501    0  0.15935120119E+02 -0.17618448125E+02 -0.47273082711E+02  0.52906352327E+02  0.00000000000E+00 0. -1.
<scales pt_clust_5="13000.00000" pt_clust_6="13000.00000" pt_clust_7="13000.00000" pt_clust_8="13000.00000" pt_clust_9="23.75579"></scales>
<clustering>
<clus scale="   23.756">  2  9  1 -1</clus>
<clus scale="   76.809">  5  6 -1 -1</clus>
<clus scale="   90.982">  1  5  2 -1</clus>
<clus scale="   91.213">  7  8 -1 -1</clus>
<clus scale="   23.756">  2  5  1 -1</clus>
</clustering>
</event>
<event>
 9    1  0.6675710E-005  0.1464402E+03  0.7546771E-02  0.1206793E+00
         -2   -1    0    0    0  501 -0.00000000000E+00  0.00000000000E+00  0.28667796036E+03  0.28667796036E+03  0.00000000000E+00 0.  1.
         21   -1    0    0  501  502  0.00000000000E+00 -0.00000000000E+00 -0.96826144832E+02  0.96826144832E+02  0.00000000000E+00 0.  1.
        -24    2    1    2    0    0  0.12033797325E+03 -0.34470025081E+01  0.10488242995E+03  0.17908002132E+03  0.81093897973E+02 0.  0.
         23    2    1    2    0    0 -0.10386348350E+03  0.41379653025E+02  0.59231547024E+02  0.15571339592E+03  0.90765558545E+02 0.  0.
         13    1    3    3    0    0  0.50312328513E+02 -0.14843023541E+02  0.83378744436E-03  0.52456131662E+02  0.00000000000E+00 0. -1.
        -14    1    3    3    0    0  0.70025644740E+02  0.11396021033E+02  0.10488159617E+03  0.12662388965E+03  0.00000000000E+00 0.  1.
        -13    1    4    4    0    0 -0.20577659645E+02 -0.77573707375E+01  0.54645164039E+02  0.58904251375E+02  0.00000000000E+00 0. -1.
         13    1    4    4    0    0 -0.83285823850E+02  0.49137023762E+02  0.45863829845E+01  0.96809144545E+02  0.00000000000E+00 0.  1.
         -1    1    1    2    0  502 -0.16474489758E+02 -0.37932650517E+02  0.25737838553E+02  0.48710687958E+02  0.00000000000E+00 0.  1.
<scales pt_clust_5="13000.00000" pt_clust_6="13000.00000" pt_clust_7="13000.00000" pt_clust_8="13000.00000" pt_clust_9="41.35573"></scales>
<clustering>
<clus scale="   41.356">  2  9  1 -1</clus>
<clus scale="   81.094">  5  6 -1 -1</clus>
<clus scale="   90.766">  7  8 -1 -1</clus>
<clus scale="  140.650">  1  5  2 -1</clus>
<clus scale="   41.356">  2  5  1 -1</clus>
</clustering>
</event>
<event>
 9    1  0.6675710E-005  0.1476775E+03  0.7546771E-02  0.1206251E+00
         -2   -1    0    0    0  501 -0.00000000000E+00  0.00000000000E+00  0.43241847445E+03  0.43241847445E+03  0.00000000000E+00 0.  1.
         21   -1    0    0  501  502  0.00000000000E+00 -0.00000000000E+00 -0.65708081919E+02  0.65708081919E+02  0.00000000000E+00 0.  1.
        -24    2    1    2    0    0 -0.13697380680E+02 -0.12022002574E+03  0.27925682473E+03  0.31395586193E+03  0.77093684940E+02 0.  0.
         23    2    1    2    0    0  0.25382399958E+02  0.99833888522E+02  0.78836240012E+02  0.15914285785E+03  0.92196664481E+02 0.  0.
         13    1    3    3    0    0 -0.22892778479E+02 -0.21350959515E+02  0.22169649745E+02  0.38359303285E+02  0.00000000000E+00 0. -1.
        -14    1    3    3    0    0  0.91953977994E+01 -0.98869066220E+02  0.25708717498E+03  0.27559655865E+03  0.00000000000E+00 0.  1.
        -13    1    4    4    0    0 -0.20312965141E+02  0.94211217915E+01  0.48459198662E+02  0.53382281925E+02  0.00000000000E+00 0. -1.
         13    1    4    4    0    0  0.45695365099E+02  0.90412766731E+02  0.30377041350E+02  0.10576057593E+03  0.00000000000E+00 0.  1.
         -1    1    1    2    0  502 -0.11685019278E+02  0.20386137213E+02  0.86173277955E+01  0.25027836589E+02  0.00000000000E+00 0.  1.
<scales pt_clust_5="13000.00000" pt_clust_6="13000.00000" pt_clust_7="13000.00000" pt_clust_8="13000.00000" pt_clust_9="23.49754"></scales>
<clustering>
<clus scale="   23.498">  2  9  1 -1</clus>
<clus scale="   77.094">  5  6 -1 -1</clus>
<clus scale="   92.197">  7  8 -1 -1</clus>
<clus scale="  138.751">  1  5  2 -1</clus>
<clus scale="   23.498">  2  5  1 -1</clus>
</clustering>
</event>
<event>
 9    1  0.6675710E-005  0.1865938E+03  0.7546771E-02  0.1162871E+00
         -2   -1    0    0    0  501 -0.00000000000E+00  0.00000000000E+00  0.62698285902E+03  0.62698285902E+03  0.00000000000E+00 0.  1.
         21   -1    0    0  501  502  0.00000000000E+00 -0.00000000000E+00 -0.13452991878E+03  0.13452991878E+03  0.00000000000E+00 0. -1.
         23    2    1    2    0    0 -0.13161222589E+03 -0.10648091820E+03  0.42318842089E+03  0.46512036570E+03  0.92674435871E+02 0.  0.
        -24    2    1    2    0    0  0.77686442248E+02  0.13223711994E+03  0.12571273374E+03  0.21418673724E+03  0.80934713124E+02 0.  0.
         11    1    4    4    0    0  0.16326593755E+02  0.39055439390E+02 -0.46659427213E+01  0.42587040647E+02  0.00000000000E+00 0. -1.
        -12    1    4    4    0    0  0.61359848493E+02  0.93181680551E+02  0.13037867646E+03  0.17159969660E+03  0.00000000000E+00 0.  1.
        -11    1    3    3    0    0 -0.58840084433E+02 -0.99227965218E+02  0.30555128067E+03  0.32660362786E+03  0.00000000000E+00 0.  1.
         11    1    3    3    0    0 -0.72772141459E+02 -0.72529529849E+01  0.11763714023E+03  0.13851673783E+03  0.00000000000E+00 0. -1.
         -1    1    1    2    0  502  0.53925783644E+02 -0.25756201738E+02 -0.56448214400E+02  0.82205674856E+02  0.00000000000E+00 0.  1.
<scales pt_clust_5="13000.00000" pt_clust_6="13000.00000" pt_clust_7="13000.00000" pt_clust_8="13000.00000" pt_clust_9="59.76096"></scales>
<clustering>
<clus scale="   59.761">  2  9  1 -1</clus>
<clus scale="   80.935">  5  6 -1 -1</clus>
<clus scale="   92.674">  7  8 -1 -1</clus>
<clus scale="  181.050">  2  5  1 -1</clus>
<clus scale="   59.761">  2  5  1 -1</clus>
</clustering>
</event>
<event>
 9    1  0.6675710E-005  0.1060723E+03  0.7546771E-02  0.1278584E+00
         21   -1    0    0  501  502  0.00000000000E+00  0.00000000000E+00  0.55527436795E+02  0.55527436795E+02  0.00000000000E+00 0. -1.
          1   -1    0    0  502    0 -0.00000000000E+00 -0.00000000000E+00 -0.37830983992E+03  0.37830983992E+03  0.00000000000E+00 0. -1.
        -24    2    1    2    0    0 -0.23623142038E+02  0.49434533781E+02 -0.19134854605E+03  0.21314544616E+03  0.76255420627E+02 0.  0.
         23    2    1    2    0    0  0.40546577923E+02  0.17832612220E+02 -0.88055964268E+02  0.13888160382E+03  0.97837722769E+02 0.  0.
         13    1    3    3    0    0 -0.38684453982E+02  0.61626692032E+02 -0.16593455617E+03  0.18118668020E+03  0.00000000000E+00 0. -1.
        -14    1    3    3    0    0  0.15061311943E+02 -0.12192158251E+02 -0.25413989876E+02  0.31958765960E+02  0.00000000000E+00 0.  1.
        -13    1    4    4    0    0  0.17301524581E+01  0.34714608553E+02 -0.90030465346E+02  0.96506902162E+02  0.00000000000E+00 0.  1.
         13    1    4    4    0    0  0.38816425465E+02 -0.16881996333E+02  0.19745010781E+01  0.42374701658E+02  0.00000000000E+00 0. -1.
          2    1    1    2  501    0 -0.16923435885E+02 -0.67267146001E+02 -0.43377892804E+02  0.81810226729E+02  0.00000000000E+00 0. -1.
<scales pt_clust_5="13000.00000" pt_clust_6="13000.00000" pt_clust_7="13000.00000" pt_clust_8="13000.00000" pt_clust_9="69.36333"></scales>
<clustering>
<clus scale="   69.363">  1  9  2 -1</clus>
<clus scale="   76.255">  5  6 -1 -1</clus>
<clus scale="   86.568">  2  5  1 -1</clus>
<clus scale="   97.838">  7  8 -1 -1</clus>
<clus scale="   69.363">  1  5  2 -1</clus>
</clustering>
</event>
<event>
 9    1  0.6675710E-005  0.1656622E+03  0.7546771E-02  0.1184015E+00
          1   -1    0    0  502    0 -0.00000000000E+00  0.00000000000E+00  0.13104102065E+04  0.13104102065E+04  0.00000000000E+00 0. -1.
         21   -1    0    0  501  502  0.00000000000E+00 -0.00000000000E+00 -0.43222549092E+02  0.43222549092E+02  0.00000000000E+00 0. -1.
        -24    2    1    2    0    0 -0.12163632536E+03 -0.95813185567E+02  0.91630840476E+03  0.93277585426E+03  0.80462037479E+02 0.  0.
         23    2    1    2    0    0  0.35301938181E+02  0.89133536847E+02  0.13889677957E+03  0.19187041045E+03  0.91273899891E+02 0.  0.
         11    1    3    3    0    0 -0.13146468819E+03 -0.89009503076E+02  0.88745695471E+03  0.90154617316E+03  0.00000000000E+00 0. -1.
        -12    1    3    3    0    0  0.98283628293E+01 -0.68036824909E+01  0.28851450049E+02  0.31229681094E+02  0.00000000000E+00 0.  1.
        -13    1    4    4    0    0  0.18678103884E+02  0.10044401924E+03  0.80379546188E+02  0.12999516919E+03  0.00000000000E+00 0. -1.
         13    1    4    4    0    0  0.16623834297E+02 -0.11310482397E+02  0.58517233380E+02  0.61875241262E+02  0.00000000000E+00 0.  1.
          2    1    1    2  501    0  0.86334387179E+02  0.66796487207E+01  0.21198247310E+03  0.22898649091E+03  0.00000000000E+00 0. -1.
<scales pt_clust_5="13000.00000" pt_clust_6="13000.00000" pt_clust_7="13000.00000" pt_clust_8="13000.00000" pt_clust_9="86.59240"></scales>
<clustering>
<clus scale="   80.462">  5  6 -1 -1</clus>
<clus scale="   86.592">  2  9  1 -1</clus>
<clus scale="   91.274">  7  8 -1 -1</clus>
<clus scale="  159.960">  1  5  2 -1</clus>
<clus scale="   86.592">  2  5  1 -1</clus>
</clustering>
</event>
<event>
 9    1  0.6675710E-005  0.1032361E+03  0.7546771E-02  0.1279592E+00
         -2   -1    0    0    0  501 -0.00000000000E+00  0.00000000000E+00  0.49154763108E+02  0.49154763108E+02  0.00000000000E+00 0.  1.
         21   -1    0    0  501  502  0.00000000000E+00 -0.00000000000E+00 -0.51270914830E+03  0.51270914830E+03  0.00000000000E+00 0.  1.
         23    2    1    2    0    0 -0.33383743692E+02 -0.36201839054E+02 -0.29325210769E+02  0.10835867536E+03  0.91959703374E+02 0.  0.
        -24    2    1    2    0    0  0.13161049272E+01  0.47438869202E+02 -0.25833279709E+03  0.27435686217E+03  0.79269636862E+02 0.  0.
         13    1    4    4    0    0 -0.12489893747E+02 -0.18472680582E+02 -0.39068165301E+02  0.44983985080E+02  0.00000000000E+00 0. -1.
        -14    1    4    4    0    0  0.13805998674E+02  0.65911549785E+02 -0.21926463178E+03  0.22937287709E+03  0.00000000000E+00 0.  1.
        -11    1    3    3    0    0 -0.70638769144E+01 -0.46419860640E+02 -0.53504819804E+02  0.71186147256E+02  0.00000000000E+00 0. -1.
         11    1    3    3    0    0 -0.26319866778E+02  0.10218021586E+02  0.24179609035E+02  0.37172528101E+02  0.00000000000E+00 0.  1.
         -1    1    1    2    0  502  0.32067638765E+02 -0.11237030148E+02 -0.17589637734E+03  0.17914837388E+03  0.00000000000E+00 0.  1.
<scales pt_clust_5="13000.00000" pt_clust_6="13000.00000" pt_clust_7="13000.00000" pt_clust_8="13000.00000" pt_clust_9="33.97947"></scales>
<clustering>
<clus scale="   33.979">  2  9  1 -1</clus>
<clus scale="   79.270">  5  6 -1 -1</clus>
<clus scale="   91.960">  7  8 -1 -1</clus>
<clus scale="   92.113">  2  5  1 -1</clus>
<clus scale="   33.979">  2  5  1 -1</clus>
</clustering>
</event>
<event>
 9    1  0.6675710E-005  0.1459854E+03  0.7546771E-02  0.1207754E+00
          1   -1    0    0  502    0 -0.00000000000E+00  0.00000000000E+00  0.74966180419E+03  0.74966180419E+03  0.00000000000E+00 0. -1.
         21   -1    0    0  501  502  0.00000000000E+00 -0.00000000000E+00 -0.39737699743E+02  0.39737699743E+02  0.00000000000E+00 0.  1.
        -24    2    1    2    0    0  0.11727206242E+03 -0.20102981412E+02  0.43692829288E+03  0.45967428008E+03  0.78976225252E+02 0.  0.
         23    2    1    2    0    0 -0.10423131831E+03  0.34014820807E+01  0.14609004370E+03  0.20106258357E+03  0.90598696726E+02 0.  0.
         11    1    3    3    0    0  0.12743347400E+03 -0.18704370135E+02  0.36585611358E+03  0.38786574946E+03  0.00000000000E+00 0. -1.
        -12    1    3    3    0    0 -0.10161411578E+02 -0.13986112773E+01  0.71072179301E+02  0.71808530617E+02  0.00000000000E+00 0.  1.
        -13    1    4    4    0    0 -0.29935093298E+02  0.33048067988E+02  0.14175615259E+02  0.46789236759E+02  0.00000000000E+00 0.  1.
         13    1    4    4    0    0 -0.74296225013E+02 -0.29646585908E+02  0.13191442844E+03  0.15427334681E+03  0.00000000000E+00 0. -1.
          2    1    1    2  501    0 -0.13040744114E+02  0.16701499332E+02  0.12690576787E+03  0.12866264029E+03  0.00000000000E+00 0. -1.
<scales pt_clust_5="13000.00000" pt_clust_6="13000.00000" pt_clust_7="13000.00000" pt_clust_8="13000.00000" pt_clust_9="21.18966"></scales>
<clustering>
<clus scale="   21.190">  2  9  1 -1</clus>
<clus scale="   78.976">  5  6 -1 -1</clus>
<clus scale="   90.599">  7  8 -1 -1</clus>
<clus scale="  139.071">  1  5  2 -1</clus>
<clus scale="   21.190">  2  5  1 -1</clus>
</clustering>
</event>
<event>
 9    1  0.6675710E-005  0.1159373E+03  0.7546771E-02  0.1254476E+00
         21   -1    0    0  501  502  0.00000000000E+00  0.00000000000E+00  0.37632208635E+02  0.37632208635E+02  0.00000000000E+00 0.  1.
         -4   -1    0    0    0  501 -0.00000000000E+00 -0.00000000000E+00 -0.10053378188E+04  0.10053378188E+04  0.00000000000E+00 0.  1.
        -24    2    1    2    0    0  0.37293733971E+02 -0.61080668581E+02 -0.52403826279E+03  0.53442167325E+03  0.76607788793E+02 0.  0.
         23    2    1    2    0    0  0.16931915214E+02  0.10118061564E+03 -0.13254292420E+03  0.19019817988E+03  0.89908365234E+02 0.  0.
         11    1    3    3    0    0  0.58766403658E+02 -0.28011313931E+02 -0.34574914388E+03  0.35182466429E+03  0.00000000000E+00 0. -1.
        -12    1    3    3    0    0 -0.21472669687E+02 -0.33069354651E+02 -0.17828911890E+03  0.18259700896E+03  0.00000000000E+00 0.  1.
        -13    1    4    4    0    0  0.50940165327E+02  0.76986728063E+02 -0.74060280062E+02  0.11835025063E+03  0.00000000000E+00 0.  1.
         13    1    4    4    0    0 -0.34008250113E+02  0.24193887580E+02 -0.58482644134E+02  0.71847929246E+02  0.00000000000E+00 0. -1.
         -3    1    1    2    0  502 -0.54225649185E+02 -0.40099947062E+02 -0.31112442316E+03  0.31835017429E+03  0.00000000000E+00 0.  1.
<scales pt_clust_5="13000.00000" pt_clust_6="13000.00000" pt_clust_7="13000.00000" pt_clust_8="13000.00000" pt_clust_9="67.44206"></scales>
<clustering>
<clus scale="   67.442">  1  9  2 -1</clus>
<clus scale="   76.608">  5  6 -1 -1</clus>
<clus scale="   89.908">  7  8 -1 -1</clus>
<clus scale="  105.956">  2  5  1 -1</clus>
<clus scale="   67.442">  1  5  2 -1</clus>
</clustering>
</event>
<event>
 9    1  0.6675710E-005  0.1615765E+03  0.7546771E-02  0.1188509E+00
          1   -1    0    0  502    0 -0.00000000000E+00  0.00000000000E+00  0.60078364255E+03  0.60078364255E+03  0.00000000000E+00 0. -1.
         21   -1    0    0  501  502  0.00000000000E+00 -0.00000000000E+00 -0.13191511466E+03  0.13191511466E+03  0.00000000000E+00 0.  1.
        -24    2    1    2    0    0 -0.12762546057E+03 -0.24934960673E+02  0.29599032875E+03  0.33314297160E+03  0.80398721153E+02 0.  0.
         23    2    1    2    0    0  0.15235221595E+03  0.33073227064E+02 -0.40273281663E+02  0.18482060550E+03  0.90728622543E+02 0.  0.
         11    1    3    3    0    0 -0.11500121514E+03 -0.42968515548E+02  0.28060721177E+03  0.30628741422E+03  0.00000000000E+00 0. -1.
        -12    1    3    3    0    0 -0.12624245429E+02  0.18033554875E+02  0.15383116976E+02  0.26855557376E+02  0.00000000000E+00 0.  1.
        -13    1    4    4    0    0  0.13819730798E+03  0.46832684582E+01 -0.56276109995E+02  0.14928975012E+03  0.00000000000E+00 0.  1.
         13    1    4    4    0    0  0.14154907975E+02  0.28389958606E+02  0.16002828331E+02  0.35530855380E+02  0.00000000000E+00 0. -1.
          2    1    1    2  501    0 -0.24726755381E+02 -0.81382663910E+01  0.21315148081E+03  0.21473518012E+03  0.00000000000E+00 0. -1.
<scales pt_clust_5="13000.00000" pt_clust_6="13000.00000" pt_clust_7="13000.00000" pt_clust_8="13000.00000" pt_clust_9="26.03161"></scales>
<clustering>
<clus scale="   26.032">  2  9  1 -1</clus>
<clus scale="   80.399">  5  6 -1 -1</clus>
<clus scale="   90.729">  7  8 -1 -1</clus>
<clus scale="  156.010">  1  5  2 -1</clus>
<clus scale="   26.032">  2  5  1 -1</clus>
</clustering>
</event>
<event>
 9    1  0.6675710E-005  0.9490761E+02  0.7546771E-02  0.1295239E+00
         21   -1    0    0  501  502  0.00000000000E+00  0.00000000000E+00  0.15190989306E+03  0.15190989306E+03  0.00000000000E+00 0.  1.
          3   -1    0    0  502    0 -0.00000000000E+00 -0.00000000000E+00 -0.11076329407E+03  0.11076329407E+03  0.00000000000E+00 0. -1.
        -24    2    1    2    0    0 -0.26828281704E+02  0.85367713071E+01 -0.36101887539E+02  0.97208396494E+02  0.85752509593E+02 0.  0.
         23    2    1    2    0    0  0.11296592057E+02  0.88025168140E+01  0.98170890512E+01  0.94128420791E+02  0.92513172407E+02 0.  0.
         11    1    3    3    0    0 -0.12136136471E+02 -0.29035604893E+02 -0.45938288717E+02  0.55683736676E+02  0.00000000000E+00 0. -1.
        -12    1    3    3    0    0 -0.14692145233E+02  0.37572376200E+02  0.98364011773E+01  0.41524659818E+02  0.00000000000E+00 0.  1.
        -11    1    4    4    0    0  0.43362063715E+02 -0.22418395701E+02  0.66014739027E+01  0.49258831626E+02  0.00000000000E+00 0.  1.
         11    1    4    4    0    0 -0.32065471659E+02  0.31220912515E+02  0.32156151485E+01  0.44869589164E+02  0.00000000000E+00 0. -1.
          4    1    1    2  501    0  0.15531689647E+02 -0.17339288121E+02  0.67431397480E+02  0.71336369840E+02  0.00000000000E+00 0. -1.
<scales pt_clust_5="13000.00000" pt_clust_6="13000.00000" pt_clust_7="13000.00000" pt_clust_8="13000.00000" pt_clust_9="23.27841"></scales>
<clustering>
<clus scale="   23.278">  1  9  2 -1</clus>
<clus scale="   85.753">  5  6 -1 -1</clus>
<clus scale="   88.330">  2  5  1 -1</clus>
<clus scale="   92.513">  7  8 -1 -1</clus>
<clus scale="   23.278">  1  5  2 -1</clus>
</clustering>
</event>
<event>
 9    1  0.6675710E-005  0.1019937E+03  0.7546771E-02  0.1282097E+00
         21   -1    0    0  501  502  0.00000000000E+00  0.00000000000E+00  0.33715965695E+02  0.33715965695E+02  0.00000000000E+00 0. -1.
          1   -1    0    0  502    0 -0.00000000000E+00 -0.00000000000E+00 -0.74359815391E+03  0.74359815391E+03  0.00000000000E+00 0. -1.
        -24    2    1    2    0    0 -0.14369255168E+02 -0.45269652108E+02 -0.59063260297E+03  0.59776204264E+03  0.78846502977E+02 0.  0.
         23    2    1    2    0    0 -0.56554596798E+01  0.39219948117E+02 -0.12311844192E+03  0.15827870922E+03  0.91234919295E+02 0.  0.
         11    1    3    3    0    0 -0.31233489190E+02 -0.58536322760E+02 -0.35440727947E+03  0.36056421296E+03  0.00000000000E+00 0. -1.
        -12    1    3    3    0    0  0.16864234021E+02  0.13266670651E+02 -0.23622532350E+03  0.23719782968E+03  0.00000000000E+00 0.  1.
        -13    1    4    4    0    0 -0.11490796483E+02 -0.21562267018E+02 -0.79681744802E+02  0.83343567343E+02  0.00000000000E+00 0. -1.
         13    1    4    4    0    0  0.58353368031E+01  0.60782215135E+02 -0.43436697114E+02  0.74935141880E+02  0.00000000000E+00 0.  1.
          2    1    1    2  501    0  0.20024714848E+02  0.60497039910E+01  0.38688566725E+01  0.21273367742E+02  0.00000000000E+00 0. -1.
<scales pt_clust_5="13000.00000" pt_clust_6="13000.00000" pt_clust_7="13000.00000" pt_clust_8="13000.00000" pt_clust_9="20.91861"></scales>
<clustering>
<clus scale="   20.919">  1  9  2 -1</clus>
<clus scale="   78.847">  5  6 -1 -1</clus>
<clus scale="   91.081">  2  5  1 -1</clus>
<clus scale="   91.235">  7  8 -1 -1</clus>
<clus scale="   20.919">  1  5  2 -1</clus>
</clustering>
</event>
<event>
 9    1  0.6675710E-005  0.9919643E+02  0.7546771E-02  0.1290794E+00
         21   -1    0    0  501  502  0.00000000000E+00  0.00000000000E+00  0.41508777895E+03  0.41508777895E+03  0.00000000000E+00 0. -1.
         -2   -1    0    0    0  501 -0.00000000000E+00 -0.00000000000E+00 -0.14176093299E+03  0.14176093299E+03  0.00000000000E+00 0.  1.
        -24    2    1    2    0    0 -0.20454464610E+01 -0.35123149120E+02 -0.11679555735E+03  0.14383562420E+03  0.76221159256E+02 0.  0.
         23    2    1    2    0    0  0.24524469617E+02  0.37871733301E+02  0.24001525059E+03  0.26120722985E+03  0.92661635067E+02 0.  0.
         13    1    3    3    0    0  0.15058725633E+02 -0.34896003596E+02 -0.15401143723E+02  0.41008432214E+02  0.00000000000E+00 0. -1.
        -14    1    3    3    0    0 -0.17104172094E+02 -0.22714552391E+00 -0.10139441362E+03  0.10282719199E+03  0.00000000000E+00 0.  1.
        -13    1    4    4    0    0  0.30827842960E+01  0.54750679582E+02  0.22160576676E+03  0.22828985158E+03  0.00000000000E+00 0. -1.
         13    1    4    4    0    0  0.21441685321E+02 -0.16878946280E+02  0.18409483837E+02  0.32917378269E+02  0.00000000000E+00 0.  1.
         -1    1    1    2    0  502 -0.22479023156E+02 -0.27485841812E+01  0.15010715271E+03  0.15180585790E+03  0.00000000000E+00 0.  1.
<scales pt_clust_5="13000.00000" pt_clust_6="13000.00000" pt_clust_7="13000.00000" pt_clust_8="13000.00000" pt_clust_9="22.64644"></scales>
<clustering>
<clus scale="   22.646">  1  9  2 -1</clus>
<clus scale="   76.221">  5  6 -1 -1</clus>
<clus scale="   84.044">  2  5  1 -1</clus>
<clus scale="   92.662">  7  8 -1 -1</clus>
<clus scale="   22.646">  1  5  2 -1</clus>
</clustering>
</event>
<event>
 9    1  0.6675710E-005  0.1822349E+03  0.7546771E-02  0.1166713E+00
          3   -1    0    0  502    0 -0.00000000000E+00  0.00000000000E+00  0.10442088639E+04  0.10442088639E+04  0.00000000000E+00 0. -1.
         21   -1    0    0  501  502  0.00000000000E+00 -0.00000000000E+00 -0.48580871532E+02  0.48580871532E+02  0.00000000000E+00 0.  1.
        -24    2    1    2    0    0  0.10822121863E+03  0.13189745795E+03  0.55553427796E+03  0.58681033940E+03  0.81358889271E+02 0.  0.
         23    2    1    2    0    0 -0.57554703215E+02 -0.12446937313E+03  0.19226276031E+03  0.25291328997E+03  0.90526209094E+02 0.  0.
         11    1    3    3    0    0  0.60400946347E+02  0.12614903903E+03  0.43804477724E+03  0.45983157921E+03  0.00000000000E+00 0. -1.
        -12    1    3    3    0    0  0.47820272281E+02  0.57484189218E+01  0.11748950072E+03  0.12697876020E+03  0.00000000000E+00 0.  1.
        -11    1    4    4    0    0 -0.81504399656E+02 -0.86276855069E+02  0.12981173711E+03  0.17589130159E+03  0.00000000000E+00 0.  1.
         11    1    4    4    0    0  0.23949696441E+02 -0.38192518058E+02  0.62451023200E+02  0.77021988380E+02  0.00000000000E+00 0. -1.
          4    1    1    2  501    0 -0.50666515412E+02 -0.74280848275E+01  0.24783095410E+03  0.25306610606E+03  0.00000000000E+00 0. -1.
<scales pt_clust_5="13000.00000" pt_clust_6="13000.00000" pt_clust_7="13000.00000" pt_clust_8="13000.00000" pt_clust_9="51.20815"></scales>
<clustering>
<clus scale="   51.208">  2  9  1 -1</clus>
<clus scale="   81.359">  5  6 -1 -1</clus>
<clus scale="   90.526">  7  8 -1 -1</clus>
<clus scale="  177.859">  1  5  2 -1</clus>
<clus scale="   51.208">  2  5  1 -1</clus>
</clustering>
</event>
<event>
 9    1  0.6675710E-005  0.1262137E+03  0.7546771E-02  0.1235761E+00
         -2   -1    0    0    0  501 -0.00000000000E+00  0.00000000000E+00  0.36398838416E+03  0.36398838416E+03  0.00000000000E+00 0.  1.
         21   -1    0    0  501  502  0.00000000000E+00 -0.00000000000E+00 -0.14274230414E+03  0.14274230414E+03  0.00000000000E+00 0. -1.
        -24    2    1    2    0    0 -0.69106046987E+02  0.49188494104E+02  0.29528005710E+03  0.31791886654E+03  0.81773711534E+02 0.  0.
         23    2    1    2    0    0  0.84745269953E+02 -0.71525638445E+02 -0.48452801602E+02  0.15142292165E+03  0.91014007068E+02 0.  0.
         13    1    3    3    0    0 -0.68566011034E+02  0.20426592599E+02  0.11558247213E+03  0.13593326090E+03  0.00000000000E+00 0. -1.
        -14    1    3    3    0    0 -0.54003595270E+00  0.28761901505E+02  0.17969758497E+03  0.18198560564E+03  0.00000000000E+00 0.  1.
        -11    1    4    4    0    0 -0.19580171443E+02 -0.15745485263E+02 -0.97567200642E+01  0.26953608410E+02  0.00000000000E+00 0.  1.
         11    1    4    4    0    0  0.10432544140E+03 -0.55780153182E+02 -0.38696081538E+02  0.12446931324E+03  0.00000000000E+00 0. -1.
         -1    1    1    2    0  502 -0.15639222966E+02  0.22337144341E+02 -0.25581175487E+02  0.37388900112E+02  0.00000000000E+00 0.  1.
<scales pt_clust_5="13000.00000" pt_clust_6="13000.00000" pt_clust_7="13000.00000" pt_clust_8="13000.00000" pt_clust_9="27.26781"></scales>
<clustering>
<clus scale="   27.268">  2  9  1 -1</clus>
<clus scale="   81.774">  5  6 -1 -1</clus>
<clus scale="   91.014">  7  8 -1 -1</clus>
<clus scale="  119.722">  1  5  2 -1</clus>
<clus scale="   27.268">  2  5  1 -1</clus>
</clustering>
</event>
<event>
 9    1  0.6675710E-005  0.1014114E+03  0.7546771E-02  0.1283094E+00
          1   -1    0    0  502    0 -0.00000000000E+00  0.00000000000E+00  0.32479736020E+03  0.32479736020E+03  0.00000000000E+00 0. -1.
         21   -1    0    0  501  502  0.00000000000E+00 -0.00000000000E+00 -0.92870112828E+02  0.92870112828E+02  0.00000000000E+00 0.  1.
         23    2    1    2    0    0 -0.29723926703E+02  0.25945403580E+02  0.18209037493E+03  0.20835510432E+03  0.93264511309E+02 0.  0.
        -24    2    1    2    0    0  0.71626869206E+02  0.42267602333E+02  0.31818781828E+01  0.11665407574E+03  0.81737937570E+02 0.  0.
         13    1    4    4    0    0  0.49695019322E+01  0.48857285297E+02  0.67801160077E+01  0.49575197923E+02  0.00000000000E+00 0. -1.
        -14    1    4    4    0    0  0.66657367274E+02 -0.65896829636E+01 -0.35982378249E+01  0.67078877815E+02  0.00000000000E+00 0.  1.
        -13    1    3    3    0    0 -0.11947326187E+02  0.60754464616E+02  0.10420773686E+03  0.12121508155E+03  0.00000000000E+00 0. -1.
         13    1    3    3    0    0 -0.17776600517E+02 -0.34809061036E+02  0.77882638068E+02  0.87140022771E+02  0.00000000000E+00 0.  1.
          2    1    1    2  501    0 -0.41902942502E+02 -0.68213005913E+02  0.46654994257E+02  0.92658292965E+02  0.00000000000E+00 0. -1.
<scales pt_clust_5="13000.00000" pt_clust_6="13000.00000" pt_clust_7="13000.00000" pt_clust_8="13000.00000" pt_clust_9="80.05542"></scales>
<clustering>
<clus scale="   80.055">  2  9  1 -1</clus>
<clus scale="   81.738">  5  6 -1 -1</clus>
<clus scale="   90.924">  2  5  1 -1</clus>
<clus scale="   93.265">  7  8 -1 -1</clus>
<clus scale="   80.055">  2  5  1 -1</clus>
</clustering>
</event>
<event>
 9    1  0.6675710E-005  0.1104252E+03  0.7546771E-02  0.1263973E+00
          3   -1    0    0  502    0 -0.00000000000E+00  0.00000000000E+00  0.37060466058E+03  0.37060466058E+03  0.00000000000E+00 0. -1.
         21   -1    0    0  501  502  0.00000000000E+00 -0.00000000000E+00 -0.50094728331E+02  0.50094728331E+02  0.00000000000E+00 0. -1.
        -24    2    1    2    0    0 -0.52037711837E+02  0.56978267679E+02  0.22003512703E+03  0.24588128396E+03  0.78023728671E+02 0.  0.
         23    2    1    2    0    0  0.16350517125E+02 -0.35901091741E+02  0.49972371684E+02  0.10948573162E+03  0.89071093503E+02 0.  0.
         13    1    3    3    0    0 -0.46831355509E+02  0.51392920568E+02  0.22583281533E+03  0.23629403002E+03  0.00000000000E+00 0. -1.
        -14    1    3    3    0    0 -0.52063563277E+01  0.55853471104E+01 -0.57976883000E+01  0.95872539436E+01  0.00000000000E+00 0.  1.
        -11    1    4    4    0    0  0.44079714880E+01 -0.62276643129E+02  0.50848089441E+02  0.80519182136E+02  0.00000000000E+00 0.  1.
         11    1    4    4    0    0  0.11942545637E+02  0.26375551388E+02 -0.87571775709E+00  0.28966549482E+02  0.00000000000E+00 0. -1.
          4    1    1    2  501    0  0.35687194712E+02 -0.21077175938E+02  0.50502433538E+02  0.65332373332E+02  0.00000000000E+00 0. -1.
<scales pt_clust_5="13000.00000" pt_clust_6="13000.00000" pt_clust_7="13000.00000" pt_clust_8="13000.00000" pt_clust_9="41.44665"></scales>
<clustering>
<clus scale="   41.447">  2  9  1 -1</clus>
<clus scale="   78.024">  5  6 -1 -1</clus>
<clus scale="   89.071">  7  8 -1 -1</clus>
<clus scale="  101.724">  1  5  2 -1</clus>
<clus scale="   41.447">  2  5  1 -1</clus>
</clustering>
</event>
<event>
 9    1  0.6675710E-005  0.1024502E+03  0.7546771E-02  0.1279612E+00
         -2   -1    0    0    0  501 -0.00000000000E+00  0.00000000000E+00  0.25470379432E+03  0.25470379432E+03  0.00000000000E+00 0.  1.
         21   -1    0    0  501  502  0.00000000000E+00 -0.00000000000E+00 -0.68305767030E+02  0.68305767030E+02  0.00000000000E+00 0. -1.
         23    2    1    2    0    0  0.47108687324E+02 -0.19007306398E+02  0.12876598032E+03  0.16648840678E+03  0.92505166266E+02 0.  0.
        -24    2    1    2    0    0 -0.92645213051E+01  0.47055479005E+02  0.51436457668E+02  0.10901045878E+03  0.83291785228E+02 0.  0.
         11    1    4    4    0    0  0.29065249067E+02  0.45170447267E+02  0.45054062861E+02  0.70107250623E+02  0.00000000000E+00 0. -1.
        -12    1    4    4    0    0 -0.38329770372E+02  0.18850317381E+01  0.63823948073E+01  0.38903208157E+02  0.00000000000E+00 0.  1.
        -13    1    3    3    0    0 -0.22077337011E+02  0.13722734543E+02  0.17116726917E+02  0.31124019553E+02  0.00000000000E+00 0. -1.
         13    1    3    3    0    0  0.69186024335E+02 -0.32730040941E+02  0.11164925340E+03  0.13536438722E+03  0.00000000000E+00 0.  1.
         -1    1    1    2    0  502 -0.37844166019E+02 -0.28048172607E+02  0.61955893078E+01  0.47510695797E+02  0.00000000000E+00 0.  1.
<scales pt_clust_5="13000.00000" pt_clust_6="13000.00000" pt_clust_7="13000.00000" pt_clust_8="13000.00000" pt_clust_9="47.10500"></scales>
<clustering>
<clus scale="   47.105">  2  9  1 -1</clus>
<clus scale="   83.292">  5  6 -1 -1</clus>
<clus scale="   92.505">  7  8 -1 -1</clus>
<clus scale="   94.214">  2  5  1 -1</clus>
<clus scale="   47.105">  2  5  1 -1</clus>
</clustering>
</event>
<event>
 9    1  0.6675710E-005  0.1075801E+03  0.7546771E-02  0.1269548E+00
         21   -1    0    0  501  502  0.00000000000E+00  0.00000000000E+00  0.58226917494E+02  0.58226917494E+02  0.00000000000E+00 0. -1.
         -2   -1    0    0    0  501 -0.00000000000E+00 -0.00000000000E+00 -0.24198866952E+03  0.24198866952E+03  0.00000000000E+00 0.  1.
         23    2    1    2    0    0  0.42337758890E+02  0.40126380798E+02 -0.10830053779E+03  0.15317040404E+03  0.91266389883E+02 0.  0.
        -24    2    1    2    0    0 -0.53526436737E+02 -0.20985511882E+02 -0.43521292835E+02  0.10816436568E+03  0.80622304199E+02 0.  0.
         11    1    4    4    0    0  0.17400080351E+02 -0.21177172867E+02 -0.65515728457E+01  0.28180818895E+02  0.00000000000E+00 0. -1.
        -12    1    4    4    0    0 -0.70926517089E+02  0.19166098438E+00 -0.36969719990E+02  0.79983546785E+02  0.00000000000E+00 0.  1.
        -13    1    3    3    0    0  0.59364302306E+02  0.12942405399E+02 -0.10448715669E+03  0.12086849117E+03  0.00000000000E+00 0.  1.
         13    1    3    3    0    0 -0.17026543416E+02  0.27183975399E+02 -0.38133811077E+01  0.32301912864E+02  0.00000000000E+00 0. -1.
         -1    1    1    2    0  502  0.11188677847E+02 -0.19140868916E+02 -0.31939921391E+02  0.38880817292E+02  0.00000000000E+00 0.  1.
<scales pt_clust_5="13000.00000" pt_clust_6="13000.00000" pt_clust_7="13000.00000" pt_clust_8="13000.00000" pt_clust_9="22.17115"></scales>
<clustering>
<clus scale="   22.171">  1  9  2 -1</clus>
<clus scale="   80.622">  5  6 -1 -1</clus>
<clus scale="   91.266">  7  8 -1 -1</clus>
<clus scale="   98.711">  1  5  2 -1</clus>
<clus scale="   22.171">  1  5  2 -1</clus>
</clustering>
</event>
<event>
 9    1  0.6675710E-005  0.9927754E+02  0.7546771E-02  0.1289278E+00
         -2   -1    0    0    0  501 -0.00000000000E+00  0.00000000000E+00  0.11274202699E+03  0.11274202699E+03  0.00000000000E+00 0.  1.
         21   -1    0    0  501  502  0.00000000000E+00 -0.00000000000E+00 -0.12145365230E+03  0.12145365230E+03  0.00000000000E+00 0.  1.
        -24    2    1    2    0    0 -0.32232126673E+02  0.15879507313E+02  0.46716749480E+02  0.10005130002E+03  0.80850103348E+02 0.  0.
         23    2    1    2    0    0  0.64771064136E+01 -0.16737811426E+02 -0.41729165419E+02  0.10496003258E+03  0.94621234160E+02 0.  0.
         11    1    3    3    0    0 -0.17288206682E+02 -0.20089018270E+02 -0.12396688079E+02  0.29259675676E+02  0.00000000000E+00 0. -1.
        -12    1    3    3    0    0 -0.14943919991E+02  0.35968525583E+02  0.59113437559E+02  0.70791624344E+02  0.00000000000E+00 0.  1.
        -11    1    4    4    0    0  0.29605202681E+02  0.22113994223E+02  0.79369012139E+01  0.37795385527E+02  0.00000000000E+00 0. -1.
         11    1    4    4    0    0 -0.23128096267E+02 -0.38851805649E+02 -0.49666066633E+02  0.67164647054E+02  0.00000000000E+00 0.  1.
         -1    1    1    2    0  502  0.25755020260E+02  0.85830411333E+00 -0.13699209365E+02  0.29184346691E+02  0.00000000000E+00 0.  1.
<scales pt_clust_5="13000.00000" pt_clust_6="13000.00000" pt_clust_7="13000.00000" pt_clust_8="13000.00000" pt_clust_9="25.76932"></scales>
<clustering>
<clus scale="   25.769">  2  9  1 -1</clus>
<clus scale="   80.850">  5  6 -1 -1</clus>
<clus scale="   86.253">  1  5  2 -1</clus>
<clus scale="   94.621">  7  8 -1 -1</clus>
<clus scale="   25.769">  2  5  1 -1</clus>
</clustering>
</event>
<event>
 9    1  0.6675710E-005  0.1523076E+03  0.7546771E-02  0.1211921E+00
         -2   -1    0    0    0  501 -0.00000000000E+00  0.00000000000E+00  0.20442969743E+03  0.20442969743E+03  0.00000000000E+00 0.  1.
         21   -1    0    0  501  502  0.00000000000E+00 -0.00000000000E+00 -0.20316062377E+03  0.20316062377E+03  0.00000000000E+00 0.  1.
         23    2    1    2    0    0 -0.60757327531E+02 -0.27064235179E+02  0.10775548616E+01  0.11203839127E+03  0.90152727747E+02 0.  0.
        -24    2    1    2    0    0  0.14081602785E+03 -0.63819031521E+02 -0.25209489508E+02  0.17180066777E+03  0.70554437135E+02 0.  0.
         11    1    4    4    0    0  0.77956448358E+02  0.32404576126E+01 -0.12048939315E+02  0.78948624717E+02  0.00000000000E+00 0. -1.
        -12    1    4    4    0    0  0.62859579494E+02 -0.67059489134E+02 -0.13160550194E+02  0.92852043050E+02  0.00000000000E+00 0.  1.
        -11    1    3    3    0    0  0.29833078229E+01  0.21952322465E+02 -0.18972765609E+02  0.29167969110E+02  0.00000000000E+00 0. -1.
         11    1    3    3    0    0 -0.63740635354E+02 -0.49016557644E+02  0.20050320471E+02  0.82870422164E+02  0.00000000000E+00 0.  1.
         -1    1    1    2    0  502 -0.80058700321E+02  0.90883266700E+02  0.25401008311E+02  0.12375126216E+03  0.00000000000E+00 0.  1.
<scales pt_clust_5="13000.00000" pt_clust_6="13000.00000" pt_clust_7="13000.00000" pt_clust_8="13000.00000" pt_clust_9="134.98033"></scales>
<clustering>
<clus scale="   70.554">  5  6 -1 -1</clus>
<clus scale="   90.153">  7  8 -1 -1</clus>
<clus scale="  112.033">  1  7  2 -1</clus>
<clus scale="  134.980">  2  9  1 -1</clus>
<clus scale="  134.980">  2  5  1 -1</clus>
</clustering>
</event>
<event>
 9    1  0.6675710E-005  0.2011061E+03  0.7546771E-02  0.1149647E+00
          1   -1    0    0  502    0 -0.00000000000E+00  0.00000000000E+00  0.12710690502E+04  0.12710690502E+04  0.00000000000E+00 0. -1.
         21   -1    0    0  501  502  0.00000000000E+00 -0.00000000000E+00 -0.45814232872E+02  0.45814232872E+02  0.00000000000E+00 0. -1.
        -24    2    1    2    0    0  0.13147837841E+03  0.11083264922E+03  0.78976378703E+03  0.81238678731E+03  0.81700751338E+02 0.  0.
         23    2    1    2    0    0 -0.16124092670E+03 -0.11945714777E+03  0.34981452067E+03  0.41338856220E+03  0.90836434808E+02 0.  0.
         11    1    3    3    0    0  0.87157441727E+02  0.10611048694E+03  0.47388979555E+03  0.49338361689E+03  0.00000000000E+00 0. -1.
        -12    1    3    3    0    0  0.44320936686E+02  0.47221622750E+01  0.31587399148E+03  0.31900317042E+03  0.00000000000E+00 0.  1.
        -13    1    4    4    0    0 -0.58488846880E+02  0.31741815478E+01  0.72195058343E+02  0.92968527400E+02  0.00000000000E+00 0.  1.
         13    1    4    4    0    0 -0.10275207982E+03 -0.12263132931E+03  0.27761946233E+03  0.32042003480E+03  0.00000000000E+00 0. -1.
          2    1    1    2  501    0  0.29762548290E+02  0.86244985478E+01  0.85676509603E+02  0.91107933539E+02  0.00000000000E+00 0. -1.
<scales pt_clust_5="13000.00000" pt_clust_6="13000.00000" pt_clust_7="13000.00000" pt_clust_8="13000.00000" pt_clust_9="30.98697"></scales>
<clustering>
<clus scale="   30.987">  2  9  1 -1</clus>
<clus scale="   81.701">  5  6 -1 -1</clus>
<clus scale="   90.836">  7  8 -1 -1</clus>
<clus scale="  197.148">  1  5  2 -1</clus>
<clus scale="   30.987">  2  5  1 -1</clus>
</clustering>
</event>
<event>
 9    1  0.6675710E-005  0.1000399E+03  0.7546771E-02  0.1285850E+00
          1   -1    0    0  502    0 -0.00000000000E+00  0.00000000000E+00  0.14778333743E+03  0.14778333743E+03  0.00000000000E+00 0. -1.
         21   -1    0    0  501  502  0.00000000000E+00 -0.00000000000E+00 -0.15870031767E+03  0.15870031767E+03  0.00000000000E+00 0.  1.
        -24    2    1    2    0    0  0.25380903736E+02  0.28325370213E+02  0.98100360674E+02  0.13216043583E+03  0.79976141201E+02 0.  0.
         23    2    1    2    0    0 -0.40989439165E+02 -0.41664354556E+02 -0.66524604289E+02  0.12713013135E+03  0.91216746040E+02 0.  0.
         13    1    3    3    0    0  0.43032401368E+02  0.46407106276E+02  0.70476336991E+02  0.94722337155E+02  0.00000000000E+00 0. -1.
        -14    1    3    3    0    0 -0.17651497633E+02 -0.18081736063E+02  0.27624023684E+02  0.37438098672E+02  0.00000000000E+00 0.  1.
        -11    1    4    4    0    0 -0.44354779143E+01 -0.50018115262E+02 -0.73475310567E+02  0.88994980654E+02  0.00000000000E+00 0.  1.
         11    1    4    4    0    0 -0.36553961251E+02  0.83537607055E+01  0.69507062778E+01  0.38135150699E+02  0.00000000000E+00 0. -1.
          2    1    1    2  501    0  0.15608535429E+02  0.13338984343E+02 -0.42492736631E+02  0.47193087925E+02  0.00000000000E+00 0. -1.
<scales pt_clust_5="13000.00000" pt_clust_6="13000.00000" pt_clust_7="13000.00000" pt_clust_8="13000.00000" pt_clust_9="20.53180"></scales>
<clustering>
<clus scale="   20.532">  2  9  1 -1</clus>
<clus scale="   79.976">  5  6 -1 -1</clus>
<clus scale="   89.909">  1  5  2 -1</clus>
<clus scale="   91.217">  7  8 -1 -1</clus>
<clus scale="   20.532">  2  5  1 -1</clus>
</clustering>
</event>
<event>
 9    1  0.6675710E-005  0.1043747E+03  0.7546771E-02  0.1274714E+00
          1   -1    0    0  502    0 -0.00000000000E+00  0.00000000000E+00  0.67513404938E+03  0.67513404938E+03  0.00000000000E+00 0. -1.
         21   -1    0    0  501  502  0.00000000000E+00 -0.00000000000E+00 -0.28392194330E+02  0.28392194330E+02  0.00000000000E+00 0. -1.
        -24    2    1    2    0    0  0.16665620857E+02  0.75886029504E+02  0.38657500861E+03  0.40237374555E+03  0.80174568475E+02 0.  0.
         23    2    1    2    0    0 -0.12942073413E+02 -0.27633063997E+02  0.21757789654E+03  0.23668520305E+03  0.88026477771E+02 0.  0.
         11    1    3    3    0    0  0.18690066411E+02  0.79292037228E+02  0.38919110057E+03  0.39762577697E+03  0.00000000000E+00 0. -1.
        -12    1    3    3    0    0 -0.20244455542E+01 -0.34060077235E+01 -0.26160919609E+01  0.47479685721E+01  0.00000000000E+00 0.  1.
        -11    1    4    4    0    0 -0.41886468882E+02  0.97708146380E+01  0.13300165860E+03  0.13978335482E+03  0.00000000000E+00 0.  1.
         11    1    4    4    0    0  0.28944395469E+02 -0.37403878635E+02  0.84576237939E+02  0.96901848228E+02  0.00000000000E+00 0. -1.
          2    1    1    2  501    0 -0.37235474440E+01 -0.48252965507E+02  0.42588949893E+02  0.64467295110E+02  0.00000000000E+00 0. -1.
<scales pt_clust_5="13000.00000" pt_clust_6="13000.00000" pt_clust_7="13000.00000" pt_clust_8="13000.00000" pt_clust_9="48.39642"></scales>
<clustering>
<clus scale="   48.396">  2  9  1 -1</clus>
<clus scale="   80.175">  5  6 -1 -1</clus>
<clus scale="   88.026">  7  8 -1 -1</clus>
<clus scale="   97.844">  1  5  2 -1</clus>
<clus scale="   48.396">  2  5  1 -1</clus>
</clustering>
</event>
<event>
 9    1  0.6675710E-005  0.2162044E+03  0.7546771E-02  0.1156881E+00
          1   -1    0    0  502    0 -0.00000000000E+00  0.00000000000E+00  0.22738276289E+03  0.22738276289E+03  0.00000000000E+00 0. -1.
         21   -1    0    0  501  502  0.00000000000E+00 -0.00000000000E+00 -0.53634822727E+03  0.53634822727E+03  0.00000000000E+00 0. -1.
        -24    2    1    2    0    0 -0.10465180596E+03  0.24257407927E+02  0.99211139111E+02  0.16657175713E+03  0.79767648950E+02 0.  0.
         23    2    1    2    0    0 -0.10839466641E+03  0.76778226769E+02 -0.48921992536E+02  0.16743737606E+03  0.89429378489E+02 0.  0.
         13    1    3    3    0    0 -0.60771477704E+02  0.43845563267E+02  0.90896210489E+02  0.11780376480E+03  0.00000000000E+00 0. -1.
        -14    1    3    3    0    0 -0.43880328254E+02 -0.19588155340E+02  0.83149286221E+01  0.48767992324E+02  0.00000000000E+00 0.  1.
        -11    1    4    4    0    0 -0.56824015146E+02  0.69216839083E+02 -0.67457092635E+02  0.11211779010E+03  0.00000000000E+00 0. -1.
         11    1    4    4    0    0 -0.51570651264E+02  0.75613876868E+01  0.18535100099E+02  0.55319585964E+02  0.00000000000E+00 0.  1.
          2    1    1    2  501    0  0.21304647237E+03 -0.10103563470E+03 -0.35925461096E+03  0.42972185697E+03  0.00000000000E+00 0. -1.
<scales pt_clust_5="13000.00000" pt_clust_6="13000.00000" pt_clust_7="13000.00000" pt_clust_8="13000.00000" pt_clust_9="196.84183"></scales>
<clustering>
<clus scale="   79.768">  5  6 -1 -1</clus>
<clus scale="   89.429">  7  8 -1 -1</clus>
<clus scale="  133.803">  1  5  2 -1</clus>
<clus scale="  196.842">  2  9  1 -1</clus>
<clus scale="  196.842">  2  5  1 -1</clus>
</clustering>
</event>
<event>
 9    1  0.6675710E-005  0.1292453E+03  0.7546771E-02  0.1230592E+00
         -4   -1    0    0    0  501 -0.00000000000E+00  0.00000000000E+00  0.19733863928E+03  0.19733863928E+03  0.00000000000E+00 0.  1.
         21   -1    0    0  501  502  0.00000000000E+00 -0.00000000000E+00 -0.26381419500E+03  0.26381419500E+03  0.00000000000E+00 0.  1.
         23    2    1    2    0    0  0.78519350180E+02  0.31385528409E+02 -0.91202971415E+02  0.15391331133E+03  0.90669651288E+02 0.  0.
        -24    2    1    2    0    0 -0.38648231297E+02  0.89217324174E+02 -0.72461952954E+02  0.14730038593E+03  0.83625668034E+02 0.  0.
         13    1    4    4    0    0  0.25732413530E+02  0.14215645093E+02 -0.17011135099E+02  0.33964987690E+02  0.00000000000E+00 0. -1.
        -14    1    4    4    0    0 -0.64380644827E+02  0.75001679081E+02 -0.55450817855E+02  0.11333539824E+03  0.00000000000E+00 0.  1.
        -13    1    3    3    0    0  0.49722127939E+02  0.39348560895E+02 -0.10368190323E+03  0.12153409525E+03  0.00000000000E+00 0.  1.
         13    1    3    3    0    0  0.28797222241E+02 -0.79630324859E+01  0.12478931811E+02  0.32379216085E+02  0.00000000000E+00 0. -1.
         -3    1    1    2    0  502 -0.39871118883E+02 -0.12060285258E+03  0.97189368648E+02  0.15993913702E+03  0.00000000000E+00 0.  1.
<scales pt_clust_5="13000.00000" pt_clust_6="13000.00000" pt_clust_7="13000.00000" pt_clust_8="13000.00000" pt_clust_9="98.54489"></scales>
<clustering>
<clus scale="   83.626">  5  6 -1 -1</clus>
<clus scale="   90.670">  7  8 -1 -1</clus>
<clus scale="  123.981">  1  7  2 -1</clus>
<clus scale="   98.545">  2  9  1 -1</clus>
<clus scale="   98.545">  2  5  1 -1</clus>
</clustering>
</event>
<event>
 9    1  0.6675710E-005  0.9453683E+02  0.7546771E-02  0.1295280E+00
         21   -1    0    0  501  502  0.00000000000E+00  0.00000000000E+00  0.21537338040E+03  0.21537338040E+03  0.00000000000E+00 0.  1.
         -2   -1    0    0    0  501 -0.00000000000E+00 -0.00000000000E+00 -0.79300522337E+02  0.79300522337E+02  0.00000000000E+00 0.  1.
        -24    2    1    2    0    0  0.75396805680E+01 -0.23894683741E+02  0.12403649476E+02  0.86483352258E+02  0.81839580909E+02 0.  0.
         23    2    1    2    0    0 -0.40166779272E+02  0.35014453201E+02  0.27587878883E+02  0.10611313495E+03  0.87518708048E+02 0.  0.
         13    1    3    3    0    0  0.77568537987E+01  0.18919979399E+02  0.33116675807E+02  0.38921056227E+02  0.00000000000E+00 0. -1.
        -14    1    3    3    0    0 -0.21717323072E+00 -0.42814663140E+02 -0.20713026331E+02  0.47562296031E+02  0.00000000000E+00 0.  1.
        -11    1    4    4    0    0 -0.28328711310E+02  0.63726100083E+02  0.27747499010E+02  0.75056348283E+02  0.00000000000E+00 0.  1.
         11    1    4    4    0    0 -0.11838067961E+02 -0.28711646882E+02 -0.15962012701E+00  0.31056786671E+02  0.00000000000E+00 0. -1.
         -1    1    1    2    0  502  0.32627098704E+02 -0.11119769460E+02  0.96081329706E+02  0.10207741553E+03  0.00000000000E+00 0.  1.
<scales pt_clust_5="13000.00000" pt_clust_6="13000.00000" pt_clust_7="13000.00000" pt_clust_8="13000.00000" pt_clust_9="34.46994"></scales>
<clustering>
<clus scale="   34.470">  1  9  2 -1</clus>
<clus scale="   81.840">  5  6 -1 -1</clus>
<clus scale="   87.519">  7  8 -1 -1</clus>
<clus scale="   89.305">  2  5  1 -1</clus>
<clus scale="   34.470">  1  5  2 -1</clus>
</clustering>
</event>
<event>
 9    1  0.6675710E-005  0.9206478E+02  0.7546771E-02  0.1304410E+00
         21   -1    0    0  501  502  0.00000000000E+00  0.00000000000E+00  0.38405131078E+02  0.38405131078E+02  0.00000000000E+00 0. -1.
         -4   -1    0    0    0  501 -0.00000000000E+00 -0.00000000000E+00 -0.59495303682E+03  0.59495303682E+03  0.00000000000E+00 0.  1.
        -24    2    1    2    0    0  0.60354955511E+01  0.95127060412E+01 -0.49332403634E+03  0.50009503533E+03  0.81237434435E+02 0.  0.
         23    2    1    2    0    0  0.13607284670E+02  0.48682881753E+01 -0.53096934298E+02  0.10689636135E+03  0.91644362691E+02 0.  0.
         13    1    3    3    0    0 -0.22133923708E+02 -0.11292017748E+02 -0.54745590836E+02  0.60120711569E+02  0.00000000000E+00 0. -1.
        -14    1    3    3    0    0  0.28169419259E+02  0.20804723790E+02 -0.43857844550E+03  0.43997432376E+03  0.00000000000E+00 0.  1.
        -11    1    4    4    0    0  0.93809203284E+01  0.36275084319E+02 -0.63339813678E+02  0.73592223810E+02  0.00000000000E+00 0.  1.
         11    1    4    4    0    0  0.42263643414E+01 -0.31406796144E+02  0.10242879379E+02  0.33304137544E+02  0.00000000000E+00 0. -1.
         -3    1    1    2    0  502 -0.19642780221E+02 -0.14380994216E+02 -0.10126935108E+02  0.26366771212E+02  0.00000000000E+00 0.  1.
<scales pt_clust_5="13000.00000" pt_clust_6="13000.00000" pt_clust_7="13000.00000" pt_clust_8="13000.00000" pt_clust_9="24.34444"></scales>
<clustering>
<clus scale="   24.344">  1  9  2 -1</clus>
<clus scale="   81.237">  5  6 -1 -1</clus>
<clus scale="   81.711">  2  5  1 -1</clus>
<clus scale="   91.644">  7  8 -1 -1</clus>
<clus scale="   24.344">  1  5  2 -1</clus>
</clustering>
</event>
<event>
 9    1  0.6675710E-005  0.9894642E+02  0.7546771E-02  0.1288398E+00
         21   -1    0    0  501  502  0.00000000000E+00  0.00000000000E+00  0.52651677294E+02  0.52651677294E+02  0.00000000000E+00 0. -1.
          1   -1    0    0  502    0 -0.00000000000E+00 -0.00000000000E+00 -0.25300143579E+03  0.25300143579E+03  0.00000000000E+00 0. -1.
        -24    2    1    2    0    0 -0.12454271901E+02  0.41766571341E+02 -0.80730741804E+02  0.12256202131E+03  0.81267712071E+02 0.  0.
         23    2    1    2    0    0 -0.23909382928E+02 -0.27232015131E+02 -0.82039471673E+02  0.12881595086E+03  0.92465307249E+02 0.  0.
         11    1    3    3    0    0 -0.40805346298E+02 -0.35584918545E+00 -0.28892919627E+02  0.50000037197E+02  0.00000000000E+00 0. -1.
        -12    1    3    3    0    0  0.28351074396E+02  0.42122420527E+02 -0.51837822177E+02  0.72561984114E+02  0.00000000000E+00 0.  1.
        -11    1    4    4    0    0 -0.13565673582E+02  0.24757321328E+02 -0.68524577523E+02  0.74111876132E+02  0.00000000000E+00 0.  1.
         11    1    4    4    0    0 -0.10343709346E+02 -0.51989336459E+02 -0.13514894150E+02  0.54704074733E+02  0.00000000000E+00 0. -1.
          2    1    1    2  501    0  0.36363654830E+02 -0.14534556210E+02 -0.37579545015E+02  0.54275140906E+02  0.00000000000E+00 0. -1.
<scales pt_clust_5="13000.00000" pt_clust_6="13000.00000" pt_clust_7="13000.00000" pt_clust_8="13000.00000" pt_clust_9="39.16083"></scales>
<clustering>
<clus scale="   39.161">  1  9  2 -1</clus>
<clus scale="   81.268">  5  6 -1 -1</clus>
<clus scale="   88.572">  2  5  1 -1</clus>
<clus scale="   92.465">  7  8 -1 -1</clus>
<clus scale="   39.161">  1  5  2 -1</clus>
</clustering>
</event>
<event>
 9    1  0.6675710E-005  0.2147524E+03  0.7546771E-02  0.1169668E+00
         21   -1    0    0  501  502  0.00000000000E+00  0.00000000000E+00  0.10628568977E+04  0.10628568977E+04  0.00000000000E+00 0.  1.
         -4   -1    0    0    0  501 -0.00000000000E+00 -0.00000000000E+00 -0.73411082824E+02  0.73411082824E+02  0.00000000000E+00 0.  1.
         23    2    1    2    0    0 -0.43922862817E+02  0.13317156472E+02  0.30300680932E+03  0.31957275728E+03  0.90592804176E+02 0.  0.
        -24    2    1    2    0    0  0.58888355721E+02 -0.20299934568E+03  0.24208353125E+03  0.33331640035E+03  0.88424056956E+02 0.  0.
         13    1    4    4    0    0  0.51162322005E+02 -0.10078593686E+03  0.69796664486E+02  0.13284187079E+03  0.00000000000E+00 0. -1.
        -14    1    4    4    0    0  0.77260337155E+01 -0.10221340882E+03  0.17228686677E+03  0.20047452956E+03  0.00000000000E+00 0.  1.
        -13    1    3    3    0    0 -0.55603586735E+01  0.34604076887E+02  0.41090148934E+02  0.54007037182E+02  0.00000000000E+00 0. -1.
         13    1    3    3    0    0 -0.38362504144E+02 -0.21286920415E+02  0.26191666039E+03  0.26556572010E+03  0.00000000000E+00 0.  1.
         -3    1    1    2    0  502 -0.14965492903E+02  0.18968218921E+03  0.44435547433E+03  0.48337882292E+03  0.00000000000E+00 0.  1.
<scales pt_clust_5="13000.00000" pt_clust_6="13000.00000" pt_clust_7="13000.00000" pt_clust_8="13000.00000" pt_clust_9="195.70326"></scales>
<clustering>
<clus scale="   88.424">  5  6 -1 -1</clus>
<clus scale="   90.593">  7  8 -1 -1</clus>
<clus scale="  101.556">  2  7  1 -1</clus>
<clus scale="  195.703">  1  9  2 -1</clus>
<clus scale="  195.703">  1  5  2 -1</clus>
</clustering>
</event>
<event>
 9    1  0.6675710E-005  0.1141281E+03  0.7546771E-02  0.1257511E+00
          1   -1    0    0  502    0 -0.00000000000E+00  0.00000000000E+00  0.42745904795E+03  0.42745904795E+03  0.00000000000E+00 0. -1.
         21   -1    0    0  501  502  0.00000000000E+00 -0.00000000000E+00 -0.55718263924E+02  0.55718263924E+02  0.00000000000E+00 0.  1.
         23    2    1    2    0    0 -0.26745734619E+02  0.34408307123E+02  0.17015665633E+03  0.19872461957E+03  0.92945795030E+02 0.  0.
        -24    2    1    2    0    0  0.82012353645E+02 -0.61131183927E+02  0.17316525059E+03  0.21680549059E+03  0.80965232903E+02 0.  0.
         11    1    4    4    0    0  0.31307364773E+02 -0.68928819808E+02  0.12667303210E+03  0.14757164481E+03  0.00000000000E+00 0. -1.
        -12    1    4    4    0    0  0.50704988872E+02  0.77976358809E+01  0.46492218488E+02  0.69233845782E+02  0.00000000000E+00 0.  1.
        -13    1    3    3    0    0 -0.45632064481E+02 -0.16182342224E+02  0.73705567072E+02  0.88185396331E+02  0.00000000000E+00 0.  1.
         13    1    3    3    0    0  0.18886329862E+02  0.50590649347E+02  0.96451089253E+02  0.11053922324E+03  0.00000000000E+00 0. -1.
          2    1    1    2  501    0 -0.55266619026E+02  0.26722876804E+02  0.28418877112E+02  0.67647201713E+02  0.00000000000E+00 0. -1.
<scales pt_clust_5="13000.00000" pt_clust_6="13000.00000" pt_clust_7="13000.00000" pt_clust_8="13000.00000" pt_clust_9="61.38820"></scales>
<clustering>
<clus scale="   61.388">  2  9  1 -1</clus>
<clus scale="   80.965">  5  6 -1 -1</clus>
<clus scale="   92.946">  7  8 -1 -1</clus>
<clus scale="  104.602">  2  5  1 -1</clus>
<clus scale="   61.388">  2  5  1 -1</clus>
</clustering>
</event>
<event>
 9    1  0.6675710E-005  0.1486088E+03  0.7546771E-02  0.1203021E+00
          1   -1    0    0  502    0 -0.00000000000E+00  0.00000000000E+00  0.27967774686E+03  0.27967774686E+03  0.00000000000E+00 0. -1.
         21   -1    0    0  501  502  0.00000000000E+00 -0.00000000000E+00 -0.15848617024E+03  0.15848617024E+03  0.00000000000E+00 0. -1.
         23    2    1    2    0    0  0.65861527467E+02 -0.10178572977E+03  0.80991692933E+02  0.16934285821E+03  0.86135206034E+02 0.  0.
        -24    2    1    2    0    0 -0.12531631849E+03  0.53912996502E+02 -0.33844478932E+02  0.16247615585E+03  0.81500071132E+02 0.  0.
         13    1    4    4    0    0 -0.59010946244E+02  0.59515098950E+02 -0.44808109889E+02  0.95037389965E+02  0.00000000000E+00 0. -1.
        -14    1    4    4    0    0 -0.66305372249E+02 -0.56021024472E+01  0.10963630957E+02  0.67438765889E+02  0.00000000000E+00 0.  1.
        -13    1    3    3    0    0  0.38205989868E+02 -0.48524198561E+02 -0.77175831547E+01  0.62240313282E+02  0.00000000000E+00 0. -1.
         13    1    3    3    0    0  0.27655537599E+02 -0.53261531210E+02  0.88709276087E+02  0.10710254493E+03  0.00000000000E+00 0.  1.
          2    1    1    2  501    0  0.59454791026E+02  0.47872733268E+02  0.74044362616E+02  0.10634490304E+03  0.00000000000E+00 0. -1.
<scales pt_clust_5="13000.00000" pt_clust_6="13000.00000" pt_clust_7="13000.00000" pt_clust_8="13000.00000" pt_clust_9="76.33267"></scales>
<clustering>
<clus scale="   76.333">  2  9  1 -1</clus>
<clus scale="   81.500">  5  6 -1 -1</clus>
<clus scale="   86.135">  7  8 -1 -1</clus>
<clus scale="  145.971">  2  5  1 -1</clus>
<clus scale="   76.333">  2  5  1 -1</clus>
</clustering>
</event>
<event>
 9    1  0.6675710E-005  0.2417779E+03  0.7546771E-02  0.1144718E+00
         -2   -1    0    0    0  501 -0.00000000000E+00  0.00000000000E+00  0.58639111798E+03  0.58639111798E+03  0.00000000000E+00 0.  1.
         21   -1    0    0  501  502  0.00000000000E+00 -0.00000000000E+00 -0.32003762936E+03  0.32003762936E+03  0.00000000000E+00 0.  1.
        -24    2    1    2    0    0 -0.50000323033E+02 -0.64661672211E+02  0.58834266884E+02  0.14049515061E+03  0.97960462573E+02 0.  0.
         23    2    1    2    0    0 -0.20738904973E+03  0.72415245816E+02 -0.18118705418E+03  0.29966974863E+03  0.93375713475E+02 0.  0.
         13    1    3    3    0    0 -0.83419047992E+01 -0.79810247697E+02  0.52060562806E+02  0.95653359652E+02  0.00000000000E+00 0. -1.
        -14    1    3    3    0    0 -0.41658418234E+02  0.15148575486E+02  0.67737040788E+01  0.44841790954E+02  0.00000000000E+00 0.  1.
        -11    1    4    4    0    0 -0.76259786390E+02  0.75772917574E+02 -0.79969578934E+02  0.13398590826E+03  0.00000000000E+00 0. -1.
         11    1    4    4    0    0 -0.13112926335E+03 -0.33576717574E+01 -0.10121747524E+03  0.16568384037E+03  0.00000000000E+00 0.  1.
         -1    1    1    2    0  502  0.25738937277E+03 -0.77535736057E+01  0.38870627591E+03  0.46626384810E+03  0.00000000000E+00 0.  1.
<scales pt_clust_5="13000.00000" pt_clust_6="13000.00000" pt_clust_7="13000.00000" pt_clust_8="13000.00000" pt_clust_9="223.01926"></scales>
<clustering>
<clus scale="   93.376">  7  8 -1 -1</clus>
<clus scale="   97.960">  5  6 -1 -1</clus>
<clus scale="  127.583">  1  5  2 -1</clus>
<clus scale="  223.019">  2  9  1 -1</clus>
<clus scale="  223.019">  2  5  1 -1</clus>
</clustering>
</event>
<event>
 9    1  0.6675710E-005  0.1516996E+03  0.7546771E-02  0.1222884E+00
         21   -1    0    0  501  502  0.00000000000E+00  0.00000000000E+00  0.42374316854E+03  0.42374316854E+03  0.00000000000E+00 0.  1.
         -2   -1    0    0    0  501 -0.00000000000E+00 -0.00000000000E+00 -0.18397656687E+03  0.18397656687E+03  0.00000000000E+00 0.  1.
        -24    2    1    2    0    0  0.20673658596E+02  0.34836808950E+02 -0.96763938420E+02  0.13213512154E+03  0.80345672857E+02 0.  0.
         23    2    1    2    0    0  0.99978194317E+02 -0.52845997761E+02  0.35680096750E+02  0.15094298107E+03  0.93393658303E+02 0.  0.
         11    1    3    3    0    0  0.34197834401E+02  0.36795959398E+00 -0.68272941641E+01  0.34874621397E+02  0.00000000000E+00 0. -1.
        -12    1    3    3    0    0 -0.13524175804E+02  0.34468849356E+02 -0.89936644256E+02  0.97260500138E+02  0.00000000000E+00 0.  1.
        -11    1    4    4    0    0  0.51482511397E+02 -0.11258134062E+02  0.62416271977E+02  0.81688344149E+02  0.00000000000E+00 0.  1.
         11    1    4    4    0    0  0.48495682919E+02 -0.41587863699E+02 -0.26736175227E+02  0.69254636918E+02  0.00000000000E+00 0. -1.
         -1    1    1    2    0  502 -0.12065185291E+03  0.18009188812E+02  0.30085044335E+03  0.32464163281E+03  0.00000000000E+00 0.  1.
<scales pt_clust_5="13000.00000" pt_clust_6="13000.00000" pt_clust_7="13000.00000" pt_clust_8="13000.00000" pt_clust_9="119.54246"></scales>
<clustering>
<clus scale="   80.346">  5  6 -1 -1</clus>
<clus scale="   89.980">  2  5  1 -1</clus>
<clus scale="   93.394">  7  8 -1 -1</clus>
<clus scale="  119.542">  1  9  2 -1</clus>
<clus scale="  119.542">  1  5  2 -1</clus>
</clustering>
</event>
<event>
 9    1  0.6675710E-005  0.9825377E+02  0.7546771E-02  0.1294237E+00
         21   -1    0    0  501  502  0.00000000000E+00  0.00000000000E+00  0.37777395025E+02  0.37777395025E+02  0.00000000000E+00 0.  1.
          1   -1    0    0  502    0 -0.00000000000E+00 -0.00000000000E+00 -0.33462195812E+03  0.33462195812E+03  0.00000000000E+00 0. -1.
        -24    2    1    2    0    0  0.28905403793E+02  0.41927791665E+02 -0.14261979463E+03  0.16775967792E+03  0.72176461762E+02 0.  0.
         23    2    1    2    0    0 -0.16547965080E+02 -0.56792593455E+01 -0.86202157080E+02  0.12657727681E+03  0.91021458922E+02 0.  0.
         13    1    3    3    0    0  0.41053536686E+02  0.22830760638E+02 -0.37152441473E+02  0.59891071230E+02  0.00000000000E+00 0. -1.
        -14    1    3    3    0    0 -0.12148132893E+02  0.19097031028E+02 -0.10546735316E+03  0.10786860669E+03  0.00000000000E+00 0.  1.
        -11    1    4    4    0    0 -0.12267107849E+02  0.42475906494E+02 -0.44538707291E+02  0.62756521690E+02  0.00000000000E+00 0. -1.
         11    1    4    4    0    0 -0.42808572311E+01 -0.48155165840E+02 -0.41663449789E+02  0.63820755119E+02  0.00000000000E+00 0.  1.
          2    1    1    2  501    0 -0.12357438713E+02 -0.36248532320E+02 -0.68022611386E+02  0.78062398417E+02  0.00000000000E+00 0. -1.
<scales pt_clust_5="13000.00000" pt_clust_6="13000.00000" pt_clust_7="13000.00000" pt_clust_8="13000.00000" pt_clust_9="38.29705"></scales>
<clustering>
<clus scale="   38.297">  1  9  2 -1</clus>
<clus scale="   72.176">  5  6 -1 -1</clus>
<clus scale="   81.107">  2  5  1 -1</clus>
<clus scale="   91.021">  7  8 -1 -1</clus>
<clus scale="   38.297">  1  5  2 -1</clus>
</clustering>
</event>
<event>
 9    1  0.6675710E-005  0.9546025E+02  0.7546771E-02  0.1296424E+00
         21   -1    0    0  501  502  0.00000000000E+00  0.00000000000E+00  0.19827130609E+02  0.19827130609E+02  0.00000000000E+00 0.  1.
          1   -1    0    0  502    0 -0.00000000000E+00 -0.00000000000E+00 -0.69566765511E+03  0.69566765511E+03  0.00000000000E+00 0. -1.
        -24    2    1    2    0    0 -0.32652714100E+02  0.20091724683E+02 -0.23490926199E+03  0.25107109704E+03  0.79902798829E+02 0.  0.
         23    2    1    2    0    0 -0.25819277542E+01 -0.26758533766E+02 -0.20654293824E+03  0.22730807788E+03  0.91029069277E+02 0.  0.
         11    1    3    3    0    0 -0.38845352082E+02 -0.11628653345E+02 -0.19756674820E+03  0.20168491999E+03  0.00000000000E+00 0. -1.
        -12    1    3    3    0    0  0.61926379815E+01  0.31720378028E+02 -0.37342513793E+02  0.49386177052E+02  0.00000000000E+00 0.  1.
        -11    1    4    4    0    0  0.32763147083E+02 -0.11013337751E+01 -0.16062472402E+03  0.16393577618E+03  0.00000000000E+00 0. -1.
         11    1    4    4    0    0 -0.35345074837E+02 -0.25657199991E+02 -0.45918214215E+02  0.63372301705E+02  0.00000000000E+00 0.  1.
          2    1    1    2  501    0  0.35234641855E+02  0.66668090830E+01 -0.23438832427E+03  0.23711561080E+03  0.00000000000E+00 0. -1.
<scales pt_clust_5="13000.00000" pt_clust_6="13000.00000" pt_clust_7="13000.00000" pt_clust_8="13000.00000" pt_clust_9="35.85983"></scales>
<clustering>
<clus scale="   35.860">  1  9  2 -1</clus>
<clus scale="   79.903">  5  6 -1 -1</clus>
<clus scale="   84.917">  2  5  1 -1</clus>
<clus scale="   91.029">  7  8 -1 -1</clus>
<clus scale="   35.860">  1  5  2 -1</clus>
</clustering>
</event>
<event>
 9    1  0.6675710E-005  0.1185737E+03  0.7546771E-02  0.1248687E+00
         21   -1    0    0  501  502  0.00000000000E+00  0.00000000000E+00  0.13384343067E+03  0.13384343067E+03  0.00000000000E+00 0. -1.
         -2   -1    0    0    0  501 -0.00000000000E+00 -0.00000000000E+00 -0.37910057548E+03  0.37910057548E+03  0.00000000000E+00 0.  1.
        -24    2    1    2    0    0  0.62250546919E+02  0.30683359184E+02 -0.38574117809E+02  0.11386851805E+03  0.81617876197E+02 0.  0.
         23    2    1    2    0    0 -0.34521952637E+02 -0.10503616391E+03  0.32453958469E+02  0.14711574462E+03  0.91462680651E+02 0.  0.
         11    1    3    3    0    0  0.79885262991E+02  0.10984181375E+02 -0.30675351854E+02  0.86274473020E+02  0.00000000000E+00 0. -1.
        -12    1    3    3    0    0 -0.17634716072E+02  0.19699177809E+02 -0.78987659554E+01  0.27594045026E+02  0.00000000000E+00 0.  1.
        -13    1    4    4    0    0 -0.44129505674E+02 -0.95785189531E+01 -0.19357058328E+01  0.45198542603E+02  0.00000000000E+00 0.  1.
         13    1    4    4    0    0  0.96075530366E+01 -0.95457644959E+02  0.34389664302E+02  0.10191720202E+03  0.00000000000E+00 0. -1.
         -1    1    1    2    0  502 -0.27728594281E+02  0.74352804729E+02 -0.23913698547E+03  0.25195974348E+03  0.00000000000E+00 0.  1.
<scales pt_clust_5="13000.00000" pt_clust_6="13000.00000" pt_clust_7="13000.00000" pt_clust_8="13000.00000" pt_clust_9="79.35503"></scales>
<clustering>
<clus scale="   79.355">  1  9  2 -1</clus>
<clus scale="   81.618">  5  6 -1 -1</clus>
<clus scale="   91.463">  7  8 -1 -1</clus>
<clus scale="  111.157">  2  5  1 -1</clus>
<clus scale="   79.355">  1  5  2 -1</clus>
</clustering>
</event>
<event>
 9    1  0.6675710E-005  0.1256069E+03  0.7546771E-02  0.1237128E+00
         -2   -1    0    0    0  501 -0.00000000000E+00  0.00000000000E+00  0.16359022774E+03  0.16359022774E+03  0.00000000000E+00 0.  1.
         21   -1    0    0  501  502  0.00000000000E+00 -0.00000000000E+00 -0.22120645573E+03  0.22120645573E+03  0.00000000000E+00 0. -1.
        -24    2    1    2    0    0  0.53934357676E+01 -0.81059242128E+02 -0.81227604158E+01  0.11458886017E+03  0.80404836640E+02 0.  0.
         23    2    1    2    0    0 -0.77978301968E+02  0.84498503328E+02 -0.10363943573E+03  0.17958675960E+03  0.91047564178E+02 0.  0.
         13    1    3    3    0    0 -0.23008299663E+02 -0.72863899403E+02  0.13980184431E+02  0.77678666610E+02  0.00000000000E+00 0. -1.
        -14    1    3    3    0    0  0.28401735430E+02 -0.81953427244E+01 -0.22102944847E+02  0.36910193562E+02  0.00000000000E+00 0.  1.
        -13    1    4    4    0    0  0.59597411560E+01  0.27351286465E+02  0.75629195967E+01  0.28996709103E+02  0.00000000000E+00 0.  1.
         13    1    4    4    0    0 -0.83938043124E+02  0.57147216863E+02 -0.11120235533E+03  0.15059005050E+03  0.00000000000E+00 0. -1.
         -1    1    1    2    0  502  0.72584866200E+02 -0.34392612003E+01  0.54145968151E+02  0.90621063699E+02  0.00000000000E+00 0.  1.
<scales pt_clust_5="13000.00000" pt_clust_6="13000.00000" pt_clust_7="13000.00000" pt_clust_8="13000.00000" pt_clust_9="72.66634"></scales>
<clustering>
<clus scale="   72.666">  2  9  1 -1</clus>
<clus scale="   80.405">  5  6 -1 -1</clus>
<clus scale="   91.048">  7  8 -1 -1</clus>
<clus scale="  118.120">  1  5  2 -1</clus>
<clus scale="   72.666">  2  5  1 -1</clus>
</clustering>
</event>
<event>
 9    1  0.6675710E-005  0.1401731E+03  0.7546771E-02  0.1230367E+00
         -4   -1    0    0    0  501 -0.00000000000E+00  0.00000000000E+00  0.35774612194E+03  0.35774612194E+03  0.00000000000E+00 0.  1.
         21   -1    0    0  501  502  0.00000000000E+00 -0.00000000000E+00 -0.12836288321E+03  0.12836288321E+03  0.00000000000E+00 0.  1.
        -24    2    1    2    0    0  0.39552357435E+02 -0.38365521110E+02  0.17590052942E+03  0.20118271809E+03  0.80605133955E+02 0.  0.
         23    2    1    2    0    0  0.10633827200E+03 -0.14915491878E+02  0.12458104407E+02  0.12428395045E+03  0.61326959677E+02 0.  0.
         11    1    3    3    0    0  0.36813090437E+02 -0.11969118947E+02  0.21027567123E+02  0.44052491587E+02  0.00000000000E+00 0. -1.
        -12    1    3    3    0    0  0.27392669974E+01 -0.26396402163E+02  0.15487296230E+03  0.15713022650E+03  0.00000000000E+00 0.  1.
        -13    1    4    4    0    0  0.32172075213E+01 -0.20147607711E+02  0.18351448284E+01  0.20485220947E+02  0.00000000000E+00 0. -1.
         13    1    4    4    0    0  0.10312106448E+03  0.52321158332E+01  0.10622959579E+02  0.10379872950E+03  0.00000000000E+00 0.  1.
         -3    1    1    2    0  502 -0.14589062944E+03  0.53281012988E+02  0.41024604900E+02  0.16064233661E+03  0.00000000000E+00 0.  1.
<scales pt_clust_5="13000.00000" pt_clust_6="13000.00000" pt_clust_7="13000.00000" pt_clust_8="13000.00000" pt_clust_9="126.04575"></scales>
<clustering>
<clus scale="   61.327">  7  8 -1 -1</clus>
<clus scale="   80.605">  5  6 -1 -1</clus>
<clus scale="   97.640">  1  5  2 -1</clus>
<clus scale="  126.046">  2  9  1 -1</clus>
<clus scale="  126.046">  2  5  1 -1</clus>
</clustering>
</event>
<event>
 9    1  0.6675710E-005  0.1799010E+03  0.7546771E-02  0.1169183E+00
         21   -1    0    0  501  502  0.00000000000E+00  0.00000000000E+00  0.56325860477E+03  0.56325860477E+03  0.00000000000E+00 0. -1.
          1   -1    0    0  502    0 -0.00000000000E+00 -0.00000000000E+00 -0.23504477787E+03  0.23504477787E+03  0.00000000000E+00 0. -1.
        -24    2    1    2    0    0 -0.12108456194E+03  0.12049486135E+03 -0.12315167433E+03  0.22519792466E+03  0.79795285762E+02 0.  0.
         23    2    1    2    0    0  0.15204931385E+03  0.38435849077E+02  0.16972324688E+03  0.24823602880E+03  0.90657802345E+02 0.  0.
         13    1    3    3    0    0 -0.10458159970E+03  0.54360666213E+02 -0.95266930209E+02  0.15155256850E+03  0.00000000000E+00 0. -1.
        -14    1    3    3    0    0 -0.16502962231E+02  0.66134195142E+02 -0.27884744122E+02  0.73645356162E+02  0.00000000000E+00 0.  1.
        -13    1    4    4    0    0  0.24033524458E+02  0.39757257598E+02  0.18262213772E+02  0.49917514776E+02  0.00000000000E+00 0.  1.
         13    1    4    4    0    0  0.12801578939E+03 -0.13214085211E+01  0.15146103311E+03  0.19831851402E+03  0.00000000000E+00 0. -1.
          2    1    1    2  501    0 -0.30964751913E+02 -0.15893071043E+03  0.28164225435E+03  0.32486942918E+03  0.00000000000E+00 0. -1.
<scales pt_clust_5="13000.00000" pt_clust_6="13000.00000" pt_clust_7="13000.00000" pt_clust_8="13000.00000" pt_clust_9="161.91907"></scales>
<clustering>
<clus scale="   79.795">  5  6 -1 -1</clus>
<clus scale="   90.658">  7  8 -1 -1</clus>
<clus scale="  161.919">  1  9  2 -1</clus>
<clus scale="  174.679">  2  5  1 -1</clus>
<clus scale="  161.919">  1  5  2 -1</clus>
</clustering>
</event>
<event>
 9    1  0.6675710E-005  0.1116297E+03  0.7546771E-02  0.1262437E+00
          1   -1    0    0  502    0 -0.00000000000E+00  0.00000000000E+00  0.77601288272E+03  0.77601288272E+03  0.00000000000E+00 0. -1.
         21   -1    0    0  501  502  0.00000000000E+00 -0.00000000000E+00 -0.53004914238E+02  0.53004914238E+02  0.00000000000E+00 0. -1.
         23    2    1    2    0    0 -0.62054580600E+02  0.23325637285E+02  0.52833542605E+03  0.54027842590E+03  0.91474579782E+02 0.  0.
        -24    2    1    2    0    0  0.23118241578E+02 -0.77278326867E+02  0.19138958950E+03  0.22212323946E+03  0.78755099154E+02 0.  0.
         11    1    4    4    0    0 -0.27158230321E+02 -0.11264564033E+02  0.58076072059E+02  0.65094469987E+02  0.00000000000E+00 0. -1.
        -12    1    4    4    0    0  0.50276471899E+02 -0.66013762834E+02  0.13331351744E+03  0.15702876947E+03  0.00000000000E+00 0.  1.
        -11    1    3    3    0    0 -0.59226253033E+02  0.54403456532E+02  0.41527729295E+03  0.42299257106E+03  0.00000000000E+00 0. -1.
         11    1    3    3    0    0 -0.28283275671E+01 -0.31077819247E+02  0.11305813310E+03  0.11728585484E+03  0.00000000000E+00 0.  1.
          2    1    1    2  501    0  0.38936339022E+02  0.53952689583E+02  0.32829529386E+01  0.66616131603E+02  0.00000000000E+00 0. -1.
<scales pt_clust_5="13000.00000" pt_clust_6="13000.00000" pt_clust_7="13000.00000" pt_clust_8="13000.00000" pt_clust_9="66.53519"></scales>
<clustering>
<clus scale="   66.535">  2  9  1 -1</clus>
<clus scale="   78.755">  5  6 -1 -1</clus>
<clus scale="   91.475">  7  8 -1 -1</clus>
<clus scale="  101.469">  2  5  1 -1</clus>
<clus scale="   66.535">  2  5  1 -1</clus>
</clustering>
</event>
<event>
 9    1  0.6675710E-005  0.3061663E+03  0.7546771E-02  0.1082492E+00
         21   -1    0    0  501  502  0.00000000000E+00  0.00000000000E+00  0.15584541332E+03  0.15584541332E+03  0.00000000000E+00 0. -1.
          1   -1    0    0  502    0 -0.00000000000E+00 -0.00000000000E+00 -0.10093037299E+04  0.10093037299E+04  0.00000000000E+00 0. -1.
        -24    2    1    2    0    0 -0.62853874734E+02 -0.24594613519E+03 -0.18080473033E+03  0.32262453129E+03  0.83403397398E+02 0.  0.
         23    2    1    2    0    0  0.77111254274E+02  0.32656425545E+03 -0.29504218913E+03  0.45614019010E+03  0.91780287571E+02 0.  0.
         13    1    3    3    0    0 -0.59499033267E+02 -0.13094964572E+03 -0.60124976284E+02  0.15589405841E+03  0.00000000000E+00 0. -1.
        -14    1    3    3    0    0 -0.33548414665E+01 -0.11499648948E+03 -0.12067975404E+03  0.16673047289E+03  0.00000000000E+00 0.  1.
        -13    1    4    4    0    0  0.16611024810E+02  0.24743377973E+03 -0.21853886367E+03  0.33054294189E+03  0.00000000000E+00 0. -1.
         13    1    4    4    0    0  0.60500229464E+02  0.79130475720E+02 -0.76503325454E+02  0.12559724821E+03  0.00000000000E+00 0.  1.
          2    1    1    2  501    0 -0.14257379541E+02 -0.80618120261E+02 -0.37761139716E+03  0.38638442185E+03  0.00000000000E+00 0. -1.
<scales pt_clust_5="13000.00000" pt_clust_6="13000.00000" pt_clust_7="13000.00000" pt_clust_8="13000.00000" pt_clust_9="81.86917"></scales>
<clustering>
<clus scale="   81.869">  1  9  2 -1</clus>
<clus scale="   83.403">  5  6 -1 -1</clus>
<clus scale="   91.780">  7  8 -1 -1</clus>
<clus scale="  303.760">  2  5  1 -1</clus>
<clus scale="   81.869">  1  5  2 -1</clus>
</clustering>
</event>
<event>
 9    1  0.6675710E-005  0.9855352E+02  0.7546771E-02  0.1288830E+00
         21   -1    0    0  501  502  0.00000000000E+00  0.00000000000E+00  0.54443049748E+02  0.54443049748E+02  0.00000000000E+00 0. -1.
         -2   -1    0    0    0  501 -0.00000000000E+00 -0.00000000000E+00 -0.39243855930E+03  0.39243855930E+03  0.00000000000E+00 0.  1.
         23    2    1    2    0    0 -0.16239966097E+02 -0.23469246165E+02 -0.23398509994E+03  0.25270585481E+03  0.91086113369E+02 0.  0.
        -24    2    1    2    0    0  0.13026472473E+02  0.74121866895E+02 -0.53375594235E+02  0.12248266491E+03  0.80556247477E+02 0.  0.
         13    1    4    4    0    0  0.35282461872E+02  0.77670760241E+02 -0.31117239965E+02  0.90806837492E+02  0.00000000000E+00 0. -1.
        -14    1    4    4    0    0 -0.22255989399E+02 -0.35488933466E+01 -0.22258354270E+02  0.31675827423E+02  0.00000000000E+00 0.  1.
        -11    1    3    3    0    0  0.57295038599E+01 -0.55826875065E+02 -0.14625784298E+03  0.15665511107E+03  0.00000000000E+00 0.  1.
         11    1    3    3    0    0 -0.21969469957E+02  0.32357628900E+02 -0.87727256964E+02  0.96050743738E+02  0.00000000000E+00 0. -1.
         -1    1    1    2    0  502  0.32134936241E+01 -0.50652620729E+02 -0.50634815379E+02  0.71693089321E+02  0.00000000000E+00 0.  1.
<scales pt_clust_5="13000.00000" pt_clust_6="13000.00000" pt_clust_7="13000.00000" pt_clust_8="13000.00000" pt_clust_9="50.75445"></scales>
<clustering>
<clus scale="   50.754">  1  9  2 -1</clus>
<clus scale="   80.556">  5  6 -1 -1</clus>
<clus scale="   88.912">  1  5  2 -1</clus>
<clus scale="   91.086">  7  8 -1 -1</clus>
<clus scale="   50.754">  1  5  2 -1</clus>
</clustering>
</event>
<event>
 9    1  0.6675710E-005  0.9637684E+02  0.7546771E-02  0.1292453E+00
         21   -1    0    0  501  502  0.00000000000E+00  0.00000000000E+00  0.36026519257E+03  0.36026519257E+03  0.00000000000E+00 0.  1.
         -4   -1    0    0    0  501 -0.00000000000E+00 -0.00000000000E+00 -0.46780343029E+02  0.46780343029E+02  0.00000000000E+00 0.  1.
         23    2    1    2    0    0 -0.82018775414E+01  0.16394296625E+02  0.63218916143E+02  0.11108623989E+03  0.89484510264E+02 0.  0.
        -24    2    1    2    0    0  0.27266265639E+02 -0.60598490486E+02  0.13492067162E+03  0.17097133204E+03  0.81314097533E+02 0.  0.
         13    1    4    4    0    0  0.26963980947E+02  0.69764982582E+01  0.77300527865E+02  0.82165074117E+02  0.00000000000E+00 0. -1.
        -14    1    4    4    0    0  0.30228469186E+00 -0.67574988744E+02  0.57620143758E+02  0.88806257924E+02  0.00000000000E+00 0.  1.
        -13    1    3    3    0    0  0.14309503870E+02 -0.22109465874E+02  0.60985145113E+02  0.66428746087E+02  0.00000000000E+00 0.  1.
         13    1    3    3    0    0 -0.22511381411E+02  0.38503762499E+02  0.22337710302E+01  0.44657493802E+02  0.00000000000E+00 0. -1.
         -3    1    1    2    0  502 -0.19064388098E+02  0.44204193861E+02  0.11534526178E+03  0.12498796367E+03  0.00000000000E+00 0.  1.
<scales pt_clust_5="13000.00000" pt_clust_6="13000.00000" pt_clust_7="13000.00000" pt_clust_8="13000.00000" pt_clust_9="48.14002"></scales>
<clustering>
<clus scale="   48.140">  1  9  2 -1</clus>
<clus scale="   81.314">  5  6 -1 -1</clus>
<clus scale="   88.843">  1  5  2 -1</clus>
<clus scale="   89.485">  7  8 -1 -1</clus>
<clus scale="   48.140">  1  5  2 -1</clus>
</clustering>
</event>
<event>
 9    1  0.6675710E-005  0.9979261E+02  0.7546771E-02  0.1286857E+00
          1   -1    0    0  502    0 -0.00000000000E+00  0.00000000000E+00  0.11544009529E+03  0.11544009529E+03  0.00000000000E+00 0. -1.
         21   -1    0    0  501  502  0.00000000000E+00 -0.00000000000E+00 -0.11356676286E+03  0.11356676286E+03  0.00000000000E+00 0.  1.
        -24    2    1    2    0    0 -0.41018701908E+02 -0.12000223657E+01  0.22279916190E+02  0.91318697005E+02  0.78477613352E+02 0.  0.
         23    2    1    2    0    0  0.38162201130E+02  0.31823848448E+02 -0.25583786448E+02  0.10649871184E+03  0.90655030575E+02 0.  0.
         11    1    3    3    0    0 -0.63935269000E+02 -0.19155679911E+01  0.24019325805E+02  0.68325076180E+02  0.00000000000E+00 0. -1.
        -12    1    3    3    0    0  0.22916567092E+02  0.71554562543E+00 -0.17394096152E+01  0.22993620825E+02  0.00000000000E+00 0.  1.
        -11    1    4    4    0    0  0.20986264152E+02 -0.14421789742E+02  0.25110722877E+02  0.35762546132E+02  0.00000000000E+00 0. -1.
         11    1    4    4    0    0  0.17175936979E+02  0.46245638190E+02 -0.50694509325E+02  0.70736165703E+02  0.00000000000E+00 0.  1.
          2    1    1    2  501    0  0.28565007778E+01 -0.30623826082E+02  0.51772026893E+01  0.31189449310E+02  0.00000000000E+00 0. -1.
<scales pt_clust_5="13000.00000" pt_clust_6="13000.00000" pt_clust_7="13000.00000" pt_clust_8="13000.00000" pt_clust_9="30.75678"></scales>
<clustering>
<clus scale="   30.757">  2  9  1 -1</clus>
<clus scale="   78.478">  5  6 -1 -1</clus>
<clus scale="   88.876">  1  5  2 -1</clus>
<clus scale="   90.655">  7  8 -1 -1</clus>
<clus scale="   30.757">  2  5  1 -1</clus>
</clustering>
</event>
<event>
 9    1  0.6675710E-005  0.1699343E+03  0.7546771E-02  0.1179156E+00
         21   -1    0    0  501  502  0.00000000000E+00  0.00000000000E+00  0.11113541861E+04  0.11113541861E+04  0.00000000000E+00 0.  1.
         -4   -1    0    0    0  501 -0.00000000000E+00 -0.00000000000E+00 -0.55810724763E+02  0.55810724763E+02  0.00000000000E+00 0.  1.
         23    2    1    2    0    0  0.48421309068E+02 -0.13402752437E+03  0.19376715031E+03  0.25690683304E+03  0.90263014925E+02 0.  0.
        -24    2    1    2    0    0 -0.13075397173E+03  0.98247577564E+02  0.39798315611E+03  0.43785680509E+03  0.81109811938E+02 0.  0.
         11    1    4    4    0    0 -0.26537153634E+02 -0.88024594612E+01  0.10911982854E+03  0.11264475486E+03  0.00000000000E+00 0. -1.
        -12    1    4    4    0    0 -0.10421681810E+03  0.10705003703E+03  0.28886332757E+03  0.32521205023E+03  0.00000000000E+00 0.  1.
        -13    1    3    3    0    0  0.55526683545E+02 -0.32469375712E+02  0.53955017429E+02  0.83956041179E+02  0.00000000000E+00 0. -1.
         13    1    3    3    0    0 -0.71053744766E+01 -0.10155814866E+03  0.13981213288E+03  0.17295079186E+03  0.00000000000E+00 0.  1.
         -3    1    1    2    0  502  0.82332662665E+02  0.35779946805E+02  0.46379315493E+03  0.47240127275E+03  0.00000000000E+00 0.  1.
<scales pt_clust_5="13000.00000" pt_clust_6="13000.00000" pt_clust_7="13000.00000" pt_clust_8="13000.00000" pt_clust_9="89.77122"></scales>
<clustering>
<clus scale="   81.110">  5  6 -1 -1</clus>
<clus scale="   89.771">  1  9  2 -1</clus>
<clus scale="   90.263">  7  8 -1 -1</clus>
<clus scale="  165.255">  1  5  2 -1</clus>
<clus scale="   89.771">  1  5  2 -1</clus>
</clustering>
</event>
<event>
 9    1  0.6675710E-005  0.1200217E+03  0.7546771E-02  0.1247345E+00
         21   -1    0    0  501  502  0.00000000000E+00  0.00000000000E+00  0.39756227954E+03  0.39756227954E+03  0.00000000000E+00 0. -1.
          1   -1    0    0  502    0 -0.00000000000E+00 -0.00000000000E+00 -0.77514617944E+02  0.77514617944E+02  0.00000000000E+00 0. -1.
        -24    2    1    2    0    0 -0.26915013508E+02  0.70334913633E+02  0.30262222666E+02  0.11268066237E+03  0.78164643699E+02 0.  0.
         23    2    1    2    0    0  0.87040239888E+02 -0.53386316185E+02  0.25823992147E+03  0.29241468415E+03  0.91609979535E+02 0.  0.
         13    1    3    3    0    0  0.36342329115E+01  0.69358948939E+02 -0.30360322942E+00  0.69454759533E+02  0.00000000000E+00 0. -1.
        -14    1    3    3    0    0 -0.30549246419E+02  0.97596469388E+00  0.30565825895E+02  0.43225902842E+02  0.00000000000E+00 0.  1.
        -11    1    4    4    0    0  0.65188381719E+02 -0.48854849896E+02  0.25750742479E+03  0.27008590354E+03  0.00000000000E+00 0. -1.
         11    1    4    4    0    0  0.21851858169E+02 -0.45314662896E+01  0.73249668114E+00  0.22328780610E+02  0.00000000000E+00 0.  1.
          2    1    1    2  501    0 -0.60125226380E+02 -0.16948597448E+02  0.31545517460E+02  0.69981550958E+02  0.00000000000E+00 0. -1.
<scales pt_clust_5="13000.00000" pt_clust_6="13000.00000" pt_clust_7="13000.00000" pt_clust_8="13000.00000" pt_clust_9="62.46841"></scales>
<clustering>
<clus scale="   62.468">  1  9  2 -1</clus>
<clus scale="   78.165">  5  6 -1 -1</clus>
<clus scale="   91.610">  7  8 -1 -1</clus>
<clus scale="  110.102">  2  5  1 -1</clus>
<clus scale="   62.468">  1  5  2 -1</clus>
</clustering>
</event>
<event>
 9    1  0.6675710E-005  0.1448768E+03  0.7546771E-02  0.1227928E+00
         21   -1    0    0  501  502  0.00000000000E+00  0.00000000000E+00  0.13942127403E+04  0.13942127403E+04  0.00000000000E+00 0.  1.
         -2   -1    0    0    0  501 -0.00000000000E+00 -0.00000000000E+00 -0.28519634012E+02  0.28519634012E+02  0.00000000000E+00 0.  1.
         23    2    1    2    0    0  0.72584027879E+01  0.73447684478E+01  0.15863998080E+03  0.18389498076E+03  0.92434249112E+02 0.  0.
        -24    2    1    2    0    0 -0.12339018542E+03  0.71848182231E-01  0.86737921367E+03  0.87978313092E+03  0.80290186969E+02 0.  0.
         13    1    4    4    0    0 -0.10017273937E+02 -0.28572187348E+02  0.17779503216E+03  0.18035462048E+03  0.00000000000E+00 0. -1.
        -14    1    4    4    0    0 -0.11337291149E+03  0.28644035530E+02  0.68958418151E+03  0.69942851044E+03  0.00000000000E+00 0.  1.
        -13    1    3    3    0    0  0.33844506654E+02  0.19236776925E+02  0.23112733535E+02  0.45273642095E+02  0.00000000000E+00 0. -1.
         13    1    3    3    0    0 -0.26586103866E+02 -0.11892008477E+02  0.13552724726E+03  0.13862133867E+03  0.00000000000E+00 0.  1.
         -1    1    1    2    0  502  0.11613178263E+03 -0.74166166301E+01  0.33967391184E+03  0.35905426265E+03  0.00000000000E+00 0.  1.
<scales pt_clust_5="13000.00000" pt_clust_6="13000.00000" pt_clust_7="13000.00000" pt_clust_8="13000.00000" pt_clust_9="120.59343"></scales>
<clustering>
<clus scale="   80.290">  5  6 -1 -1</clus>
<clus scale="   92.434">  7  8 -1 -1</clus>
<clus scale="   93.009">  2  7  1 -1</clus>
<clus scale="  120.593">  1  9  2 -1</clus>
<clus scale="  120.593">  1  5  2 -1</clus>
</clustering>
</event>
<event>
 9    1  0.6675710E-005  0.1020730E+03  0.7546771E-02  0.1280303E+00
         21   -1    0    0  501  502  0.00000000000E+00  0.00000000000E+00  0.74144406839E+02  0.74144406839E+02  0.00000000000E+00 0. -1.
         -4   -1    0    0    0  501 -0.00000000000E+00 -0.00000000000E+00 -0.19842468492E+03  0.19842468492E+03  0.00000000000E+00 0.  1.
        -24    2    1    2    0    0 -0.38200396569E+02  0.33428137535E+02 -0.97655853769E+02  0.13678299862E+03  0.81217068772E+02 0.  0.
         23    2    1    2    0    0  0.10658528892E+02 -0.45505646644E+02 -0.28360913756E+02  0.10566241313E+03  0.90420329602E+02 0.  0.
         11    1    3    3    0    0 -0.52397952675E+02 -0.21970372549E+01 -0.34107341372E+02  0.62559436959E+02  0.00000000000E+00 0. -1.
        -12    1    3    3    0    0  0.14197556106E+02  0.35625174790E+02 -0.63548512397E+02  0.74223561664E+02  0.00000000000E+00 0.  1.
        -13    1    4    4    0    0  0.19429668389E+02  0.20796637108E+02 -0.26298348839E+02  0.38750681031E+02  0.00000000000E+00 0.  1.
         13    1    4    4    0    0 -0.87711394971E+01 -0.66302283752E+02 -0.20625649169E+01  0.66911732101E+02  0.00000000000E+00 0. -1.
         -3    1    1    2    0  502  0.27541867677E+02  0.12077509109E+02  0.17364894432E+01  0.30123680005E+02  0.00000000000E+00 0.  1.
<scales pt_clust_5="13000.00000" pt_clust_6="13000.00000" pt_clust_7="13000.00000" pt_clust_8="13000.00000" pt_clust_9="30.07359"></scales>
<clustering>
<clus scale="   30.074">  1  9  2 -1</clus>
<clus scale="   81.217">  5  6 -1 -1</clus>
<clus scale="   90.420">  7  8 -1 -1</clus>
<clus scale="   94.017">  2  5  1 -1</clus>
<clus scale="   30.074">  1  5  2 -1</clus>
</clustering>
</event>
<event>
 9    1  0.6675710E-005  0.1121320E+03  0.7546771E-02  0.1257380E+00
          1   -1    0    0  502    0 -0.00000000000E+00  0.00000000000E+00  0.19160668610E+03  0.19160668610E+03  0.00000000000E+00 0. -1.
         21   -1    0    0  501  502  0.00000000000E+00 -0.00000000000E+00 -0.11754292117E+03  0.11754292117E+03  0.00000000000E+00 0. -1.
        -24    2    1    2    0    0  0.43190209875E+01 -0.60079427234E+02  0.95106673132E+02  0.14204231057E+03  0.86617245390E+02 0.  0.
         23    2    1    2    0    0  0.53810501948E+01  0.93897212677E+02 -0.75555647962E+01  0.12942915416E+03  0.88595581924E+02 0.  0.
         13    1    3    3    0    0  0.33849628917E+02 -0.44382939825E+02  0.93085500074E+02  0.10853825616E+03  0.00000000000E+00 0. -1.
        -14    1    3    3    0    0 -0.29530607930E+02 -0.15696487409E+02  0.20211730579E+01  0.33504054414E+02  0.00000000000E+00 0.  1.
        -11    1    4    4    0    0  0.14578181650E+01  0.53788442031E+02 -0.48165528173E+02  0.72216617437E+02  0.00000000000E+00 0. -1.
         11    1    4    4    0    0  0.39232320298E+01  0.40108770646E+02  0.40609963377E+02  0.57212536719E+02  0.00000000000E+00 0.  1.
          2    1    1    2  501    0 -0.97000711823E+01 -0.33817785443E+02 -0.13487343407E+02  0.37678142542E+02  0.00000000000E+00 0. -1.
<scales pt_clust_5="13000.00000" pt_clust_6="13000.00000" pt_clust_7="13000.00000" pt_clust_8="13000.00000" pt_clust_9="35.18144"></scales>
<clustering>
<clus scale="   35.181">  2  9  1 -1</clus>
<clus scale="   86.617">  5  6 -1 -1</clus>
<clus scale="   88.596">  7  8 -1 -1</clus>
<clus scale="  110.576">  1  5  2 -1</clus>
<clus scale="   35.181">  2  5  1 -1</clus>
</clustering>
</event>
<event>
 9    1  0.6675710E-005  0.1253244E+03  0.7546771E-02  0.1243971E+00
          1   -1    0    0  502    0 -0.00000000000E+00  0.00000000000E+00  0.48604441408E+03  0.48604441408E+03  0.00000000000E+00 0. -1.
         21   -1    0    0  501  502  0.00000000000E+00 -0.00000000000E+00 -0.58854116656E+02  0.58854116656E+02  0.00000000000E+00 0.  1.
         23    2    1    2    0    0  0.42475758096E+01  0.49127063699E+02  0.18708197606E+03  0.21380512158E+03  0.91002494261E+02 0.  0.
        -24    2    1    2    0    0 -0.81206134835E+02  0.28076586652E+02  0.11676253097E+03  0.16648111482E+03  0.81851951121E+02 0.  0.
         11    1    4    4    0    0 -0.41357604099E+02  0.48274427503E+02  0.10054321191E+03  0.11895297066E+03  0.00000000000E+00 0. -1.
        -12    1    4    4    0    0 -0.39848530736E+02 -0.20197840851E+02  0.16219319053E+02  0.47528144161E+02  0.00000000000E+00 0.  1.
        -11    1    3    3    0    0  0.40247579839E+02  0.49452141050E+02  0.14516125347E+03  0.15854706382E+03  0.00000000000E+00 0. -1.
         11    1    3    3    0    0 -0.36000004029E+02 -0.32507735146E+00  0.41920722588E+02  0.55258057762E+02  0.00000000000E+00 0.  1.
          2    1    1    2  501    0  0.76958559025E+02 -0.77203650351E+02  0.12334579040E+03  0.16461229433E+03  0.00000000000E+00 0. -1.
<scales pt_clust_5="13000.00000" pt_clust_6="13000.00000" pt_clust_7="13000.00000" pt_clust_8="13000.00000" pt_clust_9="94.90247"></scales>
<clustering>
<clus scale="   81.852">  5  6 -1 -1</clus>
<clus scale="   91.002">  7  8 -1 -1</clus>
<clus scale="  103.503">  1  7  2 -1</clus>
<clus scale="   94.902">  2  9  1 -1</clus>
<clus scale="   94.902">  2  5  1 -1</clus>
</clustering>
</event>
<event>
 9    1  0.6675710E-005  0.9769026E+02  0.7546771E-02  0.1289118E+00
         -2   -1    0    0    0  501 -0.00000000000E+00  0.00000000000E+00  0.34389175713E+03  0.34389175713E+03  0.00000000000E+00 0.  1.
         21   -1    0    0  501  502  0.00000000000E+00 -0.00000000000E+00 -0.22532750586E+03  0.22532750586E+03  0.00000000000E+00 0.  1.
        -24    2    1    2    0    0 -0.21086511099E+02 -0.36475188068E+02  0.26818087408E+03  0.28427524707E+03  0.84358488487E+02 0.  0.
         23    2    1    2    0    0  0.10344295228E+02 -0.84763145697E+01  0.31587077884E+02  0.97939165882E+02  0.91735949179E+02 0.  0.
         13    1    3    3    0    0  0.96417580539E+01 -0.33287357078E+02  0.35713430241E+02  0.49764050671E+02  0.00000000000E+00 0. -1.
        -14    1    3    3    0    0 -0.30728269152E+02 -0.31878309899E+01  0.23246744384E+03  0.23451119640E+03  0.00000000000E+00 0.  1.
        -13    1    4    4    0    0  0.30187723251E+02  0.34202118780E+02  0.16582465429E+02  0.48539280216E+02  0.00000000000E+00 0. -1.
         13    1    4    4    0    0 -0.19843428023E+02 -0.42678433350E+02  0.15004612455E+02  0.49399885666E+02  0.00000000000E+00 0.  1.
         -1    1    1    2    0  502  0.10742215870E+02  0.44951502638E+02 -0.18120370069E+03  0.18700485003E+03  0.00000000000E+00 0.  1.
<scales pt_clust_5="13000.00000" pt_clust_6="13000.00000" pt_clust_7="13000.00000" pt_clust_8="13000.00000" pt_clust_9="46.21723"></scales>
<clustering>
<clus scale="   46.217">  2  9  1 -1</clus>
<clus scale="   84.358">  5  6 -1 -1</clus>
<clus scale="   90.798">  1  5  2 -1</clus>
<clus scale="   91.736">  7  8 -1 -1</clus>
<clus scale="   46.217">  2  5  1 -1</clus>
</clustering>
</event>
<event>
 9    1  0.6675710E-005  0.1818019E+03  0.7546771E-02  0.1167559E+00
         -4   -1    0    0    0  501 -0.00000000000E+00  0.00000000000E+00  0.61767851524E+02  0.61767851524E+02  0.00000000000E+00 0.  1.
         21   -1    0    0  501  502  0.00000000000E+00 -0.00000000000E+00 -0.65193309939E+03  0.65193309939E+03  0.00000000000E+00 0.  1.
        -24    2    1    2    0    0 -0.37351063711E+02  0.13886152339E+03 -0.25612121545E+03  0.30437385520E+03  0.79798133352E+02 0.  0.
         23    2    1    2    0    0  0.22948068867E+02 -0.17105810643E+03 -0.30991568679E+03  0.36659252794E+03  0.92492480682E+02 0.  0.
         11    1    3    3    0    0  0.19644054942E+02  0.78154911899E+02 -0.13896361647E+03  0.16063924132E+03  0.00000000000E+00 0. -1.
        -12    1    3    3    0    0 -0.56995118653E+02  0.60706611487E+02 -0.11715759898E+03  0.14373461388E+03  0.00000000000E+00 0.  1.
        -13    1    4    4    0    0  0.17717127094E+02 -0.11089712565E+03 -0.27450268447E+03  0.29658690607E+03  0.00000000000E+00 0.  1.
         13    1    4    4    0    0  0.52309417738E+01 -0.60160980782E+02 -0.35413002319E+02  0.70005621872E+02  0.00000000000E+00 0. -1.
         -3    1    1    2    0  502  0.14402994844E+02  0.32196583048E+02 -0.24128345630E+02  0.42734567780E+02  0.00000000000E+00 0.  1.
<scales pt_clust_5="13000.00000" pt_clust_6="13000.00000" pt_clust_7="13000.00000" pt_clust_8="13000.00000" pt_clust_9="35.27134"></scales>
<clustering>
<clus scale="   35.271">  2  9  1 -1</clus>
<clus scale="   79.798">  5  6 -1 -1</clus>
<clus scale="   92.492">  7  8 -1 -1</clus>
<clus scale="  175.684">  1  5  2 -1</clus>
<clus scale="   35.271">  2  5  1 -1</clus>
</clustering>
</event>
<event>
 9    1  0.6675710E-005  0.1008158E+03  0.7546771E-02  0.1284072E+00
         -4   -1    0    0    0  501 -0.00000000000E+00  0.00000000000E+00  0.48899440145E+03  0.48899440145E+03  0.00000000000E+00 0.  1.
         21   -1    0    0  501  502  0.00000000000E+00 -0.00000000000E+00 -0.72299236755E+02  0.72299236755E+02  0.00000000000E+00 0. -1.
        -24    2    1    2    0    0  0.60476559469E+01 -0.44589380728E+02  0.38587715135E+03  0.39666598014E+03  0.80112026883E+02 0.  0.
         23    2    1    2    0    0  0.62803461855E+01  0.18374154458E+02 -0.29382194189E+02  0.97819853787E+02  0.91259838699E+02 0.  0.
         13    1    3    3    0    0 -0.35470942563E+02 -0.33634034259E+02  0.19809205327E+03  0.20403405989E+03  0.00000000000E+00 0. -1.
        -14    1    3    3    0    0  0.41518598510E+02 -0.10955346469E+02  0.18778509808E+03  0.19263192025E+03  0.00000000000E+00 0.  1.
        -11    1    4    4    0    0 -0.14829075817E+02 -0.32065217847E+02 -0.24357104709E+02  0.42910933746E+02  0.00000000000E+00 0.  1.
         11    1    4    4    0    0  0.21109422002E+02  0.50439372305E+02 -0.50250894799E+01  0.54908920041E+02  0.00000000000E+00 0. -1.
         -3    1    1    2    0  502 -0.12328002132E+02  0.26215226270E+02  0.60200207535E+02  0.66807804276E+02  0.00000000000E+00 0.  1.
<scales pt_clust_5="13000.00000" pt_clust_6="13000.00000" pt_clust_7="13000.00000" pt_clust_8="13000.00000" pt_clust_9="28.96927"></scales>
<clustering>
<clus scale="   28.969">  2  9  1 -1</clus>
<clus scale="   80.112">  5  6 -1 -1</clus>
<clus scale="   90.848">  1  5  2 -1</clus>
<clus scale="   91.260">  7  8 -1 -1</clus>
<clus scale="   28.969">  2  5  1 -1</clus>
</clustering>
</event>
<event>
 9    1  0.6675710E-005  0.1102495E+03  0.7546771E-02  0.1268246E+00
         21   -1    0    0  501  502  0.00000000000E+00  0.00000000000E+00  0.27517983446E+02  0.27517983446E+02  0.00000000000E+00 0. -1.
         -2   -1    0    0    0  501 -0.00000000000E+00 -0.00000000000E+00 -0.61369431095E+03  0.61369431095E+03  0.00000000000E+00 0.  1.
         23    2    1    2    0    0  0.34815103833E+02 -0.37611302547E+02 -0.34737119911E+03  0.36296630404E+03  0.91929790411E+02 0.  0.
        -24    2    1    2    0    0 -0.56528639091E+02  0.59061053170E+02 -0.15745868720E+03  0.19136208557E+03  0.71711328118E+02 0.  0.
         13    1    4    4    0    0 -0.62984949269E+02  0.17867187669E+02 -0.79824880629E+02  0.10323929386E+03  0.00000000000E+00 0. -1.
        -14    1    4    4    0    0  0.64563101781E+01  0.41193865502E+02 -0.77633806567E+02  0.88122791706E+02  0.00000000000E+00 0.  1.
        -13    1    3    3    0    0  0.58083210347E+02 -0.16943053342E+02 -0.30164990819E+03  0.30765791634E+03  0.00000000000E+00 0. -1.
         13    1    3    3    0    0 -0.23268106514E+02 -0.20668249205E+02 -0.45721290920E+02  0.55308387694E+02  0.00000000000E+00 0.  1.
         -1    1    1    2    0  502  0.21713535258E+02 -0.21449750623E+02 -0.81346441203E+02  0.86883904790E+02  0.00000000000E+00 0.  1.
<scales pt_clust_5="13000.00000" pt_clust_6="13000.00000" pt_clust_7="13000.00000" pt_clust_8="13000.00000" pt_clust_9="30.52164"></scales>
<clustering>
<clus scale="   30.522">  1  9  2 -1</clus>
<clus scale="   71.711">  5  6 -1 -1</clus>
<clus scale="   91.930">  7  8 -1 -1</clus>
<clus scale="   94.055">  1  5  2 -1</clus>
<clus scale="   30.522">  1  5  2 -1</clus>
</clustering>
</event>
<event>
 9    1  0.6675710E-005  0.9619982E+02  0.7546771E-02  0.1294543E+00
         21   -1    0    0  501  502  0.00000000000E+00  0.00000000000E+00  0.37309650543E+02  0.37309650543E+02  0.00000000000E+00 0.  1.
          1   -1    0    0  502    0 -0.00000000000E+00 -0.00000000000E+00 -0.28582824292E+03  0.28582824292E+03  0.00000000000E+00 0. -1.
         23    2    1    2    0    0 -0.23587491666E+02 -0.43633080080E+01 -0.13544259802E+03  0.16542525183E+03  0.91898902958E+02 0.  0.
        -24    2    1    2    0    0  0.27139319766E+02  0.24519176893E+02 -0.85548093505E+02  0.12341016565E+03  0.81079343672E+02 0.  0.
         11    1    4    4    0    0  0.55977949683E+02  0.20195637578E+02 -0.61893750736E+02  0.85861696979E+02  0.00000000000E+00 0. -1.
        -12    1    4    4    0    0 -0.28838629916E+02  0.43235393146E+01 -0.23654342769E+02  0.37548468670E+02  0.00000000000E+00 0.  1.
        -13    1    3    3    0    0 -0.31026637745E+02 -0.44437146512E+02 -0.79084177467E+02  0.95872933436E+02  0.00000000000E+00 0. -1.
         13    1    3    3    0    0  0.74391460794E+01  0.40073838504E+02 -0.56358420558E+02  0.69552318399E+02  0.00000000000E+00 0.  1.
          2    1    1    2  501    0 -0.35518281007E+01 -0.20155868885E+02 -0.27527900851E+02  0.34302475983E+02  0.00000000000E+00 0. -1.
<scales pt_clust_5="13000.00000" pt_clust_6="13000.00000" pt_clust_7="13000.00000" pt_clust_8="13000.00000" pt_clust_9="20.46643"></scales>
<clustering>
<clus scale="   20.466">  1  9  2 -1</clus>
<clus scale="   81.079">  5  6 -1 -1</clus>
<clus scale="   85.924">  1  5  2 -1</clus>
<clus scale="   91.899">  7  8 -1 -1</clus>
<clus scale="   20.466">  1  5  2 -1</clus>
</clustering>
</event>
<event>
 9    1  0.6675710E-005  0.9341888E+02  0.7546771E-02  0.1302245E+00
          1   -1    0    0  502    0 -0.00000000000E+00  0.00000000000E+00  0.66156457995E+03  0.66156457995E+03  0.00000000000E+00 0. -1.
         21   -1    0    0  501  502  0.00000000000E+00 -0.00000000000E+00 -0.26302436820E+03  0.26302436820E+03  0.00000000000E+00 0. -1.
        -24    2    1    2    0    0 -0.39940253882E+01 -0.19928249508E+02  0.50394350234E+03  0.51023382046E+03  0.77242544125E+02 0.  0.
         23    2    1    2    0    0  0.19590375688E+02  0.53756971999E+02  0.13450613481E+03  0.17157094163E+03  0.89839261194E+02 0.  0.
         13    1    3    3    0    0  0.34704554169E+02 -0.28359907918E+01  0.16313868294E+03  0.16681330521E+03  0.00000000000E+00 0. -1.
        -14    1    3    3    0    0 -0.38698579557E+02 -0.17092258717E+02  0.34080481940E+03  0.34342051525E+03  0.00000000000E+00 0.  1.
        -11    1    4    4    0    0 -0.20681872082E+02  0.44447735165E+02  0.11667264441E+03  0.12655373147E+03  0.00000000000E+00 0. -1.
         11    1    4    4    0    0  0.40272247770E+02  0.93092368344E+01  0.17833490394E+02  0.45017210159E+02  0.00000000000E+00 0.  1.
          2    1    1    2  501    0 -0.15596350300E+02 -0.33828722491E+02 -0.23990942540E+03  0.24278418606E+03  0.00000000000E+00 0. -1.
<scales pt_clust_5="13000.00000" pt_clust_6="13000.00000" pt_clust_7="13000.00000" pt_clust_8="13000.00000" pt_clust_9="37.25089"></scales>
<clustering>
<clus scale="   37.251">  2  9  1 -1</clus>
<clus scale="   77.243">  5  6 -1 -1</clus>
<clus scale="   81.378">  1  5  2 -1</clus>
<clus scale="   89.839">  7  8 -1 -1</clus>
<clus scale="   37.251">  2  5  1 -1</clus>
</clustering>
</event>
<event>
 9    1  0.6675710E-005  0.2288511E+03  0.7546771E-02  0.1181858E+00
          1   -1    0    0  502    0 -0.00000000000E+00  0.00000000000E+00  0.18534149660E+03  0.18534149660E+03  0.00000000000E+00 0. -1.
         21   -1    0    0  501  502  0.00000000000E+00 -0.00000000000E+00 -0.59818483344E+03  0.59818483344E+03  0.00000000000E+00 0. -1.
        -24    2    1    2    0    0 -0.11693141431E+02  0.67422010177E+01  0.65918903572E+02  0.91651400207E+02  0.62229337781E+02 0.  0.
         23    2    1    2    0    0  0.20324934104E+03  0.59786639328E+02 -0.42218998051E+03  0.48135109557E+03  0.92573001902E+02 0.  0.
         11    1    3    3    0    0  0.99112573712E+01  0.25295511162E+02  0.54640022582E+02  0.61021536980E+02  0.00000000000E+00 0. -1.
        -12    1    3    3    0    0 -0.21604398803E+02 -0.18553310145E+02  0.11278880990E+02  0.30629863227E+02  0.00000000000E+00 0.  1.
        -11    1    4    4    0    0  0.67414572079E+02 -0.23930006264E+02 -0.12402518351E+03  0.14317686920E+03  0.00000000000E+00 0.  1.
         11    1    4    4    0    0  0.13583476896E+03  0.83716645592E+02 -0.29816479701E+03  0.33817422637E+03  0.00000000000E+00 0. -1.
          2    1    1    2  501    0 -0.19155619960E+03 -0.66528840345E+02 -0.56572259890E+02  0.21052383426E+03  0.00000000000E+00 0. -1.
<scales pt_clust_5="13000.00000" pt_clust_6="13000.00000" pt_clust_7="13000.00000" pt_clust_8="13000.00000" pt_clust_9="209.29190"></scales>
<clustering>
<clus scale="   62.229">  5  6 -1 -1</clus>
<clus scale="   63.676">  1  5  2 -1</clus>
<clus scale="   92.573">  7  8 -1 -1</clus>
<clus scale="  209.292">  2  9  1 -1</clus>
<clus scale="  209.292">  2  5  1 -1</clus>
</clustering>
</event>
<event>
 9    1  0.6675710E-005  0.1005831E+03  0.7546771E-02  0.1286478E+00
         -2   -1    0    0    0  501 -0.00000000000E+00  0.00000000000E+00  0.12766829276E+03  0.12766829276E+03  0.00000000000E+00 0.  1.
         21   -1    0    0  501  502  0.00000000000E+00 -0.00000000000E+00 -0.34390124211E+03  0.34390124211E+03  0.00000000000E+00 0. -1.
        -24    2    1    2    0    0 -0.55557279116E+01 -0.50749200327E+01  0.98718097337E+02  0.13187418108E+03  0.87114384384E+02 0.  0.
         23    2    1    2    0    0 -0.14321347150E+02  0.18093159387E+02 -0.24235743002E+03  0.26331207127E+03  0.10031779298E+03 0.  0.
         11    1    3    3    0    0  0.20646062889E+02 -0.38348832958E+02  0.37731746811E+02  0.57624453311E+02  0.00000000000E+00 0. -1.
        -12    1    3    3    0    0 -0.26201790801E+02  0.33273912925E+02  0.60986350526E+02  0.74249727764E+02  0.00000000000E+00 0.  1.
        -11    1    4    4    0    0 -0.29379932673E+02  0.54358147734E+02 -0.12276537724E+03  0.13743844629E+03  0.00000000000E+00 0.  1.
         11    1    4    4    0    0  0.15058585523E+02 -0.36264988347E+02 -0.11959205278E+03  0.12587362498E+03  0.00000000000E+00 0. -1.
         -1    1    1    2    0  502  0.19877075061E+02 -0.13018239354E+02 -0.72593616667E+02  0.76383282528E+02  0.00000000000E+00 0.  1.
<scales pt_clust_5="13000.00000" pt_clust_6="13000.00000" pt_clust_7="13000.00000" pt_clust_8="13000.00000" pt_clust_9="23.76074"></scales>
<clustering>
<clus scale="   23.761">  2  9  1 -1</clus>
<clus scale="   87.114">  5  6 -1 -1</clus>
<clus scale="   87.420">  1  5  2 -1</clus>
<clus scale="  100.318">  7  8 -1 -1</clus>
<clus scale="   23.761">  2  5  1 -1</clus>
</clustering>
</event>
<event>
 9    1  0.6675710E-005  0.1130903E+03  0.7546771E-02  0.1270056E+00
         -4   -1    0    0    0  501 -0.00000000000E+00  0.00000000000E+00  0.61463436509E+03  0.61463436509E+03  0.00000000000E+00 0.  1.
         21   -1    0    0  501  502  0.00000000000E+00 -0.00000000000E+00 -0.39518025274E+02  0.39518025274E+02  0.00000000000E+00 0. -1.
        -24    2    1    2    0    0 -0.28476302908E+02  0.13266932096E+00  0.13139582188E+03  0.15602830095E+03  0.79177340580E+02 0.  0.
         23    2    1    2    0    0 -0.54208691121E+02  0.19153553753E+02  0.11368568509E+03  0.15734299028E+03  0.92341435877E+02 0.  0.
         13    1    3    3    0    0 -0.83725312854E+01 -0.18659381683E+02 -0.13153590860E+01  0.20493949704E+02  0.00000000000E+00 0. -1.
        -14    1    3    3    0    0 -0.20103771623E+02  0.18792051004E+02  0.13271118097E+03  0.13553435125E+03  0.00000000000E+00 0.  1.
        -11    1    4    4    0    0 -0.72598256330E+02  0.34851924752E+02  0.10341842859E+03  0.13107453930E+03  0.00000000000E+00 0. -1.
         11    1    4    4    0    0  0.18389565209E+02 -0.15698370999E+02  0.10267256504E+02  0.26268450977E+02  0.00000000000E+00 0.  1.
         -3    1    1    2    0  502  0.82684994030E+02 -0.19286223074E+02  0.33003483284E+03  0.34078109914E+03  0.00000000000E+00 0.  1.
<scales pt_clust_5="13000.00000" pt_clust_6="13000.00000" pt_clust_7="13000.00000" pt_clust_8="13000.00000" pt_clust_9="65.28766"></scales>
<clustering>
<clus scale="   79.177">  5  6 -1 -1</clus>
<clus scale="   84.143">  1  5  2 -1</clus>
<clus scale="   65.288">  2  9  1 -1</clus>
<clus scale="   92.341">  7  8 -1 -1</clus>
<clus scale="   65.288">  2  5  1 -1</clus>
</clustering>
</event>
<event>
 9    1  0.6675710E-005  0.9688540E+02  0.7546771E-02  0.1291306E+00
          3   -1    0    0  502    0 -0.00000000000E+00  0.00000000000E+00  0.46913997493E+03  0.46913997493E+03  0.00000000000E+00 0. -1.
         21   -1    0    0  501  502  0.00000000000E+00 -0.00000000000E+00 -0.25123113290E+02  0.25123113290E+02  0.00000000000E+00 0.  1.
         23    2    1    2    0    0  0.35869749427E+02  0.58840144224E+01  0.23042270939E+03  0.25007356712E+03  0.90116055307E+02 0.  0.
        -24    2    1    2    0    0 -0.34750733170E+02  0.16677686682E+02  0.13617223034E+03  0.16353943401E+03  0.81954325522E+02 0.  0.
         13    1    4    4    0    0 -0.21611118593E+01  0.33328631466E+02  0.11808409130E+03  0.12271642392E+03  0.00000000000E+00 0. -1.
        -14    1    4    4    0    0 -0.32589621311E+02 -0.16650944784E+02  0.18088139039E+02  0.40823010096E+02  0.00000000000E+00 0.  1.
        -11    1    3    3    0    0  0.64384465578E+02  0.16956127293E+02  0.15711974694E+03  0.17064432173E+03  0.00000000000E+00 0.  1.
         11    1    3    3    0    0 -0.28514716150E+02 -0.11072112870E+02  0.73302962446E+02  0.79429245394E+02  0.00000000000E+00 0. -1.
          4    1    1    2  501    0 -0.11190162572E+01 -0.22561701105E+02  0.77421921906E+02  0.80650087078E+02  0.00000000000E+00 0. -1.
<scales pt_clust_5="13000.00000" pt_clust_6="13000.00000" pt_clust_7="13000.00000" pt_clust_8="13000.00000" pt_clust_9="22.58945"></scales>
<clustering>
<clus scale="   22.589">  2  9  1 -1</clus>
<clus scale="   81.954">  5  6 -1 -1</clus>
<clus scale="   89.344">  2  5  1 -1</clus>
<clus scale="   90.116">  7  8 -1 -1</clus>
<clus scale="   22.589">  2  5  1 -1</clus>
</clustering>
</event>
<event>
 9    1  0.6675710E-005  0.1206599E+03  0.7546771E-02  0.1244839E+00
          1   -1    0    0  502    0 -0.00000000000E+00  0.00000000000E+00  0.62598585384E+03  0.62598585384E+03  0.00000000000E+00 0. -1.
         21   -1    0    0  501  502  0.00000000000E+00 -0.00000000000E+00 -0.79655070000E+02  0.79655070000E+02  0.00000000000E+00 0. -1.
         23    2    1    2    0    0  0.70151307393E+02 -0.15411650516E+02  0.45125939569E+03  0.46571780009E+03  0.89996123413E+02 0.  0.
        -24    2    1    2    0    0 -0.12699441988E+03  0.19931359985E+02  0.10135645240E+03  0.18255528220E+03  0.80798878856E+02 0.  0.
         13    1    4    4    0    0 -0.11086072586E+02 -0.22737417715E+02  0.32373146844E+02  0.41084203855E+02  0.00000000000E+00 0. -1.
        -14    1    4    4    0    0 -0.11590834729E+03  0.42668777701E+02  0.68983305559E+02  0.14147107835E+03  0.00000000000E+00 0.  1.
        -13    1    3    3    0    0  0.32631180564E+02  0.33568284054E+02  0.27536157010E+03  0.27931276005E+03  0.00000000000E+00 0.  1.
         13    1    3    3    0    0  0.37520126829E+02 -0.48979934570E+02  0.17589782559E+03  0.18640504004E+03  0.00000000000E+00 0. -1.
          2    1    1    2  501    0  0.56843112486E+02 -0.45197094698E+01 -0.62850642513E+01  0.57367841544E+02  0.00000000000E+00 0. -1.
<scales pt_clust_5="13000.00000" pt_clust_6="13000.00000" pt_clust_7="13000.00000" pt_clust_8="13000.00000" pt_clust_9="57.02251"></scales>
<clustering>
<clus scale="   57.023">  2  9  1 -1</clus>
<clus scale="   80.799">  5  6 -1 -1</clus>
<clus scale="   89.996">  7  8 -1 -1</clus>
<clus scale="  113.965">  2  5  1 -1</clus>
<clus scale="   57.023">  2  5  1 -1</clus>
</clustering>
</event>
<event>
 9    1  0.6675710E-005  0.1989610E+03  0.7546771E-02  0.1173143E+00
         21   -1    0    0  501  502  0.00000000000E+00  0.00000000000E+00  0.10087439809E+04  0.10087439809E+04  0.00000000000E+00 0.  1.
         -2   -1    0    0    0  501 -0.00000000000E+00 -0.00000000000E+00 -0.13715766253E+03  0.13715766253E+03  0.00000000000E+00 0.  1.
        -24    2    1    2    0    0 -0.67521195447E+02 -0.52767797480E+02 -0.41961601723E+02  0.12521404117E+03  0.81081611987E+02 0.  0.
         23    2    1    2    0    0 -0.12087587798E+03  0.18372605045E+02  0.96008238536E+02  0.18101646576E+03  0.92740759730E+02 0.  0.
         11    1    3    3    0    0 -0.48862714495E+02  0.38576836029E+01  0.50698944631E+01  0.49276266300E+02  0.00000000000E+00 0. -1.
        -12    1    3    3    0    0 -0.18658480953E+02 -0.56625481083E+02 -0.47031496186E+02  0.75937774874E+02  0.00000000000E+00 0.  1.
        -11    1    4    4    0    0 -0.54519420184E+02  0.54133133568E+02  0.36927801700E+02  0.85243333261E+02  0.00000000000E+00 0.  1.
         11    1    4    4    0    0 -0.66356457798E+02 -0.35760528523E+02  0.59080436836E+02  0.95773132498E+02  0.00000000000E+00 0. -1.
         -1    1    1    2    0  502  0.18839707343E+03  0.34395192435E+02  0.81753968152E+03  0.83967113646E+03  0.00000000000E+00 0.  1.
<scales pt_clust_5="13000.00000" pt_clust_6="13000.00000" pt_clust_7="13000.00000" pt_clust_8="13000.00000" pt_clust_9="176.02454"></scales>
<clustering>
<clus scale="   81.082">  5  6 -1 -1</clus>
<clus scale="   92.741">  7  8 -1 -1</clus>
<clus scale="  117.974">  2  5  1 -1</clus>
<clus scale="  176.025">  1  9  2 -1</clus>
<clus scale="  176.025">  1  5  2 -1</clus>
</clustering>
</event>
<event>
 9    1  0.6675710E-005  0.9276050E+02  0.7546771E-02  0.1304541E+00
          3   -1    0    0  502    0 -0.00000000000E+00  0.00000000000E+00  0.43980945619E+03  0.43980945619E+03  0.00000000000E+00 0. -1.
         21   -1    0    0  501  502  0.00000000000E+00 -0.00000000000E+00 -0.27785991059E+02  0.27785991059E+02  0.00000000000E+00 0.  1.
        -24    2    1    2    0    0 -0.34946514225E+01 -0.17656273495E+02  0.15756431073E+03  0.17688200694E+03  0.78337575781E+02 0.  0.
         23    2    1    2    0    0 -0.33163756576E+02 -0.42381038300E+01  0.16685367404E+03  0.19325615313E+03  0.91596920848E+02 0.  0.
         11    1    3    3    0    0  0.22586018820E+02 -0.27290218062E+02  0.13901884560E+03  0.14346122710E+03  0.00000000000E+00 0. -1.
        -12    1    3    3    0    0 -0.26080670242E+02  0.96339445668E+01  0.18545465133E+02  0.33420779841E+02  0.00000000000E+00 0.  1.
        -13    1    4    4    0    0  0.18377996234E+02  0.27299225806E+02  0.34059538839E+02  0.47360855789E+02  0.00000000000E+00 0. -1.
         13    1    4    4    0    0 -0.51541752809E+02 -0.31537329636E+02  0.13279413520E+03  0.14589529734E+03  0.00000000000E+00 0.  1.
          4    1    1    2  501    0  0.36658407998E+02  0.21894377325E+02  0.87605480368E+02  0.97457287187E+02  0.00000000000E+00 0. -1.
<scales pt_clust_5="13000.00000" pt_clust_6="13000.00000" pt_clust_7="13000.00000" pt_clust_8="13000.00000" pt_clust_9="42.69900"></scales>
<clustering>
<clus scale="   42.699">  2  9  1 -1</clus>
<clus scale="   78.338">  5  6 -1 -1</clus>
<clus scale="   79.695">  1  5  2 -1</clus>
<clus scale="   91.597">  7  8 -1 -1</clus>
<clus scale="   42.699">  2  5  1 -1</clus>
</clustering>
</event>
<event>
 9    1  0.6675710E-005  0.9532515E+02  0.7546771E-02  0.1295635E+00
         21   -1    0    0  501  502  0.00000000000E+00  0.00000000000E+00  0.78472352206E+02  0.78472352206E+02  0.00000000000E+00 0.  1.
          1   -1    0    0  502    0 -0.00000000000E+00 -0.00000000000E+00 -0.29432016467E+03  0.29432016467E+03  0.00000000000E+00 0. -1.
        -24    2    1    2    0    0 -0.56768469133E+00  0.22128435515E+02 -0.10768728190E+03  0.13700481846E+03  0.81754386273E+02 0.  0.
         23    2    1    2    0    0 -0.58563126137E+02 -0.39598866398E+02 -0.46834732903E+01  0.11533368176E+03  0.91006666044E+02 0.  0.
         11    1    3    3    0    0 -0.19820487750E+02  0.41951381926E+02 -0.96722248880E+02  0.10727517704E+03  0.00000000000E+00 0. -1.
        -12    1    3    3    0    0  0.19252803059E+02 -0.19822946411E+02 -0.10965033015E+02  0.29729641421E+02  0.00000000000E+00 0.  1.
        -11    1    4    4    0    0 -0.54836097236E+02 -0.64992180781E+02 -0.17233993841E+02  0.86763999830E+02  0.00000000000E+00 0.  1.
         11    1    4    4    0    0 -0.37270289008E+01  0.25393314383E+02  0.12550520551E+02  0.28569681935E+02  0.00000000000E+00 0. -1.
          2    1    1    2  501    0  0.59130810828E+02  0.17470430883E+02 -0.10347705728E+03  0.12045401665E+03  0.00000000000E+00 0. -1.
<scales pt_clust_5="13000.00000" pt_clust_6="13000.00000" pt_clust_7="13000.00000" pt_clust_8="13000.00000" pt_clust_9="61.65770"></scales>
<clustering>
<clus scale="   61.658">  1  9  2 -1</clus>
<clus scale="   81.754">  5  6 -1 -1</clus>
<clus scale="   86.536">  2  5  1 -1</clus>
<clus scale="   91.007">  7  8 -1 -1</clus>
<clus scale="   61.658">  1  5  2 -1</clus>
</clustering>
</event>
<event>
 9    1  0.6675710E-005  0.1093895E+03  0.7546771E-02  0.1263065E+00
         21   -1    0    0  501  502  0.00000000000E+00  0.00000000000E+00  0.19211566586E+03  0.19211566586E+03  0.00000000000E+00 0. -1.
         -4   -1    0    0    0  501 -0.00000000000E+00 -0.00000000000E+00 -0.45445430852E+03  0.45445430852E+03  0.00000000000E+00 0.  1.
        -24    2    1    2    0    0  0.56081130163E+02  0.15647718204E+02 -0.39238455904E+03  0.40619543048E+03  0.87402181486E+02 0.  0.
         23    2    1    2    0    0 -0.11194757308E+03 -0.21538046418E+02  0.98467250774E+02  0.17593102186E+03  0.90883323103E+02 0.  0.
         11    1    3    3    0    0  0.16223421171E+02 -0.25210673592E+02 -0.44482559167E+02  0.53642105920E+02  0.00000000000E+00 0. -1.
        -12    1    3    3    0    0  0.39857708991E+02  0.40858391796E+02 -0.34790199987E+03  0.35255332456E+03  0.00000000000E+00 0.  1.
        -11    1    4    4    0    0 -0.10761720156E+03  0.88189875558E+01  0.50989718619E+02  0.11941184203E+03  0.00000000000E+00 0.  1.
         11    1    4    4    0    0 -0.43303715154E+01 -0.30357033974E+02  0.47477532154E+02  0.56519179830E+02  0.00000000000E+00 0. -1.
         -3    1    1    2    0  502  0.55866442913E+02  0.58903282140E+01  0.31578665601E+02  0.64443522028E+02  0.00000000000E+00 0.  1.
<scales pt_clust_5="13000.00000" pt_clust_6="13000.00000" pt_clust_7="13000.00000" pt_clust_8="13000.00000" pt_clust_9="56.17611"></scales>
<clustering>
<clus scale="   56.176">  1  9  2 -1</clus>
<clus scale="   87.402">  5  6 -1 -1</clus>
<clus scale="   90.883">  7  8 -1 -1</clus>
<clus scale="  106.515">  2  5  1 -1</clus>
<clus scale="   56.176">  1  5  2 -1</clus>
</clustering>
</event>
<event>
 9    1  0.6675710E-005  0.9269377E+02  0.7546771E-02  0.1299927E+00
         21   -1    0    0  501  502  0.00000000000E+00  0.00000000000E+00  0.29103351032E+02  0.29103351032E+02  0.00000000000E+00 0. -1.
          1   -1    0    0  502    0 -0.00000000000E+00 -0.00000000000E+00 -0.51267296008E+03  0.51267296008E+03  0.00000000000E+00 0. -1.
        -24    2    1    2    0    0  0.87944607418E+01  0.35567483514E+02 -0.23902697528E+03  0.25620098111E+03  0.84632496050E+02 0.  0.
         23    2    1    2    0    0  0.25613447266E+02  0.42851882987E+01 -0.16935385474E+03  0.19378485078E+03  0.90539652953E+02 0.  0.
         13    1    3    3    0    0  0.26781730403E+02  0.52192793735E+02 -0.21088662088E+03  0.21889384566E+03  0.00000000000E+00 0. -1.
        -14    1    3    3    0    0 -0.17987269662E+02 -0.16625310221E+02 -0.28140354396E+02  0.37307135448E+02  0.00000000000E+00 0.  1.
        -13    1    4    4    0    0  0.29777442919E+02  0.38710344451E+02 -0.51669002949E+02  0.71097628231E+02  0.00000000000E+00 0. -1.
         13    1    4    4    0    0 -0.41639956523E+01 -0.34425156152E+02 -0.11768485179E+03  0.12268722255E+03  0.00000000000E+00 0.  1.
          2    1    1    2  501    0 -0.34407908008E+02 -0.39852671813E+02 -0.75188779031E+02  0.91790479225E+02  0.00000000000E+00 0. -1.
<scales pt_clust_5="13000.00000" pt_clust_6="13000.00000" pt_clust_7="13000.00000" pt_clust_8="13000.00000" pt_clust_9="52.65111"></scales>
<clustering>
<clus scale="   52.651">  1  9  2 -1</clus>
<clus scale="   84.632">  5  6 -1 -1</clus>
<clus scale="   86.933">  2  5  1 -1</clus>
<clus scale="   90.540">  7  8 -1 -1</clus>
<clus scale="   52.651">  1  5  2 -1</clus>
</clustering>
</event>
<event>
 9    1  0.6675710E-005  0.4179549E+03  0.7546771E-02  0.1037734E+00
         21   -1    0    0  501  502  0.00000000000E+00  0.00000000000E+00  0.10192484134E+03  0.10192484134E+03  0.00000000000E+00 0.  1.
         -4   -1    0    0    0  501 -0.00000000000E+00 -0.00000000000E+00 -0.14648578448E+04  0.14648578448E+04  0.00000000000E+00 0.  1.
        -24    2    1    2    0    0  0.70822651424E+02 -0.21099274900E+02 -0.12282260074E+03  0.16489886730E+03  0.81518205501E+02 0.  0.
         23    2    1    2    0    0  0.26389713115E+03 -0.83948242334E+02 -0.69713261103E+03  0.75543413326E+03  0.89430694407E+02 0.  0.
         13    1    3    3    0    0  0.83566836068E+02  0.20612687331E+01 -0.93586449680E+02  0.12548341916E+03  0.00000000000E+00 0. -1.
        -14    1    3    3    0    0 -0.12744184644E+02 -0.23160543633E+02 -0.29236151056E+02  0.39415448141E+02  0.00000000000E+00 0.  1.
        -11    1    4    4    0    0  0.11873012096E+02 -0.27650801346E+02 -0.10958395946E+03  0.11364057111E+03  0.00000000000E+00 0. -1.
         11    1    4    4    0    0  0.25202411906E+03 -0.56297440988E+02 -0.58754865158E+03  0.64179356215E+03  0.00000000000E+00 0.  1.
         -3    1    1    2    0  502 -0.33471978258E+03  0.10504751723E+03 -0.54297779168E+03  0.64644968558E+03  0.00000000000E+00 0.  1.
<scales pt_clust_5="13000.00000" pt_clust_6="13000.00000" pt_clust_7="13000.00000" pt_clust_8="13000.00000" pt_clust_9="350.81664"></scales>
<clustering>
<clus scale="   81.518">  5  6 -1 -1</clus>
<clus scale="   89.431">  7  8 -1 -1</clus>
<clus scale="  109.371">  5  7 -1 -1</clus>
<clus scale="  350.817">  1  9  2 -1</clus>
<clus scale="  350.817">  1  5  2 -1</clus>
</clustering>
</event>
<event>
 9    1  0.6675710E-005  0.2074607E+03  0.7546771E-02  0.1178565E+00
          1   -1    0    0  502    0 -0.00000000000E+00  0.00000000000E+00  0.42841506740E+03  0.42841506740E+03  0.00000000000E+00 0. -1.
         21   -1    0    0  501  502  0.00000000000E+00 -0.00000000000E+00 -0.14472113707E+03  0.14472113707E+03  0.00000000000E+00 0. -1.
        -24    2    1    2    0    0 -0.32093878796E+02 -0.31512345129E+02  0.22900231323E+02  0.94842960395E+02  0.80297706008E+02 0.  0.
         23    2    1    2    0    0  0.15363627860E+03  0.13967977522E+03  0.92828215650E+02  0.24444467879E+03  0.89563260642E+02 0.  0.
         13    1    3    3    0    0 -0.44889258866E+02 -0.11152594412E+02  0.43262666520E+02  0.63333121177E+02  0.00000000000E+00 0. -1.
        -14    1    3    3    0    0  0.12795380070E+02 -0.20359750717E+02 -0.20362435197E+02  0.31509839218E+02  0.00000000000E+00 0.  1.
        -13    1    4    4    0    0  0.99774651150E+02  0.87754326504E+02  0.10634492688E+02  0.13330001976E+03  0.00000000000E+00 0.  1.
         13    1    4    4    0    0  0.53861627454E+02  0.51925448719E+02  0.82193722962E+02  0.11114465903E+03  0.00000000000E+00 0. -1.
          2    1    1    2  501    0 -0.12154239981E+03 -0.10816743009E+03  0.16796548336E+03  0.23384856528E+03  0.00000000000E+00 0. -1.
<scales pt_clust_5="13000.00000" pt_clust_6="13000.00000" pt_clust_7="13000.00000" pt_clust_8="13000.00000" pt_clust_9="187.13205"></scales>
<clustering>
<clus scale="   80.298">  5  6 -1 -1</clus>
<clus scale="   89.563">  7  8 -1 -1</clus>
<clus scale="   92.037">  1  5  2 -1</clus>
<clus scale="  187.132">  2  9  1 -1</clus>
<clus scale="  187.132">  2  5  1 -1</clus>
</clustering>
</event>
<event>
 9    1  0.6675710E-005  0.1244409E+03  0.7546771E-02  0.1238472E+00
         21   -1    0    0  501  502  0.00000000000E+00  0.00000000000E+00  0.33577690040E+03  0.33577690040E+03  0.00000000000E+00 0.  1.
          1   -1    0    0  502    0 -0.00000000000E+00 -0.00000000000E+00 -0.95792332026E+02  0.95792332026E+02  0.00000000000E+00 0. -1.
         23    2    1    2    0    0 -0.10417738914E+03  0.20380636557E+01 -0.44580071018E+01  0.13880576412E+03  0.91597402883E+02 0.  0.
        -24    2    1    2    0    0  0.47824402714E+02 -0.26551142951E+01  0.10362141081E+03  0.14108406875E+03  0.82904128665E+02 0.  0.
         13    1    4    4    0    0  0.27184357520E+02  0.57739391773E+01 -0.66550164773E+01  0.28576509788E+02  0.00000000000E+00 0. -1.
        -14    1    4    4    0    0  0.20640045195E+02 -0.84290534724E+01  0.11027642729E+03  0.11250755896E+03  0.00000000000E+00 0.  1.
        -13    1    3    3    0    0 -0.80257270739E+02 -0.28636317618E+02 -0.32129410711E+02  0.91069024513E+02  0.00000000000E+00 0.  1.
         13    1    3    3    0    0 -0.23920118403E+02  0.30674381274E+02  0.27671403609E+02  0.47736739611E+02  0.00000000000E+00 0. -1.
          2    1    1    2  501    0  0.56352986428E+02  0.61705063939E+00  0.14082116467E+03  0.15167939955E+03  0.00000000000E+00 0. -1.
<scales pt_clust_5="13000.00000" pt_clust_6="13000.00000" pt_clust_7="13000.00000" pt_clust_8="13000.00000" pt_clust_9="56.35636"></scales>
<clustering>
<clus scale="   56.356">  1  9  2 -1</clus>
<clus scale="   82.904">  5  6 -1 -1</clus>
<clus scale="   91.597">  7  8 -1 -1</clus>
<clus scale="  118.189">  1  5  2 -1</clus>
<clus scale="   56.356">  1  5  2 -1</clus>
</clustering>
</event>
<event>
 9    1  0.6675710E-005  0.1132434E+03  0.7546771E-02  0.1260795E+00
         21   -1    0    0  501  502  0.00000000000E+00  0.00000000000E+00  0.22868126961E+02  0.22868126961E+02  0.00000000000E+00 0. -1.
          1   -1    0    0  502    0 -0.00000000000E+00 -0.00000000000E+00 -0.71959669197E+03  0.71959669197E+03  0.00000000000E+00 0. -1.
         23    2    1    2    0    0  0.68458689095E+02  0.22703438642E+02 -0.43613625233E+03  0.45209795051E+03  0.94740107777E+02 0.  0.
        -24    2    1    2    0    0 -0.36929409438E+02 -0.34235601761E+02 -0.17574612622E+03  0.19912016098E+03  0.78906779923E+02 0.  0.
         13    1    4    4    0    0 -0.27434559862E+01  0.22338928315E+02 -0.20728904429E+02  0.30598067714E+02  0.00000000000E+00 0. -1.
        -14    1    4    4    0    0 -0.34185953452E+02 -0.56574530076E+02 -0.15501722179E+03  0.16852209327E+03  0.00000000000E+00 0.  1.
        -11    1    3    3    0    0 -0.22342646942E+02  0.42899455598E+01 -0.48915536363E+02  0.53947448531E+02  0.00000000000E+00 0.  1.
         11    1    3    3    0    0  0.90801336038E+02  0.18413493082E+02 -0.38722071596E+03  0.39815050198E+03  0.00000000000E+00 0. -1.
          2    1    1    2  501    0 -0.31529279658E+02  0.11532163119E+02 -0.84846186456E+02  0.91246707437E+02  0.00000000000E+00 0. -1.
<scales pt_clust_5="13000.00000" pt_clust_6="13000.00000" pt_clust_7="13000.00000" pt_clust_8="13000.00000" pt_clust_9="33.57211"></scales>
<clustering>
<clus scale="   33.572">  1  9  2 -1</clus>
<clus scale="   78.907">  5  6 -1 -1</clus>
<clus scale="   94.740">  7  8 -1 -1</clus>
<clus scale="  100.373">  1  5  2 -1</clus>
<clus scale="   33.572">  1  5  2 -1</clus>
</clustering>
</event>
<event>
 9    1  0.6675710E-005  0.9351819E+02  0.7546771E-02  0.1300426E+00
          1   -1    0    0  502    0 -0.00000000000E+00  0.00000000000E+00  0.15710304761E+03  0.15710304761E+03  0.00000000000E+00 0. -1.
         21   -1    0    0  501  502  0.00000000000E+00 -0.00000000000E+00 -0.88074302327E+02  0.88074302327E+02  0.00000000000E+00 0. -1.
         23    2    1    2    0    0  0.20546249015E+00 -0.30504751645E+00  0.25410028637E+02  0.94408503676E+02  0.90923928325E+02 0.  0.
        -24    2    1    2    0    0 -0.41397435825E+02 -0.23198453983E+02  0.14106275793E+02  0.94910297988E+02  0.80975685779E+02 0.  0.
         13    1    4    4    0    0 -0.25901689931E+02  0.21032101747E+02 -0.18182342098E+02  0.37997952700E+02  0.00000000000E+00 0. -1.
        -14    1    4    4    0    0 -0.15495745894E+02 -0.44230555730E+02  0.32288617891E+02  0.56912345289E+02  0.00000000000E+00 0.  1.
        -13    1    3    3    0    0  0.23950480526E+02 -0.51576836708E+00 -0.27465833967E+02  0.36445350457E+02  0.00000000000E+00 0.  1.
         13    1    3    3    0    0 -0.23745018036E+02  0.21072085062E+00  0.52875862605E+02  0.57963153218E+02  0.00000000000E+00 0. -1.
          2    1    1    2  501    0  0.41191973335E+02  0.23503501500E+02  0.29512440850E+02  0.55858548271E+02  0.00000000000E+00 0. -1.
<scales pt_clust_5="13000.00000" pt_clust_6="13000.00000" pt_clust_7="13000.00000" pt_clust_8="13000.00000" pt_clust_9="47.42568"></scales>
<clustering>
<clus scale="   47.426">  2  9  1 -1</clus>
<clus scale="   80.976">  5  6 -1 -1</clus>
<clus scale="   83.878">  2  5  1 -1</clus>
<clus scale="   90.924">  7  8 -1 -1</clus>
<clus scale="   47.426">  2  5  1 -1</clus>
</clustering>
</event>
<event>
 9    1  0.6675710E-005  0.1414687E+03  0.7546771E-02  0.1213207E+00
          1   -1    0    0  502    0 -0.00000000000E+00  0.00000000000E+00  0.87553639335E+03  0.87553639335E+03  0.00000000000E+00 0. -1.
         21   -1    0    0  501  502  0.00000000000E+00 -0.00000000000E+00 -0.15660461536E+03  0.15660461536E+03  0.00000000000E+00 0.  1.
        -24    2    1    2    0    0  0.10789427531E+03  0.15061393459E+02  0.81706878307E+03  0.82838224033E+03  0.82144504415E+02 0.  0.
         23    2    1    2    0    0 -0.97771570448E+02  0.93214150587E+01 -0.11150216517E+03  0.17416792505E+03  0.90860137089E+02 0.  0.
         13    1    3    3    0    0  0.10668678888E+03  0.38158962534E+02  0.68112166655E+03  0.69048164494E+03  0.00000000000E+00 0. -1.
        -14    1    3    3    0    0  0.12074864313E+01 -0.23097569075E+02  0.13594711651E+03  0.13790059539E+03  0.00000000000E+00 0.  1.
        -13    1    4    4    0    0 -0.25431708935E+02 -0.37830264272E+02 -0.25206953874E+02  0.52089262212E+02  0.00000000000E+00 0.  1.
         13    1    4    4    0    0 -0.72339861514E+02  0.47151679331E+02 -0.86295211293E+02  0.12207866284E+03  0.00000000000E+00 0. -1.
          2    1    1    2  501    0 -0.10122704864E+02 -0.24382808517E+02  0.13365160096E+02  0.29590843336E+02  0.00000000000E+00 0. -1.
<scales pt_clust_5="13000.00000" pt_clust_6="13000.00000" pt_clust_7="13000.00000" pt_clust_8="13000.00000" pt_clust_9="26.40058"></scales>
<clustering>
<clus scale="   26.401">  2  9  1 -1</clus>
<clus scale="   82.145">  5  6 -1 -1</clus>
<clus scale="   90.860">  7  8 -1 -1</clus>
<clus scale="  136.035">  1  5  2 -1</clus>
<clus scale="   26.401">  2  5  1 -1</clus>
</clustering>
</event>
<event>
 9    1  0.6675710E-005  0.1603655E+03  0.7546771E-02  0.1190986E+00
         -4   -1    0    0    0  501 -0.00000000000E+00  0.00000000000E+00  0.93475020380E+03  0.93475020380E+03  0.00000000000E+00 0.  1.
         21   -1    0    0  501  502  0.00000000000E+00 -0.00000000000E+00 -0.62217334152E+02  0.62217334152E+02  0.00000000000E+00 0. -1.
        -24    2    1    2    0    0  0.12733298507E+03 -0.37756769327E+02  0.60312557639E+03  0.62307233977E+03  0.82579761300E+02 0.  0.
         23    2    1    2    0    0 -0.10105599146E+03 -0.81891008945E+01  0.52835124312E+02  0.15094899896E+03  0.98563051608E+02 0.  0.
         11    1    3    3    0    0  0.85738534290E+02 -0.10099268591E+02  0.21405795690E+03  0.23081139573E+03  0.00000000000E+00 0. -1.
        -12    1    3    3    0    0  0.41594450785E+02 -0.27657500736E+02  0.38906761949E+03  0.39226094404E+03  0.00000000000E+00 0.  1.
        -11    1    4    4    0    0 -0.75222392884E+01  0.22303458963E+02  0.46799569474E+02  0.52385380294E+02  0.00000000000E+00 0.  1.
         11    1    4    4    0    0 -0.93533752175E+02 -0.30492559857E+02  0.60355548376E+01  0.98563618667E+02  0.00000000000E+00 0. -1.
         -3    1    1    2    0  502 -0.26276993612E+02  0.45945870222E+02  0.21657216895E+03  0.22294619922E+03  0.00000000000E+00 0.  1.
<scales pt_clust_5="13000.00000" pt_clust_6="13000.00000" pt_clust_7="13000.00000" pt_clust_8="13000.00000" pt_clust_9="52.92926"></scales>
<clustering>
<clus scale="   52.929">  2  9  1 -1</clus>
<clus scale="   82.580">  5  6 -1 -1</clus>
<clus scale="   98.563">  7  8 -1 -1</clus>
<clus scale="  151.069">  1  5  2 -1</clus>
<clus scale="   52.929">  2  5  1 -1</clus>
</clustering>
</event>
<event>
 9    1  0.6675710E-005  0.9431818E+02  0.7546771E-02  0.1300692E+00
         21   -1    0    0  501  502  0.00000000000E+00  0.00000000000E+00  0.77978437751E+02  0.77978437751E+02  0.00000000000E+00 0.  1.
          3   -1    0    0  502    0 -0.00000000000E+00 -0.00000000000E+00 -0.14811644050E+03  0.14811644050E+03  0.00000000000E+00 0. -1.
        -24    2    1    2    0    0 -0.16725983205E+02 -0.53864965061E+01 -0.61105421109E+02  0.10114586106E+03  0.78662823882E+02 0.  0.
         23    2    1    2    0    0  0.30423471348E+02 -0.16459080746E+02 -0.23627419425E+01  0.98315632350E+02  0.91999413406E+02 0.  0.
         13    1    3    3    0    0  0.70782590138E+01 -0.19645543763E+02 -0.69166932084E+02  0.72250353870E+02  0.00000000000E+00 0. -1.
        -14    1    3    3    0    0 -0.23804242219E+02  0.14259047257E+02  0.80615109755E+01  0.28895507186E+02  0.00000000000E+00 0.  1.
        -13    1    4    4    0    0 -0.26086048216E+02 -0.17126231560E+02  0.20517185243E+02  0.37346279725E+02  0.00000000000E+00 0.  1.
         13    1    4    4    0    0  0.56509519564E+02  0.66715081407E+00 -0.22879927186E+02  0.60969352625E+02  0.00000000000E+00 0. -1.
          4    1    1    2  501    0 -0.13697488143E+02  0.21845577252E+02 -0.66698397018E+01  0.26633384850E+02  0.00000000000E+00 0. -1.
<scales pt_clust_5="13000.00000" pt_clust_6="13000.00000" pt_clust_7="13000.00000" pt_clust_8="13000.00000" pt_clust_9="25.78469"></scales>
<clustering>
<clus scale="   25.785">  1  9  2 -1</clus>
<clus scale="   78.663">  5  6 -1 -1</clus>
<clus scale="   81.363">  2  5  1 -1</clus>
<clus scale="   91.999">  7  8 -1 -1</clus>
<clus scale="   25.785">  1  5  2 -1</clus>
</clustering>
</event>
<event>
 9    1  0.6675710E-005  0.1062719E+03  0.7546771E-02  0.1272037E+00
          3   -1    0    0  502    0 -0.00000000000E+00  0.00000000000E+00  0.30876743087E+03  0.30876743087E+03  0.00000000000E+00 0. -1.
         21   -1    0    0  501  502  0.00000000000E+00 -0.00000000000E+00 -0.65730955784E+02  0.65730955784E+02  0.00000000000E+00 0. -1.
         23    2    1    2    0    0  0.52439204243E+02  0.26848833360E+02  0.22353001438E+03  0.24838215470E+03  0.90869672909E+02 0.  0.
        -24    2    1    2    0    0 -0.31460497041E+02 -0.35668369024E+02  0.33547704476E+02  0.99375871226E+02  0.80548866432E+02 0.  0.
         13    1    4    4    0    0  0.13133141984E+02 -0.20930024729E+02 -0.17294781257E+02  0.30160484284E+02  0.00000000000E+00 0. -1.
        -14    1    4    4    0    0 -0.44593639025E+02 -0.14738344295E+02  0.50842485733E+02  0.69215386942E+02  0.00000000000E+00 0.  1.
        -13    1    3    3    0    0  0.32372928080E+02  0.33653948941E+02  0.22230652716E+03  0.22715806561E+03  0.00000000000E+00 0. -1.
         13    1    3    3    0    0  0.20066276163E+02 -0.68051155811E+01  0.12234872156E+01  0.21224089099E+02  0.00000000000E+00 0.  1.
          4    1    1    2  501    0 -0.20978707202E+02  0.88195356642E+01 -0.14041243765E+02  0.26740360724E+02  0.00000000000E+00 0. -1.
<scales pt_clust_5="13000.00000" pt_clust_6="13000.00000" pt_clust_7="13000.00000" pt_clust_8="13000.00000" pt_clust_9="22.75720"></scales>
<clustering>
<clus scale="   22.757">  2  9  1 -1</clus>
<clus scale="   80.549">  5  6 -1 -1</clus>
<clus scale="   90.870">  7  8 -1 -1</clus>
<clus scale="   97.594">  2  5  1 -1</clus>
<clus scale="   22.757">  2  5  1 -1</clus>
</clustering>
</event>
<event>
 9    1  0.6675710E-005  0.9525931E+02  0.7546771E-02  0.1295503E+00
         -2   -1    0    0    0  501 -0.00000000000E+00  0.00000000000E+00  0.82890788558E+02  0.82890788558E+02  0.00000000000E+00 0.  1.
         21   -1    0    0  501  502  0.00000000000E+00 -0.00000000000E+00 -0.19152246313E+03  0.19152246313E+03  0.00000000000E+00 0. -1.
         23    2    1    2    0    0  0.36005536297E+02  0.10036230858E+02 -0.18649282660E+02  0.98268565540E+02  0.88948247064E+02 0.  0.
        -24    2    1    2    0    0 -0.63479825579E+00 -0.50922070763E+02 -0.72428872206E+02  0.11930396951E+03  0.79962712254E+02 0.  0.
         13    1    4    4    0    0 -0.14668825946E+02 -0.60795169416E+02 -0.79149710630E+02  0.10087568474E+03  0.00000000000E+00 0. -1.
        -14    1    4    4    0    0  0.14034027691E+02  0.98730986535E+01  0.67208384241E+01  0.18428284765E+02  0.00000000000E+00 0.  1.
        -11    1    3    3    0    0 -0.42171164704E+01  0.42772863956E+02 -0.17467806934E+02  0.46394247934E+02  0.00000000000E+00 0.  1.
         11    1    3    3    0    0  0.40222652767E+02 -0.32736633098E+02 -0.11814757255E+01  0.51874317606E+02  0.00000000000E+00 0. -1.
         -1    1    1    2    0  502 -0.35370738041E+02  0.40885839905E+02 -0.17553519706E+02  0.56840716642E+02  0.00000000000E+00 0.  1.
<scales pt_clust_5="13000.00000" pt_clust_6="13000.00000" pt_clust_7="13000.00000" pt_clust_8="13000.00000" pt_clust_9="54.06241"></scales>
<clustering>
<clus scale="   54.062">  2  9  1 -1</clus>
<clus scale="   79.963">  5  6 -1 -1</clus>
<clus scale="   86.929">  2  5  1 -1</clus>
<clus scale="   88.948">  7  8 -1 -1</clus>
<clus scale="   54.062">  2  5  1 -1</clus>
</clustering>
</event>
<event>
 9    1  0.6675710E-005  0.1511565E+03  0.7546771E-02  0.1199689E+00
         21   -1    0    0  501  502  0.00000000000E+00  0.00000000000E+00  0.15472288017E+03  0.15472288017E+03  0.00000000000E+00 0. -1.
         -2   -1    0    0    0  501 -0.00000000000E+00 -0.00000000000E+00 -0.25125699224E+03  0.25125699224E+03  0.00000000000E+00 0.  1.
        -24    2    1    2    0    0  0.11344494644E+03 -0.27780892836E+02 -0.54601066057E+02  0.16032524971E+03  0.95296250725E+02 0.  0.
         23    2    1    2    0    0 -0.96911424236E+02  0.81028135862E+02  0.25302770435E+02  0.15830886574E+03  0.92000455608E+02 0.  0.
         11    1    3    3    0    0  0.73303128110E+02 -0.56764456236E+02 -0.92324259968E+01  0.93170755993E+02  0.00000000000E+00 0. -1.
        -12    1    3    3    0    0  0.40141818328E+02  0.28983563400E+02 -0.45368640060E+02  0.67154493721E+02  0.00000000000E+00 0.  1.
        -13    1    4    4    0    0 -0.25779404362E+02  0.45668698538E+02 -0.31021708151E+02  0.60930731917E+02  0.00000000000E+00 0.  1.
         13    1    4    4    0    0 -0.71132019874E+02  0.35359437324E+02  0.56324478585E+02  0.97378133825E+02  0.00000000000E+00 0. -1.
         -1    1    1    2    0  502 -0.16533522202E+02 -0.53247243026E+02 -0.67235816446E+02  0.87345756963E+02  0.00000000000E+00 0.  1.
<scales pt_clust_5="13000.00000" pt_clust_6="13000.00000" pt_clust_7="13000.00000" pt_clust_8="13000.00000" pt_clust_9="55.75508"></scales>
<clustering>
<clus scale="   55.755">  1  9  2 -1</clus>
<clus scale="   92.000">  7  8 -1 -1</clus>
<clus scale="   95.296">  5  6 -1 -1</clus>
<clus scale="  149.101">  1  7  2 -1</clus>
<clus scale="   55.755">  1  5  2 -1</clus>
</clustering>
</event>
<event>
 9    1  0.6675710E-005  0.9769919E+02  0.7546771E-02  0.1287552E+00
          3   -1    0    0  502    0 -0.00000000000E+00  0.00000000000E+00  0.57480229228E+02  0.57480229228E+02  0.00000000000E+00 0. -1.
         21   -1    0    0  501  502  0.00000000000E+00 -0.00000000000E+00 -0.28830703394E+03  0.28830703394E+03  0.00000000000E+00 0.  1.
        -24    2    1    2    0    0  0.68520429707E+01 -0.28109270088E+02 -0.85153049791E+02  0.12074188555E+03  0.80563512081E+02 0.  0.
         23    2    1    2    0    0 -0.85426866878E+01  0.75152827443E+02 -0.13503880361E+03  0.17678507557E+03  0.85419901050E+02 0.  0.
         13    1    3    3    0    0 -0.22213878260E+02 -0.42939886184E+02 -0.30728146936E+02  0.57284458861E+02  0.00000000000E+00 0. -1.
        -14    1    3    3    0    0  0.29065921230E+02  0.14830616097E+02 -0.54424902855E+02  0.63457426685E+02  0.00000000000E+00 0.  1.
        -11    1    4    4    0    0 -0.34489740772E+02  0.61311873597E+02 -0.12874619652E+03  0.14671152368E+03  0.00000000000E+00 0.  1.
         11    1    4    4    0    0  0.25947054084E+02  0.13840953847E+02 -0.62926070839E+01  0.30073551884E+02  0.00000000000E+00 0. -1.
          4    1    1    2  501    0  0.16906437171E+01 -0.47043557356E+02 -0.10634951314E+02  0.48260302054E+02  0.00000000000E+00 0. -1.
<scales pt_clust_5="13000.00000" pt_clust_6="13000.00000" pt_clust_7="13000.00000" pt_clust_8="13000.00000" pt_clust_9="47.07395"></scales>
<clustering>
<clus scale="   47.074">  2  9  1 -1</clus>
<clus scale="   80.564">  5  6 -1 -1</clus>
<clus scale="   85.420">  7  8 -1 -1</clus>
<clus scale="   93.483">  1  5  2 -1</clus>
<clus scale="   47.074">  2  5  1 -1</clus>
</clustering>
</event>
<event>
 9    1  0.6675710E-005  0.1346125E+03  0.7546771E-02  0.1223934E+00
          1   -1    0    0  502    0 -0.00000000000E+00  0.00000000000E+00  0.99228455854E+02  0.99228455854E+02  0.00000000000E+00 0. -1.
         21   -1    0    0  501  502  0.00000000000E+00 -0.00000000000E+00 -0.55885411344E+03  0.55885411344E+03  0.00000000000E+00 0. -1.
         23    2    1    2    0    0 -0.84818595466E+02  0.64320424613E+02  0.21458799990E+02  0.14324476880E+03  0.93419872257E+02 0.  0.
        -24    2    1    2    0    0  0.71909164953E+01 -0.65646657580E+02 -0.30842505367E+03  0.32552566355E+03  0.80496900360E+02 0.  0.
         13    1    4    4    0    0 -0.23418169566E+02 -0.40507131787E+02 -0.25365171940E+03  0.25793106278E+03  0.00000000000E+00 0. -1.
        -14    1    4    4    0    0  0.30609086062E+02 -0.25139525793E+02 -0.54773334272E+02  0.67594600774E+02  0.00000000000E+00 0.  1.
        -11    1    3    3    0    0 -0.28743234139E+02  0.31753175672E+02  0.55421529913E+02  0.70042727331E+02  0.00000000000E+00 0.  1.
         11    1    3    3    0    0 -0.56075361328E+02  0.32567248941E+02 -0.33962729923E+02  0.73202041470E+02  0.00000000000E+00 0. -1.
          2    1    1    2  501    0  0.77627678971E+02  0.13262329667E+01 -0.17265940391E+03  0.18931213694E+03  0.00000000000E+00 0. -1.
<scales pt_clust_5="13000.00000" pt_clust_6="13000.00000" pt_clust_7="13000.00000" pt_clust_8="13000.00000" pt_clust_9="77.63901"></scales>
<clustering>
<clus scale="   77.639">  2  9  1 -1</clus>
<clus scale="   80.497">  5  6 -1 -1</clus>
<clus scale="   93.420">  7  8 -1 -1</clus>
<clus scale="  125.988">  2  5  1 -1</clus>
<clus scale="   77.639">  2  5  1 -1</clus>
</clustering>
</event>
<event>
 9    1  0.6675710E-005  0.1393310E+03  0.7546771E-02  0.1218207E+00
         21   -1    0    0  501  502  0.00000000000E+00  0.00000000000E+00  0.21363370835E+03  0.21363370835E+03  0.00000000000E+00 0.  1.
          1   -1    0    0  502    0 -0.00000000000E+00 -0.00000000000E+00 -0.92665367691E+03  0.92665367691E+03  0.00000000000E+00 0. -1.
        -24    2    1    2    0    0  0.94777356308E+02  0.32053979390E+02 -0.46043962124E+03  0.47792858031E+03  0.80005488572E+02 0.  0.
         23    2    1    2    0    0  0.99604261145E+02  0.15983855710E+02  0.15654267822E+03  0.20686621793E+03  0.90064030191E+02 0.  0.
         13    1    3    3    0    0  0.10355093696E+03  0.37126619975E+02 -0.45048895399E+03  0.46372565178E+03  0.00000000000E+00 0. -1.
        -14    1    3    3    0    0 -0.87735806483E+01 -0.50726405848E+01 -0.99506672529E+01  0.14202928525E+02  0.00000000000E+00 0.  1.
        -13    1    4    4    0    0  0.43368796887E+02  0.22242443511E+02  0.13950477899E+03  0.14777402410E+03  0.00000000000E+00 0.  1.
         13    1    4    4    0    0  0.56235464259E+02 -0.62585878009E+01  0.17037899230E+02  0.59092193832E+02  0.00000000000E+00 0. -1.
          2    1    1    2  501    0 -0.19438161745E+03 -0.48037835100E+02 -0.40912302554E+03  0.45549258702E+03  0.00000000000E+00 0. -1.
<scales pt_clust_5="13000.00000" pt_clust_6="13000.00000" pt_clust_7="13000.00000" pt_clust_8="13000.00000" pt_clust_9="106.30904"></scales>
<clustering>
<clus scale="   80.005">  5  6 -1 -1</clus>
<clus scale="   90.064">  7  8 -1 -1</clus>
<clus scale="  128.106">  2  5  1 -1</clus>
<clus scale="  106.309">  1  9  2 -1</clus>
<clus scale="  106.309">  1  5  2 -1</clus>
</clustering>
</event>
<event>
 9    1  0.6675710E-005  0.1225681E+03  0.7546771E-02  0.1242018E+00
         21   -1    0    0  501  502  0.00000000000E+00  0.00000000000E+00  0.10450321798E+03  0.10450321798E+03  0.00000000000E+00 0. -1.
          1   -1    0    0  502    0 -0.00000000000E+00 -0.00000000000E+00 -0.39735203946E+03  0.39735203946E+03  0.00000000000E+00 0. -1.
        -24    2    1    2    0    0 -0.59101998964E+02  0.62563226172E+02 -0.33467163206E+03  0.35491315217E+03  0.80938499663E+02 0.  0.
         23    2    1    2    0    0  0.42371827003E+02 -0.31291039191E+02  0.32757546738E+02  0.11033572138E+03  0.91249184584E+02 0.  0.
         11    1    3    3    0    0 -0.59492025375E+02  0.80781051258E+01 -0.13141124607E+03  0.14447654640E+03  0.00000000000E+00 0. -1.
        -12    1    3    3    0    0  0.39002641131E+00  0.54485121047E+02 -0.20326038600E+03  0.21043660578E+03  0.00000000000E+00 0.  1.
        -11    1    4    4    0    0 -0.17970679815E+02 -0.26008171491E+02 -0.13243788743E+02  0.34274892525E+02  0.00000000000E+00 0.  1.
         11    1    4    4    0    0  0.60342506819E+02 -0.52828676999E+01  0.46001335481E+02  0.76060828857E+02  0.00000000000E+00 0. -1.
          2    1    1    2  501    0  0.16730171960E+02 -0.31272186981E+02  0.90652638533E+01  0.36606383885E+02  0.00000000000E+00 0. -1.
<scales pt_clust_5="13000.00000" pt_clust_6="13000.00000" pt_clust_7="13000.00000" pt_clust_8="13000.00000" pt_clust_9="35.46616"></scales>
<clustering>
<clus scale="   35.466">  1  9  2 -1</clus>
<clus scale="   80.938">  5  6 -1 -1</clus>
<clus scale="   91.249">  7  8 -1 -1</clus>
<clus scale="  115.098">  2  5  1 -1</clus>
<clus scale="   35.466">  1  5  2 -1</clus>
</clustering>
</event>
<event>
 9    1  0.6675710E-005  0.1010772E+03  0.7546771E-02  0.1283597E+00
         21   -1    0    0  501  502  0.00000000000E+00  0.00000000000E+00  0.54802414085E+03  0.54802414085E+03  0.00000000000E+00 0.  1.
         -2   -1    0    0    0  501 -0.00000000000E+00 -0.00000000000E+00 -0.11172527159E+03  0.11172527159E+03  0.00000000000E+00 0.  1.
        -24    2    1    2    0    0 -0.40730037844E+02  0.34758417072E+01 -0.74749436181E+02  0.11681127719E+03  0.79914822229E+02 0.  0.
         23    2    1    2    0    0  0.83580838787E+02 -0.36380680136E+02  0.34530491941E+03  0.36861146046E+03  0.91266702095E+02 0.  0.
         11    1    3    3    0    0  0.44318962721E+00 -0.20934368558E+02  0.70013606369E+01  0.22078570033E+02  0.00000000000E+00 0. -1.
        -12    1    3    3    0    0 -0.41173227471E+02  0.24410210265E+02 -0.81750796818E+02  0.94732707160E+02  0.00000000000E+00 0.  1.
        -13    1    4    4    0    0  0.81401163864E+01 -0.49310172959E+02  0.10262845473E+03  0.11415057762E+03  0.00000000000E+00 0.  1.
         13    1    4    4    0    0  0.75440722401E+02  0.12929492824E+02  0.24267646468E+03  0.25446088283E+03  0.00000000000E+00 0. -1.
         -1    1    1    2    0  502 -0.42850800944E+02  0.32904838429E+02  0.16574338603E+03  0.17432667480E+03  0.00000000000E+00 0.  1.
<scales pt_clust_5="13000.00000" pt_clust_6="13000.00000" pt_clust_7="13000.00000" pt_clust_8="13000.00000" pt_clust_9="54.02703"></scales>
<clustering>
<clus scale="   54.027">  1  9  2 -1</clus>
<clus scale="   79.915">  5  6 -1 -1</clus>
<clus scale="   90.958">  2  5  1 -1</clus>
<clus scale="   91.267">  7  8 -1 -1</clus>
<clus scale="   54.027">  1  5  2 -1</clus>
</clustering>
</event>
<event>
 9    1  0.6675710E-005  0.2322010E+03  0.7546771E-02  0.1125100E+00
          1   -1    0    0  502    0 -0.00000000000E+00  0.00000000000E+00  0.57319551458E+03  0.57319551458E+03  0.00000000000E+00 0. -1.
         21   -1    0    0  501  502  0.00000000000E+00 -0.00000000000E+00 -0.89980484940E+02  0.89980484940E+02  0.00000000000E+00 0. -1.
        -24    2    1    2    0    0  0.93743757642E+02  0.70648128497E+01  0.29046931246E+03  0.31601439035E+03  0.81577385034E+02 0.  0.
         23    2    1    2    0    0  0.32727246945E+02  0.37912186061E+02  0.18450282494E+03  0.21267818750E+03  0.93178927248E+02 0.  0.
         13    1    3    3    0    0  0.54338102055E+02  0.18970256675E+02  0.25580101716E+03  0.26219584351E+03  0.00000000000E+00 0. -1.
        -14    1    3    3    0    0  0.39405655588E+02 -0.11905443826E+02  0.34668295301E+02  0.53818546841E+02  0.00000000000E+00 0.  1.
        -11    1    4    4    0    0 -0.88697327458E+01  0.58642608464E+02  0.10363000913E+03  0.11940186966E+03  0.00000000000E+00 0.  1.
         11    1    4    4    0    0  0.41596979691E+02 -0.20730422404E+02  0.80872815812E+02  0.93276317840E+02  0.00000000000E+00 0. -1.
          2    1    1    2  501    0 -0.12647100459E+03 -0.44976998911E+02  0.82428922411E+01  0.13448342167E+03  0.00000000000E+00 0. -1.
<scales pt_clust_5="13000.00000" pt_clust_6="13000.00000" pt_clust_7="13000.00000" pt_clust_8="13000.00000" pt_clust_9="134.23057"></scales>
<clustering>
<clus scale="   81.577">  5  6 -1 -1</clus>
<clus scale="   93.179">  7  8 -1 -1</clus>
<clus scale="  100.759">  5  7 -1 -1</clus>
<clus scale="  134.231">  2  9  1 -1</clus>
<clus scale="  134.231">  2  5  1 -1</clus>
</clustering>
</event>
<event>
 9    1  0.6675710E-005  0.1872311E+03  0.7546771E-02  0.1162469E+00
          1   -1    0    0  502    0 -0.00000000000E+00  0.00000000000E+00  0.12915878604E+03  0.12915878604E+03  0.00000000000E+00 0. -1.
         21   -1    0    0  501  502  0.00000000000E+00 -0.00000000000E+00 -0.51406725653E+03  0.51406725653E+03  0.00000000000E+00 0.  1.
         23    2    1    2    0    0  0.15852172368E+03  0.11817340937E+03 -0.27279608459E+02  0.21936068725E+03  0.90999134688E+02 0.  0.
        -24    2    1    2    0    0 -0.71554659242E+02 -0.78875154472E+02 -0.19177511205E+03  0.23251465758E+03  0.77097426279E+02 0.  0.
         11    1    4    4    0    0 -0.38763423351E+02 -0.78231642757E+02 -0.17523885996E+03  0.19578419486E+03  0.00000000000E+00 0. -1.
        -12    1    4    4    0    0 -0.32791235891E+02 -0.64351171501E+00 -0.16536252087E+02  0.36730462721E+02  0.00000000000E+00 0.  1.
        -13    1    3    3    0    0  0.13031966023E+03  0.13235928036E+03 -0.27620161208E+02  0.18778995246E+03  0.00000000000E+00 0.  1.
         13    1    3    3    0    0  0.28202063453E+02 -0.14185870999E+02  0.34055274920E+00  0.31570734789E+02  0.00000000000E+00 0. -1.
          2    1    1    2  501    0 -0.86967064441E+02 -0.39298254894E+02 -0.16585374999E+03  0.19135069773E+03  0.00000000000E+00 0. -1.
<scales pt_clust_5="13000.00000" pt_clust_6="13000.00000" pt_clust_7="13000.00000" pt_clust_8="13000.00000" pt_clust_9="95.43387"></scales>
<clustering>
<clus scale="   77.097">  5  6 -1 -1</clus>
<clus scale="   90.999">  7  8 -1 -1</clus>
<clus scale="   95.434">  2  9  1 -1</clus>
<clus scale="  180.883">  2  5  1 -1</clus>
<clus scale="   95.434">  2  5  1 -1</clus>
</clustering>
</event>
<event>
 9    1  0.6675710E-005  0.9171500E+02  0.7546771E-02  0.1303050E+00
          1   -1    0    0  502    0 -0.00000000000E+00  0.00000000000E+00  0.78457412363E+03  0.78457412363E+03  0.00000000000E+00 0. -1.
         21   -1    0    0  501  502  0.00000000000E+00 -0.00000000000E+00 -0.20937753650E+02  0.20937753650E+02  0.00000000000E+00 0. -1.
        -24    2    1    2    0    0  0.78803986305E+01 -0.20337297966E+02  0.40770104697E+03  0.41651129721E+03  0.82376031897E+02 0.  0.
         23    2    1    2    0    0 -0.31678259248E+02 -0.64827853986E+01  0.33322655954E+03  0.34655834899E+03  0.89538877868E+02 0.  0.
         11    1    3    3    0    0 -0.30986768603E+02 -0.31811964799E+02  0.22995204862E+03  0.23420103672E+03  0.00000000000E+00 0. -1.
        -12    1    3    3    0    0  0.38867167234E+02  0.11474666833E+02  0.17774899834E+03  0.18231026049E+03  0.00000000000E+00 0.  1.
        -13    1    4    4    0    0  0.26998880618E+02  0.15655024315E+02  0.85542255410E+02  0.91057656469E+02  0.00000000000E+00 0.  1.
         13    1    4    4    0    0 -0.58677139866E+02 -0.22137809713E+02  0.24768430413E+03  0.25550069252E+03  0.00000000000E+00 0. -1.
          2    1    1    2  501    0  0.23797860617E+02  0.26820083364E+02  0.22708763469E+02  0.42442231090E+02  0.00000000000E+00 0. -1.
<scales pt_clust_5="13000.00000" pt_clust_6="13000.00000" pt_clust_7="13000.00000" pt_clust_8="13000.00000" pt_clust_9="35.85603"></scales>
<clustering>
<clus scale="   35.856">  2  9  1 -1</clus>
<clus scale="   82.376">  5  6 -1 -1</clus>
<clus scale="   84.736">  1  5  2 -1</clus>
<clus scale="   89.539">  7  8 -1 -1</clus>
<clus scale="   35.856">  2  5  1 -1</clus>
</clustering>
</event>
<event>
 9    1  0.6675710E-005  0.9482930E+02  0.7546771E-02  0.1296488E+00
         21   -1    0    0  501  502  0.00000000000E+00  0.00000000000E+00  0.10166655935E+03  0.10166655935E+03  0.00000000000E+00 0. -1.
          1   -1    0    0  502    0 -0.00000000000E+00 -0.00000000000E+00 -0.13274850270E+03  0.13274850270E+03  0.00000000000E+00 0. -1.
         23    2    1    2    0    0 -0.57839921482E+01 -0.51394799882E+02 -0.38216028154E+02  0.10994427589E+03  0.89176224258E+02 0.  0.
        -24    2    1    2    0    0 -0.35906744641E+01  0.12529957850E+02 -0.79870017822E+01  0.81727276949E+02  0.80284885335E+02 0.  0.
         13    1    4    4    0    0 -0.98479472321E+01 -0.27969147388E+02  0.16555138638E+02  0.33960681466E+02  0.00000000000E+00 0. -1.
        -14    1    4    4    0    0  0.62572727680E+01  0.40499105239E+02 -0.24542140420E+02  0.47766595483E+02  0.00000000000E+00 0.  1.
        -13    1    3    3    0    0 -0.16210019049E+02  0.21264937552E+02 -0.22340107058E+02  0.34843115103E+02  0.00000000000E+00 0.  1.
         13    1    3    3    0    0  0.10426026901E+02 -0.72659737434E+02 -0.15875921096E+02  0.75101160787E+02  0.00000000000E+00 0. -1.
          2    1    1    2  501    0  0.93746666123E+01  0.38864842032E+02  0.15121086582E+02  0.42743509211E+02  0.00000000000E+00 0. -1.
<scales pt_clust_5="13000.00000" pt_clust_6="13000.00000" pt_clust_7="13000.00000" pt_clust_8="13000.00000" pt_clust_9="39.97950"></scales>
<clustering>
<clus scale="   39.979">  1  9  2 -1</clus>
<clus scale="   80.285">  5  6 -1 -1</clus>
<clus scale="   86.521">  1  5  2 -1</clus>
<clus scale="   89.176">  7  8 -1 -1</clus>
<clus scale="   39.979">  1  5  2 -1</clus>
</clustering>
</event>
<event>
 9    1  0.6675710E-005  0.1128413E+03  0.7546771E-02  0.1258139E+00
          1   -1    0    0  502    0 -0.00000000000E+00  0.00000000000E+00  0.18166569479E+03  0.18166569479E+03  0.00000000000E+00 0. -1.
         21   -1    0    0  501  502  0.00000000000E+00 -0.00000000000E+00 -0.12737409942E+03  0.12737409942E+03  0.00000000000E+00 0.  1.
        -24    2    1    2    0    0  0.68590673616E+02  0.21253103426E+02  0.11737886786E+03  0.16041212779E+03  0.82449240194E+02 0.  0.
         23    2    1    2    0    0 -0.57094178517E+02  0.13437284182E+01 -0.38623437005E+02  0.11339606902E+03  0.90029704859E+02 0.  0.
         11    1    3    3    0    0  0.80577364353E+02  0.31129071375E+02  0.72013705720E+02  0.11246201377E+03  0.00000000000E+00 0. -1.
        -12    1    3    3    0    0 -0.11986690736E+02 -0.98759679491E+01  0.45365162143E+02  0.47950114015E+02  0.00000000000E+00 0.  1.
        -13    1    4    4    0    0 -0.37436093013E+02  0.31001304539E+02 -0.55702955085E+02  0.73928080919E+02  0.00000000000E+00 0.  1.
         13    1    4    4    0    0 -0.19658085504E+02 -0.29657576121E+02  0.17079518080E+02  0.39467988103E+02  0.00000000000E+00 0. -1.
          2    1    1    2  501    0 -0.11496495099E+02 -0.22596831844E+02 -0.24463835483E+02  0.35231597402E+02  0.00000000000E+00 0. -1.
<scales pt_clust_5="13000.00000" pt_clust_6="13000.00000" pt_clust_7="13000.00000" pt_clust_8="13000.00000" pt_clust_9="25.35323"></scales>
<clustering>
<clus scale="   25.353">  2  9  1 -1</clus>
<clus scale="   82.449">  5  6 -1 -1</clus>
<clus scale="   90.030">  7  8 -1 -1</clus>
<clus scale="  106.891">  1  5  2 -1</clus>
<clus scale="   25.353">  2  5  1 -1</clus>
</clustering>
</event>
<event>
 9    1  0.6675710E-005  0.9965668E+02  0.7546771E-02  0.1287436E+00
         21   -1    0    0  501  502  0.00000000000E+00  0.00000000000E+00  0.46013358979E+03  0.46013358979E+03  0.00000000000E+00 0.  1.
          1   -1    0    0  502    0 -0.00000000000E+00 -0.00000000000E+00 -0.42966261796E+02  0.42966261796E+02  0.00000000000E+00 0. -1.
         23    2    1    2    0    0  0.35542495536E+02 -0.23173296795E+01  0.58508347915E+02  0.11542542941E+03  0.92904057889E+02 0.  0.
        -24    2    1    2    0    0 -0.34887868969E+02  0.25202850241E+02  0.35224715479E+03  0.36389865530E+03  0.80571869840E+02 0.  0.
         11    1    4    4    0    0 -0.50821143686E+02  0.39535614237E+02  0.19893013965E+03  0.20909101822E+03  0.00000000000E+00 0. -1.
        -12    1    4    4    0    0  0.15933274717E+02 -0.14332763997E+02  0.15331701513E+03  0.15480763707E+03  0.00000000000E+00 0.  1.
        -11    1    3    3    0    0  0.19624927830E+01  0.42241075620E+02  0.34952003775E+02  0.54861666174E+02  0.00000000000E+00 0.  1.
         11    1    3    3    0    0  0.33580002753E+02 -0.44558405299E+02  0.23556344140E+02  0.60563763233E+02  0.00000000000E+00 0. -1.
          2    1    1    2  501    0 -0.65462656748E+00 -0.22885520561E+02  0.64118252915E+01  0.23775766883E+02  0.00000000000E+00 0. -1.
<scales pt_clust_5="13000.00000" pt_clust_6="13000.00000" pt_clust_7="13000.00000" pt_clust_8="13000.00000" pt_clust_9="22.89489"></scales>
<clustering>
<clus scale="   22.895">  1  9  2 -1</clus>
<clus scale="   80.572">  5  6 -1 -1</clus>
<clus scale="   88.273">  1  5  2 -1</clus>
<clus scale="   92.904">  7  8 -1 -1</clus>
<clus scale="   22.895">  1  5  2 -1</clus>
</clustering>
</event>
<event>
 9    1  0.6675710E-005  0.1830497E+03  0.7546771E-02  0.1166100E+00
         21   -1    0    0  501  502  0.00000000000E+00  0.00000000000E+00  0.50963067303E+02  0.50963067303E+02  0.00000000000E+00 0. -1.
          1   -1    0    0  502    0 -0.00000000000E+00 -0.00000000000E+00 -0.12472224896E+04  0.12472224896E+04  0.00000000000E+00 0. -1.
        -24    2    1    2    0    0 -0.22984652965E+02 -0.12363864053E+03 -0.25363452212E+03  0.29402100179E+03  0.79391882326E+02 0.  0.
         23    2    1    2    0    0  0.43301824360E+02  0.20075465048E+03 -0.42617519207E+03  0.48159401686E+03  0.90166651584E+02 0.  0.
         11    1    3    3    0    0  0.14347283452E+02 -0.10493641111E+03 -0.16538012233E+03  0.19638757542E+03  0.00000000000E+00 0. -1.
        -12    1    3    3    0    0 -0.37331936418E+02 -0.18702229421E+02 -0.88254399791E+02  0.97633426369E+02  0.00000000000E+00 0.  1.
        -13    1    4    4    0    0  0.49249101700E+02  0.16549886434E+03 -0.26349875282E+03  0.31503482482E+03  0.00000000000E+00 0. -1.
         13    1    4    4    0    0 -0.59472773404E+01  0.35255786144E+02 -0.16267643925E+03  0.16655919204E+03  0.00000000000E+00 0.  1.
          2    1    1    2  501    0 -0.20317171394E+02 -0.77116009952E+02 -0.51644970809E+03  0.52257053823E+03  0.00000000000E+00 0. -1.
<scales pt_clust_5="13000.00000" pt_clust_6="13000.00000" pt_clust_7="13000.00000" pt_clust_8="13000.00000" pt_clust_9="79.74756"></scales>
<clustering>
<clus scale="   79.392">  5  6 -1 -1</clus>
<clus scale="   79.748">  1  9  2 -1</clus>
<clus scale="   90.167">  7  8 -1 -1</clus>
<clus scale="  177.989">  2  5  1 -1</clus>
<clus scale="   79.748">  1  5  2 -1</clus>
</clustering>
</event>
<event>
 9    1  0.6675710E-005  0.1002013E+03  0.7546771E-02  0.1283537E+00
         21   -1    0    0  501  502  0.00000000000E+00  0.00000000000E+00  0.44073746768E+03  0.44073746768E+03  0.00000000000E+00 0.  1.
         -2   -1    0    0    0  501 -0.00000000000E+00 -0.00000000000E+00 -0.62800765651E+02  0.62800765651E+02  0.00000000000E+00 0.  1.
        -24    2    1    2    0    0 -0.57603174553E+02  0.22012351345E+02  0.90755452098E+01  0.10169334636E+03  0.80352360536E+02 0.  0.
         23    2    1    2    0    0  0.12664496883E+02 -0.58175798648E+00  0.12804788057E+03  0.15593882950E+03  0.88090469987E+02 0.  0.
         11    1    3    3    0    0  0.15578653196E+02  0.14878251433E+02 -0.12701284641E+02  0.25007587501E+02  0.00000000000E+00 0. -1.
        -12    1    3    3    0    0 -0.73181827748E+02  0.71340999116E+01  0.21776829851E+02  0.76685758864E+02  0.00000000000E+00 0.  1.
        -11    1    4    4    0    0 -0.75645312799E+00  0.42262312858E+02  0.77904315137E+02  0.88632711943E+02  0.00000000000E+00 0.  1.
         11    1    4    4    0    0  0.13420950011E+02 -0.42844070844E+02  0.50143565432E+02  0.67306117552E+02  0.00000000000E+00 0. -1.
         -1    1    1    2    0  502  0.44938677670E+02 -0.21430593358E+02  0.24081327625E+03  0.24590605747E+03  0.00000000000E+00 0.  1.
<scales pt_clust_5="13000.00000" pt_clust_6="13000.00000" pt_clust_7="13000.00000" pt_clust_8="13000.00000" pt_clust_9="49.78710"></scales>
<clustering>
<clus scale="   49.787">  1  9  2 -1</clus>
<clus scale="   80.352">  5  6 -1 -1</clus>
<clus scale="   88.090">  7  8 -1 -1</clus>
<clus scale="   93.471">  2  5  1 -1</clus>
<clus scale="   49.787">  1  5  2 -1</clus>
</clustering>
</event>
<event>
 9    1  0.6675710E-005  0.1203616E+03  0.7546771E-02  0.1251996E+00
         21   -1    0    0  501  502  0.00000000000E+00  0.00000000000E+00  0.11170954993E+03  0.11170954993E+03  0.00000000000E+00 0.  1.
          1   -1    0    0  502    0 -0.00000000000E+00 -0.00000000000E+00 -0.24247944753E+03  0.24247944753E+03  0.00000000000E+00 0. -1.
         23    2    1    2    0    0 -0.85022441042E+02 -0.70377688923E+02 -0.14842349596E+03  0.20630481821E+03  0.91380026739E+02 0.  0.
        -24    2    1    2    0    0  0.32802444762E+02  0.25304334372E+02 -0.76782065950E+01  0.74397883626E+02  0.61317049106E+02 0.  0.
         13    1    4    4    0    0  0.27769849404E+02  0.41282512107E+02 -0.19978714696E+02  0.53614917539E+02  0.00000000000E+00 0. -1.
        -14    1    4    4    0    0  0.50325953583E+01 -0.15978177736E+02  0.12300508101E+02  0.20782966087E+02  0.00000000000E+00 0.  1.
        -11    1    3    3    0    0 -0.34326804084E+02  0.11904171370E+02 -0.10367867737E+02  0.37782687253E+02  0.00000000000E+00 0.  1.
         11    1    3    3    0    0 -0.50695636957E+02 -0.82281860293E+02 -0.13805562822E+03  0.16852213096E+03  0.00000000000E+00 0. -1.
          2    1    1    2  501    0  0.52219996280E+02  0.45073354551E+02  0.25331804955E+02  0.73486295622E+02  0.00000000000E+00 0. -1.
<scales pt_clust_5="13000.00000" pt_clust_6="13000.00000" pt_clust_7="13000.00000" pt_clust_8="13000.00000" pt_clust_9="68.98214"></scales>
<clustering>
<clus scale="   61.317">  5  6 -1 -1</clus>
<clus scale="   68.982">  1  9  2 -1</clus>
<clus scale="   91.380">  7  8 -1 -1</clus>
<clus scale="   99.481">  1  5  2 -1</clus>
<clus scale="   68.982">  1  5  2 -1</clus>
</clustering>
</event>
<event>
 9    1  0.6675710E-005  0.1152302E+03  0.7546771E-02  0.1255133E+00
         21   -1    0    0  501  502  0.00000000000E+00  0.00000000000E+00  0.28282368828E+03  0.28282368828E+03  0.00000000000E+00 0. -1.
          1   -1    0    0  502    0 -0.00000000000E+00 -0.00000000000E+00 -0.24141108064E+03  0.24141108064E+03  0.00000000000E+00 0. -1.
        -24    2    1    2    0    0 -0.45671462316E+02  0.46542009989E+02 -0.18178420582E+03  0.21010479384E+03  0.82743493670E+02 0.  0.
         23    2    1    2    0    0  0.94413176411E+02 -0.18599890775E+02  0.71043003349E+02  0.15193472653E+03  0.93686973402E+02 0.  0.
         11    1    3    3    0    0 -0.22505718091E+02  0.41204459700E+02 -0.18027033128E+03  0.18628394237E+03  0.00000000000E+00 0. -1.
        -12    1    3    3    0    0 -0.23165744225E+02  0.53375502886E+01 -0.15138745419E+01  0.23820851469E+02  0.00000000000E+00 0.  1.
        -11    1    4    4    0    0  0.19425669926E+02 -0.12352691680E+02  0.73120592166E+02  0.76658767551E+02  0.00000000000E+00 0.  1.
         11    1    4    4    0    0  0.74987506486E+02 -0.62471990949E+01 -0.20775888167E+01  0.75275958983E+02  0.00000000000E+00 0. -1.
          2    1    1    2  501    0 -0.48741714095E+02 -0.27942119214E+02  0.15215381011E+03  0.16219524855E+03  0.00000000000E+00 0. -1.
<scales pt_clust_5="13000.00000" pt_clust_6="13000.00000" pt_clust_7="13000.00000" pt_clust_8="13000.00000" pt_clust_9="56.18289"></scales>
<clustering>
<clus scale="   56.183">  1  9  2 -1</clus>
<clus scale="   82.743">  5  6 -1 -1</clus>
<clus scale="   93.687">  7  8 -1 -1</clus>
<clus scale="  106.523">  2  5  1 -1</clus>
<clus scale="   56.183">  1  5  2 -1</clus>
</clustering>
</event>
<event>
 9    1  0.6675710E-005  0.1074972E+03  0.7546771E-02  0.1276449E+00
          1   -1    0    0  502    0 -0.00000000000E+00  0.00000000000E+00  0.74237312447E+02  0.74237312447E+02  0.00000000000E+00 0. -1.
         21   -1    0    0  501  502  0.00000000000E+00 -0.00000000000E+00 -0.23952613083E+03  0.23952613083E+03  0.00000000000E+00 0.  1.
        -24    2    1    2    0    0  0.23909752312E+02  0.20353034891E+02  0.20345082985E+02  0.90100978061E+02  0.81965490062E+02 0.  0.
         23    2    1    2    0    0 -0.11450050556E+02 -0.43693607169E+01 -0.15578687340E+03  0.18758522743E+03  0.10377125158E+03 0.  0.
         11    1    3    3    0    0  0.33724726918E+02  0.38373236410E+02  0.37485478823E+02  0.63364213882E+02  0.00000000000E+00 0. -1.
        -12    1    3    3    0    0 -0.98149746066E+01 -0.18020201519E+02 -0.17140395838E+02  0.26736764180E+02  0.00000000000E+00 0.  1.
        -11    1    4    4    0    0 -0.46282419658E+02 -0.19742342818E+02 -0.13529136160E+03  0.14434533242E+03  0.00000000000E+00 0.  1.
         11    1    4    4    0    0  0.34832369102E+02  0.15372982101E+02 -0.20495511807E+02  0.43239895007E+02  0.00000000000E+00 0. -1.
          2    1    1    2  501    0 -0.12459701756E+02 -0.15983674174E+02 -0.29847027960E+02  0.36077237782E+02  0.00000000000E+00 0. -1.
<scales pt_clust_5="13000.00000" pt_clust_6="13000.00000" pt_clust_7="13000.00000" pt_clust_8="13000.00000" pt_clust_9="20.26628"></scales>
<clustering>
<clus scale="   20.266">  2  9  1 -1</clus>
<clus scale="   81.965">  5  6 -1 -1</clus>
<clus scale="   86.634">  1  5  2 -1</clus>
<clus scale="  103.771">  7  8 -1 -1</clus>
<clus scale="   20.266">  2  5  1 -1</clus>
</clustering>
</event>
<event>
 9    1  0.6675710E-005  0.9690813E+02  0.7546771E-02  0.1289325E+00
         21   -1    0    0  501  502  0.00000000000E+00  0.00000000000E+00  0.14222340968E+03  0.14222340968E+03  0.00000000000E+00 0. -1.
          1   -1    0    0  502    0 -0.00000000000E+00 -0.00000000000E+00 -0.14733676450E+03  0.14733676450E+03  0.00000000000E+00 0. -1.
        -24    2    1    2    0    0 -0.32288195862E+02  0.63242567506E+01 -0.72861202607E+02  0.11636015979E+03  0.84548259147E+02 0.  0.
         23    2    1    2    0    0  0.57166115568E+02  0.33093094108E+02  0.35516523324E+02  0.11652994544E+03  0.89189052629E+02 0.  0.
         11    1    3    3    0    0 -0.54030192929E+02  0.22747295265E+02 -0.65971605308E+02  0.88255050261E+02  0.00000000000E+00 0. -1.
        -12    1    3    3    0    0  0.21741997067E+02 -0.16423038515E+02 -0.68895972998E+01  0.28105109526E+02  0.00000000000E+00 0.  1.
        -11    1    4    4    0    0 -0.23405099308E+02  0.16456975956E+02  0.69826067726E+01  0.29451443574E+02  0.00000000000E+00 0.  1.
         11    1    4    4    0    0  0.80571214876E+02  0.16636118152E+02  0.28533916552E+02  0.87078501868E+02  0.00000000000E+00 0. -1.
          2    1    1    2  501    0 -0.24877919706E+02 -0.39417350859E+02  0.32231324463E+02  0.56670068946E+02  0.00000000000E+00 0. -1.
<scales pt_clust_5="13000.00000" pt_clust_6="13000.00000" pt_clust_7="13000.00000" pt_clust_8="13000.00000" pt_clust_9="46.61157"></scales>
<clustering>
<clus scale="   46.612">  1  9  2 -1</clus>
<clus scale="   84.548">  5  6 -1 -1</clus>
<clus scale="   89.189">  7  8 -1 -1</clus>
<clus scale="   92.655">  2  5  1 -1</clus>
<clus scale="   46.612">  1  5  2 -1</clus>
</clustering>
</event>
<event>
 9    1  0.6675710E-005  0.9349200E+02  0.7546771E-02  0.1301147E+00
         21   -1    0    0  501  502  0.00000000000E+00  0.00000000000E+00  0.26268277354E+02  0.26268277354E+02  0.00000000000E+00 0. -1.
         -2   -1    0    0    0  501 -0.00000000000E+00 -0.00000000000E+00 -0.71217673390E+03  0.71217673390E+03  0.00000000000E+00 0.  1.
        -24    2    1    2    0    0 -0.65316781259E+01  0.12300852615E+02 -0.49491230268E+03  0.50162814711E+03  0.80614123068E+02 0.  0.
         23    2    1    2    0    0  0.30438508054E+02 -0.37428769638E+02 -0.12500313505E+03  0.16226468601E+03  0.91523925753E+02 0.  0.
         13    1    3    3    0    0  0.94463300799E+01 -0.30725444051E+02 -0.13361641130E+03  0.13742864124E+03  0.00000000000E+00 0. -1.
        -14    1    3    3    0    0 -0.15978008206E+02  0.43026296666E+02 -0.36129589138E+03  0.36419950587E+03  0.00000000000E+00 0.  1.
        -11    1    4    4    0    0  0.80308419006E+01  0.19430388881E+02 -0.88748950413E+02  0.91205321298E+02  0.00000000000E+00 0.  1.
         11    1    4    4    0    0  0.22407666154E+02 -0.56859158519E+02 -0.36254184638E+02  0.71059364715E+02  0.00000000000E+00 0. -1.
         -1    1    1    2    0  502 -0.23906829928E+02  0.25127917023E+02 -0.65993018814E+02  0.74552178126E+02  0.00000000000E+00 0.  1.
<scales pt_clust_5="13000.00000" pt_clust_6="13000.00000" pt_clust_7="13000.00000" pt_clust_8="13000.00000" pt_clust_9="34.68355"></scales>
<clustering>
<clus scale="   34.684">  1  9  2 -1</clus>
<clus scale="   80.614">  5  6 -1 -1</clus>
<clus scale="   82.842">  2  5  1 -1</clus>
<clus scale="   91.524">  7  8 -1 -1</clus>
<clus scale="   34.684">  1  5  2 -1</clus>
</clustering>
</event>
<event>
 9    1  0.6675710E-005  0.1512061E+03  0.7546771E-02  0.1200466E+00
          1   -1    0    0  502    0 -0.00000000000E+00  0.00000000000E+00  0.67584245247E+02  0.67584245247E+02  0.00000000000E+00 0. -1.
         21   -1    0    0  501  502  0.00000000000E+00 -0.00000000000E+00 -0.80486230563E+03  0.80486230563E+03  0.00000000000E+00 0. -1.
        -24    2    1    2    0    0 -0.75035077810E+02 -0.65804121805E+02 -0.89060084746E+02  0.16230584965E+03  0.91929564269E+02 0.  0.
         23    2    1    2    0    0  0.71870534444E+02  0.15465802606E+03 -0.39087376691E+03  0.43787048178E+03  0.99316556545E+02 0.  0.
         11    1    3    3    0    0 -0.73804041916E+02 -0.87208427792E+02 -0.75339020934E+02  0.13685143242E+03  0.00000000000E+00 0. -1.
        -12    1    3    3    0    0 -0.12310358946E+01  0.21404305987E+02 -0.13721063812E+02  0.25454417225E+02  0.00000000000E+00 0.  1.
        -13    1    4    4    0    0 -0.63813615552E+01  0.90662086135E+02 -0.13491295010E+03  0.16267095543E+03  0.00000000000E+00 0. -1.
         13    1    4    4    0    0  0.78251895999E+02  0.63995939928E+02 -0.25596081682E+03  0.27519952634E+03  0.00000000000E+00 0.  1.
          2    1    1    2  501    0  0.31645433661E+01 -0.88853904258E+02 -0.25734420872E+03  0.27227021945E+03  0.00000000000E+00 0. -1.
<scales pt_clust_5="13000.00000" pt_clust_6="13000.00000" pt_clust_7="13000.00000" pt_clust_8="13000.00000" pt_clust_9="88.91024"></scales>
<clustering>
<clus scale="   88.910">  2  9  1 -1</clus>
<clus scale="   91.930">  5  6 -1 -1</clus>
<clus scale="   99.317">  7  8 -1 -1</clus>
<clus scale="  146.460">  1  5  2 -1</clus>
<clus scale="   88.910">  2  5  1 -1</clus>
</clustering>
</event>
<event>
 9    1  0.6675710E-005  0.1014397E+03  0.7546771E-02  0.1280935E+00
         21   -1    0    0  501  502  0.00000000000E+00  0.00000000000E+00  0.61068986904E+02  0.61068986904E+02  0.00000000000E+00 0. -1.
          1   -1    0    0  502    0 -0.00000000000E+00 -0.00000000000E+00 -0.20576019464E+03  0.20576019464E+03  0.00000000000E+00 0. -1.
         23    2    1    2    0    0 -0.41309387844E+02  0.17675566741E+02 -0.59265549356E+02  0.11592347846E+03  0.88921068005E+02 0.  0.
        -24    2    1    2    0    0  0.36802285370E+02 -0.40986977236E+02 -0.55302693679E+02  0.11255040573E+03  0.81085543664E+02 0.  0.
         11    1    4    4    0    0  0.41231814679E+01 -0.48038739780E+02 -0.33729686333E+00  0.48216541915E+02  0.00000000000E+00 0. -1.
        -12    1    4    4    0    0  0.32679103902E+02  0.70517625436E+01 -0.54965396816E+02  0.64333863819E+02  0.00000000000E+00 0.  1.
        -11    1    3    3    0    0 -0.10505933365E+02  0.46959976712E+02 -0.71100258087E+01  0.48643257659E+02  0.00000000000E+00 0. -1.
         11    1    3    3    0    0 -0.30803454479E+02 -0.29284409971E+02 -0.52155523547E+02  0.67280220806E+02  0.00000000000E+00 0.  1.
          2    1    1    2  501    0  0.45071024739E+01  0.23311410495E+02 -0.30122964699E+02  0.38355297343E+02  0.00000000000E+00 0. -1.
<scales pt_clust_5="13000.00000" pt_clust_6="13000.00000" pt_clust_7="13000.00000" pt_clust_8="13000.00000" pt_clust_9="23.74313"></scales>
<clustering>
<clus scale="   23.743">  1  9  2 -1</clus>
<clus scale="   81.086">  5  6 -1 -1</clus>
<clus scale="   88.921">  7  8 -1 -1</clus>
<clus scale="   94.646">  1  5  2 -1</clus>
<clus scale="   23.743">  1  5  2 -1</clus>
</clustering>
</event>
<event>
 9    1  0.6675710E-005  0.1065486E+03  0.7546771E-02  0.1271409E+00
         21   -1    0    0  501  502  0.00000000000E+00  0.00000000000E+00  0.41582622312E+03  0.41582622312E+03  0.00000000000E+00 0.  1.
         -4   -1    0    0    0  501 -0.00000000000E+00 -0.00000000000E+00 -0.75178095597E+02  0.75178095597E+02  0.00000000000E+00 0.  1.
         23    2    1    2    0    0  0.70346794019E+02 -0.18089599700E+02  0.24462169631E+00  0.11368570617E+03  0.87455559581E+02 0.  0.
        -24    2    1    2    0    0 -0.40038815492E+02 -0.10239453838E+02  0.97231214724E+02  0.13063283672E+03  0.76831476303E+02 0.  0.
         13    1    4    4    0    0 -0.56102705897E+02 -0.23710481875E+02  0.49447067788E+02  0.78451979405E+02  0.00000000000E+00 0. -1.
        -14    1    4    4    0    0  0.16063890406E+02  0.13471028037E+02  0.47784146936E+02  0.52180857311E+02  0.00000000000E+00 0.  1.
        -13    1    3    3    0    0  0.61474131584E+02  0.26705649017E+02  0.75177892008E+01  0.67444626902E+02  0.00000000000E+00 0. -1.
         13    1    3    3    0    0  0.88726624346E+01 -0.44795248717E+02 -0.72731675045E+01  0.46241079268E+02  0.00000000000E+00 0.  1.
         -3    1    1    2    0  502 -0.30307978527E+02  0.28329053538E+02  0.24317229110E+03  0.24668577583E+03  0.00000000000E+00 0.  1.
<scales pt_clust_5="13000.00000" pt_clust_6="13000.00000" pt_clust_7="13000.00000" pt_clust_8="13000.00000" pt_clust_9="41.48625"></scales>
<clustering>
<clus scale="   41.486">  1  9  2 -1</clus>
<clus scale="   76.831">  5  6 -1 -1</clus>
<clus scale="   87.456">  7  8 -1 -1</clus>
<clus scale="   98.016">  1  5  2 -1</clus>
<clus scale="   41.486">  1  5  2 -1</clus>
</clustering>
</event>
<event>
 9    1  0.6675710E-005  0.9151933E+02  0.7546771E-02  0.1305085E+00
         21   -1    0    0  501  502  0.00000000000E+00  0.00000000000E+00  0.48001219030E+02  0.48001219030E+02  0.00000000000E+00 0.  1.
          3   -1    0    0  502    0 -0.00000000000E+00 -0.00000000000E+00 -0.26924296762E+03  0.26924296762E+03  0.00000000000E+00 0. -1.
         23    2    1    2    0    0  0.72237081675E+01  0.88797766411E+01 -0.15509598685E+03  0.17952797084E+03  0.89691107612E+02 0.  0.
        -24    2    1    2    0    0 -0.34755367577E+02 -0.13585499942E+02 -0.32931120235E+02  0.94318652376E+02  0.80118962312E+02 0.  0.
         13    1    4    4    0    0 -0.53889087696E+02 -0.18471273461E+02 -0.43725602871E+02  0.71813300038E+02  0.00000000000E+00 0. -1.
        -14    1    4    4    0    0  0.19133720118E+02  0.48857735195E+01  0.10794482636E+02  0.22505352337E+02  0.00000000000E+00 0.  1.
        -13    1    3    3    0    0  0.38233137251E+02 -0.10766388173E+02 -0.31794691865E+02  0.50878191095E+02  0.00000000000E+00 0.  1.
         13    1    3    3    0    0 -0.31009429083E+02  0.19646164814E+02 -0.12330129498E+03  0.12864977975E+03  0.00000000000E+00 0. -1.
          4    1    1    2  501    0  0.27531659410E+02  0.47057233009E+01 -0.33214641505E+02  0.43397563433E+02  0.00000000000E+00 0. -1.
<scales pt_clust_5="13000.00000" pt_clust_6="13000.00000" pt_clust_7="13000.00000" pt_clust_8="13000.00000" pt_clust_9="27.93093"></scales>
<clustering>
<clus scale="   27.931">  1  9  2 -1</clus>
<clus scale="   80.119">  5  6 -1 -1</clus>
<clus scale="   82.160">  1  5  2 -1</clus>
<clus scale="   89.691">  7  8 -1 -1</clus>
<clus scale="   27.931">  1  5  2 -1</clus>
</clustering>
</event>
<event>
 9    1  0.6675710E-005  0.9492213E+02  0.7546771E-02  0.1297534E+00
         -2   -1    0    0    0  501 -0.00000000000E+00  0.00000000000E+00  0.98988669788E+03  0.98988669788E+03  0.00000000000E+00 0.  1.
         21   -1    0    0  501  502  0.00000000000E+00 -0.00000000000E+00 -0.39555106080E+02  0.39555106080E+02  0.00000000000E+00 0.  1.
        -24    2    1    2    0    0 -0.96274288651E+01 -0.14643613189E+02  0.66871919494E+03  0.67390292333E+03  0.81563874275E+02 0.  0.
         23    2    1    2    0    0  0.22842526552E+02  0.29973215149E+02  0.30718025778E+03  0.32292981725E+03  0.92215950082E+02 0.  0.
         13    1    3    3    0    0  0.92498689397E+01  0.21909874036E+02  0.73245578824E+02  0.77009853090E+02  0.00000000000E+00 0. -1.
        -14    1    3    3    0    0 -0.18877297805E+02 -0.36553487225E+02  0.59547361612E+03  0.59689307024E+03  0.00000000000E+00 0.  1.
        -11    1    4    4    0    0 -0.33536981035E+02  0.19256233955E+02  0.16776859319E+03  0.17216803567E+03  0.00000000000E+00 0.  1.
         11    1    4    4    0    0  0.56379507587E+02  0.10716981194E+02  0.13941166459E+03  0.15076178158E+03  0.00000000000E+00 0. -1.
         -1    1    1    2    0  502 -0.13215097687E+02 -0.15329601960E+02 -0.25567860923E+02  0.32609063392E+02  0.00000000000E+00 0.  1.
<scales pt_clust_5="13000.00000" pt_clust_6="13000.00000" pt_clust_7="13000.00000" pt_clust_8="13000.00000" pt_clust_9="20.23945"></scales>
<clustering>
<clus scale="   20.239">  2  9  1 -1</clus>
<clus scale="   81.564">  5  6 -1 -1</clus>
<clus scale="   84.611">  1  5  2 -1</clus>
<clus scale="   92.216">  7  8 -1 -1</clus>
<clus scale="   20.239">  2  5  1 -1</clus>
</clustering>
</event>
<event>
 9    1  0.6675710E-005  0.2654213E+03  0.7546771E-02  0.1104271E+00
         -2   -1    0    0    0  501 -0.00000000000E+00  0.00000000000E+00  0.53959686828E+03  0.53959686828E+03  0.00000000000E+00 0.  1.
         21   -1    0    0  501  502  0.00000000000E+00 -0.00000000000E+00 -0.37888334186E+03  0.37888334186E+03  0.00000000000E+00 0.  1.
         23    2    1    2    0    0 -0.67884990866E+01  0.23324927335E+03  0.59684489407E+02  0.25707600010E+03  0.89858356943E+02 0.  0.
        -24    2    1    2    0    0  0.21662593939E+02 -0.29514117142E+03 -0.19147289157E+03  0.36205621194E+03  0.82736046294E+02 0.  0.
         11    1    4    4    0    0  0.11470350978E+02 -0.41250096766E+02  0.17314933851E+01  0.42850175077E+02  0.00000000000E+00 0. -1.
        -12    1    4    4    0    0  0.10192242961E+02 -0.25389107466E+03 -0.19320438495E+03  0.31920603687E+03  0.00000000000E+00 0.  1.
        -11    1    3    3    0    0 -0.39783961950E+02  0.70133343340E+02  0.10791766007E+01  0.80638787805E+02  0.00000000000E+00 0. -1.
         11    1    3    3    0    0  0.32995462864E+02  0.16311593001E+03  0.58605312807E+02  0.17643721229E+03  0.00000000000E+00 0.  1.
         -1    1    1    2    0  502 -0.14874094852E+02  0.61891898071E+02  0.29250192858E+03  0.29934799810E+03  0.00000000000E+00 0.  1.
<scales pt_clust_5="13000.00000" pt_clust_6="13000.00000" pt_clust_7="13000.00000" pt_clust_8="13000.00000" pt_clust_9="63.65414"></scales>
<clustering>
<clus scale="   63.654">  2  9  1 -1</clus>
<clus scale="   82.736">  5  6 -1 -1</clus>
<clus scale="   89.858">  7  8 -1 -1</clus>
<clus scale="  263.095">  2  5  1 -1</clus>
<clus scale="   63.654">  2  5  1 -1</clus>
</clustering>
</event>
<event>
 9    1  0.6675710E-005  0.1056591E+03  0.7546771E-02  0.1279207E+00
          1   -1    0    0  502    0 -0.00000000000E+00  0.00000000000E+00  0.27698376336E+03  0.27698376336E+03  0.00000000000E+00 0. -1.
         21   -1    0    0  501  502  0.00000000000E+00 -0.00000000000E+00 -0.67500036638E+02  0.67500036638E+02  0.00000000000E+00 0.  1.
        -24    2    1    2    0    0 -0.50962970391E+02 -0.19520308620E+02  0.14665992164E+03  0.17167943352E+03  0.70614647765E+02 0.  0.
         23    2    1    2    0    0  0.44190862613E+02 -0.21421848823E+01  0.90412642075E+02  0.13707945926E+03  0.93053269747E+02 0.  0.
         11    1    3    3    0    0 -0.39881180760E+02 -0.37359156283E+02  0.13894778216E+03  0.14930740539E+03  0.00000000000E+00 0. -1.
        -12    1    3    3    0    0 -0.11081789631E+02  0.17838847663E+02  0.77121394802E+01  0.22372028132E+02  0.00000000000E+00 0.  1.
        -13    1    4    4    0    0  0.44020835363E+02 -0.36196665487E+02  0.22815853220E+02  0.61388889032E+02  0.00000000000E+00 0. -1.
         13    1    4    4    0    0  0.17002725033E+00  0.34054480605E+02  0.67596788855E+02  0.75690570232E+02  0.00000000000E+00 0.  1.
          2    1    1    2  501    0  0.67721077780E+01  0.21662493503E+02 -0.27588836995E+02  0.35724907212E+02  0.00000000000E+00 0. -1.
<scales pt_clust_5="13000.00000" pt_clust_6="13000.00000" pt_clust_7="13000.00000" pt_clust_8="13000.00000" pt_clust_9="22.69637"></scales>
<clustering>
<clus scale="   22.696">  2  9  1 -1</clus>
<clus scale="   70.615">  5  6 -1 -1</clus>
<clus scale="   86.553">  1  5  2 -1</clus>
<clus scale="   93.053">  7  8 -1 -1</clus>
<clus scale="   22.696">  2  5  1 -1</clus>
</clustering>
</event>
<event>
 9    1  0.6675710E-005  0.9339220E+02  0.7546771E-02  0.1300791E+00
         -2   -1    0    0    0  501 -0.00000000000E+00  0.00000000000E+00  0.17446196466E+03  0.17446196466E+03  0.00000000000E+00 0.  1.
         21   -1    0    0  501  502  0.00000000000E+00 -0.00000000000E+00 -0.78107364867E+02  0.78107364867E+02  0.00000000000E+00 0. -1.
        -24    2    1    2    0    0 -0.25043146897E+02 -0.16124122206E+02  0.10222879222E+03  0.13326595488E+03  0.80137021694E+02 0.  0.
         23    2    1    2    0    0  0.69304798495E+01  0.63654974880E+01  0.12645998668E+02  0.91621305682E+02  0.90255145356E+02 0.  0.
         13    1    3    3    0    0 -0.11294906924E+02 -0.48715349642E+02  0.56474615131E+02  0.75433032336E+02  0.00000000000E+00 0. -1.
        -14    1    3    3    0    0 -0.13748239973E+02  0.32591227436E+02  0.45754177093E+02  0.57832922540E+02  0.00000000000E+00 0.  1.
        -11    1    4    4    0    0  0.18003999911E+02 -0.36156206722E+02 -0.10810432995E+02  0.41812447415E+02  0.00000000000E+00 0. -1.
         11    1    4    4    0    0 -0.11073520062E+02  0.42521704210E+02  0.23456431663E+02  0.49808858266E+02  0.00000000000E+00 0.  1.
         -1    1    1    2    0  502  0.18112667048E+02  0.97586247182E+01 -0.18520191100E+02  0.27682068968E+02  0.00000000000E+00 0.  1.
<scales pt_clust_5="13000.00000" pt_clust_6="13000.00000" pt_clust_7="13000.00000" pt_clust_8="13000.00000" pt_clust_9="20.57424"></scales>
<clustering>
<clus scale="   20.574">  2  9  1 -1</clus>
<clus scale="   80.137">  5  6 -1 -1</clus>
<clus scale="   83.654">  1  5  2 -1</clus>
<clus scale="   90.255">  7  8 -1 -1</clus>
<clus scale="   20.574">  2  5  1 -1</clus>
</clustering>
</event>
<event>
 9    1  0.6675710E-005  0.1328678E+03  0.7546771E-02  0.1236745E+00
          1   -1    0    0  502    0 -0.00000000000E+00  0.00000000000E+00  0.30395459538E+03  0.30395459538E+03  0.00000000000E+00 0. -1.
         21   -1    0    0  501  502  0.00000000000E+00 -0.00000000000E+00 -0.69277950251E+02  0.69277950251E+02  0.00000000000E+00 0.  1.
         23    2    1    2    0    0 -0.15743824175E+02  0.61443298797E+02  0.20080058905E+03  0.24182710623E+03  0.11889628159E+03 0.  0.
        -24    2    1    2    0    0 -0.11088315187E+02 -0.53997994960E+02  0.19573159086E+02  0.10010098103E+03  0.81230312400E+02 0.  0.
         11    1    4    4    0    0 -0.32746719190E+02  0.62796393883E+01  0.78882869809E+00  0.33352717120E+02  0.00000000000E+00 0. -1.
        -12    1    4    4    0    0  0.21658404003E+02 -0.60277634348E+02  0.18784330388E+02  0.66748263908E+02  0.00000000000E+00 0.  1.
        -11    1    3    3    0    0 -0.48627383695E+02 -0.50471521146E+01  0.34807021568E+02  0.60013539638E+02  0.00000000000E+00 0.  1.
         11    1    3    3    0    0  0.32883559520E+02  0.66490450911E+02  0.16599356748E+03  0.18181356659E+03  0.00000000000E+00 0. -1.
          2    1    1    2  501    0  0.26832139362E+02 -0.74453038367E+01  0.14302896989E+02  0.31304458376E+02  0.00000000000E+00 0. -1.
<scales pt_clust_5="13000.00000" pt_clust_6="13000.00000" pt_clust_7="13000.00000" pt_clust_8="13000.00000" pt_clust_9="27.84594"></scales>
<clustering>
<clus scale="   27.846">  2  9  1 -1</clus>
<clus scale="   81.230">  5  6 -1 -1</clus>
<clus scale="  100.578">  2  5  1 -1</clus>
<clus scale="  118.896">  7  8 -1 -1</clus>
<clus scale="   27.846">  2  5  1 -1</clus>
</clustering>
</event>
<event>
 9    1  0.6675710E-005  0.1025381E+03  0.7546771E-02  0.1279865E+00
         -4   -1    0    0    0  501 -0.00000000000E+00  0.00000000000E+00  0.11005868044E+04  0.11005868044E+04  0.00000000000E+00 0.  1.
         21   -1    0    0  501  502  0.00000000000E+00 -0.00000000000E+00 -0.43107694962E+02  0.43107694962E+02  0.00000000000E+00 0.  1.
        -24    2    1    2    0    0  0.36566829722E+02  0.20849333327E+02  0.89325986838E+03  0.89813277928E+03  0.83411444115E+02 0.  0.
         23    2    1    2    0    0 -0.26213235981E+02 -0.39960461797E+02  0.18678000413E+03  0.21423409379E+03  0.93410410306E+02 0.  0.
         13    1    3    3    0    0  0.12869715362E+02  0.17700472311E+02  0.50550145770E+02  0.55084058773E+02  0.00000000000E+00 0. -1.
        -14    1    3    3    0    0  0.23697114360E+02  0.31488610163E+01  0.84270972261E+03  0.84304872050E+03  0.00000000000E+00 0.  1.
        -13    1    4    4    0    0 -0.23563292384E+01 -0.51553170833E+02  0.40588901511E+02  0.65656230750E+02  0.00000000000E+00 0.  1.
         13    1    4    4    0    0 -0.23856906743E+02  0.11592709036E+02  0.14619110262E+03  0.14857786304E+03  0.00000000000E+00 0. -1.
         -3    1    1    2    0  502 -0.10353593741E+02  0.19111128470E+02 -0.22560763110E+02  0.31327626256E+02  0.00000000000E+00 0.  1.
<scales pt_clust_5="13000.00000" pt_clust_6="13000.00000" pt_clust_7="13000.00000" pt_clust_8="13000.00000" pt_clust_9="21.73550"></scales>
<clustering>
<clus scale="   21.736">  2  9  1 -1</clus>
<clus scale="   83.411">  5  6 -1 -1</clus>
<clus scale="   93.410">  7  8 -1 -1</clus>
<clus scale="   93.520">  1  5  2 -1</clus>
<clus scale="   21.736">  2  5  1 -1</clus>
</clustering>
</event>
<event>
 9    1  0.6675710E-005  0.1019274E+03  0.7546771E-02  0.1281894E+00
          1   -1    0    0  502    0 -0.00000000000E+00  0.00000000000E+00  0.65100581812E+03  0.65100581812E+03  0.00000000000E+00 0. -1.
         21   -1    0    0  501  502  0.00000000000E+00 -0.00000000000E+00 -0.32066568928E+02  0.32066568928E+02  0.00000000000E+00 0. -1.
         23    2    1    2    0    0 -0.24125856219E+02 -0.28356967640E+02  0.46525407261E+03  0.47589463205E+03  0.92887965749E+02 0.  0.
        -24    2    1    2    0    0  0.20409236469E+02  0.53582763654E+02  0.15187169696E+03  0.18161522862E+03  0.81433589106E+02 0.  0.
         13    1    4    4    0    0 -0.29265050970E+02  0.93711188168E+01  0.67673562145E+02  0.74323428941E+02  0.00000000000E+00 0. -1.
        -14    1    4    4    0    0  0.49674287439E+02  0.44211644837E+02  0.84198134811E+02  0.10729179967E+03  0.00000000000E+00 0.  1.
        -11    1    3    3    0    0 -0.37512420381E+02 -0.56075066722E+02  0.35843297865E+03  0.36472701432E+03  0.00000000000E+00 0. -1.
         11    1    3    3    0    0  0.13386564162E+02  0.27718099082E+02  0.10682109396E+03  0.11116761773E+03  0.00000000000E+00 0.  1.
          2    1    1    2  501    0  0.37166197503E+01 -0.25225796014E+02  0.18134796302E+01  0.25562526387E+02  0.00000000000E+00 0. -1.
<scales pt_clust_5="13000.00000" pt_clust_6="13000.00000" pt_clust_7="13000.00000" pt_clust_8="13000.00000" pt_clust_9="25.49812"></scales>
<clustering>
<clus scale="   25.498">  2  9  1 -1</clus>
<clus scale="   81.434">  5  6 -1 -1</clus>
<clus scale="   91.610">  2  5  1 -1</clus>
<clus scale="   92.888">  7  8 -1 -1</clus>
<clus scale="   25.498">  2  5  1 -1</clus>
</clustering>
</event>
<event>
 9    1  0.6675710E-005  0.1121815E+03  0.7546771E-02  0.1258295E+00
         -4   -1    0    0    0  501 -0.00000000000E+00  0.00000000000E+00  0.49267168567E+03  0.49267168567E+03  0.00000000000E+00 0.  1.
         21   -1    0    0  501  502  0.00000000000E+00 -0.00000000000E+00 -0.43327822631E+02  0.43327822631E+02  0.00000000000E+00 0. -1.
        -24    2    1    2    0    0  0.50466633583E+02  0.42854021542E+02  0.21996645598E+03  0.24367953029E+03  0.81308815365E+02 0.  0.
         23    2    1    2    0    0 -0.71290067538E+02 -0.48887110179E+02  0.91047282143E+02  0.15230127562E+03  0.86219763975E+02 0.  0.
         11    1    3    3    0    0  0.30100845508E+02 -0.18278512317E+02  0.11725710113E+03  0.12243117527E+03  0.00000000000E+00 0. -1.
        -12    1    3    3    0    0  0.20365788075E+02  0.61132533859E+02  0.10270935485E+03  0.12124835501E+03  0.00000000000E+00 0.  1.
        -11    1    4    4    0    0 -0.26591729579E+02 -0.50373040840E+02  0.91260104490E+02  0.10757773932E+03  0.00000000000E+00 0.  1.
         11    1    4    4    0    0 -0.44698337960E+02  0.14859306613E+01 -0.21282234709E+00  0.44723536305E+02  0.00000000000E+00 0. -1.
         -3    1    1    2    0  502  0.20823433955E+02  0.60330886372E+01  0.13833012491E+03  0.14001870239E+03  0.00000000000E+00 0.  1.
<scales pt_clust_5="13000.00000" pt_clust_6="13000.00000" pt_clust_7="13000.00000" pt_clust_8="13000.00000" pt_clust_9="21.67981"></scales>
<clustering>
<clus scale="   21.680">  2  9  1 -1</clus>
<clus scale="   81.309">  5  6 -1 -1</clus>
<clus scale="   86.220">  7  8 -1 -1</clus>
<clus scale="  108.453">  1  5  2 -1</clus>
<clus scale="   21.680">  2  5  1 -1</clus>
</clustering>
</event>
<event>
 9    1  0.6675710E-005  0.9862507E+02  0.7546771E-02  0.1289448E+00
         21   -1    0    0  501  502  0.00000000000E+00  0.00000000000E+00  0.51076221160E+03  0.51076221160E+03  0.00000000000E+00 0.  1.
          1   -1    0    0  502    0 -0.00000000000E+00 -0.00000000000E+00 -0.31190129659E+02  0.31190129659E+02  0.00000000000E+00 0. -1.
         23    2    1    2    0    0 -0.74629097456E+01  0.35918083115E+02  0.88507624184E+02  0.13330263461E+03  0.92683273236E+02 0.  0.
        -24    2    1    2    0    0  0.25611313775E+02 -0.20399287595E+02  0.23368169626E+03  0.24946575268E+03  0.80956508505E+02 0.  0.
         13    1    4    4    0    0  0.24170952539E+02 -0.10477155002E+02  0.14530954682E+02  0.30085783479E+02  0.00000000000E+00 0. -1.
        -14    1    4    4    0    0  0.14403612353E+01 -0.99221325934E+01  0.21915074157E+03  0.21937996920E+03  0.00000000000E+00 0.  1.
        -11    1    3    3    0    0  0.42013060393E+02  0.21877671859E+02  0.51305237672E+02  0.69828054406E+02  0.00000000000E+00 0.  1.
         11    1    3    3    0    0 -0.49475970139E+02  0.14040411256E+02  0.37202386512E+02  0.63474580200E+02  0.00000000000E+00 0. -1.
          2    1    1    2  501    0 -0.18148404029E+02 -0.15518795520E+02  0.15738276150E+03  0.15918395397E+03  0.00000000000E+00 0. -1.
<scales pt_clust_5="13000.00000" pt_clust_6="13000.00000" pt_clust_7="13000.00000" pt_clust_8="13000.00000" pt_clust_9="23.87881"></scales>
<clustering>
<clus scale="   23.879">  1  9  2 -1</clus>
<clus scale="   80.957">  5  6 -1 -1</clus>
<clus scale="   87.696">  1  5  2 -1</clus>
<clus scale="   92.683">  7  8 -1 -1</clus>
<clus scale="   23.879">  1  5  2 -1</clus>
</clustering>
</event>
<event>
 9    1  0.6675710E-005  0.1035749E+03  0.7546771E-02  0.1281014E+00
          3   -1    0    0  502    0 -0.00000000000E+00  0.00000000000E+00  0.55541307588E+03  0.55541307588E+03  0.00000000000E+00 0. -1.
         21   -1    0    0  501  502  0.00000000000E+00 -0.00000000000E+00 -0.27904577657E+02  0.27904577657E+02  0.00000000000E+00 0. -1.
        -24    2    1    2    0    0  0.17556347831E+02 -0.22758565617E+02  0.17640731016E+03  0.19382175428E+03  0.74974366922E+02 0.  0.
         23    2    1    2    0    0 -0.44266034585E+02  0.63252141822E+02  0.24913371359E+03  0.27657777436E+03  0.92018165379E+02 0.  0.
         13    1    3    3    0    0  0.63576407161E+01 -0.39227841120E+02  0.16724091398E+03  0.17189754630E+03  0.00000000000E+00 0. -1.
        -14    1    3    3    0    0  0.11198707115E+02  0.16469275502E+02  0.91663961799E+01  0.21924207980E+02  0.00000000000E+00 0.  1.
        -11    1    4    4    0    0 -0.61536637583E+02  0.22789962223E+02  0.20065607299E+03  0.21111371289E+03  0.00000000000E+00 0. -1.
         11    1    4    4    0    0  0.17270602998E+02  0.40462179599E+02  0.48477640601E+02  0.65464061469E+02  0.00000000000E+00 0.  1.
          4    1    1    2  501    0  0.26709686754E+02 -0.40493576204E+02  0.10196747447E+03  0.11291812490E+03  0.00000000000E+00 0. -1.
<scales pt_clust_5="13000.00000" pt_clust_6="13000.00000" pt_clust_7="13000.00000" pt_clust_8="13000.00000" pt_clust_9="48.50914"></scales>
<clustering>
<clus scale="   48.509">  2  9  1 -1</clus>
<clus scale="   74.974">  5  6 -1 -1</clus>
<clus scale="   88.778">  1  5  2 -1</clus>
<clus scale="   92.018">  7  8 -1 -1</clus>
<clus scale="   48.509">  2  5  1 -1</clus>
</clustering>
</event>
<event>
 9    1  0.6675710E-005  0.8924470E+02  0.7546771E-02  0.1310013E+00
         21   -1    0    0  501  502  0.00000000000E+00  0.00000000000E+00  0.76248601424E+02  0.76248601424E+02  0.00000000000E+00 0. -1.
          1   -1    0    0  502    0 -0.00000000000E+00 -0.00000000000E+00 -0.42246682760E+03  0.42246682760E+03  0.00000000000E+00 0. -1.
        -24    2    1    2    0    0 -0.13502971523E+02 -0.65239216296E+01 -0.33861506267E+03  0.34829164379E+03  0.80137486099E+02 0.  0.
         23    2    1    2    0    0 -0.12599523758E+02  0.90416008871E+01 -0.48323389132E+02  0.10199016319E+03  0.88466631593E+02 0.  0.
         13    1    3    3    0    0 -0.45215225850E+02 -0.75122675480E+01 -0.25002270979E+03  0.25418931178E+03  0.00000000000E+00 0. -1.
        -14    1    3    3    0    0  0.31712254327E+02  0.98834591841E+00 -0.88592352873E+02  0.94102332010E+02  0.00000000000E+00 0.  1.
        -13    1    4    4    0    0 -0.30568293048E+02  0.25628532862E+02 -0.62185645904E+02  0.73880286904E+02  0.00000000000E+00 0. -1.
         13    1    4    4    0    0  0.17968769290E+02 -0.16586931975E+02  0.13862256772E+02  0.28109876289E+02  0.00000000000E+00 0.  1.
          2    1    1    2  501    0  0.26102495281E+02 -0.25176792576E+01  0.40720225624E+02  0.48433622037E+02  0.00000000000E+00 0. -1.
<scales pt_clust_5="13000.00000" pt_clust_6="13000.00000" pt_clust_7="13000.00000" pt_clust_8="13000.00000" pt_clust_9="26.22363"></scales>
<clustering>
<clus scale="   26.224">  1  9  2 -1</clus>
<clus scale="   80.137">  5  6 -1 -1</clus>
<clus scale="   80.996">  2  5  1 -1</clus>
<clus scale="   88.467">  7  8 -1 -1</clus>
<clus scale="   26.224">  1  5  2 -1</clus>
</clustering>
</event>
<event>
 9    1  0.6675710E-005  0.9182707E+02  0.7546771E-02  0.1304854E+00
         21   -1    0    0  501  502  0.00000000000E+00  0.00000000000E+00  0.29072957033E+03  0.29072957033E+03  0.00000000000E+00 0.  1.
         -2   -1    0    0    0  501 -0.00000000000E+00 -0.00000000000E+00 -0.91014504680E+02  0.91014504680E+02  0.00000000000E+00 0.  1.
        -24    2    1    2    0    0  0.12806674455E+02 -0.64100854562E+01 -0.44745221598E+02  0.93182216185E+02  0.80471674837E+02 0.  0.
         23    2    1    2    0    0 -0.22345602385E+02 -0.42677967875E+02  0.15246547330E+03  0.18385429501E+03  0.90752114898E+02 0.  0.
         11    1    3    3    0    0  0.32589052783E+02  0.24889639335E+02 -0.37259521052E+02  0.55405887923E+02  0.00000000000E+00 0. -1.
        -12    1    3    3    0    0 -0.19782378328E+02 -0.31299724791E+02 -0.74857005461E+01  0.37776328262E+02  0.00000000000E+00 0.  1.
        -11    1    4    4    0    0 -0.16501750384E+02  0.22573899766E+02  0.86405231603E+02  0.90817139157E+02  0.00000000000E+00 0. -1.
         11    1    4    4    0    0 -0.58438520012E+01 -0.65251867640E+02  0.66060241697E+02  0.93037155856E+02  0.00000000000E+00 0.  1.
         -1    1    1    2    0  502  0.95389279295E+01  0.49088053331E+02  0.91994813945E+02  0.10470756381E+03  0.00000000000E+00 0.  1.
<scales pt_clust_5="13000.00000" pt_clust_6="13000.00000" pt_clust_7="13000.00000" pt_clust_8="13000.00000" pt_clust_9="50.00628"></scales>
<clustering>
<clus scale="   50.006">  1  9  2 -1</clus>
<clus scale="   80.472">  5  6 -1 -1</clus>
<clus scale="   81.682">  2  5  1 -1</clus>
<clus scale="   90.752">  7  8 -1 -1</clus>
<clus scale="   50.006">  1  5  2 -1</clus>
</clustering>
</event>
<event>
 9    1  0.6675710E-005  0.1421587E+03  0.7546771E-02  0.1212824E+00
         21   -1    0    0  501  502  0.00000000000E+00  0.00000000000E+00  0.96020425992E+03  0.96020425992E+03  0.00000000000E+00 0.  1.
          3   -1    0    0  502    0 -0.00000000000E+00 -0.00000000000E+00 -0.46028627264E+02  0.46028627264E+02  0.00000000000E+00 0. -1.
        -24    2    1    2    0    0  0.98094833447E+02  0.34787231840E+02  0.84416879389E+02  0.15721022489E+03  0.82195483066E+02 0.  0.
         23    2    1    2    0    0 -0.11859057030E+03 -0.44039896331E+02  0.71254088246E+03  0.72966724237E+03  0.93255238834E+02 0.  0.
         13    1    3    3    0    0  0.70066773228E+02  0.60229508578E+02  0.45760309562E+02  0.10310650971E+03  0.00000000000E+00 0. -1.
        -14    1    3    3    0    0  0.28028060218E+02 -0.25442276737E+02  0.38656569826E+02  0.54103715177E+02  0.00000000000E+00 0.  1.
        -11    1    4    4    0    0 -0.11496469263E+03 -0.41165814781E+01  0.47253114226E+03  0.48633271245E+03  0.00000000000E+00 0.  1.
         11    1    4    4    0    0 -0.36258776757E+01 -0.39923314853E+02  0.24000974020E+03  0.24333452992E+03  0.00000000000E+00 0. -1.
          4    1    1    2  501    0  0.20495736857E+02  0.92526644905E+01  0.11721787081E+03  0.11935541993E+03  0.00000000000E+00 0. -1.
<scales pt_clust_5="13000.00000" pt_clust_6="13000.00000" pt_clust_7="13000.00000" pt_clust_8="13000.00000" pt_clust_9="22.48749"></scales>
<clustering>
<clus scale="   22.487">  1  9  2 -1</clus>
<clus scale="   82.195">  5  6 -1 -1</clus>
<clus scale="   93.255">  7  8 -1 -1</clus>
<clus scale="  135.162">  2  5  1 -1</clus>
<clus scale="   22.487">  1  5  2 -1</clus>
</clustering>
</event>
<event>
 9    1  0.6675710E-005  0.9266363E+02  0.7546771E-02  0.1303124E+00
         21   -1    0    0  501  502  0.00000000000E+00  0.00000000000E+00  0.37811164407E+02  0.37811164407E+02  0.00000000000E+00 0.  1.
          1   -1    0    0  502    0 -0.00000000000E+00 -0.00000000000E+00 -0.54811392252E+03  0.54811392252E+03  0.00000000000E+00 0. -1.
         23    2    1    2    0    0  0.74889935687E+01 -0.88315969162E+01 -0.37090134210E+03  0.38243697735E+03  0.92499480784E+02 0.  0.
        -24    2    1    2    0    0  0.17207881179E+02 -0.10027120281E+01 -0.15243462539E+03  0.17388213380E+03  0.81863085885E+02 0.  0.
         13    1    4    4    0    0 -0.14263670899E+02 -0.34567634588E+02 -0.61686864163E+02  0.72136279906E+02  0.00000000000E+00 0. -1.
        -14    1    4    4    0    0  0.31471552077E+02  0.33564922560E+02 -0.90747761232E+02  0.10174585390E+03  0.00000000000E+00 0.  1.
        -11    1    3    3    0    0  0.49146418849E+02 -0.57570183595E+01 -0.23942022016E+03  0.24448017419E+03  0.00000000000E+00 0.  1.
         11    1    3    3    0    0 -0.41657425281E+02 -0.30745785567E+01 -0.13148112193E+03  0.13795680316E+03  0.00000000000E+00 0. -1.
          2    1    1    2  501    0 -0.24696874747E+02  0.98343089443E+01  0.13033209381E+02  0.29605975773E+02  0.00000000000E+00 0. -1.
<scales pt_clust_5="13000.00000" pt_clust_6="13000.00000" pt_clust_7="13000.00000" pt_clust_8="13000.00000" pt_clust_9="26.58288"></scales>
<clustering>
<clus scale="   26.583">  1  9  2 -1</clus>
<clus scale="   81.863">  5  6 -1 -1</clus>
<clus scale="   82.049">  1  5  2 -1</clus>
<clus scale="   92.499">  7  8 -1 -1</clus>
<clus scale="   26.583">  1  5  2 -1</clus>
</clustering>
</event>
<event>
 9    1  0.6675710E-005  0.9304879E+02  0.7546771E-02  0.1301434E+00
         -4   -1    0    0    0  501 -0.00000000000E+00  0.00000000000E+00  0.27381846456E+03  0.27381846456E+03  0.00000000000E+00 0.  1.
         21   -1    0    0  501  502  0.00000000000E+00 -0.00000000000E+00 -0.45192985185E+02  0.45192985185E+02  0.00000000000E+00 0.  1.
        -24    2    1    2    0    0  0.13902357242E+02 -0.32502761925E+01  0.15331785626E+03  0.17423567721E+03  0.81534448747E+02 0.  0.
         23    2    1    2    0    0 -0.18164964571E+02  0.28840257973E+02  0.63705610599E+02  0.11635705189E+03  0.91207632817E+02 0.  0.
         13    1    3    3    0    0 -0.17712074849E+02  0.30524989578E+02  0.51873079947E+02  0.62740011216E+02  0.00000000000E+00 0. -1.
        -14    1    3    3    0    0  0.31614432090E+02 -0.33775265771E+02  0.10144477631E+03  0.11149566599E+03  0.00000000000E+00 0.  1.
        -13    1    4    4    0    0 -0.47120258279E+02  0.42540678852E+02  0.52635199349E+02  0.82465097514E+02  0.00000000000E+00 0.  1.
         13    1    4    4    0    0  0.28955293707E+02 -0.13700420879E+02  0.11070411250E+02  0.33891954373E+02  0.00000000000E+00 0. -1.
         -3    1    1    2    0  502  0.42626073292E+01 -0.25589981781E+02  0.11602012514E+02  0.28418720646E+02  0.00000000000E+00 0.  1.
<scales pt_clust_5="13000.00000" pt_clust_6="13000.00000" pt_clust_7="13000.00000" pt_clust_8="13000.00000" pt_clust_9="25.94257"></scales>
<clustering>
<clus scale="   25.943">  2  9  1 -1</clus>
<clus scale="   81.534">  5  6 -1 -1</clus>
<clus scale="   83.589">  1  5  2 -1</clus>
<clus scale="   91.208">  7  8 -1 -1</clus>
<clus scale="   25.943">  2  5  1 -1</clus>
</clustering>
</event>
<event>
 9    1  0.6675710E-005  0.9910869E+02  0.7546771E-02  0.1290957E+00
         21   -1    0    0  501  502  0.00000000000E+00  0.00000000000E+00  0.18776180099E+03  0.18776180099E+03  0.00000000000E+00 0.  1.
         -4   -1    0    0    0  501 -0.00000000000E+00 -0.00000000000E+00 -0.13155162549E+03  0.13155162549E+03  0.00000000000E+00 0.  1.
        -24    2    1    2    0    0 -0.21780401142E+02  0.30141586366E+02 -0.80182666580E+02  0.11844016416E+03  0.78841051256E+02 0.  0.
         23    2    1    2    0    0 -0.56684312428E+01  0.11874114585E+02  0.74934984601E+02  0.12152702252E+03  0.94765181235E+02 0.  0.
         11    1    3    3    0    0  0.18020749992E+02  0.14521542471E+02  0.44988216185E+01  0.23576726278E+02  0.00000000000E+00 0. -1.
        -12    1    3    3    0    0 -0.39801151134E+02  0.15620043894E+02 -0.84681488199E+02  0.94863437880E+02  0.00000000000E+00 0.  1.
        -13    1    4    4    0    0  0.30956889739E+02 -0.26655598994E+02  0.43917584432E+02  0.59980031698E+02  0.00000000000E+00 0. -1.
         13    1    4    4    0    0 -0.36625320982E+02  0.38529713580E+02  0.31017400168E+02  0.61546990818E+02  0.00000000000E+00 0.  1.
         -3    1    1    2    0  502  0.27448832385E+02 -0.42015700951E+02  0.61457857482E+02  0.79346239810E+02  0.00000000000E+00 0.  1.
<scales pt_clust_5="13000.00000" pt_clust_6="13000.00000" pt_clust_7="13000.00000" pt_clust_8="13000.00000" pt_clust_9="50.18722"></scales>
<clustering>
<clus scale="   50.187">  1  9  2 -1</clus>
<clus scale="   78.841">  5  6 -1 -1</clus>
<clus scale="   84.012">  2  5  1 -1</clus>
<clus scale="   94.765">  7  8 -1 -1</clus>
<clus scale="   50.187">  1  5  2 -1</clus>
</clustering>
</event>
<event>
 9    1  0.6675710E-005  0.9506097E+02  0.7546771E-02  0.1299018E+00
          1   -1    0    0  502    0 -0.00000000000E+00  0.00000000000E+00  0.12235581413E+03  0.12235581413E+03  0.00000000000E+00 0. -1.
         21   -1    0    0  501  502  0.00000000000E+00 -0.00000000000E+00 -0.10259113200E+03  0.10259113200E+03  0.00000000000E+00 0. -1.
        -24    2    1    2    0    0 -0.69131297933E+01  0.11115674843E+02  0.33506556830E+02  0.87611765952E+02  0.79886060059E+02 0.  0.
         23    2    1    2    0    0  0.33675469857E+02  0.16783448347E+00  0.10203321324E+02  0.99693277453E+02  0.93276880119E+02 0.  0.
         13    1    3    3    0    0  0.47452751774E+01  0.44490206594E+02  0.24989266775E+02  0.51248020189E+02  0.00000000000E+00 0. -1.
        -14    1    3    3    0    0 -0.11658404971E+02 -0.33374531751E+02  0.85172900549E+01  0.36363745763E+02  0.00000000000E+00 0.  1.
        -13    1    4    4    0    0  0.16030706410E+01  0.35255043084E+02 -0.22626366584E+02  0.41921836352E+02  0.00000000000E+00 0. -1.
         13    1    4    4    0    0  0.32072399216E+02 -0.35087208600E+02  0.32829687908E+02  0.57771441101E+02  0.00000000000E+00 0.  1.
          2    1    1    2  501    0 -0.26762340063E+02 -0.11283509326E+02 -0.23945196019E+02  0.37641902725E+02  0.00000000000E+00 0. -1.
<scales pt_clust_5="13000.00000" pt_clust_6="13000.00000" pt_clust_7="13000.00000" pt_clust_8="13000.00000" pt_clust_9="29.04377"></scales>
<clustering>
<clus scale="   29.044">  2  9  1 -1</clus>
<clus scale="   79.886">  5  6 -1 -1</clus>
<clus scale="   81.962">  1  5  2 -1</clus>
<clus scale="   93.277">  7  8 -1 -1</clus>
<clus scale="   29.044">  2  5  1 -1</clus>
</clustering>
</event>
<event>
 9    1  0.6675710E-005  0.9175166E+02  0.7546771E-02  0.1309893E+00
          1   -1    0    0  502    0 -0.00000000000E+00  0.00000000000E+00  0.52644335064E+03  0.52644335064E+03  0.00000000000E+00 0. -1.
         21   -1    0    0  501  502  0.00000000000E+00 -0.00000000000E+00 -0.19296300122E+02  0.19296300122E+02  0.00000000000E+00 0.  1.
         23    2    1    2    0    0  0.23854915463E+01  0.11853560232E+02  0.33744098056E+03  0.34986020086E+03  0.91594472112E+02 0.  0.
        -24    2    1    2    0    0 -0.36829000432E+01  0.86719842526E+01  0.11414452465E+03  0.13663363519E+03  0.74505105143E+02 0.  0.
         13    1    4    4    0    0  0.40417010478E+01 -0.26583774439E+02  0.88136583346E+02  0.92147109204E+02  0.00000000000E+00 0. -1.
        -14    1    4    4    0    0 -0.77246010911E+01  0.35255758692E+02  0.26007941309E+02  0.44486525984E+02  0.00000000000E+00 0.  1.
        -11    1    3    3    0    0  0.13125531858E+02  0.49595905549E+02  0.22479661460E+03  0.23057656293E+03  0.00000000000E+00 0.  1.
         11    1    3    3    0    0 -0.10740040312E+02 -0.37742345317E+02  0.11264436596E+03  0.11928363793E+03  0.00000000000E+00 0. -1.
          2    1    1    2  501    0  0.12974084970E+01 -0.20525544484E+02  0.55561545298E+02  0.59245814713E+02  0.00000000000E+00 0. -1.
<scales pt_clust_5="13000.00000" pt_clust_6="13000.00000" pt_clust_7="13000.00000" pt_clust_8="13000.00000" pt_clust_9="20.56652"></scales>
<clustering>
<clus scale="   20.567">  2  9  1 -1</clus>
<clus scale="   74.505">  5  6 -1 -1</clus>
<clus scale="   74.698">  2  5  1 -1</clus>
<clus scale="   91.594">  7  8 -1 -1</clus>
<clus scale="   20.567">  2  5  1 -1</clus>
</clustering>
</event>
<event>
 9    1  0.6675710E-005  0.1032787E+03  0.7546771E-02  0.1278818E+00
         -2   -1    0    0    0  501 -0.00000000000E+00  0.00000000000E+00  0.18999996212E+03  0.18999996212E+03  0.00000000000E+00 0.  1.
         21   -1    0    0  501  502  0.00000000000E+00 -0.00000000000E+00 -0.15903284597E+03  0.15903284597E+03  0.00000000000E+00 0.  1.
        -24    2    1    2    0    0  0.15795660461E+02 -0.47924422181E+02  0.13546262632E+03  0.16571217589E+03  0.81019435795E+02 0.  0.
         23    2    1    2    0    0 -0.25492140479E+02  0.21364794176E+02 -0.28350374023E+02  0.10209552941E+03  0.92268357322E+02 0.  0.
         11    1    3    3    0    0  0.48615972835E+02 -0.28609613019E+02  0.92092466185E+02  0.10799557907E+03  0.00000000000E+00 0. -1.
        -12    1    3    3    0    0 -0.32820312374E+02 -0.19314809162E+02  0.43370160135E+02  0.57716596811E+02  0.00000000000E+00 0.  1.
        -13    1    4    4    0    0  0.32228372514E+02  0.10275984722E+02  0.54963679938E+01  0.34270598449E+02  0.00000000000E+00 0. -1.
         13    1    4    4    0    0 -0.57720512994E+02  0.11088809454E+02 -0.33846742016E+02  0.67824930966E+02  0.00000000000E+00 0.  1.
         -1    1    1    2    0  502  0.96964800185E+01  0.26559628005E+02 -0.76145136146E+02  0.81225102789E+02  0.00000000000E+00 0.  1.
<scales pt_clust_5="13000.00000" pt_clust_6="13000.00000" pt_clust_7="13000.00000" pt_clust_8="13000.00000" pt_clust_9="28.27429"></scales>
<clustering>
<clus scale="   28.274">  2  9  1 -1</clus>
<clus scale="   81.019">  5  6 -1 -1</clus>
<clus scale="   92.268">  7  8 -1 -1</clus>
<clus scale="   93.366">  1  5  2 -1</clus>
<clus scale="   28.274">  2  5  1 -1</clus>
</clustering>
</event>
<event>
 9    1  0.6675710E-005  0.9716859E+02  0.7546771E-02  0.1294156E+00
         -2   -1    0    0    0  501 -0.00000000000E+00  0.00000000000E+00  0.26482346126E+03  0.26482346126E+03  0.00000000000E+00 0.  1.
         21   -1    0    0  501  502  0.00000000000E+00 -0.00000000000E+00 -0.18010103988E+03  0.18010103988E+03  0.00000000000E+00 0. -1.
        -24    2    1    2    0    0 -0.28213018079E+01  0.23031290287E+02  0.22885929566E+03  0.24361787906E+03  0.80216542650E+02 0.  0.
         23    2    1    2    0    0  0.16389256487E+02 -0.51439925166E+02 -0.10286103942E+03  0.14939482695E+03  0.93934803241E+02 0.  0.
         11    1    3    3    0    0  0.25822812883E+02  0.41293022195E+02  0.11752999697E+03  0.12722119138E+03  0.00000000000E+00 0. -1.
        -12    1    3    3    0    0 -0.28644114691E+02 -0.18261731908E+02  0.11132929868E+03  0.11639668768E+03  0.00000000000E+00 0.  1.
        -13    1    4    4    0    0  0.27237239437E+02 -0.74069511739E+01  0.82318571393E+01  0.29402272187E+02  0.00000000000E+00 0.  1.
         13    1    4    4    0    0 -0.10847982950E+02 -0.44032973992E+02 -0.11109289656E+03  0.11999255477E+03  0.00000000000E+00 0. -1.
         -1    1    1    2    0  502 -0.13567954679E+02  0.28408634879E+02 -0.41275834852E+02  0.51911795120E+02  0.00000000000E+00 0.  1.
<scales pt_clust_5="13000.00000" pt_clust_6="13000.00000" pt_clust_7="13000.00000" pt_clust_8="13000.00000" pt_clust_9="31.48237"></scales>
<clustering>
<clus scale="   31.482">  2  9  1 -1</clus>
<clus scale="   80.217">  5  6 -1 -1</clus>
<clus scale="   83.980">  1  5  2 -1</clus>
<clus scale="   93.935">  7  8 -1 -1</clus>
<clus scale="   31.482">  2  5  1 -1</clus>
</clustering>
</event>
<event>
 9    1  0.6675710E-005  0.9257427E+02  0.7546771E-02  0.1296886E+00
         -2   -1    0    0    0  501 -0.00000000000E+00  0.00000000000E+00  0.63687177395E+03  0.63687177395E+03  0.00000000000E+00 0.  1.
         21   -1    0    0  501  502  0.00000000000E+00 -0.00000000000E+00 -0.16515687659E+03  0.16515687659E+03  0.00000000000E+00 0.  1.
        -24    2    1    2    0    0 -0.10389244746E+02 -0.22109631974E+02  0.58164693180E+03  0.58894146911E+03  0.89118620606E+02 0.  0.
         23    2    1    2    0    0  0.59011689785E+02  0.90964147183E+01 -0.18385894103E+02  0.10861621992E+03  0.88849973756E+02 0.  0.
         11    1    3    3    0    0  0.22714112652E+02 -0.31338556104E+02  0.12156301114E+03  0.12757586641E+03  0.00000000000E+00 0. -1.
        -12    1    3    3    0    0 -0.33103357399E+02  0.92289241307E+01  0.46008392066E+03  0.46136560271E+03  0.00000000000E+00 0.  1.
        -13    1    4    4    0    0  0.22573449726E+02  0.39319882098E+02 -0.36216847148E+02  0.58028215362E+02  0.00000000000E+00 0. -1.
         13    1    4    4    0    0  0.36438240059E+02 -0.30223467379E+02  0.17830953045E+02  0.50588004562E+02  0.00000000000E+00 0.  1.
         -1    1    1    2    0  502 -0.48622445039E+02  0.13013217255E+02 -0.91546140345E+02  0.10447096150E+03  0.00000000000E+00 0.  1.
<scales pt_clust_5="13000.00000" pt_clust_6="13000.00000" pt_clust_7="13000.00000" pt_clust_8="13000.00000" pt_clust_9="50.33375"></scales>
<clustering>
<clus scale="   50.334">  2  9  1 -1</clus>
<clus scale="   88.850">  7  8 -1 -1</clus>
<clus scale="   89.119">  5  6 -1 -1</clus>
<clus scale="   92.316">  2  7  1 -1</clus>
<clus scale="   50.334">  2  5  1 -1</clus>
</clustering>
</event>
<event>
 9    1  0.6675710E-005  0.9294180E+02  0.7546771E-02  0.1301871E+00
         21   -1    0    0  501  502  0.00000000000E+00  0.00000000000E+00  0.90931149364E+02  0.90931149364E+02  0.00000000000E+00 0. -1.
         -4   -1    0    0    0  501 -0.00000000000E+00 -0.00000000000E+00 -0.17261255500E+03  0.17261255500E+03  0.00000000000E+00 0.  1.
        -24    2    1    2    0    0 -0.14946976709E+02  0.63248464419E+01 -0.91300710219E+02  0.12362309720E+03  0.81752276300E+02 0.  0.
         23    2    1    2    0    0  0.16586696467E+02  0.17927415412E+02 -0.24568946381E+02  0.97971859983E+02  0.91642465589E+02 0.  0.
         13    1    3    3    0    0  0.41337775577E+01  0.21704522239E+02  0.63138575812E+01  0.22979103553E+02  0.00000000000E+00 0. -1.
        -14    1    3    3    0    0 -0.19080754267E+02 -0.15379675797E+02 -0.97614567800E+02  0.10064399365E+03  0.00000000000E+00 0.  1.
        -11    1    4    4    0    0  0.31217074493E+02  0.49484731121E+02 -0.23843928758E+02  0.63180513552E+02  0.00000000000E+00 0. -1.
         11    1    4    4    0    0 -0.14630378026E+02 -0.31557315709E+02 -0.72501762314E+00  0.34791346431E+02  0.00000000000E+00 0.  1.
         -3    1    1    2    0  502 -0.16397197579E+01 -0.24252261854E+02  0.34188250963E+02  0.41948747178E+02  0.00000000000E+00 0.  1.
<scales pt_clust_5="13000.00000" pt_clust_6="13000.00000" pt_clust_7="13000.00000" pt_clust_8="13000.00000" pt_clust_9="24.30763"></scales>
<clustering>
<clus scale="   24.308">  1  9  2 -1</clus>
<clus scale="   81.752">  5  6 -1 -1</clus>
<clus scale="   83.206">  2  5  1 -1</clus>
<clus scale="   91.642">  7  8 -1 -1</clus>
<clus scale="   24.308">  1  5  2 -1</clus>
</clustering>
</event>
<event>
 9    1  0.6675710E-005  0.1032522E+03  0.7546771E-02  0.1278332E+00
          1   -1    0    0  502    0 -0.00000000000E+00  0.00000000000E+00  0.10289531748E+04  0.10289531748E+04  0.00000000000E+00 0. -1.
         21   -1    0    0  501  502  0.00000000000E+00 -0.00000000000E+00 -0.19950968702E+02  0.19950968702E+02  0.00000000000E+00 0. -1.
         23    2    1    2    0    0 -0.47748776858E+02 -0.57924391238E+02  0.49888471547E+03  0.51230712345E+03  0.89092360048E+02 0.  0.
        -24    2    1    2    0    0  0.36162475880E+02 -0.10515776226E+02  0.18969223468E+03  0.20873936261E+03  0.78553621135E+02 0.  0.
         13    1    4    4    0    0 -0.23778472615E+02 -0.12039174094E+02  0.69128553111E+02  0.74088557335E+02  0.00000000000E+00 0. -1.
        -14    1    4    4    0    0  0.59940948495E+02  0.15233978685E+01  0.12056368157E+03  0.13465080527E+03  0.00000000000E+00 0.  1.
        -11    1    3    3    0    0 -0.51213893156E+02  0.19005945620E+01  0.15535461129E+03  0.16358951788E+03  0.00000000000E+00 0.  1.
         11    1    3    3    0    0  0.34651162979E+01 -0.59824985800E+02  0.34353010417E+03  0.34871760556E+03  0.00000000000E+00 0. -1.
          2    1    1    2  501    0  0.11586300978E+02  0.68440167464E+02  0.32042525597E+03  0.32785765746E+03  0.00000000000E+00 0. -1.
<scales pt_clust_5="13000.00000" pt_clust_6="13000.00000" pt_clust_7="13000.00000" pt_clust_8="13000.00000" pt_clust_9="69.41400"></scales>
<clustering>
<clus scale="   69.414">  2  9  1 -1</clus>
<clus scale="   78.554">  5  6 -1 -1</clus>
<clus scale="   89.092">  7  8 -1 -1</clus>
<clus scale="   94.309">  2  5  1 -1</clus>
<clus scale="   69.414">  2  5  1 -1</clus>
</clustering>
</event>
<event>
 9    1  0.6675710E-005  0.1149371E+03  0.7546771E-02  0.1253946E+00
          3   -1    0    0  502    0 -0.00000000000E+00  0.00000000000E+00  0.15854743882E+03  0.15854743882E+03  0.00000000000E+00 0. -1.
         21   -1    0    0  501  502  0.00000000000E+00 -0.00000000000E+00 -0.21894143157E+03  0.21894143157E+03  0.00000000000E+00 0. -1.
        -24    2    1    2    0    0  0.61808357924E+02  0.17493821736E+02 -0.57608240361E+01  0.10311921860E+03  0.80461663192E+02 0.  0.
         23    2    1    2    0    0 -0.10654679610E+03 -0.89698379684E+01 -0.12787188432E+03  0.18812525711E+03  0.87219354572E+02 0.  0.
         13    1    3    3    0    0  0.61336682109E+02  0.43066521399E+02  0.55531716262E+01  0.75151523954E+02  0.00000000000E+00 0. -1.
        -14    1    3    3    0    0  0.47167581511E+00 -0.25572699663E+02 -0.11313995662E+02  0.27967694649E+02  0.00000000000E+00 0.  1.
        -13    1    4    4    0    0 -0.51002545096E+02 -0.49313785076E+01 -0.12175691383E+03  0.13209967512E+03  0.00000000000E+00 0.  1.
         13    1    4    4    0    0 -0.55544251001E+02 -0.40384594609E+01 -0.61149704937E+01  0.56025581998E+02  0.00000000000E+00 0. -1.
          4    1    1    2  501    0  0.44738438173E+02 -0.85239837672E+01  0.73238715603E+02  0.86244394673E+02  0.00000000000E+00 0. -1.
<scales pt_clust_5="13000.00000" pt_clust_6="13000.00000" pt_clust_7="13000.00000" pt_clust_8="13000.00000" pt_clust_9="45.54326"></scales>
<clustering>
<clus scale="   45.543">  2  9  1 -1</clus>
<clus scale="   80.462">  5  6 -1 -1</clus>
<clus scale="   87.219">  7  8 -1 -1</clus>
<clus scale="  109.897">  1  5  2 -1</clus>
<clus scale="   45.543">  2  5  1 -1</clus>
</clustering>
</event>
<event>
 9    1  0.6675710E-005  0.1178227E+03  0.7546771E-02  0.1248136E+00
          1   -1    0    0  502    0 -0.00000000000E+00  0.00000000000E+00  0.64112177421E+03  0.64112177421E+03  0.00000000000E+00 0. -1.
         21   -1    0    0  501  502  0.00000000000E+00 -0.00000000000E+00 -0.41683210448E+02  0.41683210448E+02  0.00000000000E+00 0. -1.
         23    2    1    2    0    0 -0.69509437917E+02 -0.61559527392E+02  0.45961918360E+03  0.47477154909E+03  0.74411642394E+02 0.  0.
        -24    2    1    2    0    0  0.31068377398E+02  0.61312126267E+02  0.63804728531E+02  0.12285125665E+03  0.79353430784E+02 0.  0.
         11    1    4    4    0    0  0.61387305756E+01  0.44867833097E+02 -0.71693456572E+01  0.45849819815E+02  0.00000000000E+00 0. -1.
        -12    1    4    4    0    0  0.24929646822E+02  0.16444293170E+02  0.70974074188E+02  0.77001436840E+02  0.00000000000E+00 0.  1.
        -11    1    3    3    0    0 -0.30278872008E+01 -0.28896047691E+02  0.44838785925E+02  0.53429078190E+02  0.00000000000E+00 0.  1.
         11    1    3    3    0    0 -0.66481550716E+02 -0.32663479701E+02  0.41478039768E+03  0.42134247090E+03  0.00000000000E+00 0. -1.
          2    1    1    2  501    0  0.38441060518E+02  0.24740112486E+00  0.76014651628E+02  0.85182178906E+02  0.00000000000E+00 0. -1.
<scales pt_clust_5="13000.00000" pt_clust_6="13000.00000" pt_clust_7="13000.00000" pt_clust_8="13000.00000" pt_clust_9="38.44188"></scales>
<clustering>
<clus scale="   38.442">  2  9  1 -1</clus>
<clus scale="   74.412">  7  8 -1 -1</clus>
<clus scale="   79.353">  5  6 -1 -1</clus>
<clus scale="  114.553">  1  7  2 -1</clus>
<clus scale="   38.442">  2  5  1 -1</clus>
</clustering>
</event>
<event>
 9    1  0.6675710E-005  0.1847796E+03  0.7546771E-02  0.1192909E+00
          3   -1    0    0  502    0 -0.00000000000E+00  0.00000000000E+00  0.24866606112E+03  0.24866606112E+03  0.00000000000E+00 0. -1.
         21   -1    0    0  501  502  0.00000000000E+00 -0.00000000000E+00 -0.29030026112E+03  0.29030026112E+03  0.00000000000E+00 0.  1.
        -24    2    1    2    0    0 -0.53013573755E+02 -0.69093689250E+01  0.47295656358E+02  0.10581633675E+03  0.78115553069E+02 0.  0.
         23    2    1    2    0    0 -0.17002206504E+02  0.15997549441E+03 -0.16578225096E+03  0.24811555947E+03  0.90533652774E+02 0.  0.
         11    1    3    3    0    0 -0.53846414864E+02 -0.31612493396E+02  0.51256599005E+02  0.80783816907E+02  0.00000000000E+00 0. -1.
        -12    1    3    3    0    0  0.83284110904E+00  0.24703124471E+02 -0.39609426475E+01  0.25032519842E+02  0.00000000000E+00 0.  1.
        -13    1    4    4    0    0  0.16017574708E+02  0.15490341398E+02  0.41129996990E+01  0.22658996948E+02  0.00000000000E+00 0. -1.
         13    1    4    4    0    0 -0.33019781212E+02  0.14448515301E+03 -0.16989525065E+03  0.22545656253E+03  0.00000000000E+00 0.  1.
          4    1    1    2  501    0  0.70015780260E+02 -0.15306612548E+03  0.76852394606E+02  0.18503442602E+03  0.00000000000E+00 0. -1.
<scales pt_clust_5="13000.00000" pt_clust_6="13000.00000" pt_clust_7="13000.00000" pt_clust_8="13000.00000" pt_clust_9="161.08134"></scales>
<clustering>
<clus scale="   78.116">  5  6 -1 -1</clus>
<clus scale="   90.534">  7  8 -1 -1</clus>
<clus scale="   94.658">  1  5  2 -1</clus>
<clus scale="  161.081">  2  9  1 -1</clus>
<clus scale="  161.081">  2  5  1 -1</clus>
</clustering>
</event>
<event>
 9    1  0.6675710E-005  0.9000704E+02  0.7546771E-02  0.1308151E+00
          3   -1    0    0  502    0 -0.00000000000E+00  0.00000000000E+00  0.44403973430E+02  0.44403973430E+02  0.00000000000E+00 0. -1.
         21   -1    0    0  501  502  0.00000000000E+00 -0.00000000000E+00 -0.50982269704E+03  0.50982269704E+03  0.00000000000E+00 0. -1.
        -24    2    1    2    0    0  0.13226794297E+02 -0.34898462633E+00 -0.55146579891E+02  0.98830414821E+02  0.80939704363E+02 0.  0.
         23    2    1    2    0    0  0.46798122661E+02  0.18811581089E+02 -0.11760384207E+03  0.15606601509E+03  0.89342025543E+02 0.  0.
         11    1    3    3    0    0  0.31636269494E+02  0.30212110438E+02 -0.17935760664E+02  0.47279135728E+02  0.00000000000E+00 0. -1.
        -12    1    3    3    0    0 -0.18409475197E+02 -0.30561095064E+02 -0.37210819227E+02  0.51551279093E+02  0.00000000000E+00 0.  1.
        -11    1    4    4    0    0  0.56662037183E+02 -0.12294244845E+02 -0.36170493364E+02  0.68337687291E+02  0.00000000000E+00 0. -1.
         11    1    4    4    0    0 -0.98639145223E+01  0.31105825934E+02 -0.81433348702E+02  0.87728327794E+02  0.00000000000E+00 0.  1.
          4    1    1    2  501    0 -0.60024916958E+02 -0.18462596462E+02 -0.29266830165E+03  0.29933024056E+03  0.00000000000E+00 0. -1.
<scales pt_clust_5="13000.00000" pt_clust_6="13000.00000" pt_clust_7="13000.00000" pt_clust_8="13000.00000" pt_clust_9="62.80014"></scales>
<clustering>
<clus scale="   62.800">  2  9  1 -1</clus>
<clus scale="   80.940">  5  6 -1 -1</clus>
<clus scale="   81.673">  1  5  2 -1</clus>
<clus scale="   89.342">  7  8 -1 -1</clus>
<clus scale="   62.800">  2  5  1 -1</clus>
</clustering>
</event>
<event>
 9    1  0.6675710E-005  0.9123027E+02  0.7546771E-02  0.1307068E+00
          3   -1    0    0  502    0 -0.00000000000E+00  0.00000000000E+00  0.21986508705E+03  0.21986508705E+03  0.00000000000E+00 0. -1.
         21   -1    0    0  501  502  0.00000000000E+00 -0.00000000000E+00 -0.51779992628E+02  0.51779992628E+02  0.00000000000E+00 0. -1.
        -24    2    1    2    0    0 -0.17714406677E+02  0.90781953240E+01  0.11260118708E+03  0.13823047204E+03  0.77668669576E+02 0.  0.
         23    2    1    2    0    0  0.22439767985E+02  0.15862490115E+02  0.31543497010E+02  0.98521770603E+02  0.89198572294E+02 0.  0.
         13    1    3    3    0    0 -0.31010161820E+02  0.37095027729E+02  0.77963585482E+02  0.91738715270E+02  0.00000000000E+00 0. -1.
        -14    1    3    3    0    0  0.13295755142E+02 -0.28016832405E+02  0.34637601600E+02  0.46491756768E+02  0.00000000000E+00 0.  1.
        -11    1    4    4    0    0 -0.33118099922E+02  0.90241667942E+01  0.24347983066E+02  0.42084063589E+02  0.00000000000E+00 0.  1.
         11    1    4    4    0    0  0.55557867906E+02  0.68383233210E+01  0.71955139439E+01  0.56437707015E+02  0.00000000000E+00 0. -1.
          4    1    1    2  501    0 -0.47253613075E+01 -0.24940685439E+02  0.23940410332E+02  0.34892837037E+02  0.00000000000E+00 0. -1.
<scales pt_clust_5="13000.00000" pt_clust_6="13000.00000" pt_clust_7="13000.00000" pt_clust_8="13000.00000" pt_clust_9="25.38439"></scales>
<clustering>
<clus scale="   25.384">  2  9  1 -1</clus>
<clus scale="   77.669">  5  6 -1 -1</clus>
<clus scale="   79.994">  1  5  2 -1</clus>
<clus scale="   89.199">  7  8 -1 -1</clus>
<clus scale="   25.384">  2  5  1 -1</clus>
</clustering>
</event>
<event>
 9    1  0.6675710E-005  0.1139791E+03  0.7546771E-02  0.1257758E+00
         21   -1    0    0  501  502  0.00000000000E+00  0.00000000000E+00  0.92366300369E+02  0.92366300369E+02  0.00000000000E+00 0.  1.
         -2   -1    0    0    0  501 -0.00000000000E+00 -0.00000000000E+00 -0.21742958026E+03  0.21742958026E+03  0.00000000000E+00 0.  1.
        -24    2    1    2    0    0  0.59210627313E+02  0.35484473571E+02 -0.11634307308E+03  0.15689216943E+03  0.79463173370E+02 0.  0.
         23    2    1    2    0    0 -0.43582647098E+02 -0.50270196764E+02  0.22093133038E+02  0.11532295431E+03  0.91568212023E+02 0.  0.
         11    1    3    3    0    0  0.54330414945E+02  0.59511684436E+02 -0.92759430628E+02  0.12287288775E+03  0.00000000000E+00 0. -1.
        -12    1    3    3    0    0  0.48802123677E+01 -0.24027210865E+02 -0.23583642453E+02  0.34019281680E+02  0.00000000000E+00 0.  1.
        -13    1    4    4    0    0 -0.23232219208E+02 -0.48176029595E+02 -0.28604115348E+02  0.60653616971E+02  0.00000000000E+00 0. -1.
         13    1    4    4    0    0 -0.20350427890E+02 -0.20941671695E+01  0.50697248385E+02  0.54669337341E+02  0.00000000000E+00 0.  1.
         -1    1    1    2    0  502 -0.15627980215E+02  0.14785723193E+02 -0.30813339850E+02  0.37580756893E+02  0.00000000000E+00 0.  1.
<scales pt_clust_5="13000.00000" pt_clust_6="13000.00000" pt_clust_7="13000.00000" pt_clust_8="13000.00000" pt_clust_9="21.51399"></scales>
<clustering>
<clus scale="   21.514">  1  9  2 -1</clus>
<clus scale="   79.463">  5  6 -1 -1</clus>
<clus scale="   91.568">  7  8 -1 -1</clus>
<clus scale="  104.503">  2  5  1 -1</clus>
<clus scale="   21.514">  1  5  2 -1</clus>
</clustering>
</event>
<event>
 9    1  0.6675710E-005  0.1006631E+03  0.7546771E-02  0.1283278E+00
         21   -1    0    0  501  502  0.00000000000E+00  0.00000000000E+00  0.47805760647E+03  0.47805760647E+03  0.00000000000E+00 0. -1.
          3   -1    0    0  502    0 -0.00000000000E+00 -0.00000000000E+00 -0.70047848211E+02  0.70047848211E+02  0.00000000000E+00 0. -1.
        -24    2    1    2    0    0  0.30737210913E+02 -0.44281749444E+02 -0.89416556890E+01  0.98021769869E+02  0.81379756041E+02 0.  0.
         23    2    1    2    0    0  0.32827718188E+02  0.85842540128E+01  0.24134211410E+03  0.25994311159E+03  0.90404959637E+02 0.  0.
         11    1    3    3    0    0  0.52186573205E+02 -0.50047773839E+02  0.38172137932E+01  0.72407107457E+02  0.00000000000E+00 0. -1.
        -12    1    3    3    0    0 -0.21449362292E+02  0.57660243951E+01 -0.12758869482E+02  0.25614662413E+02  0.00000000000E+00 0.  1.
        -11    1    4    4    0    0 -0.16929543953E+02 -0.18545136356E+02  0.21957176717E+02  0.33356395943E+02  0.00000000000E+00 0.  1.
         11    1    4    4    0    0  0.49757262141E+02  0.27129390369E+02  0.21938493738E+03  0.22658671565E+03  0.00000000000E+00 0. -1.
          4    1    1    2  501    0 -0.63564929101E+02  0.35697495431E+02  0.17560929985E+03  0.19014057322E+03  0.00000000000E+00 0. -1.
<scales pt_clust_5="13000.00000" pt_clust_6="13000.00000" pt_clust_7="13000.00000" pt_clust_8="13000.00000" pt_clust_9="72.90275"></scales>
<clustering>
<clus scale="   72.903">  1  9  2 -1</clus>
<clus scale="   81.380">  5  6 -1 -1</clus>
<clus scale="   90.405">  7  8 -1 -1</clus>
<clus scale="   92.643">  2  5  1 -1</clus>
<clus scale="   72.903">  1  5  2 -1</clus>
</clustering>
</event>
<event>
 9    1  0.6675710E-005  0.9491046E+02  0.7546771E-02  0.1299481E+00
         21   -1    0    0  501  502  0.00000000000E+00  0.00000000000E+00  0.60843961321E+02  0.60843961321E+02  0.00000000000E+00 0. -1.
         -2   -1    0    0    0  501 -0.00000000000E+00 -0.00000000000E+00 -0.35001575069E+03  0.35001575069E+03  0.00000000000E+00 0.  1.
         23    2    1    2    0    0 -0.89978446481E+01  0.11614245955E+02 -0.20057617991E+03  0.22191467597E+03  0.93805477173E+02 0.  0.
        -24    2    1    2    0    0 -0.10067237045E+02 -0.21128329205E+02  0.13380464543E+02  0.84766752365E+02  0.80365477155E+02 0.  0.
         11    1    4    4    0    0  0.28918364189E+02 -0.99629454390E+01  0.28188506670E+02  0.41594759015E+02  0.00000000000E+00 0. -1.
        -12    1    4    4    0    0 -0.38985601234E+02 -0.11165383766E+02 -0.14808042126E+02  0.43171993350E+02  0.00000000000E+00 0.  1.
        -13    1    3    3    0    0 -0.49380412058E+02 -0.51537820823E+01 -0.86354258283E+02  0.99609459834E+02  0.00000000000E+00 0.  1.
         13    1    3    3    0    0  0.40382567410E+02  0.16768028037E+02 -0.11422192163E+03  0.12230521614E+03  0.00000000000E+00 0. -1.
         -1    1    1    2    0  502  0.19065081693E+02  0.95140832499E+01 -0.10197607400E+03  0.10417828368E+03  0.00000000000E+00 0.  1.
<scales pt_clust_5="13000.00000" pt_clust_6="13000.00000" pt_clust_7="13000.00000" pt_clust_8="13000.00000" pt_clust_9="21.30717"></scales>
<clustering>
<clus scale="   21.307">  1  9  2 -1</clus>
<clus scale="   80.365">  5  6 -1 -1</clus>
<clus scale="   81.653">  1  5  2 -1</clus>
<clus scale="   93.805">  7  8 -1 -1</clus>
<clus scale="   21.307">  1  5  2 -1</clus>
</clustering>
</event>
<event>
 9    1  0.6675710E-005  0.9574616E+02  0.7546771E-02  0.1298991E+00
         21   -1    0    0  501  502  0.00000000000E+00  0.00000000000E+00  0.12353418649E+03  0.12353418649E+03  0.00000000000E+00 0. -1.
          1   -1    0    0  502    0 -0.00000000000E+00 -0.00000000000E+00 -0.22209984101E+03  0.22209984101E+03  0.00000000000E+00 0. -1.
        -24    2    1    2    0    0  0.34077127691E+01 -0.39936542725E+02 -0.14674919292E+03  0.16831405700E+03  0.72026080083E+02 0.  0.
         23    2    1    2    0    0 -0.24723383314E+02  0.15997963361E+02 -0.25372105166E+02  0.97083781083E+02  0.88962555688E+02 0.  0.
         13    1    3    3    0    0 -0.20637438454E+02 -0.51263157339E+02 -0.89326818493E+02  0.10503854373E+03  0.00000000000E+00 0. -1.
        -14    1    3    3    0    0  0.24045151223E+02  0.11326614614E+02 -0.57422374424E+02  0.63275513276E+02  0.00000000000E+00 0.  1.
        -11    1    4    4    0    0  0.24252048024E+02 -0.12069807076E+02  0.11744813469E+02  0.29525966871E+02  0.00000000000E+00 0.  1.
         11    1    4    4    0    0 -0.48975431338E+02  0.28067770438E+02 -0.37116918635E+02  0.67557814212E+02  0.00000000000E+00 0. -1.
          2    1    1    2  501    0  0.21315670545E+02  0.23938579363E+02  0.73555643564E+02  0.80236189421E+02  0.00000000000E+00 0. -1.
<scales pt_clust_5="13000.00000" pt_clust_6="13000.00000" pt_clust_7="13000.00000" pt_clust_8="13000.00000" pt_clust_9="32.05329"></scales>
<clustering>
<clus scale="   32.053">  1  9  2 -1</clus>
<clus scale="   72.026">  5  6 -1 -1</clus>
<clus scale="   80.254">  2  5  1 -1</clus>
<clus scale="   88.963">  7  8 -1 -1</clus>
<clus scale="   32.053">  1  5  2 -1</clus>
</clustering>
</event>
<event>
 9    1  0.6675710E-005  0.1184377E+03  0.7546771E-02  0.1249422E+00
         21   -1    0    0  501  502  0.00000000000E+00  0.00000000000E+00  0.75424251942E+02  0.75424251942E+02  0.00000000000E+00 0. -1.
         -2   -1    0    0    0  501 -0.00000000000E+00 -0.00000000000E+00 -0.28510402709E+03  0.28510402709E+03  0.00000000000E+00 0.  1.
        -24    2    1    2    0    0 -0.71557889126E+02  0.36466107980E+02 -0.19008665038E+03  0.22201950477E+03  0.81911032943E+02 0.  0.
         23    2    1    2    0    0  0.44699816023E+02 -0.31704799024E+02 -0.24670236159E+02  0.11076344647E+03  0.93041134393E+02 0.  0.
         11    1    3    3    0    0 -0.15597277840E+02 -0.20600608049E+02 -0.15817981378E+02  0.30296347352E+02  0.00000000000E+00 0. -1.
        -12    1    3    3    0    0 -0.55960611286E+02  0.57066716029E+02 -0.17426866901E+03  0.19172315742E+03  0.00000000000E+00 0.  1.
        -11    1    4    4    0    0  0.34364462209E+02 -0.23227428985E+00 -0.55651789329E+02  0.65407123999E+02  0.00000000000E+00 0.  1.
         11    1    4    4    0    0  0.10335353814E+02 -0.31472524734E+02  0.30981553171E+02  0.45356322475E+02  0.00000000000E+00 0. -1.
         -1    1    1    2    0  502  0.26858073103E+02 -0.47613089561E+01  0.50771113952E+01  0.27745327785E+02  0.00000000000E+00 0.  1.
<scales pt_clust_5="13000.00000" pt_clust_6="13000.00000" pt_clust_7="13000.00000" pt_clust_8="13000.00000" pt_clust_9="27.27684"></scales>
<clustering>
<clus scale="   27.277">  1  9  2 -1</clus>
<clus scale="   81.911">  5  6 -1 -1</clus>
<clus scale="   93.041">  7  8 -1 -1</clus>
<clus scale="  109.910">  2  5  1 -1</clus>
<clus scale="   27.277">  1  5  2 -1</clus>
</clustering>
</event>
<event>
 9    1  0.6675710E-005  0.9606935E+02  0.7546771E-02  0.1295277E+00
          1   -1    0    0  502    0 -0.00000000000E+00  0.00000000000E+00  0.23905900129E+03  0.23905900129E+03  0.00000000000E+00 0. -1.
         21   -1    0    0  501  502  0.00000000000E+00 -0.00000000000E+00 -0.47210733737E+03  0.47210733737E+03  0.00000000000E+00 0. -1.
        -24    2    1    2    0    0 -0.29628761700E+02 -0.20082221454E+00  0.21750388853E+03  0.23356245476E+03  0.79784553017E+02 0.  0.
         23    2    1    2    0    0  0.28325711042E+02 -0.48863215642E+02 -0.27259058347E+03  0.29299802410E+03  0.91390678851E+02 0.  0.
         13    1    3    3    0    0 -0.50836718699E+02 -0.47577122574E+01  0.19771073226E+03  0.20419731009E+03  0.00000000000E+00 0. -1.
        -14    1    3    3    0    0  0.21207956999E+02  0.45568900428E+01  0.19793156264E+02  0.29365144676E+02  0.00000000000E+00 0.  1.
        -13    1    4    4    0    0  0.41860343802E+02 -0.53043195702E+01 -0.48382953568E+02  0.64197619779E+02  0.00000000000E+00 0.  1.
         13    1    4    4    0    0 -0.13534632760E+02 -0.43558896072E+02 -0.22420762991E+03  0.22880040433E+03  0.00000000000E+00 0. -1.
          2    1    1    2  501    0  0.13030506581E+01  0.49064037856E+02 -0.17796164113E+03  0.18460585979E+03  0.00000000000E+00 0. -1.
<scales pt_clust_5="13000.00000" pt_clust_6="13000.00000" pt_clust_7="13000.00000" pt_clust_8="13000.00000" pt_clust_9="49.08134"></scales>
<clustering>
<clus scale="   49.081">  2  9  1 -1</clus>
<clus scale="   79.785">  5  6 -1 -1</clus>
<clus scale="   85.104">  1  5  2 -1</clus>
<clus scale="   91.391">  7  8 -1 -1</clus>
<clus scale="   49.081">  2  5  1 -1</clus>
</clustering>
</event>
<event>
 9    1  0.6675710E-005  0.2299355E+03  0.7546771E-02  0.1127333E+00
          1   -1    0    0  502    0 -0.00000000000E+00  0.00000000000E+00  0.71656047167E+03  0.71656047167E+03  0.00000000000E+00 0. -1.
         21   -1    0    0  501  502  0.00000000000E+00 -0.00000000000E+00 -0.18712059672E+03  0.18712059672E+03  0.00000000000E+00 0.  1.
        -24    2    1    2    0    0  0.16148933713E+03 -0.12932454527E+03  0.52123495083E+03  0.56654601478E+03  0.80528683564E+02 0.  0.
         23    2    1    2    0    0 -0.14275357609E+03  0.20067314144E+03 -0.42237636017E+01  0.26232781335E+03  0.90275956353E+02 0.  0.
         11    1    3    3    0    0  0.84779004508E+02 -0.10519002949E+03  0.25703045149E+03  0.29037402587E+03  0.00000000000E+00 0. -1.
        -12    1    3    3    0    0  0.76710332621E+02 -0.24134515781E+02  0.26420449935E+03  0.27617198891E+03  0.00000000000E+00 0.  1.
        -13    1    4    4    0    0 -0.38913859206E+02  0.83707217482E+02  0.38764020606E+02  0.10011910902E+03  0.00000000000E+00 0. -1.
         13    1    4    4    0    0 -0.10383971688E+03  0.11696592396E+03 -0.42987784207E+02  0.16220870433E+03  0.00000000000E+00 0.  1.
          2    1    1    2  501    0 -0.18735761042E+02 -0.71348596173E+02  0.12428687714E+02  0.74807240264E+02  0.00000000000E+00 0. -1.
<scales pt_clust_5="13000.00000" pt_clust_6="13000.00000" pt_clust_7="13000.00000" pt_clust_8="13000.00000" pt_clust_9="73.76755"></scales>
<clustering>
<clus scale="   73.768">  2  9  1 -1</clus>
<clus scale="   80.529">  5  6 -1 -1</clus>
<clus scale="   90.276">  7  8 -1 -1</clus>
<clus scale="  226.286">  1  5  2 -1</clus>
<clus scale="   73.768">  2  5  1 -1</clus>
</clustering>
</event>
<event>
 9    1  0.6675710E-005  0.2348264E+03  0.7546771E-02  0.1152287E+00
         21   -1    0    0  501  502  0.00000000000E+00  0.00000000000E+00  0.10162774231E+04  0.10162774231E+04  0.00000000000E+00 0. -1.
          3   -1    0    0  502    0 -0.00000000000E+00 -0.00000000000E+00 -0.11577091484E+03  0.11577091484E+03  0.00000000000E+00 0. -1.
         23    2    1    2    0    0  0.39429661818E+02  0.64440065530E+02  0.51185383027E+03  0.52490774621E+03  0.88467950081E+02 0.  0.
        -24    2    1    2    0    0  0.16772280001E+03 -0.14856010300E+03  0.24394760403E+03  0.34081770202E+03  0.80282193871E+02 0.  0.
         13    1    4    4    0    0  0.16458242066E+03 -0.13304035644E+03  0.18935827352E+03  0.28397828330E+03  0.00000000000E+00 0. -1.
        -14    1    4    4    0    0  0.31403793508E+01 -0.15519746552E+02  0.54589330506E+02  0.56839418722E+02  0.00000000000E+00 0.  1.
        -11    1    3    3    0    0 -0.22497276759E+02 -0.19439221485E+01  0.61983075339E+02  0.65968234199E+02  0.00000000000E+00 0.  1.
         11    1    3    3    0    0  0.61926938577E+02  0.66383987679E+02  0.44987075494E+03  0.45893951201E+03  0.00000000000E+00 0. -1.
          4    1    1    2  501    0 -0.20715246183E+03  0.84120037465E+02  0.14470507392E+03  0.26632288967E+03  0.00000000000E+00 0. -1.
<scales pt_clust_5="13000.00000" pt_clust_6="13000.00000" pt_clust_7="13000.00000" pt_clust_8="13000.00000" pt_clust_9="220.67686"></scales>
<clustering>
<clus scale="   80.282">  5  6 -1 -1</clus>
<clus scale="   88.468">  7  8 -1 -1</clus>
<clus scale="  116.335">  2  7  1 -1</clus>
<clus scale="  220.677">  1  9  2 -1</clus>
<clus scale="  220.677">  1  5  2 -1</clus>
</clustering>
</event>
<event>
 9    1  0.6675710E-005  0.9223752E+02  0.7546771E-02  0.1303518E+00
         -2   -1    0    0    0  501 -0.00000000000E+00  0.00000000000E+00  0.66129051828E+02  0.66129051828E+02  0.00000000000E+00 0.  1.
         21   -1    0    0  501  502  0.00000000000E+00 -0.00000000000E+00 -0.31334812771E+03  0.31334812771E+03  0.00000000000E+00 0. -1.
        -24    2    1    2    0    0 -0.63259047118E+00 -0.11957192992E+02  0.15794625738E+02  0.83233873120E+02  0.80839549711E+02 0.  0.
         23    2    1    2    0    0  0.84391426437E+01  0.44780851966E+02 -0.17998450513E+03  0.20662086328E+03  0.90670917176E+02 0.  0.
         11    1    3    3    0    0  0.14998340382E+02 -0.15463839505E+02  0.45018484889E+02  0.49907359459E+02  0.00000000000E+00 0. -1.
        -12    1    3    3    0    0 -0.15630930853E+02  0.35066465130E+01 -0.29223859151E+02  0.33326513661E+02  0.00000000000E+00 0.  1.
        -11    1    4    4    0    0 -0.20411097846E+02  0.58272406528E+02 -0.15259918183E+03  0.16461712115E+03  0.00000000000E+00 0. -1.
         11    1    4    4    0    0  0.28850240490E+02 -0.13491554561E+02 -0.27385323300E+02  0.42003742132E+02  0.00000000000E+00 0.  1.
         -1    1    1    2    0  502 -0.78065521726E+01 -0.32823658974E+02 -0.83029196487E+02  0.89622443141E+02  0.00000000000E+00 0.  1.
<scales pt_clust_5="13000.00000" pt_clust_6="13000.00000" pt_clust_7="13000.00000" pt_clust_8="13000.00000" pt_clust_9="33.73922"></scales>
<clustering>
<clus scale="   33.739">  2  9  1 -1</clus>
<clus scale="   80.840">  5  6 -1 -1</clus>
<clus scale="   82.593">  1  5  2 -1</clus>
<clus scale="   90.671">  7  8 -1 -1</clus>
<clus scale="   33.739">  2  5  1 -1</clus>
</clustering>
</event>
<event>
 9    1  0.6675710E-005  0.1353609E+03  0.7546771E-02  0.1236576E+00
          3   -1    0    0  502    0 -0.00000000000E+00  0.00000000000E+00  0.64735630613E+03  0.64735630613E+03  0.00000000000E+00 0. -1.
         21   -1    0    0  501  502  0.00000000000E+00 -0.00000000000E+00 -0.60893629822E+02  0.60893629822E+02  0.00000000000E+00 0. -1.
        -24    2    1    2    0    0 -0.40350652670E+02  0.23717313087E+02  0.54497906486E+02  0.10991345515E+03  0.83188098316E+02 0.  0.
         23    2    1    2    0    0  0.37772168155E+01 -0.11776440009E+03  0.43192487866E+03  0.45624337538E+03  0.87841877711E+02 0.  0.
         11    1    3    3    0    0 -0.27775487859E+02  0.72552817046E+01  0.75281346117E+02  0.80569211933E+02  0.00000000000E+00 0. -1.
        -12    1    3    3    0    0 -0.12575164811E+02  0.16462031382E+02 -0.20783439631E+02  0.29344243220E+02  0.00000000000E+00 0.  1.
        -11    1    4    4    0    0  0.36377612718E+01 -0.39177955971E+02  0.38509217571E+02  0.55055475469E+02  0.00000000000E+00 0. -1.
         11    1    4    4    0    0  0.13945554366E+00 -0.78586444116E+02  0.39341566109E+03  0.40118789992E+03  0.00000000000E+00 0.  1.
          4    1    1    2  501    0  0.36573435854E+02  0.94047087000E+02  0.10003989117E+03  0.14209310542E+03  0.00000000000E+00 0. -1.
<scales pt_clust_5="13000.00000" pt_clust_6="13000.00000" pt_clust_7="13000.00000" pt_clust_8="13000.00000" pt_clust_9="102.98728"></scales>
<clustering>
<clus scale="   83.188">  5  6 -1 -1</clus>
<clus scale="   87.842">  7  8 -1 -1</clus>
<clus scale="   95.451">  1  5  2 -1</clus>
<clus scale="  102.987">  2  9  1 -1</clus>
<clus scale="  102.987">  2  5  1 -1</clus>
</clustering>
</event>
<event>
 9    1  0.6675710E-005  0.9439407E+02  0.7546771E-02  0.1297559E+00
         21   -1    0    0  501  502  0.00000000000E+00  0.00000000000E+00  0.25062796440E+03  0.25062796440E+03  0.00000000000E+00 0.  1.
         -2   -1    0    0    0  501 -0.00000000000E+00 -0.00000000000E+00 -0.55196894125E+03  0.55196894125E+03  0.00000000000E+00 0.  1.
        -24    2    1    2    0    0  0.11081367890E+02 -0.27575717636E+02 -0.49173895374E+03  0.49931641761E+03  0.81403128623E+02 0.  0.
         23    2    1    2    0    0  0.11331805499E+02  0.12692413853E+02 -0.17652284814E+02  0.93497804130E+02  0.90225988677E+02 0.  0.
         13    1    3    3    0    0  0.25368991328E+02 -0.57663522957E+01 -0.46249162489E+02  0.53064315418E+02  0.00000000000E+00 0. -1.
        -14    1    3    3    0    0 -0.14287623438E+02 -0.21809365341E+02 -0.44548979125E+03  0.44625210219E+03  0.00000000000E+00 0.  1.
        -11    1    4    4    0    0 -0.27201380025E+01  0.50126443947E+02 -0.18510127916E+02  0.53504059369E+02  0.00000000000E+00 0. -1.
         11    1    4    4    0    0  0.14051943502E+02 -0.37434030093E+02  0.85784310241E+00  0.39993744761E+02  0.00000000000E+00 0.  1.
         -1    1    1    2    0  502 -0.22413173389E+02  0.14883303783E+02  0.20805026171E+03  0.20978268391E+03  0.00000000000E+00 0.  1.
<scales pt_clust_5="13000.00000" pt_clust_6="13000.00000" pt_clust_7="13000.00000" pt_clust_8="13000.00000" pt_clust_9="26.90470"></scales>
<clustering>
<clus scale="   26.905">  1  9  2 -1</clus>
<clus scale="   81.403">  5  6 -1 -1</clus>
<clus scale="   86.000">  2  5  1 -1</clus>
<clus scale="   90.226">  7  8 -1 -1</clus>
<clus scale="   26.905">  1  5  2 -1</clus>
</clustering>
</event>
<event>
 9    1  0.6675710E-005  0.9154690E+02  0.7546771E-02  0.1305838E+00
         21   -1    0    0  501  502  0.00000000000E+00  0.00000000000E+00  0.15545273630E+03  0.15545273630E+03  0.00000000000E+00 0.  1.
         -4   -1    0    0    0  501 -0.00000000000E+00 -0.00000000000E+00 -0.17325133500E+03  0.17325133500E+03  0.00000000000E+00 0.  1.
        -24    2    1    2    0    0  0.57215514454E+01 -0.90345781668E+01 -0.12406054154E+03  0.14782411953E+03  0.79665504412E+02 0.  0.
         23    2    1    2    0    0  0.11464558092E+01  0.43161621131E+02  0.43728561766E+02  0.10931006751E+03  0.90400574363E+02 0.  0.
         13    1    3    3    0    0 -0.26600936465E+02 -0.24818896446E+02 -0.94513990859E+02  0.10127429047E+03  0.00000000000E+00 0. -1.
        -14    1    3    3    0    0  0.32322487911E+02  0.15784318279E+02 -0.29546550678E+02  0.46549829057E+02  0.00000000000E+00 0.  1.
        -13    1    4    4    0    0 -0.41062608308E+02  0.18633285866E+01  0.19158150921E+02  0.45350243011E+02  0.00000000000E+00 0. -1.
         13    1    4    4    0    0  0.42209064117E+02  0.41298292544E+02  0.24570410845E+02  0.63959824498E+02  0.00000000000E+00 0.  1.
         -3    1    1    2    0  502 -0.68680072546E+01 -0.34127042964E+02  0.62533381071E+02  0.71569884262E+02  0.00000000000E+00 0.  1.
<scales pt_clust_5="13000.00000" pt_clust_6="13000.00000" pt_clust_7="13000.00000" pt_clust_8="13000.00000" pt_clust_9="34.81127"></scales>
<clustering>
<clus scale="   34.811">  1  9  2 -1</clus>
<clus scale="   79.666">  5  6 -1 -1</clus>
<clus scale="   80.964">  2  5  1 -1</clus>
<clus scale="   90.401">  7  8 -1 -1</clus>
<clus scale="   34.811">  1  5  2 -1</clus>
</clustering>
</event>
<event>
 9    1  0.6675710E-005  0.1503361E+03  0.7546771E-02  0.1201946E+00
         21   -1    0    0  501  502  0.00000000000E+00  0.00000000000E+00  0.20310750569E+03  0.20310750569E+03  0.00000000000E+00 0.  1.
          1   -1    0    0  502    0 -0.00000000000E+00 -0.00000000000E+00 -0.40206699078E+03  0.40206699078E+03  0.00000000000E+00 0. -1.
        -24    2    1    2    0    0  0.32317890190E+02  0.11083885513E+03 -0.31103205738E+03  0.34474843359E+03  0.93706157275E+02 0.  0.
         23    2    1    2    0    0 -0.57014147303E+02 -0.72525337982E+02 -0.14587499573E+01  0.13808558780E+03  0.10273735428E+03 0.  0.
         13    1    3    3    0    0  0.35593327856E+02  0.42055906295E+01 -0.12770894391E+03  0.13264292795E+03  0.00000000000E+00 0. -1.
        -14    1    3    3    0    0 -0.32754376655E+01  0.10663326450E+03 -0.18332311347E+03  0.21210550564E+03  0.00000000000E+00 0.  1.
        -11    1    4    4    0    0 -0.44038204168E+02 -0.98728169868E+02  0.46899388812E+01  0.10820633289E+03  0.00000000000E+00 0. -1.
         11    1    4    4    0    0 -0.12975943136E+02  0.26202831886E+02 -0.61486888385E+01  0.29879254903E+02  0.00000000000E+00 0.  1.
          2    1    1    2  501    0  0.24696257113E+02 -0.38313517152E+02  0.11353132225E+03  0.12234047508E+03  0.00000000000E+00 0. -1.
<scales pt_clust_5="13000.00000" pt_clust_6="13000.00000" pt_clust_7="13000.00000" pt_clust_8="13000.00000" pt_clust_9="45.58323"></scales>
<clustering>
<clus scale="   45.583">  1  9  2 -1</clus>
<clus scale="   93.706">  5  6 -1 -1</clus>
<clus scale="  102.737">  7  8 -1 -1</clus>
<clus scale="  144.315">  2  5  1 -1</clus>
<clus scale="   45.583">  1  5  2 -1</clus>
</clustering>
</event>
<event>
 9    1  0.6675710E-005  0.9513459E+02  0.7546771E-02  0.1297569E+00
         -4   -1    0    0    0  501 -0.00000000000E+00  0.00000000000E+00  0.12056162704E+03  0.12056162704E+03  0.00000000000E+00 0.  1.
         21   -1    0    0  501  502  0.00000000000E+00 -0.00000000000E+00 -0.22225363272E+03  0.22225363272E+03  0.00000000000E+00 0.  1.
        -24    2    1    2    0    0 -0.19653376088E+02  0.29010685561E+02  0.53033583690E+02  0.10191308021E+03  0.79660779871E+02 0.  0.
         23    2    1    2    0    0 -0.53841878644E+02 -0.14425258679E+02 -0.70324361467E+02  0.12804007601E+03  0.91332958256E+02 0.  0.
         13    1    3    3    0    0  0.22634136112E+02  0.71101032581E+01 -0.75096852638E+01  0.24884795733E+02  0.00000000000E+00 0. -1.
        -14    1    3    3    0    0 -0.42287512200E+02  0.21900582302E+02  0.60543268954E+02  0.77028284473E+02  0.00000000000E+00 0.  1.
        -13    1    4    4    0    0 -0.77793838216E+02 -0.25007977141E+00 -0.60408222338E+02  0.98494147696E+02  0.00000000000E+00 0.  1.
         13    1    4    4    0    0  0.23951959572E+02 -0.14175178908E+02 -0.99161391285E+01  0.29545928309E+02  0.00000000000E+00 0. -1.
         -3    1    1    2    0  502  0.73495254731E+02 -0.14585426881E+02 -0.84401227907E+02  0.11286210355E+03  0.00000000000E+00 0.  1.
<scales pt_clust_5="13000.00000" pt_clust_6="13000.00000" pt_clust_7="13000.00000" pt_clust_8="13000.00000" pt_clust_9="74.92855"></scales>
<clustering>
<clus scale="   74.929">  2  9  1 -1</clus>
<clus scale="   79.661">  5  6 -1 -1</clus>
<clus scale="   83.992">  1  5  2 -1</clus>
<clus scale="   91.333">  7  8 -1 -1</clus>
<clus scale="   74.929">  2  5  1 -1</clus>
</clustering>
</event>
<event>
 9    1  0.6675710E-005  0.1574399E+03  0.7546771E-02  0.1222202E+00
         21   -1    0    0  501  502  0.00000000000E+00  0.00000000000E+00  0.41825683336E+02  0.41825683336E+02  0.00000000000E+00 0. -1.
          1   -1    0    0  502    0 -0.00000000000E+00 -0.00000000000E+00 -0.96169769152E+03  0.96169769152E+03  0.00000000000E+00 0. -1.
        -24    2    1    2    0    0 -0.89174344573E+01 -0.12147828835E+02 -0.20128662938E+03  0.21721635073E+03  0.80246778605E+02 0.  0.
         23    2    1    2    0    0 -0.12662010096E+03  0.13477723416E+02 -0.21804348628E+03  0.26773747402E+03  0.89028613865E+02 0.  0.
         11    1    3    3    0    0 -0.29444280687E+02  0.11802958764E+02 -0.16947086359E+03  0.17241417896E+03  0.00000000000E+00 0. -1.
        -12    1    3    3    0    0  0.20526846230E+02 -0.23950787599E+02 -0.31815765787E+02  0.44802171771E+02  0.00000000000E+00 0.  1.
        -11    1    4    4    0    0 -0.27638236141E+02  0.29900155653E+01  0.27322112845E+00  0.27800844229E+02  0.00000000000E+00 0.  1.
         11    1    4    4    0    0 -0.98981864820E+02  0.10487707851E+02 -0.21831670741E+03  0.23993662979E+03  0.00000000000E+00 0. -1.
          2    1    1    2  501    0  0.13553753542E+03 -0.13298945816E+01 -0.50054189253E+03  0.51856955011E+03  0.00000000000E+00 0. -1.
<scales pt_clust_5="13000.00000" pt_clust_6="13000.00000" pt_clust_7="13000.00000" pt_clust_8="13000.00000" pt_clust_9="129.85085"></scales>
<clustering>
<clus scale="   80.247">  5  6 -1 -1</clus>
<clus scale="   81.649">  2  5  1 -1</clus>
<clus scale="   89.029">  7  8 -1 -1</clus>
<clus scale="  129.851">  1  9  2 -1</clus>
<clus scale="  129.851">  1  5  2 -1</clus>
</clustering>
</event>
<event>
 9    1  0.6675710E-005  0.9280660E+02  0.7546771E-02  0.1304278E+00
         21   -1    0    0  501  502  0.00000000000E+00  0.00000000000E+00  0.13035554934E+03  0.13035554934E+03  0.00000000000E+00 0. -1.
          1   -1    0    0  502    0 -0.00000000000E+00 -0.00000000000E+00 -0.13080319823E+03  0.13080319823E+03  0.00000000000E+00 0. -1.
         23    2    1    2    0    0 -0.13786522359E+02 -0.42863656665E+01 -0.66360794691E+02  0.11435690676E+03  0.92007097130E+02 0.  0.
        -24    2    1    2    0    0 -0.59411899051E+01  0.20660088758E+02  0.65811871029E+01  0.82167772680E+02  0.79032232909E+02 0.  0.
         11    1    4    4    0    0  0.78479120825E+01 -0.23016478979E+02 -0.17936370525E+02  0.30216906133E+02  0.00000000000E+00 0. -1.
        -12    1    4    4    0    0 -0.13789101988E+02  0.43676567737E+02  0.24517557628E+02  0.51950866547E+02  0.00000000000E+00 0.  1.
        -13    1    3    3    0    0 -0.23301364124E+02 -0.45312624778E+02 -0.34200488891E+02  0.61366611237E+02  0.00000000000E+00 0.  1.
         13    1    3    3    0    0  0.95148417642E+01  0.41026259111E+02 -0.32160305800E+02  0.52990295523E+02  0.00000000000E+00 0. -1.
          2    1    1    2  501    0  0.19727712265E+02 -0.16373723092E+02  0.59331958705E+02  0.64634068128E+02  0.00000000000E+00 0. -1.
<scales pt_clust_5="13000.00000" pt_clust_6="13000.00000" pt_clust_7="13000.00000" pt_clust_8="13000.00000" pt_clust_9="25.63750"></scales>
<clustering>
<clus scale="   25.638">  1  9  2 -1</clus>
<clus scale="   79.032">  5  6 -1 -1</clus>
<clus scale="   79.962">  1  5  2 -1</clus>
<clus scale="   92.007">  7  8 -1 -1</clus>
<clus scale="   25.638">  1  5  2 -1</clus>
</clustering>
</event>
<event>
 9    1  0.6675710E-005  0.1021346E+03  0.7546771E-02  0.1280564E+00
          1   -1    0    0  502    0 -0.00000000000E+00  0.00000000000E+00  0.91027236545E+03  0.91027236545E+03  0.00000000000E+00 0. -1.
         21   -1    0    0  501  502  0.00000000000E+00 -0.00000000000E+00 -0.25071055905E+02  0.25071055905E+02  0.00000000000E+00 0. -1.
         23    2    1    2    0    0  0.13211784311E+02 -0.43419024401E+02  0.35304860970E+03  0.36731081152E+03  0.90631939850E+02 0.  0.
        -24    2    1    2    0    0 -0.77106195700E+02 -0.77030486983E+01  0.36793552155E+03  0.38455715151E+03  0.80640885281E+02 0.  0.
         11    1    4    4    0    0 -0.87033895559E+02  0.13600710368E+02  0.30034305576E+03  0.31299493517E+03  0.00000000000E+00 0. -1.
        -12    1    4    4    0    0  0.99276998599E+01 -0.21303759066E+02  0.67592465797E+02  0.71562216339E+02  0.00000000000E+00 0.  1.
        -11    1    3    3    0    0 -0.15576656423E+02  0.22652106114E+02  0.13120011555E+03  0.13404932099E+03  0.00000000000E+00 0.  1.
         11    1    3    3    0    0  0.28788440733E+02 -0.66071130515E+02  0.22184849415E+03  0.23326149053E+03  0.00000000000E+00 0. -1.
          2    1    1    2  501    0  0.63894411389E+02  0.51122073099E+02  0.16421717829E+03  0.18347545833E+03  0.00000000000E+00 0. -1.
<scales pt_clust_5="13000.00000" pt_clust_6="13000.00000" pt_clust_7="13000.00000" pt_clust_8="13000.00000" pt_clust_9="81.82886"></scales>
<clustering>
<clus scale="   80.641">  5  6 -1 -1</clus>
<clus scale="   81.829">  2  9  1 -1</clus>
<clus scale="   90.632">  7  8 -1 -1</clus>
<clus scale="   93.382">  2  5  1 -1</clus>
<clus scale="   81.829">  2  5  1 -1</clus>
</clustering>
</event>
<event>
 9    1  0.6675710E-005  0.1246440E+03  0.7546771E-02  0.1236004E+00
         21   -1    0    0  501  502  0.00000000000E+00  0.00000000000E+00  0.59351666766E+03  0.59351666766E+03  0.00000000000E+00 0. -1.
          1   -1    0    0  502    0 -0.00000000000E+00 -0.00000000000E+00 -0.52508475314E+02  0.52508475314E+02  0.00000000000E+00 0. -1.
        -24    2    1    2    0    0 -0.46338461553E+02  0.11066703684E+03  0.25139463568E+03  0.28918306368E+03  0.77673260578E+02 0.  0.
         23    2    1    2    0    0  0.49014736214E+02 -0.57277148262E+02  0.28346118998E+03  0.30303228220E+03  0.76126222489E+02 0.  0.
         11    1    3    3    0    0 -0.29387944230E+02  0.11653102506E+03  0.23857960187E+03  0.26713920996E+03  0.00000000000E+00 0. -1.
        -12    1    3    3    0    0 -0.16950517323E+02 -0.58639882211E+01  0.12815033805E+02  0.22043853720E+02  0.00000000000E+00 0.  1.
        -13    1    4    4    0    0  0.67198244700E+02 -0.46885056217E+02  0.25397259546E+03  0.26686305820E+03  0.00000000000E+00 0. -1.
         13    1    4    4    0    0 -0.18183508486E+02 -0.10392092045E+02  0.29488594523E+02  0.36169224002E+02  0.00000000000E+00 0.  1.
          2    1    1    2  501    0 -0.26762746610E+01 -0.53389888574E+02  0.61523666887E+01  0.53809797100E+02  0.00000000000E+00 0. -1.
<scales pt_clust_5="13000.00000" pt_clust_6="13000.00000" pt_clust_7="13000.00000" pt_clust_8="13000.00000" pt_clust_9="53.45695"></scales>
<clustering>
<clus scale="   53.457">  1  9  2 -1</clus>
<clus scale="   76.126">  7  8 -1 -1</clus>
<clus scale="   77.673">  5  6 -1 -1</clus>
<clus scale="  123.686">  1  7  2 -1</clus>
<clus scale="   53.457">  1  5  2 -1</clus>
</clustering>
</event>
<event>
 9    1  0.6675710E-005  0.1771762E+03  0.7546771E-02  0.1200584E+00
         21   -1    0    0  501  502  0.00000000000E+00  0.00000000000E+00  0.17036943009E+03  0.17036943009E+03  0.00000000000E+00 0.  1.
         -2   -1    0    0    0  501 -0.00000000000E+00 -0.00000000000E+00 -0.56117178545E+03  0.56117178545E+03  0.00000000000E+00 0.  1.
        -24    2    1    2    0    0 -0.25841319747E+02  0.34366373492E+02 -0.26043481047E+03  0.27581047079E+03  0.79976895784E+02 0.  0.
         23    2    1    2    0    0 -0.12654532961E+03 -0.38974296724E+02 -0.22360340249E+03  0.27702470399E+03  0.95976501103E+02 0.  0.
         13    1    3    3    0    0  0.43382749270E+00  0.39586908458E+02 -0.50474918344E+02  0.64148491092E+02  0.00000000000E+00 0. -1.
        -14    1    3    3    0    0 -0.26275147240E+02 -0.52205349659E+01 -0.20995989212E+03  0.21166197969E+03  0.00000000000E+00 0.  1.
        -11    1    4    4    0    0 -0.79523569911E+01 -0.44004165906E+02 -0.65992042211E+02  0.79715470481E+02  0.00000000000E+00 0. -1.
         11    1    4    4    0    0 -0.11859297262E+03  0.50298691824E+01 -0.15761136028E+03  0.19730923351E+03  0.00000000000E+00 0.  1.
         -1    1    1    2    0  502  0.15238664936E+03  0.46079232313E+01  0.93235857605E+02  0.17870604076E+03  0.00000000000E+00 0.  1.
<scales pt_clust_5="13000.00000" pt_clust_6="13000.00000" pt_clust_7="13000.00000" pt_clust_8="13000.00000" pt_clust_9="148.92923"></scales>
<clustering>
<clus scale="   79.977">  5  6 -1 -1</clus>
<clus scale="   90.803">  2  5  1 -1</clus>
<clus scale="   95.977">  7  8 -1 -1</clus>
<clus scale="  148.929">  1  9  2 -1</clus>
<clus scale="  148.929">  1  5  2 -1</clus>
</clustering>
</event>
<event>
 9    1  0.6675710E-005  0.1380693E+03  0.7546771E-02  0.1231930E+00
         21   -1    0    0  501  502  0.00000000000E+00  0.00000000000E+00  0.22472683302E+03  0.22472683302E+03  0.00000000000E+00 0. -1.
          1   -1    0    0  502    0 -0.00000000000E+00 -0.00000000000E+00 -0.30633595933E+03  0.30633595933E+03  0.00000000000E+00 0. -1.
        -24    2    1    2    0    0 -0.34197090065E+02 -0.46202107495E+02 -0.20871067694E+03  0.23097157870E+03  0.80521101547E+02 0.  0.
         23    2    1    2    0    0  0.13998280675E+02 -0.68564350433E+02 -0.16160322277E+02  0.11542043633E+03  0.90353190839E+02 0.  0.
         13    1    3    3    0    0 -0.62586126466E+01 -0.64570337135E+02 -0.14958753918E+03  0.16304885939E+03  0.00000000000E+00 0. -1.
        -14    1    3    3    0    0 -0.27938477419E+02  0.18368229640E+02 -0.59123137755E+02  0.67922719311E+02  0.00000000000E+00 0.  1.
        -13    1    4    4    0    0 -0.37655957052E+02 -0.17933403856E+02 -0.95591735777E+01  0.42789670189E+02  0.00000000000E+00 0.  1.
         13    1    4    4    0    0  0.51654237727E+02 -0.50630946577E+02 -0.66011486990E+01  0.72630766143E+02  0.00000000000E+00 0. -1.
          2    1    1    2  501    0  0.20198809390E+02  0.11476645793E+03  0.14326187291E+03  0.18467077732E+03  0.00000000000E+00 0. -1.
<scales pt_clust_5="13000.00000" pt_clust_6="13000.00000" pt_clust_7="13000.00000" pt_clust_8="13000.00000" pt_clust_9="104.40041"></scales>
<clustering>
<clus scale="   80.521">  5  6 -1 -1</clus>
<clus scale="   90.353">  7  8 -1 -1</clus>
<clus scale="   98.933">  2  5  1 -1</clus>
<clus scale="  104.400">  1  9  2 -1</clus>
<clus scale="  104.400">  1  5  2 -1</clus>
</clustering>
</event>
<event>
 9    1  0.6675710E-005  0.1222144E+03  0.7546771E-02  0.1258660E+00
          1   -1    0    0  502    0 -0.00000000000E+00  0.00000000000E+00  0.45662003687E+03  0.45662003687E+03  0.00000000000E+00 0. -1.
         21   -1    0    0  501  502  0.00000000000E+00 -0.00000000000E+00 -0.39854602249E+02  0.39854602249E+02  0.00000000000E+00 0.  1.
        -24    2    1    2    0    0  0.78549580131E+01  0.11382499400E+02  0.28379831502E+03  0.29558694610E+03  0.81479429549E+02 0.  0.
         23    2    1    2    0    0 -0.30403909822E+02 -0.16958191544E+02  0.12154950763E+03  0.17500516158E+03  0.12099812305E+03 0.  0.
         13    1    3    3    0    0  0.38605299336E+02 -0.18361299053E+01  0.77624907080E+02  0.86714282037E+02  0.00000000000E+00 0. -1.
        -14    1    3    3    0    0 -0.30750341323E+02  0.13218629305E+02  0.20617340794E+03  0.20887266407E+03  0.00000000000E+00 0.  1.
        -13    1    4    4    0    0  0.25362330760E+02  0.29219027656E+02  0.86090779979E+02  0.94385495687E+02  0.00000000000E+00 0. -1.
         13    1    4    4    0    0 -0.55766240582E+02 -0.46177219201E+02  0.35458727656E+02  0.80619665893E+02  0.00000000000E+00 0.  1.
          2    1    1    2  501    0  0.22548951809E+02  0.55756921448E+01  0.11417611967E+02  0.25882531437E+02  0.00000000000E+00 0. -1.
<scales pt_clust_5="13000.00000" pt_clust_6="13000.00000" pt_clust_7="13000.00000" pt_clust_8="13000.00000" pt_clust_9="23.22808"></scales>
<clustering>
<clus scale="   23.228">  2  9  1 -1</clus>
<clus scale="   81.479">  5  6 -1 -1</clus>
<clus scale="   83.275">  1  5  2 -1</clus>
<clus scale="  120.998">  7  8 -1 -1</clus>
<clus scale="   23.228">  2  5  1 -1</clus>
</clustering>
</event>
<event>
 9    1  0.6675710E-005  0.9256069E+02  0.7546771E-02  0.1301506E+00
         -4   -1    0    0    0  501 -0.00000000000E+00  0.00000000000E+00  0.31795767543E+02  0.31795767543E+02  0.00000000000E+00 0.  1.
         21   -1    0    0  501  502  0.00000000000E+00 -0.00000000000E+00 -0.52319260088E+03  0.52319260088E+03  0.00000000000E+00 0.  1.
        -24    2    1    2    0    0 -0.10095240865E+02  0.51251508983E+02 -0.15943362553E+03  0.18635296301E+03  0.81115441252E+02 0.  0.
         23    2    1    2    0    0  0.20075730712E+02  0.15367786460E+02 -0.18263017983E+03  0.20481204339E+03  0.89190732184E+02 0.  0.
         11    1    3    3    0    0  0.27702216153E+02  0.14533099222E+02 -0.19590883321E+02  0.36911061513E+02  0.00000000000E+00 0. -1.
        -12    1    3    3    0    0 -0.37797457017E+02  0.36718409761E+02 -0.13984274221E+03  0.14944190149E+03  0.00000000000E+00 0.  1.
        -13    1    4    4    0    0  0.10275708318E+02  0.50196433655E+02 -0.13893404003E+03  0.14808085499E+03  0.00000000000E+00 0.  1.
         13    1    4    4    0    0  0.98000223943E+01 -0.34828647195E+02 -0.43696139795E+02  0.56731188401E+02  0.00000000000E+00 0. -1.
         -3    1    1    2    0  502 -0.99804898479E+01 -0.66619295442E+02 -0.14933302798E+03  0.16382336203E+03  0.00000000000E+00 0.  1.
<scales pt_clust_5="13000.00000" pt_clust_6="13000.00000" pt_clust_7="13000.00000" pt_clust_8="13000.00000" pt_clust_9="67.36275"></scales>
<clustering>
<clus scale="   67.363">  2  9  1 -1</clus>
<clus scale="   81.115">  5  6 -1 -1</clus>
<clus scale="   84.807">  1  5  2 -1</clus>
<clus scale="   89.191">  7  8 -1 -1</clus>
<clus scale="   67.363">  2  5  1 -1</clus>
</clustering>
</event>
<event>
 9    1  0.6675710E-005  0.9248238E+02  0.7546771E-02  0.1305910E+00
         21   -1    0    0  501  502  0.00000000000E+00  0.00000000000E+00  0.14370765630E+03  0.14370765630E+03  0.00000000000E+00 0. -1.
          1   -1    0    0  502    0 -0.00000000000E+00 -0.00000000000E+00 -0.24326714994E+03  0.24326714994E+03  0.00000000000E+00 0. -1.
        -24    2    1    2    0    0  0.11706821340E+02 -0.98192140611E+01 -0.18629109657E+03  0.20209296371E+03  0.76835712312E+02 0.  0.
         23    2    1    2    0    0  0.24429316913E+02  0.50930323640E+02  0.68298896469E+02  0.12712624985E+03  0.91135364987E+02 0.  0.
         13    1    3    3    0    0  0.34778574024E+02 -0.31198956138E+02 -0.11766469244E+03  0.12660135830E+03  0.00000000000E+00 0. -1.
        -14    1    3    3    0    0 -0.23071752684E+02  0.21379742077E+02 -0.68626404129E+02  0.75491605407E+02  0.00000000000E+00 0.  1.
        -11    1    4    4    0    0  0.21778890962E+02  0.23911273968E+02  0.87886585114E+02  0.93648923952E+02  0.00000000000E+00 0. -1.
         11    1    4    4    0    0  0.26504259513E+01  0.27019049671E+02 -0.19587688645E+02  0.33477325899E+02  0.00000000000E+00 0.  1.
          2    1    1    2  501    0 -0.36136138253E+02 -0.41111109579E+02  0.18432706469E+02  0.57755592685E+02  0.00000000000E+00 0. -1.
<scales pt_clust_5="13000.00000" pt_clust_6="13000.00000" pt_clust_7="13000.00000" pt_clust_8="13000.00000" pt_clust_9="54.73522"></scales>
<clustering>
<clus scale="   54.735">  1  9  2 -1</clus>
<clus scale="   76.836">  5  6 -1 -1</clus>
<clus scale="   78.429">  2  5  1 -1</clus>
<clus scale="   91.135">  7  8 -1 -1</clus>
<clus scale="   54.735">  1  5  2 -1</clus>
</clustering>
</event>
<event>
 9    1  0.6675710E-005  0.9751253E+02  0.7546771E-02  0.1292131E+00
         21   -1    0    0  501  502  0.00000000000E+00  0.00000000000E+00  0.59974749510E+02  0.59974749510E+02  0.00000000000E+00 0. -1.
          3   -1    0    0  502    0 -0.00000000000E+00 -0.00000000000E+00 -0.35072959270E+03  0.35072959270E+03  0.00000000000E+00 0. -1.
         23    2    1    2    0    0 -0.45827822797E+01  0.29972073460E+02 -0.24918479487E+03  0.26769757721E+03  0.93003246031E+02 0.  0.
        -24    2    1    2    0    0  0.29066321487E+02 -0.19313745888E+02 -0.63215451356E+02  0.10863283431E+03  0.81160505024E+02 0.  0.
         13    1    4    4    0    0  0.11965486272E+02  0.26361952693E+02 -0.20379605039E+00  0.28951113007E+02  0.00000000000E+00 0. -1.
        -14    1    4    4    0    0  0.17100835214E+02 -0.45675698581E+02 -0.63011655305E+02  0.79681721306E+02  0.00000000000E+00 0.  1.
        -11    1    3    3    0    0  0.26905335960E+02  0.52358955513E+02 -0.13971902630E+03  0.15161386360E+03  0.00000000000E+00 0. -1.
         11    1    3    3    0    0 -0.31488118240E+02 -0.22386882054E+02 -0.10946576856E+03  0.11608371361E+03  0.00000000000E+00 0.  1.
          4    1    1    2  501    0 -0.24483539207E+02 -0.10658327572E+02  0.21645403028E+02  0.34373930688E+02  0.00000000000E+00 0. -1.
<scales pt_clust_5="13000.00000" pt_clust_6="13000.00000" pt_clust_7="13000.00000" pt_clust_8="13000.00000" pt_clust_9="26.70288"></scales>
<clustering>
<clus scale="   26.703">  1  9  2 -1</clus>
<clus scale="   81.161">  5  6 -1 -1</clus>
<clus scale="   86.291">  1  5  2 -1</clus>
<clus scale="   93.003">  7  8 -1 -1</clus>
<clus scale="   26.703">  1  5  2 -1</clus>
</clustering>
</event>
<event>
 9    1  0.6675710E-005  0.1188877E+03  0.7546771E-02  0.1247999E+00
         21   -1    0    0  501  502  0.00000000000E+00  0.00000000000E+00  0.22923146643E+03  0.22923146643E+03  0.00000000000E+00 0.  1.
         -2   -1    0    0    0  501 -0.00000000000E+00 -0.00000000000E+00 -0.39391270520E+03  0.39391270520E+03  0.00000000000E+00 0.  1.
         23    2    1    2    0    0  0.33726697822E+02 -0.36327029127E+02  0.55281665069E+02  0.11697627665E+03  0.90389399902E+02 0.  0.
        -24    2    1    2    0    0 -0.95123171472E+02  0.76917676325E+02  0.10023489653E+03  0.17761993960E+03  0.80852098172E+02 0.  0.
         11    1    4    4    0    0 -0.71536463869E+02  0.76528102808E+02  0.38629381344E+02  0.11165234115E+03  0.00000000000E+00 0. -1.
        -12    1    4    4    0    0 -0.23586707603E+02  0.38957351691E+00  0.61605515190E+02  0.65967598447E+02  0.00000000000E+00 0.  1.
        -11    1    3    3    0    0  0.58540786290E+02 -0.24997751023E+01  0.19252614972E+02  0.61676054658E+02  0.00000000000E+00 0.  1.
         11    1    3    3    0    0 -0.24814088468E+02 -0.33827254024E+02  0.36029050097E+02  0.55300221990E+02  0.00000000000E+00 0. -1.
         -1    1    1    2    0  502  0.61396473650E+02 -0.40590647198E+02 -0.32019780038E+03  0.32854795538E+03  0.00000000000E+00 0.  1.
<scales pt_clust_5="13000.00000" pt_clust_6="13000.00000" pt_clust_7="13000.00000" pt_clust_8="13000.00000" pt_clust_9="73.60118"></scales>
<clustering>
<clus scale="   73.601">  1  9  2 -1</clus>
<clus scale="   80.852">  5  6 -1 -1</clus>
<clus scale="   90.389">  7  8 -1 -1</clus>
<clus scale="  111.808">  1  5  2 -1</clus>
<clus scale="   73.601">  1  5  2 -1</clus>
</clustering>
</event>
<event>
 9    1  0.6675710E-005  0.1087704E+03  0.7546771E-02  0.1266822E+00
         21   -1    0    0  501  502  0.00000000000E+00  0.00000000000E+00  0.77258781786E+02  0.77258781786E+02  0.00000000000E+00 0.  1.
          1   -1    0    0  502    0 -0.00000000000E+00 -0.00000000000E+00 -0.47710450043E+03  0.47710450043E+03  0.00000000000E+00 0. -1.
        -24    2    1    2    0    0  0.50832943175E+02  0.68875576299E+01 -0.11296002486E+03  0.16107948652E+03  0.10273853804E+03 0.  0.
         23    2    1    2    0    0  0.78266610439E+01 -0.36517309742E+02 -0.24013826051E+01  0.10130743590E+03  0.94141698495E+02 0.  0.
         11    1    3    3    0    0 -0.15636716449E+02  0.38070631379E+02 -0.45800783105E+02  0.61575901194E+02  0.00000000000E+00 0. -1.
        -12    1    3    3    0    0  0.66469659623E+02 -0.31183073749E+02 -0.67159241755E+02  0.99503585322E+02  0.00000000000E+00 0.  1.
        -13    1    4    4    0    0  0.54672871043E+01  0.26589249031E+02  0.20622528358E+02  0.34090586210E+02  0.00000000000E+00 0.  1.
         13    1    4    4    0    0  0.23593739396E+01 -0.63106558773E+02 -0.23023910963E+02  0.67216849685E+02  0.00000000000E+00 0. -1.
          2    1    1    2  501    0 -0.58659604218E+02  0.29629752113E+02 -0.28448431118E+03  0.29197635980E+03  0.00000000000E+00 0. -1.
<scales pt_clust_5="13000.00000" pt_clust_6="13000.00000" pt_clust_7="13000.00000" pt_clust_8="13000.00000" pt_clust_9="65.71815"></scales>
<clustering>
<clus scale="   65.718">  1  9  2 -1</clus>
<clus scale="   94.142">  7  8 -1 -1</clus>
<clus scale="  100.690">  1  7  2 -1</clus>
<clus scale="  102.739">  5  6 -1 -1</clus>
<clus scale="   65.718">  1  5  2 -1</clus>
</clustering>
</event>
<event>
 9    1  0.6675710E-005  0.9578475E+02  0.7546771E-02  0.1294913E+00
          1   -1    0    0  502    0 -0.00000000000E+00  0.00000000000E+00  0.72308724542E+03  0.72308724542E+03  0.00000000000E+00 0. -1.
         21   -1    0    0  501  502  0.00000000000E+00 -0.00000000000E+00 -0.73735879307E+02  0.73735879307E+02  0.00000000000E+00 0. -1.
        -24    2    1    2    0    0  0.19186391980E+02  0.14328042846E+02  0.55374710588E+03  0.56020821723E+03  0.81387830319E+02 0.  0.
         23    2    1    2    0    0 -0.26033695133E+02 -0.79017381204E+02  0.11499796290E+03  0.16873477962E+03  0.91243600142E+02 0.  0.
         13    1    3    3    0    0 -0.71405367579E+01 -0.30864535233E+02  0.17175388595E+03  0.17465109258E+03  0.00000000000E+00 0. -1.
        -14    1    3    3    0    0  0.26326928738E+02  0.45192578079E+02  0.38199321993E+03  0.38555712464E+03  0.00000000000E+00 0.  1.
        -11    1    4    4    0    0 -0.13750065655E+02  0.17910276866E+02  0.38557053860E+02  0.44682085060E+02  0.00000000000E+00 0.  1.
         11    1    4    4    0    0 -0.12283629478E+02 -0.96927658070E+02  0.76440909040E+02  0.12405269456E+03  0.00000000000E+00 0. -1.
          2    1    1    2  501    0  0.68473031528E+01  0.64689338358E+02 -0.19393702673E+02  0.67880127880E+02  0.00000000000E+00 0. -1.
<scales pt_clust_5="13000.00000" pt_clust_6="13000.00000" pt_clust_7="13000.00000" pt_clust_8="13000.00000" pt_clust_9="65.05072"></scales>
<clustering>
<clus scale="   65.051">  2  9  1 -1</clus>
<clus scale="   81.388">  5  6 -1 -1</clus>
<clus scale="   86.448">  1  5  2 -1</clus>
<clus scale="   91.244">  7  8 -1 -1</clus>
<clus scale="   65.051">  2  5  1 -1</clus>
</clustering>
</event>
<event>
 9    1  0.6675710E-005  0.1361136E+03  0.7546771E-02  0.1225229E+00
         21   -1    0    0  501  502  0.00000000000E+00  0.00000000000E+00  0.85034778698E+02  0.85034778698E+02  0.00000000000E+00 0. -1.
         -4   -1    0    0    0  501 -0.00000000000E+00 -0.00000000000E+00 -0.30292360019E+03  0.30292360019E+03  0.00000000000E+00 0.  1.
         23    2    1    2    0    0  0.23814632473E+02 -0.10359901495E+03 -0.12907680488E+03  0.18852651912E+03  0.87072006039E+02 0.  0.
        -24    2    1    2    0    0  0.10653145758E+02  0.10475126339E+03 -0.17859859849E+02  0.12054229163E+03  0.55903065928E+02 0.  0.
         11    1    4    4    0    0 -0.16005914449E+01  0.96761850724E+02 -0.30228066848E+02  0.10138616116E+03  0.00000000000E+00 0. -1.
        -12    1    4    4    0    0  0.12253737203E+02  0.79894126660E+01  0.12368207000E+02  0.19156130470E+02  0.00000000000E+00 0.  1.
        -13    1    3    3    0    0 -0.86026495883E+01 -0.10109450251E+03 -0.77990987588E+02  0.12797147402E+03  0.00000000000E+00 0.  1.
         13    1    3    3    0    0  0.32417282061E+02 -0.25045124381E+01 -0.51085817296E+02  0.60555045104E+02  0.00000000000E+00 0. -1.
         -3    1    1    2    0  502 -0.34467778231E+02 -0.11522484426E+01 -0.70952156760E+02  0.78889568142E+02  0.00000000000E+00 0.  1.
<scales pt_clust_5="13000.00000" pt_clust_6="13000.00000" pt_clust_7="13000.00000" pt_clust_8="13000.00000" pt_clust_9="34.48705"></scales>
<clustering>
<clus scale="   34.487">  1  9  2 -1</clus>
<clus scale="   55.903">  5  6 -1 -1</clus>
<clus scale="   87.072">  7  8 -1 -1</clus>
<clus scale="  118.619">  1  5  2 -1</clus>
<clus scale="   34.487">  1  5  2 -1</clus>
</clustering>
</event>
<event>
 9    1  0.6675710E-005  0.2551541E+03  0.7546771E-02  0.1148670E+00
         21   -1    0    0  501  502  0.00000000000E+00  0.00000000000E+00  0.22616562711E+03  0.22616562711E+03  0.00000000000E+00 0. -1.
          1   -1    0    0  502    0 -0.00000000000E+00 -0.00000000000E+00 -0.13933053978E+04  0.13933053978E+04  0.00000000000E+00 0. -1.
        -24    2    1    2    0    0 -0.54570073372E+02  0.15376409237E+00 -0.40472469791E+03  0.41660790361E+03  0.82353795937E+02 0.  0.
         23    2    1    2    0    0  0.11084843313E+03 -0.23100815253E+03 -0.89181984599E+03  0.93229594333E+03  0.90448585316E+02 0.  0.
         13    1    3    3    0    0  0.18201454582E+02  0.13278066864E+02 -0.61215400830E+02  0.65229788496E+02  0.00000000000E+00 0. -1.
        -14    1    3    3    0    0 -0.72771527954E+02 -0.13124302772E+02 -0.34350929708E+03  0.35137811512E+03  0.00000000000E+00 0.  1.
        -13    1    4    4    0    0  0.11010189180E+03 -0.20420397749E+03 -0.85970979537E+03  0.89046202797E+03  0.00000000000E+00 0. -1.
         13    1    4    4    0    0  0.74654132456E+00 -0.26804175039E+02 -0.32110050617E+02  0.41833915357E+02  0.00000000000E+00 0.  1.
          2    1    1    2  501    0 -0.56278359754E+02  0.23085438844E+03  0.12940477324E+03  0.27056717793E+03  0.00000000000E+00 0. -1.
<scales pt_clust_5="13000.00000" pt_clust_6="13000.00000" pt_clust_7="13000.00000" pt_clust_8="13000.00000" pt_clust_9="238.58468"></scales>
<clustering>
<clus scale="   82.354">  5  6 -1 -1</clus>
<clus scale="   90.449">  7  8 -1 -1</clus>
<clus scale="   98.793">  2  5  1 -1</clus>
<clus scale="  238.585">  1  9  2 -1</clus>
<clus scale="  238.585">  1  5  2 -1</clus>
</clustering>
</event>
<event>
 9    1  0.6675710E-005  0.8996642E+02  0.7546771E-02  0.1309309E+00
         21   -1    0    0  501  502  0.00000000000E+00  0.00000000000E+00  0.76930849033E+03  0.76930849033E+03  0.00000000000E+00 0. -1.
          3   -1    0    0  502    0 -0.00000000000E+00 -0.00000000000E+00 -0.61829948972E+02  0.61829948972E+02  0.00000000000E+00 0. -1.
        -24    2    1    2    0    0 -0.10069752779E+02 -0.14979814187E+01  0.85548576567E+00  0.80531525387E+02  0.79880854126E+02 0.  0.
         23    2    1    2    0    0 -0.58618507413E+02 -0.22175178917E+02  0.13243277247E+03  0.17183841370E+03  0.89789382600E+02 0.  0.
         13    1    3    3    0    0  0.29428747882E+02  0.19713547029E+02 -0.29054736316E+01  0.35540356152E+02  0.00000000000E+00 0. -1.
        -14    1    3    3    0    0 -0.39498500661E+02 -0.21211528448E+02  0.37609593972E+01  0.44991169235E+02  0.00000000000E+00 0.  1.
        -13    1    4    4    0    0 -0.69275290253E+02  0.13314227985E+02  0.70939993134E+02  0.10004407595E+03  0.00000000000E+00 0. -1.
         13    1    4    4    0    0  0.10656782840E+02 -0.35489406901E+02  0.61492779340E+02  0.71794337755E+02  0.00000000000E+00 0.  1.
          4    1    1    2  501    0  0.68688260192E+02  0.23673160336E+02  0.57419028311E+03  0.57876850021E+03  0.00000000000E+00 0. -1.
<scales pt_clust_5="13000.00000" pt_clust_6="13000.00000" pt_clust_7="13000.00000" pt_clust_8="13000.00000" pt_clust_9="72.65326"></scales>
<clustering>
<clus scale="   72.653">  1  9  2 -1</clus>
<clus scale="   79.881">  5  6 -1 -1</clus>
<clus scale="   80.080">  2  5  1 -1</clus>
<clus scale="   89.789">  7  8 -1 -1</clus>
<clus scale="   72.653">  1  5  2 -1</clus>
</clustering>
</event>
<event>
 9    1  0.6675710E-005  0.1063811E+03  0.7546771E-02  0.1271819E+00
         -2   -1    0    0    0  501 -0.00000000000E+00  0.00000000000E+00  0.36387460890E+03  0.36387460890E+03  0.00000000000E+00 0.  1.
         21   -1    0    0  501  502  0.00000000000E+00 -0.00000000000E+00 -0.11822604615E+03  0.11822604615E+03  0.00000000000E+00 0. -1.
         23    2    1    2    0    0 -0.34263297628E+02 -0.42287520877E+02  0.31232941881E+03  0.32964884926E+03  0.90313287939E+02 0.  0.
        -24    2    1    2    0    0  0.41685421273E+02  0.64494106896E+02 -0.66076117312E+02  0.12902989103E+03  0.79909294392E+02 0.  0.
         13    1    4    4    0    0  0.58179104509E+02  0.69510659143E+02 -0.65403138508E+02  0.11177705696E+03  0.00000000000E+00 0. -1.
        -14    1    4    4    0    0 -0.16493683236E+02 -0.50165522469E+01 -0.67297880408E+00  0.17252834074E+02  0.00000000000E+00 0.  1.
        -13    1    3    3    0    0 -0.31830633983E+02 -0.70360585469E+02  0.23285972851E+03  0.24533131559E+03  0.00000000000E+00 0.  1.
         13    1    3    3    0    0 -0.24326636454E+01  0.28073064591E+02  0.79469690295E+02  0.84317533666E+02  0.00000000000E+00 0. -1.
         -1    1    1    2    0  502 -0.74221236449E+01 -0.22206586019E+02 -0.60473874768E+00  0.23421914759E+02  0.00000000000E+00 0.  1.
<scales pt_clust_5="13000.00000" pt_clust_6="13000.00000" pt_clust_7="13000.00000" pt_clust_8="13000.00000" pt_clust_9="23.41411"></scales>
<clustering>
<clus scale="   23.414">  2  9  1 -1</clus>
<clus scale="   79.909">  5  6 -1 -1</clus>
<clus scale="   90.313">  7  8 -1 -1</clus>
<clus scale="   97.703">  2  5  1 -1</clus>
<clus scale="   23.414">  2  5  1 -1</clus>
</clustering>
</event>
<event>
 9    1  0.6675710E-005  0.1255197E+03  0.7546771E-02  0.1237873E+00
          1   -1    0    0  502    0 -0.00000000000E+00  0.00000000000E+00  0.14012752292E+03  0.14012752292E+03  0.00000000000E+00 0. -1.
         21   -1    0    0  501  502  0.00000000000E+00 -0.00000000000E+00 -0.36088854073E+03  0.36088854073E+03  0.00000000000E+00 0. -1.
        -24    2    1    2    0    0 -0.31154301247E+02 -0.87172379473E+02  0.90778625769E+02  0.15132138000E+03  0.78024271350E+02 0.  0.
         23    2    1    2    0    0  0.39285400274E+02  0.36524371058E+02 -0.18192987072E+03  0.21030304563E+03  0.90837881875E+02 0.  0.
         11    1    3    3    0    0 -0.16833192061E+02 -0.95361533170E+02  0.93491643759E+02  0.13460262188E+03  0.00000000000E+00 0. -1.
        -12    1    3    3    0    0 -0.14321109185E+02  0.81891536976E+01 -0.27130179894E+01  0.16718758124E+02  0.00000000000E+00 0.  1.
        -11    1    4    4    0    0  0.50947231746E+00  0.30930142441E+02 -0.16456933907E+03  0.16745148741E+03  0.00000000000E+00 0.  1.
         11    1    4    4    0    0  0.38775927956E+02  0.55942286169E+01 -0.17360531654E+02  0.42851558222E+02  0.00000000000E+00 0. -1.
          2    1    1    2  501    0 -0.81310990270E+01  0.50648008414E+02 -0.12960977287E+03  0.13939163802E+03  0.00000000000E+00 0. -1.
<scales pt_clust_5="13000.00000" pt_clust_6="13000.00000" pt_clust_7="13000.00000" pt_clust_8="13000.00000" pt_clust_9="51.29654"></scales>
<clustering>
<clus scale="   51.297">  2  9  1 -1</clus>
<clus scale="   78.024">  5  6 -1 -1</clus>
<clus scale="   90.838">  7  8 -1 -1</clus>
<clus scale="  116.582">  1  5  2 -1</clus>
<clus scale="   51.297">  2  5  1 -1</clus>
</clustering>
</event>
<event>
 9    1  0.6675710E-005  0.9324965E+02  0.7546771E-02  0.1304129E+00
         21   -1    0    0  501  502  0.00000000000E+00  0.00000000000E+00  0.44262320047E+03  0.44262320047E+03  0.00000000000E+00 0. -1.
         -4   -1    0    0    0  501 -0.00000000000E+00 -0.00000000000E+00 -0.77765755153E+02  0.77765755153E+02  0.00000000000E+00 0.  1.
        -24    2    1    2    0    0  0.53966497710E+01 -0.39871950560E+01 -0.44272721142E+02  0.90662696088E+02  0.78832918704E+02 0.  0.
         23    2    1    2    0    0 -0.70484756437E+01 -0.29225610142E+02  0.29049858788E+03  0.30652207781E+03  0.93072752885E+02 0.  0.
         11    1    3    3    0    0  0.12322237117E+01 -0.31081398323E+02 -0.53375931636E+02  0.61778327713E+02  0.00000000000E+00 0. -1.
        -12    1    3    3    0    0  0.41644260593E+01  0.27094203267E+02  0.91032104942E+01  0.28884368374E+02  0.00000000000E+00 0.  1.
        -11    1    4    4    0    0 -0.36843167538E+02  0.13847887248E+02  0.17981712166E+03  0.18407438773E+03  0.00000000000E+00 0. -1.
         11    1    4    4    0    0  0.29794691894E+02 -0.43073497390E+02  0.11068146622E+03  0.12244769008E+03  0.00000000000E+00 0.  1.
         -3    1    1    2    0  502  0.16518258727E+01  0.33212805198E+02  0.11863157858E+03  0.12320418173E+03  0.00000000000E+00 0.  1.
<scales pt_clust_5="13000.00000" pt_clust_6="13000.00000" pt_clust_7="13000.00000" pt_clust_8="13000.00000" pt_clust_9="33.25386"></scales>
<clustering>
<clus scale="   33.254">  1  9  2 -1</clus>
<clus scale="   78.833">  5  6 -1 -1</clus>
<clus scale="   79.042">  2  5  1 -1</clus>
<clus scale="   93.073">  7  8 -1 -1</clus>
<clus scale="   33.254">  1  5  2 -1</clus>
</clustering>
</event>
<event>
 9    1  0.6675710E-005  0.1131086E+03  0.7546771E-02  0.1258966E+00
         21   -1    0    0  501  502  0.00000000000E+00  0.00000000000E+00  0.33113418102E+02  0.33113418102E+02  0.00000000000E+00 0. -1.
          1   -1    0    0  502    0 -0.00000000000E+00 -0.00000000000E+00 -0.79783345954E+03  0.79783345954E+03  0.00000000000E+00 0. -1.
        -24    2    1    2    0    0  0.12787781423E+02  0.70163193609E+02 -0.47517687777E+03  0.48758404551E+03  0.82817481111E+02 0.  0.
         23    2    1    2    0    0  0.51070406196E+02 -0.45693755848E+02 -0.19016749324E+03  0.22273055874E+03  0.93536733957E+02 0.  0.
         13    1    3    3    0    0  0.19568728444E+02 -0.74126116353E+01 -0.36704692955E+02  0.42250638209E+02  0.00000000000E+00 0. -1.
        -14    1    3    3    0    0 -0.67809470206E+01  0.77575805244E+02 -0.43847218482E+03  0.44533340730E+03  0.00000000000E+00 0.  1.
        -13    1    4    4    0    0  0.20240578016E+02  0.12711628742E+02 -0.28002869108E+01  0.24064665185E+02  0.00000000000E+00 0. -1.
         13    1    4    4    0    0  0.30829828180E+02 -0.58405384590E+02 -0.18736720633E+03  0.19866589356E+03  0.00000000000E+00 0.  1.
          2    1    1    2  501    0 -0.63858187619E+02 -0.24469437761E+02 -0.99375670425E+02  0.12063227339E+03  0.00000000000E+00 0. -1.
<scales pt_clust_5="13000.00000" pt_clust_6="13000.00000" pt_clust_7="13000.00000" pt_clust_8="13000.00000" pt_clust_9="68.38583"></scales>
<clustering>
<clus scale="   68.386">  1  9  2 -1</clus>
<clus scale="   82.817">  5  6 -1 -1</clus>
<clus scale="   93.537">  7  8 -1 -1</clus>
<clus scale="  104.418">  2  5  1 -1</clus>
<clus scale="   68.386">  1  5  2 -1</clus>
</clustering>
</event>
<event>
 9    1  0.6675710E-005  0.2334485E+03  0.7546771E-02  0.1152175E+00
          1   -1    0    0  502    0 -0.00000000000E+00  0.00000000000E+00  0.89217986348E+03  0.89217986348E+03  0.00000000000E+00 0. -1.
         21   -1    0    0  501  502  0.00000000000E+00 -0.00000000000E+00 -0.12200511501E+03  0.12200511501E+03  0.00000000000E+00 0. -1.
        -24    2    1    2    0    0 -0.85562369346E+02  0.15386027627E+02  0.15798987106E+03  0.19762433590E+03  0.80851282539E+02 0.  0.
         23    2    1    2    0    0 -0.36002829240E+01  0.19028931478E+03  0.54176453077E+03  0.58158968639E+03  0.92275517668E+02 0.  0.
         13    1    3    3    0    0 -0.86735369048E+02  0.24874730482E+02  0.16338574514E+03  0.18664586300E+03  0.00000000000E+00 0. -1.
        -14    1    3    3    0    0  0.11729997027E+01 -0.94887028553E+01 -0.53958740773E+01  0.10978472901E+02  0.00000000000E+00 0.  1.
        -11    1    4    4    0    0 -0.16017785136E+02  0.14532762002E+03  0.28177454898E+03  0.31744855179E+03  0.00000000000E+00 0. -1.
         11    1    4    4    0    0  0.12417502212E+02  0.44961694758E+02  0.25998998179E+03  0.26414113460E+03  0.00000000000E+00 0.  1.
          2    1    1    2  501    0  0.89162652270E+02 -0.20567534241E+03  0.70420346642E+02  0.23497095620E+03  0.00000000000E+00 0. -1.
<scales pt_clust_5="13000.00000" pt_clust_6="13000.00000" pt_clust_7="13000.00000" pt_clust_8="13000.00000" pt_clust_9="214.43751"></scales>
<clustering>
<clus scale="   80.851">  5  6 -1 -1</clus>
<clus scale="   92.276">  7  8 -1 -1</clus>
<clus scale="  118.721">  1  5  2 -1</clus>
<clus scale="  214.438">  2  9  1 -1</clus>
<clus scale="  214.438">  2  5  1 -1</clus>
</clustering>
</event>
<event>
 9    1  0.6675710E-005  0.9196645E+02  0.7546771E-02  0.1305007E+00
         21   -1    0    0  501  502  0.00000000000E+00  0.00000000000E+00  0.46663954403E+03  0.46663954403E+03  0.00000000000E+00 0. -1.
         -2   -1    0    0    0  501 -0.00000000000E+00 -0.00000000000E+00 -0.33505958411E+02  0.33505958411E+02  0.00000000000E+00 0.  1.
        -24    2    1    2    0    0 -0.70950292770E+00  0.17136078610E+02  0.69105582415E+02  0.10683481189E+03  0.79648897836E+02 0.  0.
         23    2    1    2    0    0 -0.16648990469E+02 -0.58587169304E+01  0.36069566533E+03  0.37234403476E+03  0.90703934765E+02 0.  0.
         11    1    3    3    0    0  0.37913505099E+01  0.42813294446E+02  0.12895078244E+02  0.44873550817E+02  0.00000000000E+00 0. -1.
        -12    1    3    3    0    0 -0.45008534376E+01 -0.25677215836E+02  0.56210504172E+02  0.61961261075E+02  0.00000000000E+00 0.  1.
        -11    1    4    4    0    0  0.34726897354E+02 -0.94187600147E+01  0.92562335784E+02  0.99309901046E+02  0.00000000000E+00 0.  1.
         11    1    4    4    0    0 -0.51375887823E+02  0.35600430843E+01  0.26813332955E+03  0.27303413371E+03  0.00000000000E+00 0. -1.
         -1    1    1    2    0  502  0.17358493397E+02 -0.11277361680E+02  0.33323378723E+01  0.20966655794E+02  0.00000000000E+00 0.  1.
<scales pt_clust_5="13000.00000" pt_clust_6="13000.00000" pt_clust_7="13000.00000" pt_clust_8="13000.00000" pt_clust_9="20.70016"></scales>
<clustering>
<clus scale="   20.700">  1  9  2 -1</clus>
<clus scale="   79.649">  5  6 -1 -1</clus>
<clus scale="   81.084">  2  5  1 -1</clus>
<clus scale="   90.704">  7  8 -1 -1</clus>
<clus scale="   20.700">  1  5  2 -1</clus>
</clustering>
</event>
<event>
 9    1  0.8254124E-005  0.1150892E+03  0.7546771E-02  0.1256153E+00
          1   -1    0    0  502    0 -0.00000000000E+00  0.00000000000E+00  0.27879751085E+03  0.27879751085E+03  0.00000000000E+00 0. -1.
         21   -1    0    0  501  502  0.00000000000E+00 -0.00000000000E+00 -0.17046608095E+03  0.17046608095E+03  0.00000000000E+00 0. -1.
        -24    2    1    2    0    0  0.72270885044E+02 -0.52984583956E+02  0.18765152012E+03  0.22281703885E+03  0.80024326528E+02 0.  0.
         23    2    1    2    0    0  0.17050655630E+02  0.33779230027E+02  0.70002137625E+01  0.10075495368E+03  0.93117111527E+02 0.  0.
         13    1    3    3    0    0  0.74763812657E+02 -0.55269161104E+02  0.19427708238E+03  0.21537848683E+03  0.00000000000E+00 0. -1.
        -14    1    3    3    0    0 -0.24929276133E+01  0.22845771475E+01 -0.66255622607E+01  0.74385520162E+01  0.00000000000E+00 0.  1.
        -13    1    4    4    0    0 -0.38696457450E+02  0.10838135096E+02  0.13577930941E+01  0.40208513944E+02  0.00000000000E+00 0.  1.
         13    1    4    4    0    0  0.55747113079E+02  0.22941094931E+02  0.56424206684E+01  0.60546439733E+02  0.00000000000E+00 0. -1.
          2    1    1    2  501    0 -0.89321540673E+02  0.19205353929E+02 -0.86320303986E+02  0.12569159927E+03  0.00000000000E+00 0. -1.
<scales pt_clust_5="13000.00000" pt_clust_6="13000.00000" pt_clust_7="13000.00000" pt_clust_8="13000.00000" pt_clust_9="91.36292"></scales>
<clustering>
<clus scale="   80.024">  5  6 -1 -1</clus>
<clus scale="   91.363">  2  9  1 -1</clus>
<clus scale="   93.117">  7  8 -1 -1</clus>
<clus scale="  104.779">  1  5  2 -1</clus>
<clus scale="   91.363">  2  5  1 -1</clus>
</clustering>
</event>
<event>
 9    1  0.6675710E-005  0.1221413E+03  0.7546771E-02  0.1242860E+00
         21   -1    0    0  501  502  0.00000000000E+00  0.00000000000E+00  0.12524145701E+03  0.12524145701E+03  0.00000000000E+00 0. -1.
          1   -1    0    0  502    0 -0.00000000000E+00 -0.00000000000E+00 -0.59582174326E+03  0.59582174326E+03  0.00000000000E+00 0. -1.
         23    2    1    2    0    0  0.66926894970E+02 -0.55410435662E+02 -0.32968073970E+03  0.35334759505E+03  0.92820294924E+02 0.  0.
        -24    2    1    2    0    0 -0.97331071556E+02 -0.54817526264E+02 -0.19693450106E+03  0.24037930376E+03  0.80750933684E+02 0.  0.
         11    1    4    4    0    0 -0.10814110183E+03 -0.47646796877E+02 -0.19387516014E+03  0.22705130010E+03  0.00000000000E+00 0. -1.
        -12    1    4    4    0    0  0.10810030278E+02 -0.71707293874E+01 -0.30593409197E+01  0.13328003655E+02  0.00000000000E+00 0.  1.
        -11    1    3    3    0    0  0.45535610165E+01  0.21582091282E+02 -0.27020740501E+02  0.34880395629E+02  0.00000000000E+00 0.  1.
         11    1    3    3    0    0  0.62373333953E+02 -0.76992526943E+02 -0.30265999920E+03  0.31846719942E+03  0.00000000000E+00 0. -1.
          2    1    1    2  501    0  0.30404176586E+02  0.11022796193E+03  0.56034954503E+02  0.12733630146E+03  0.00000000000E+00 0. -1.
<scales pt_clust_5="13000.00000" pt_clust_6="13000.00000" pt_clust_7="13000.00000" pt_clust_8="13000.00000" pt_clust_9="114.34429"></scales>
<clustering>
<clus scale="   80.751">  5  6 -1 -1</clus>
<clus scale="   92.820">  7  8 -1 -1</clus>
<clus scale="  114.344">  1  9  2 -1</clus>
<clus scale="  114.344">  1  5  2 -1</clus>
<clus scale="  114.344">  1  5  2 -1</clus>
</clustering>
</event>
<event>
 9    1  0.6675710E-005  0.1157270E+03  0.7546771E-02  0.1254215E+00
         21   -1    0    0  501  502  0.00000000000E+00  0.00000000000E+00  0.25411959294E+03  0.25411959294E+03  0.00000000000E+00 0. -1.
          1   -1    0    0  502    0 -0.00000000000E+00 -0.00000000000E+00 -0.13265904337E+03  0.13265904337E+03  0.00000000000E+00 0. -1.
        -24    2    1    2    0    0  0.83710443801E+02 -0.33480669729E+02  0.70853818828E+01  0.12165387891E+03  0.81369957423E+02 0.  0.
         23    2    1    2    0    0  0.14664285861E+02  0.85076076199E+02  0.45506598218E+02  0.13442451537E+03  0.92445226112E+02 0.  0.
         13    1    3    3    0    0  0.43737194681E+02 -0.58105264093E+02  0.14399153348E+02  0.74138380957E+02  0.00000000000E+00 0. -1.
        -14    1    3    3    0    0  0.39973249120E+02  0.24624594364E+02 -0.73137714653E+01  0.47515497954E+02  0.00000000000E+00 0.  1.
        -11    1    4    4    0    0  0.34787266806E+02  0.80978028521E+02  0.62272137489E+02  0.10791392006E+03  0.00000000000E+00 0. -1.
         11    1    4    4    0    0 -0.20122980945E+02  0.40980476781E+01 -0.16765539272E+02  0.26510595315E+02  0.00000000000E+00 0.  1.
          2    1    1    2  501    0 -0.98374729662E+02 -0.51595406470E+02  0.68868569467E+02  0.13070024202E+03  0.00000000000E+00 0. -1.
<scales pt_clust_5="13000.00000" pt_clust_6="13000.00000" pt_clust_7="13000.00000" pt_clust_8="13000.00000" pt_clust_9="111.08408"></scales>
<clustering>
<clus scale="   81.370">  5  6 -1 -1</clus>
<clus scale="   92.445">  7  8 -1 -1</clus>
<clus scale="  111.084">  1  9  2 -1</clus>
<clus scale="  107.087">  2  5  1 -1</clus>
<clus scale="  111.084">  1  5  2 -1</clus>
</clustering>
</event>
<event>
 9    1  0.6675710E-005  0.1218803E+03  0.7546771E-02  0.1242819E+00
          1   -1    0    0  502    0 -0.00000000000E+00  0.00000000000E+00  0.57501750707E+03  0.57501750707E+03  0.00000000000E+00 0. -1.
         21   -1    0    0  501  502  0.00000000000E+00 -0.00000000000E+00 -0.57810278257E+02  0.57810278257E+02  0.00000000000E+00 0. -1.
        -24    2    1    2    0    0  0.53569049320E+02 -0.71001638962E+02  0.38852555859E+03  0.40668952391E+03  0.80829347380E+02 0.  0.
         23    2    1    2    0    0 -0.69460378092E+02  0.26098204187E+02  0.13456212583E+03  0.17814417279E+03  0.90125025406E+02 0.  0.
         13    1    3    3    0    0  0.29556551302E+02 -0.85578688064E+02  0.26604296665E+03  0.28102697678E+03  0.00000000000E+00 0. -1.
        -14    1    3    3    0    0  0.24012498018E+02  0.14577049101E+02  0.12248259194E+03  0.12566254713E+03  0.00000000000E+00 0.  1.
        -11    1    4    4    0    0  0.32030201997E+01  0.41504645116E+02  0.38394798728E+02  0.56630870327E+02  0.00000000000E+00 0.  1.
         11    1    4    4    0    0 -0.72663398291E+02 -0.15406440929E+02  0.96167327106E+02  0.12151330247E+03  0.00000000000E+00 0. -1.
          2    1    1    2  501    0  0.15891328771E+02  0.44903434776E+02 -0.58804556132E+01  0.47994088626E+02  0.00000000000E+00 0. -1.
<scales pt_clust_5="13000.00000" pt_clust_6="13000.00000" pt_clust_7="13000.00000" pt_clust_8="13000.00000" pt_clust_9="47.63248"></scales>
<clustering>
<clus scale="   47.632">  2  9  1 -1</clus>
<clus scale="   80.829">  5  6 -1 -1</clus>
<clus scale="   90.125">  7  8 -1 -1</clus>
<clus scale="  115.177">  1  5  2 -1</clus>
<clus scale="   47.632">  2  5  1 -1</clus>
</clustering>
</event>
<event>
 9    1  0.6675710E-005  0.9952991E+02  0.7546771E-02  0.1286898E+00
         -2   -1    0    0    0  501 -0.00000000000E+00  0.00000000000E+00  0.26495549876E+03  0.26495549876E+03  0.00000000000E+00 0.  1.
         21   -1    0    0  501  502  0.00000000000E+00 -0.00000000000E+00 -0.95191068244E+02  0.95191068244E+02  0.00000000000E+00 0.  1.
        -24    2    1    2    0    0 -0.43685570459E+02 -0.15355499619E+02  0.18727593447E+03  0.20921049711E+03  0.80947736427E+02 0.  0.
         23    2    1    2    0    0 -0.95899341213E+01  0.60500344559E+01 -0.26027779459E+02  0.96187572033E+02  0.91902306590E+02 0.  0.
         11    1    3    3    0    0 -0.10576083029E+02  0.32853987165E+02  0.77150545040E+02  0.84518900873E+02  0.00000000000E+00 0. -1.
        -12    1    3    3    0    0 -0.33109487431E+02 -0.48209486783E+02  0.11012538943E+03  0.12469159623E+03  0.00000000000E+00 0.  1.
        -13    1    4    4    0    0  0.16035365875E+02  0.43910703420E+02 -0.10565523971E+02  0.47926121587E+02  0.00000000000E+00 0. -1.
         13    1    4    4    0    0 -0.25625299996E+02 -0.37860668964E+02 -0.15462255488E+02  0.48261450446E+02  0.00000000000E+00 0.  1.
         -1    1    1    2    0  502  0.53275504580E+02  0.93054651628E+01  0.85162755075E+01  0.54748497867E+02  0.00000000000E+00 0.  1.
<scales pt_clust_5="13000.00000" pt_clust_6="13000.00000" pt_clust_7="13000.00000" pt_clust_8="13000.00000" pt_clust_9="54.08208"></scales>
<clustering>
<clus scale="   54.082">  2  9  1 -1</clus>
<clus scale="   80.948">  5  6 -1 -1</clus>
<clus scale="   89.514">  1  5  2 -1</clus>
<clus scale="   91.902">  7  8 -1 -1</clus>
<clus scale="   54.082">  2  5  1 -1</clus>
</clustering>
</event>
<event>
 9    1  0.6675710E-005  0.1188130E+03  0.7546771E-02  0.1249190E+00
         21   -1    0    0  501  502  0.00000000000E+00  0.00000000000E+00  0.12110939517E+03  0.12110939517E+03  0.00000000000E+00 0.  1.
         -4   -1    0    0    0  501 -0.00000000000E+00 -0.00000000000E+00 -0.66654940453E+03  0.66654940453E+03  0.00000000000E+00 0.  1.
        -24    2    1    2    0    0 -0.65512698339E+02 -0.50751233703E+02 -0.56647614009E+03  0.57807313840E+03  0.80035833724E+02 0.  0.
         23    2    1    2    0    0  0.43117173898E+02 -0.28203567335E+02 -0.33479626912E+02  0.11105958377E+03  0.92513857522E+02 0.  0.
         13    1    3    3    0    0 -0.19528250701E+02 -0.67698704578E+01 -0.23151307092E+02  0.31034927767E+02  0.00000000000E+00 0. -1.
        -14    1    3    3    0    0 -0.45984447638E+02 -0.43981363245E+02 -0.54332483300E+03  0.54703821063E+03  0.00000000000E+00 0.  1.
        -11    1    4    4    0    0  0.39190314554E+02 -0.56292233378E+02 -0.43219778228E+02  0.81071854078E+02  0.00000000000E+00 0.  1.
         11    1    4    4    0    0  0.39268593440E+01  0.28088666043E+02  0.97401513163E+01  0.29987729692E+02  0.00000000000E+00 0. -1.
         -3    1    1    2    0  502  0.22395524441E+02  0.78954801038E+02  0.54515757647E+02  0.98526077532E+02  0.00000000000E+00 0.  1.
<scales pt_clust_5="13000.00000" pt_clust_6="13000.00000" pt_clust_7="13000.00000" pt_clust_8="13000.00000" pt_clust_9="82.06961"></scales>
<clustering>
<clus scale="   80.036">  5  6 -1 -1</clus>
<clus scale="   82.070">  1  9  2 -1</clus>
<clus scale="   92.514">  7  8 -1 -1</clus>
<clus scale="  109.378">  2  5  1 -1</clus>
<clus scale="   82.070">  1  5  2 -1</clus>
</clustering>
</event>
<event>
 9    1  0.6675710E-005  0.1064241E+03  0.7546771E-02  0.1271147E+00
         -4   -1    0    0    0  501 -0.00000000000E+00  0.00000000000E+00  0.99661406415E+02  0.99661406415E+02  0.00000000000E+00 0.  1.
         21   -1    0    0  501  502  0.00000000000E+00 -0.00000000000E+00 -0.38049990163E+03  0.38049990163E+03  0.00000000000E+00 0.  1.
        -24    2    1    2    0    0  0.45535259883E+02 -0.42171287889E+02  0.53776638756E+02  0.11583464150E+03  0.81693695479E+02 0.  0.
         23    2    1    2    0    0 -0.17452865621E+02  0.91424263096E+01 -0.16558226810E+03  0.18982269436E+03  0.90702708374E+02 0.  0.
         11    1    3    3    0    0  0.55791034563E+02 -0.53352571284E+01  0.86869149978E+01  0.56714786418E+02  0.00000000000E+00 0. -1.
        -12    1    3    3    0    0 -0.10255774680E+02 -0.36836030761E+02  0.45089723758E+02  0.59119855083E+02  0.00000000000E+00 0.  1.
        -13    1    4    4    0    0 -0.18782464507E+02 -0.27439110491E+02 -0.14299259630E+03  0.14680793015E+03  0.00000000000E+00 0.  1.
         13    1    4    4    0    0  0.13295988853E+01  0.36581536800E+02 -0.22589671797E+02  0.43014764207E+02  0.00000000000E+00 0. -1.
         -3    1    1    2    0  502 -0.28082394262E+02  0.33028861580E+02 -0.16903286587E+03  0.17450397218E+03  0.00000000000E+00 0.  1.
<scales pt_clust_5="13000.00000" pt_clust_6="13000.00000" pt_clust_7="13000.00000" pt_clust_8="13000.00000" pt_clust_9="43.35351"></scales>
<clustering>
<clus scale="   43.354">  2  9  1 -1</clus>
<clus scale="   81.694">  5  6 -1 -1</clus>
<clus scale="   90.703">  7  8 -1 -1</clus>
<clus scale="   98.858">  1  5  2 -1</clus>
<clus scale="   43.354">  2  5  1 -1</clus>
</clustering>
</event>
<event>
 9    1  0.6675710E-005  0.1193787E+03  0.7546771E-02  0.1247824E+00
         -4   -1    0    0    0  501 -0.00000000000E+00  0.00000000000E+00  0.32686879037E+03  0.32686879037E+03  0.00000000000E+00 0.  1.
         21   -1    0    0  501  502  0.00000000000E+00 -0.00000000000E+00 -0.18884778954E+03  0.18884778954E+03  0.00000000000E+00 0. -1.
         23    2    1    2    0    0  0.65534186780E+02 -0.42996323785E+02  0.28699719522E+03  0.31111067106E+03  0.90989263596E+02 0.  0.
        -24    2    1    2    0    0 -0.44333772143E+02  0.54539986198E+02 -0.84020221592E+02  0.13530950111E+03  0.79430283949E+02 0.  0.
         13    1    4    4    0    0 -0.28385021507E+02  0.14793430454E+02 -0.86678817957E+02  0.92400067710E+02  0.00000000000E+00 0. -1.
        -14    1    4    4    0    0 -0.15948750636E+02  0.39746555743E+02  0.26585963642E+01  0.42909433403E+02  0.00000000000E+00 0.  1.
        -11    1    3    3    0    0  0.72233825618E+02  0.37620067740E+01  0.18757553943E+03  0.20103845715E+03  0.00000000000E+00 0.  1.
         11    1    3    3    0    0 -0.66996388377E+01 -0.46758330559E+02  0.99421655788E+02  0.11007221392E+03  0.00000000000E+00 0. -1.
         -3    1    1    2    0  502 -0.21200414637E+02 -0.11543662413E+02 -0.64955972797E+02  0.69296407733E+02  0.00000000000E+00 0.  1.
<scales pt_clust_5="13000.00000" pt_clust_6="13000.00000" pt_clust_7="13000.00000" pt_clust_8="13000.00000" pt_clust_9="24.13946"></scales>
<clustering>
<clus scale="   24.139">  2  9  1 -1</clus>
<clus scale="   79.430">  5  6 -1 -1</clus>
<clus scale="   90.989">  7  8 -1 -1</clus>
<clus scale="  110.821">  2  5  1 -1</clus>
<clus scale="   24.139">  2  5  1 -1</clus>
</clustering>
</event>
<event>
 9    1  0.6675710E-005  0.1087813E+03  0.7546771E-02  0.1267492E+00
         -4   -1    0    0    0  501 -0.00000000000E+00  0.00000000000E+00  0.21243902564E+03  0.21243902564E+03  0.00000000000E+00 0.  1.
         21   -1    0    0  501  502  0.00000000000E+00 -0.00000000000E+00 -0.13116317235E+03  0.13116317235E+03  0.00000000000E+00 0.  1.
        -24    2    1    2    0    0  0.28818650882E+02  0.59337662882E+02  0.14519377318E+03  0.17864928700E+03  0.80516228789E+02 0.  0.
         23    2    1    2    0    0 -0.20227664306E+02 -0.28007725053E+02 -0.57650522776E+01  0.98341154763E+02  0.91892087943E+02 0.  0.
         11    1    3    3    0    0  0.35587334460E+02 -0.79208676066E+01  0.52987378482E+02  0.64318432786E+02  0.00000000000E+00 0. -1.
        -12    1    3    3    0    0 -0.67686835780E+01  0.67258530488E+02  0.92206394703E+02  0.11433085421E+03  0.00000000000E+00 0.  1.
        -11    1    4    4    0    0  0.26798521756E+02  0.11158687982E+02  0.16291064812E+02  0.33287773709E+02  0.00000000000E+00 0.  1.
         11    1    4    4    0    0 -0.47026186062E+02 -0.39166413035E+02 -0.22056117089E+02  0.65053381054E+02  0.00000000000E+00 0. -1.
         -3    1    1    2    0  502 -0.85909865764E+01 -0.31329937829E+02 -0.58152867619E+02  0.66611756222E+02  0.00000000000E+00 0.  1.
<scales pt_clust_5="13000.00000" pt_clust_6="13000.00000" pt_clust_7="13000.00000" pt_clust_8="13000.00000" pt_clust_9="32.48646"></scales>
<clustering>
<clus scale="   32.486">  2  9  1 -1</clus>
<clus scale="   80.516">  5  6 -1 -1</clus>
<clus scale="   91.892">  7  8 -1 -1</clus>
<clus scale="   99.358">  1  5  2 -1</clus>
<clus scale="   32.486">  2  5  1 -1</clus>
</clustering>
</event>
<event>
 9    1  0.6675710E-005  0.1601746E+03  0.7546771E-02  0.1212975E+00
         21   -1    0    0  501  502  0.00000000000E+00  0.00000000000E+00  0.99190232236E+03  0.99190232236E+03  0.00000000000E+00 0. -1.
          3   -1    0    0  502    0 -0.00000000000E+00 -0.00000000000E+00 -0.49814686106E+02  0.49814686106E+02  0.00000000000E+00 0. -1.
         23    2    1    2    0    0 -0.20106147871E+02 -0.38315236779E+01  0.39298108185E+03  0.40411096584E+03  0.91938045820E+02 0.  0.
        -24    2    1    2    0    0  0.14419092286E+03  0.25681542067E+02  0.44196079410E+03  0.47221357411E+03  0.78776596914E+02 0.  0.
         13    1    4    4    0    0  0.13874246809E+03  0.91644320261E+01  0.31842255741E+03  0.34745702516E+03  0.00000000000E+00 0. -1.
        -14    1    4    4    0    0  0.54484547718E+01  0.16517110041E+02  0.12353823668E+03  0.12475654895E+03  0.00000000000E+00 0.  1.
        -13    1    3    3    0    0 -0.17392369317E+02  0.41609096108E+02  0.14054271447E+03  0.14760103651E+03  0.00000000000E+00 0.  1.
         13    1    3    3    0    0 -0.27137785544E+01 -0.45440619786E+02  0.25243836738E+03  0.25650992933E+03  0.00000000000E+00 0. -1.
          4    1    1    2  501    0 -0.12408477499E+03 -0.21850018389E+02  0.10714576031E+03  0.16539246851E+03  0.00000000000E+00 0. -1.
<scales pt_clust_5="13000.00000" pt_clust_6="13000.00000" pt_clust_7="13000.00000" pt_clust_8="13000.00000" pt_clust_9="139.46392"></scales>
<clustering>
<clus scale="   78.777">  5  6 -1 -1</clus>
<clus scale="   91.938">  7  8 -1 -1</clus>
<clus scale="   94.189">  2  7  1 -1</clus>
<clus scale="  139.464">  1  9  2 -1</clus>
<clus scale="  139.464">  1  5  2 -1</clus>
</clustering>
</event>
<event>
 9    1  0.6675710E-005  0.1262253E+03  0.7546771E-02  0.1234978E+00
         21   -1    0    0  501  502  0.00000000000E+00  0.00000000000E+00  0.70588093032E+03  0.70588093032E+03  0.00000000000E+00 0. -1.
          1   -1    0    0  502    0 -0.00000000000E+00 -0.00000000000E+00 -0.10924397826E+03  0.10924397826E+03  0.00000000000E+00 0. -1.
        -24    2    1    2    0    0  0.44274179651E+01  0.93257810741E+02 -0.60413195465E+02  0.13626273711E+03  0.78747431993E+02 0.  0.
         23    2    1    2    0    0 -0.46357715837E+02 -0.81274732392E+02  0.47353549274E+03  0.49023721933E+03  0.85685753743E+02 0.  0.
         11    1    3    3    0    0  0.25535928042E+02  0.82173293192E+02 -0.69638739988E+02  0.11069818355E+03  0.00000000000E+00 0. -1.
        -12    1    3    3    0    0 -0.21108510077E+02  0.11084517549E+02  0.92255445231E+01  0.25564553560E+02  0.00000000000E+00 0.  1.
        -13    1    4    4    0    0  0.12895007628E+02 -0.53778515019E+02  0.29472829936E+03  0.29987193991E+03  0.00000000000E+00 0.  1.
         13    1    4    4    0    0 -0.59252723465E+02 -0.27496217374E+02  0.17880719337E+03  0.19036527942E+03  0.00000000000E+00 0. -1.
          2    1    1    2  501    0  0.41930297872E+02 -0.11983078349E+02  0.18351465478E+03  0.18862495213E+03  0.00000000000E+00 0. -1.
<scales pt_clust_5="13000.00000" pt_clust_6="13000.00000" pt_clust_7="13000.00000" pt_clust_8="13000.00000" pt_clust_9="43.60899"></scales>
<clustering>
<clus scale="   43.609">  1  9  2 -1</clus>
<clus scale="   78.747">  5  6 -1 -1</clus>
<clus scale="   85.686">  7  8 -1 -1</clus>
<clus scale="  121.622">  2  5  1 -1</clus>
<clus scale="   43.609">  1  5  2 -1</clus>
</clustering>
</event>
<event>
 9    1  0.6675710E-005  0.9663160E+02  0.7546771E-02  0.1291768E+00
          1   -1    0    0  502    0 -0.00000000000E+00  0.00000000000E+00  0.80916054593E+03  0.80916054593E+03  0.00000000000E+00 0. -1.
         21   -1    0    0  501  502  0.00000000000E+00 -0.00000000000E+00 -0.17187178201E+02  0.17187178201E+02  0.00000000000E+00 0. -1.
        -24    2    1    2    0    0 -0.84788975954E+01 -0.31411339845E+02  0.34861604904E+03  0.35946785263E+03  0.81396704169E+02 0.  0.
         23    2    1    2    0    0 -0.31854293098E+02  0.43130494362E+02  0.30917741729E+03  0.32627990424E+03  0.89403383705E+02 0.  0.
         11    1    3    3    0    0  0.30856083088E+02 -0.35620413565E+02  0.16259248495E+03  0.16928445850E+03  0.00000000000E+00 0. -1.
        -12    1    3    3    0    0 -0.39334980683E+02  0.42090737199E+01  0.18602356409E+03  0.19018339413E+03  0.00000000000E+00 0.  1.
        -11    1    4    4    0    0 -0.13590417461E+02 -0.15871905753E+02  0.15084772296E+02  0.25771441446E+02  0.00000000000E+00 0.  1.
         11    1    4    4    0    0 -0.18263875637E+02  0.59002400115E+02  0.29409264500E+03  0.30050846280E+03  0.00000000000E+00 0. -1.
          2    1    1    2  501    0  0.40333190694E+02 -0.11719154517E+02  0.13417990140E+03  0.14059996726E+03  0.00000000000E+00 0. -1.
<scales pt_clust_5="13000.00000" pt_clust_6="13000.00000" pt_clust_7="13000.00000" pt_clust_8="13000.00000" pt_clust_9="42.00125"></scales>
<clustering>
<clus scale="   42.001">  2  9  1 -1</clus>
<clus scale="   81.397">  5  6 -1 -1</clus>
<clus scale="   89.276">  1  5  2 -1</clus>
<clus scale="   89.403">  7  8 -1 -1</clus>
<clus scale="   42.001">  2  5  1 -1</clus>
</clustering>
</event>
<event>
 9    1  0.6675710E-005  0.9262167E+02  0.7546771E-02  0.1303731E+00
         21   -1    0    0  501  502  0.00000000000E+00  0.00000000000E+00  0.37821959486E+03  0.37821959486E+03  0.00000000000E+00 0.  1.
         -4   -1    0    0    0  501 -0.00000000000E+00 -0.00000000000E+00 -0.28379498580E+02  0.28379498580E+02  0.00000000000E+00 0.  1.
        -24    2    1    2    0    0  0.18711363694E+02  0.14653813319E+02  0.84584680478E+02  0.11814544226E+03  0.78986884862E+02 0.  0.
         23    2    1    2    0    0 -0.12669856478E+02  0.51187156194E+01  0.22983408067E+03  0.24743994989E+03  0.90642692231E+02 0.  0.
         13    1    3    3    0    0 -0.29760374147E+02 -0.39132179689E+01  0.37784764476E+02  0.48256414815E+02  0.00000000000E+00 0. -1.
        -14    1    3    3    0    0  0.48471737840E+02  0.18567031287E+02  0.46799916002E+02  0.69889027450E+02  0.00000000000E+00 0.  1.
        -13    1    4    4    0    0 -0.24174640082E+02 -0.38112691502E+02  0.13978750273E+03  0.14689294196E+03  0.00000000000E+00 0. -1.
         13    1    4    4    0    0  0.11504783604E+02  0.43231407121E+02  0.90046577934E+02  0.10054700794E+03  0.00000000000E+00 0.  1.
         -3    1    1    2    0  502 -0.60415072156E+01 -0.19772528938E+02  0.35421335133E+02  0.41013701280E+02  0.00000000000E+00 0.  1.
<scales pt_clust_5="13000.00000" pt_clust_6="13000.00000" pt_clust_7="13000.00000" pt_clust_8="13000.00000" pt_clust_9="20.67493"></scales>
<clustering>
<clus scale="   20.675">  1  9  2 -1</clus>
<clus scale="   78.987">  5  6 -1 -1</clus>
<clus scale="   81.250">  2  5  1 -1</clus>
<clus scale="   90.643">  7  8 -1 -1</clus>
<clus scale="   20.675">  1  5  2 -1</clus>
</clustering>
</event>
<event>
 9    1  0.6675710E-005  0.1482808E+03  0.7546771E-02  0.1221061E+00
         21   -1    0    0  501  502  0.00000000000E+00  0.00000000000E+00  0.15998566528E+03  0.15998566528E+03  0.00000000000E+00 0.  1.
          3   -1    0    0  502    0 -0.00000000000E+00 -0.00000000000E+00 -0.35552053171E+03  0.35552053171E+03  0.00000000000E+00 0. -1.
        -24    2    1    2    0    0  0.46373429526E+02  0.36826339522E+02 -0.13535928538E+03  0.16834910285E+03  0.80700743759E+02 0.  0.
         23    2    1    2    0    0  0.24756437552E+02 -0.11929836512E+03  0.77860219587E+02  0.17133054537E+03  0.91907349323E+02 0.  0.
         13    1    3    3    0    0  0.27572047229E+02  0.46926527105E+02 -0.13652559883E+03  0.14697467765E+03  0.00000000000E+00 0. -1.
        -14    1    3    3    0    0  0.18801382297E+02 -0.10100187583E+02  0.11663134519E+01  0.21374425198E+02  0.00000000000E+00 0.  1.
        -11    1    4    4    0    0 -0.25120488606E+02 -0.21034115656E+02 -0.54121893600E+01  0.33207902116E+02  0.00000000000E+00 0. -1.
         11    1    4    4    0    0  0.49876926159E+02 -0.98264249469E+02  0.83272408947E+02  0.13812264325E+03  0.00000000000E+00 0.  1.
          4    1    1    2  501    0 -0.71129867078E+02  0.82472025603E+02 -0.13803580064E+03  0.17582654878E+03  0.00000000000E+00 0. -1.
<scales pt_clust_5="13000.00000" pt_clust_6="13000.00000" pt_clust_7="13000.00000" pt_clust_8="13000.00000" pt_clust_9="116.36261"></scales>
<clustering>
<clus scale="   80.701">  5  6 -1 -1</clus>
<clus scale="   91.907">  7  8 -1 -1</clus>
<clus scale="  100.096">  2  5  1 -1</clus>
<clus scale="  116.363">  1  9  2 -1</clus>
<clus scale="  116.363">  1  5  2 -1</clus>
</clustering>
</event>
<event>
 9    1  0.6675710E-005  0.1445010E+03  0.7546771E-02  0.1209579E+00
          1   -1    0    0  502    0 -0.00000000000E+00  0.00000000000E+00  0.64075678024E+03  0.64075678024E+03  0.00000000000E+00 0. -1.
         21   -1    0    0  501  502  0.00000000000E+00 -0.00000000000E+00 -0.79962848034E+02  0.79962848034E+02  0.00000000000E+00 0. -1.
        -24    2    1    2    0    0 -0.79815468909E+01 -0.12756095739E+03  0.41456313524E+03  0.44108846794E+03  0.79755504545E+02 0.  0.
         23    2    1    2    0    0 -0.67532652366E+02  0.75519314140E+02  0.12673346192E+03  0.18587150486E+03  0.90680869003E+02 0.  0.
         13    1    3    3    0    0 -0.14311593664E+02 -0.13773842982E+03  0.37512349949E+03  0.39986789898E+03  0.00000000000E+00 0. -1.
        -14    1    3    3    0    0  0.63300467730E+01  0.10177472430E+02  0.39439635751E+02  0.41220568960E+02  0.00000000000E+00 0.  1.
        -11    1    4    4    0    0 -0.29187619255E+02  0.10149548303E+02 -0.74300001825E+01  0.31782626563E+02  0.00000000000E+00 0. -1.
         11    1    4    4    0    0 -0.38345033111E+02  0.65369765838E+02  0.13416346210E+03  0.15408887829E+03  0.00000000000E+00 0.  1.
          2    1    1    2  501    0  0.75514199257E+02  0.52041643252E+02  0.19497335044E+02  0.93759655479E+02  0.00000000000E+00 0. -1.
<scales pt_clust_5="13000.00000" pt_clust_6="13000.00000" pt_clust_7="13000.00000" pt_clust_8="13000.00000" pt_clust_9="91.71002"></scales>
<clustering>
<clus scale="   79.756">  5  6 -1 -1</clus>
<clus scale="   90.681">  7  8 -1 -1</clus>
<clus scale="   91.710">  2  9  1 -1</clus>
<clus scale="  137.907">  1  5  2 -1</clus>
<clus scale="   91.710">  2  5  1 -1</clus>
</clustering>
</event>
<event>
 9    1  0.6675710E-005  0.9379719E+02  0.7546771E-02  0.1300795E+00
          3   -1    0    0  502    0 -0.00000000000E+00  0.00000000000E+00  0.38960385005E+02  0.38960385005E+02  0.00000000000E+00 0. -1.
         21   -1    0    0  501  502  0.00000000000E+00 -0.00000000000E+00 -0.28541981450E+03  0.28541981450E+03  0.00000000000E+00 0. -1.
        -24    2    1    2    0    0 -0.75142415823E+01  0.18610699536E-01 -0.10141919532E+03  0.12997544966E+03  0.80940102314E+02 0.  0.
         23    2    1    2    0    0  0.24693975933E+02 -0.15866332332E+02 -0.14035693496E+03  0.17056724065E+03  0.92366560183E+02 0.  0.
         13    1    3    3    0    0 -0.28665763602E+00 -0.39593182069E+02 -0.62426095309E+02  0.73923741887E+02  0.00000000000E+00 0. -1.
        -14    1    3    3    0    0 -0.72275839463E+01  0.39611792769E+02 -0.38993100009E+02  0.56051707774E+02  0.00000000000E+00 0.  1.
        -13    1    4    4    0    0 -0.34634853603E+02 -0.69643909210E+01 -0.67523549274E+02  0.76206991356E+02  0.00000000000E+00 0. -1.
         13    1    4    4    0    0  0.59328829536E+02 -0.89019414112E+01 -0.72833385691E+02  0.94360249291E+02  0.00000000000E+00 0.  1.
          4    1    1    2  501    0 -0.17179734350E+02  0.15847721633E+02 -0.46832992150E+01  0.23837509199E+02  0.00000000000E+00 0. -1.
<scales pt_clust_5="13000.00000" pt_clust_6="13000.00000" pt_clust_7="13000.00000" pt_clust_8="13000.00000" pt_clust_9="23.37294"></scales>
<clustering>
<clus scale="   23.373">  2  9  1 -1</clus>
<clus scale="   80.940">  5  6 -1 -1</clus>
<clus scale="   82.569">  1  5  2 -1</clus>
<clus scale="   92.367">  7  8 -1 -1</clus>
<clus scale="   23.373">  2  5  1 -1</clus>
</clustering>
</event>
<event>
 9    1  0.6675710E-005  0.1185953E+03  0.7546771E-02  0.1248681E+00
         21   -1    0    0  501  502  0.00000000000E+00  0.00000000000E+00  0.49126391750E+03  0.49126391750E+03  0.00000000000E+00 0. -1.
          1   -1    0    0  502    0 -0.00000000000E+00 -0.00000000000E+00 -0.40741403115E+02  0.40741403115E+02  0.00000000000E+00 0. -1.
         23    2    1    2    0    0  0.86413972515E+02  0.93871013043E+01  0.13129400680E+03  0.18180373415E+03  0.90878981137E+02 0.  0.
        -24    2    1    2    0    0 -0.57145471861E+02 -0.30928145819E+02  0.19645089870E+03  0.22215861332E+03  0.80866177805E+02 0.  0.
         13    1    4    4    0    0 -0.45154234117E+02 -0.58328131006E+02  0.14328576964E+03  0.16115795824E+03  0.00000000000E+00 0. -1.
        -14    1    4    4    0    0 -0.11991237745E+02  0.27399985187E+02  0.53165129069E+02  0.61000655077E+02  0.00000000000E+00 0.  1.
        -11    1    3    3    0    0  0.64278860209E+02 -0.11150142434E+02  0.22676839025E+02  0.69067623198E+02  0.00000000000E+00 0. -1.
         11    1    3    3    0    0  0.22135112306E+02  0.20537243738E+02  0.10861716777E+03  0.11273611095E+03  0.00000000000E+00 0.  1.
          2    1    1    2  501    0 -0.29268500654E+02  0.21541044515E+02  0.12277760888E+03  0.12804297314E+03  0.00000000000E+00 0. -1.
<scales pt_clust_5="13000.00000" pt_clust_6="13000.00000" pt_clust_7="13000.00000" pt_clust_8="13000.00000" pt_clust_9="36.34091"></scales>
<clustering>
<clus scale="   36.341">  1  9  2 -1</clus>
<clus scale="   80.866">  5  6 -1 -1</clus>
<clus scale="   90.879">  7  8 -1 -1</clus>
<clus scale="  111.109">  1  5  2 -1</clus>
<clus scale="   36.341">  1  5  2 -1</clus>
</clustering>
</event>
<event>
 9    1  0.6675710E-005  0.1246949E+03  0.7546771E-02  0.1235622E+00
         -2   -1    0    0    0  501 -0.00000000000E+00  0.00000000000E+00  0.17448641408E+03  0.17448641408E+03  0.00000000000E+00 0.  1.
         21   -1    0    0  501  502  0.00000000000E+00 -0.00000000000E+00 -0.20851963162E+03  0.20851963162E+03  0.00000000000E+00 0.  1.
         23    2    1    2    0    0  0.57758057895E+02 -0.99984781092E+02  0.92279214519E+02  0.16853215478E+03  0.80961003337E+02 0.  0.
        -24    2    1    2    0    0 -0.94793232254E+01  0.36123818405E+02 -0.90231521181E+02  0.12666221228E+03  0.80664743097E+02 0.  0.
         13    1    4    4    0    0 -0.20048770387E+02  0.69991247252E+01  0.87330354403E+01  0.22960985366E+02  0.00000000000E+00 0. -1.
        -14    1    4    4    0    0  0.10569447162E+02  0.29124693679E+02 -0.98964556622E+02  0.10370122691E+03  0.00000000000E+00 0.  1.
        -11    1    3    3    0    0  0.63310103659E+02 -0.35857237926E+02  0.68446829696E+02  0.99894340342E+02  0.00000000000E+00 0.  1.
         11    1    3    3    0    0 -0.55520457644E+01 -0.64127543166E+02  0.23832384823E+02  0.68637814439E+02  0.00000000000E+00 0. -1.
         -1    1    1    2    0  502 -0.48278734670E+02  0.63860962687E+02 -0.36080910873E+02  0.87811678643E+02  0.00000000000E+00 0.  1.
<scales pt_clust_5="13000.00000" pt_clust_6="13000.00000" pt_clust_7="13000.00000" pt_clust_8="13000.00000" pt_clust_9="80.05660"></scales>
<clustering>
<clus scale="   80.057">  2  9  1 -1</clus>
<clus scale="   80.665">  5  6 -1 -1</clus>
<clus scale="   80.961">  7  8 -1 -1</clus>
<clus scale="  124.503">  2  5  1 -1</clus>
<clus scale="   80.057">  2  5  1 -1</clus>
</clustering>
</event>
<event>
 9    1  0.6675710E-005  0.2209402E+03  0.7546771E-02  0.1133184E+00
         -4   -1    0    0    0  501 -0.00000000000E+00  0.00000000000E+00  0.20351184814E+03  0.20351184814E+03  0.00000000000E+00 0.  1.
         21   -1    0    0  501  502  0.00000000000E+00 -0.00000000000E+00 -0.57061892073E+03  0.57061892073E+03  0.00000000000E+00 0.  1.
        -24    2    1    2    0    0  0.77022901746E+02 -0.26756389392E+02  0.66170272718E+02  0.13187068581E+03  0.79768045092E+02 0.  0.
         23    2    1    2    0    0  0.28195164874E+02 -0.97934139572E+01  0.69428544544E+02  0.12736209184E+03  0.10251780997E+03 0.  0.
         11    1    3    3    0    0  0.26593716077E+02 -0.50727718190E+02  0.24986010972E+02  0.62488621939E+02  0.00000000000E+00 0. -1.
        -12    1    3    3    0    0  0.50429185669E+02  0.23971328797E+02  0.41184261746E+02  0.69382063872E+02  0.00000000000E+00 0.  1.
        -11    1    4    4    0    0  0.50179947868E+02 -0.30642091699E+02  0.76268805540E+02  0.96301067752E+02  0.00000000000E+00 0.  1.
         11    1    4    4    0    0 -0.21984782994E+02  0.20848677742E+02 -0.68402609965E+01  0.31061024088E+02  0.00000000000E+00 0. -1.
         -3    1    1    2    0  502 -0.10521806662E+03  0.36549803349E+02 -0.50270588985E+03  0.51489799122E+03  0.00000000000E+00 0.  1.
<scales pt_clust_5="13000.00000" pt_clust_6="13000.00000" pt_clust_7="13000.00000" pt_clust_8="13000.00000" pt_clust_9="111.38550"></scales>
<clustering>
<clus scale="   79.768">  5  6 -1 -1</clus>
<clus scale="  102.518">  7  8 -1 -1</clus>
<clus scale="  106.694">  5  7 -1 -1</clus>
<clus scale="  111.386">  2  9  1 -1</clus>
<clus scale="  111.386">  2  5  1 -1</clus>
</clustering>
</event>
<event>
 9    1  0.6675710E-005  0.1024951E+03  0.7546771E-02  0.1280590E+00
         21   -1    0    0  501  502  0.00000000000E+00  0.00000000000E+00  0.45200422100E+03  0.45200422100E+03  0.00000000000E+00 0. -1.
          1   -1    0    0  502    0 -0.00000000000E+00 -0.00000000000E+00 -0.17333280068E+03  0.17333280068E+03  0.00000000000E+00 0. -1.
         23    2    1    2    0    0 -0.50285266165E+02 -0.38010582231E+02 -0.11652356512E+03  0.16111025234E+03  0.91680749483E+02 0.  0.
        -24    2    1    2    0    0  0.57057881079E+01  0.45432516650E+01  0.17442385189E+02  0.82383320952E+02  0.80184647012E+02 0.  0.
         11    1    4    4    0    0  0.36117169101E+02  0.21294819834E+02 -0.30992759214E+01  0.42041940570E+02  0.00000000000E+00 0. -1.
        -12    1    4    4    0    0 -0.30411380993E+02 -0.16751568169E+02  0.20541661110E+02  0.40341380383E+02  0.00000000000E+00 0.  1.
        -11    1    3    3    0    0 -0.12633513837E+02 -0.29842320674E+02 -0.11818446793E+03  0.12254688179E+03  0.00000000000E+00 0.  1.
         11    1    3    3    0    0 -0.37651752327E+02 -0.81682615570E+01  0.16609028140E+01  0.38563370552E+02  0.00000000000E+00 0. -1.
          2    1    1    2  501    0  0.44579478057E+02  0.33467330566E+02  0.37775260026E+03  0.38184344839E+03  0.00000000000E+00 0. -1.
<scales pt_clust_5="13000.00000" pt_clust_6="13000.00000" pt_clust_7="13000.00000" pt_clust_8="13000.00000" pt_clust_9="55.74399"></scales>
<clustering>
<clus scale="   55.744">  1  9  2 -1</clus>
<clus scale="   80.185">  5  6 -1 -1</clus>
<clus scale="   91.681">  7  8 -1 -1</clus>
<clus scale="   92.355">  1  5  2 -1</clus>
<clus scale="   55.744">  1  5  2 -1</clus>
</clustering>
</event>
<event>
 9    1  0.6675710E-005  0.9704622E+02  0.7546771E-02  0.1293388E+00
         -2   -1    0    0    0  501 -0.00000000000E+00  0.00000000000E+00  0.60826383457E+02  0.60826383457E+02  0.00000000000E+00 0.  1.
         21   -1    0    0  501  502  0.00000000000E+00 -0.00000000000E+00 -0.23013325248E+03  0.23013325248E+03  0.00000000000E+00 0. -1.
        -24    2    1    2    0    0  0.37400834681E+02 -0.22611775982E+01 -0.14179454471E+02  0.89451087068E+02  0.79978151326E+02 0.  0.
         23    2    1    2    0    0 -0.14057651497E+02 -0.16085101258E+02 -0.93203652938E+02  0.13283510130E+03  0.92205721989E+02 0.  0.
         13    1    3    3    0    0  0.40985507064E+02  0.12308782053E+02  0.23551196739E+02  0.48846461210E+02  0.00000000000E+00 0. -1.
        -14    1    3    3    0    0 -0.35846723835E+01 -0.14569959651E+02 -0.37730651210E+02  0.40604625858E+02  0.00000000000E+00 0.  1.
        -11    1    4    4    0    0  0.29347362685E+02  0.19957200793E+02 -0.52066354574E+02  0.63011608761E+02  0.00000000000E+00 0.  1.
         11    1    4    4    0    0 -0.43405014182E+02 -0.36042302051E+02 -0.41137298364E+02  0.69823492536E+02  0.00000000000E+00 0. -1.
         -1    1    1    2    0  502 -0.23343183184E+02  0.18346278856E+02 -0.61923761616E+02  0.68673447574E+02  0.00000000000E+00 0.  1.
<scales pt_clust_5="13000.00000" pt_clust_6="13000.00000" pt_clust_7="13000.00000" pt_clust_8="13000.00000" pt_clust_9="29.68990"></scales>
<clustering>
<clus scale="   29.690">  2  9  1 -1</clus>
<clus scale="   79.978">  5  6 -1 -1</clus>
<clus scale="   85.514">  1  5  2 -1</clus>
<clus scale="   92.206">  7  8 -1 -1</clus>
<clus scale="   29.690">  2  5  1 -1</clus>
</clustering>
</event>
<event>
 9    1  0.6675710E-005  0.1020181E+03  0.7546771E-02  0.1284849E+00
         21   -1    0    0  501  502  0.00000000000E+00  0.00000000000E+00  0.27909840512E+03  0.27909840512E+03  0.00000000000E+00 0. -1.
         -4   -1    0    0    0  501 -0.00000000000E+00 -0.00000000000E+00 -0.56199063010E+02  0.56199063010E+02  0.00000000000E+00 0.  1.
         23    2    1    2    0    0  0.10821387720E+02 -0.22897521083E+02  0.45895918807E+02  0.11266561908E+03  0.99728167819E+02 0.  0.
        -24    2    1    2    0    0  0.18581058280E+02  0.18002631869E+02  0.17114373647E+03  0.19225423062E+03  0.83678911203E+02 0.  0.
         13    1    4    4    0    0  0.82772616316E+01  0.51641538460E+02  0.97664795298E+02  0.11078706511E+03  0.00000000000E+00 0. -1.
        -14    1    4    4    0    0  0.10303796648E+02 -0.33638906591E+02  0.73478941169E+02  0.81467165517E+02  0.00000000000E+00 0.  1.
        -13    1    3    3    0    0 -0.65695488052E+01  0.25996284455E+02  0.53858237239E+02  0.60163739041E+02  0.00000000000E+00 0. -1.
         13    1    3    3    0    0  0.17390936525E+02 -0.48893805538E+02 -0.79623184319E+01  0.52501880043E+02  0.00000000000E+00 0.  1.
         -3    1    1    2    0  502 -0.29402446000E+02  0.48948892141E+01  0.58596868367E+01  0.30377618423E+02  0.00000000000E+00 0.  1.
<scales pt_clust_5="13000.00000" pt_clust_6="13000.00000" pt_clust_7="13000.00000" pt_clust_8="13000.00000" pt_clust_9="29.80712"></scales>
<clustering>
<clus scale="   29.807">  1  9  2 -1</clus>
<clus scale="   83.679">  5  6 -1 -1</clus>
<clus scale="   86.395">  1  5  2 -1</clus>
<clus scale="   99.728">  7  8 -1 -1</clus>
<clus scale="   29.807">  1  5  2 -1</clus>
</clustering>
</event>
<event>
 9    1  0.1727338E-004  0.9190175E+02  0.7546771E-02  0.1305462E+00
         21   -1    0    0  501  502  0.00000000000E+00  0.00000000000E+00  0.13522431235E+03  0.13522431235E+03  0.00000000000E+00 0. -1.
          3   -1    0    0  502    0 -0.00000000000E+00 -0.00000000000E+00 -0.36055953324E+03  0.36055953324E+03  0.00000000000E+00 0. -1.
         23    2    1    2    0    0 -0.72125574487E+01 -0.10932955885E+02 -0.25149743434E+03  0.26771295614E+03  0.90816941672E+02 0.  0.
        -24    2    1    2    0    0  0.28079792328E+02 -0.12902173544E+02 -0.80273532495E+02  0.11702079760E+03  0.79341579463E+02 0.  0.
         13    1    4    4    0    0  0.53326361775E+02 -0.21135102111E+02 -0.45210483297E+02  0.73036848244E+02  0.00000000000E+00 0. -1.
        -14    1    4    4    0    0 -0.25246569448E+02  0.82329285663E+01 -0.35063049198E+02  0.43983949353E+02  0.00000000000E+00 0.  1.
        -13    1    3    3    0    0 -0.57175595648E+01  0.34331228583E+02 -0.48322012595E+02  0.59551159893E+02  0.00000000000E+00 0.  1.
         13    1    3    3    0    0 -0.14949978839E+01 -0.45264184468E+02 -0.20317542175E+03  0.20816179625E+03  0.00000000000E+00 0. -1.
          4    1    1    2  501    0 -0.20867234879E+02  0.23835129430E+02  0.10643574594E+03  0.11105009186E+03  0.00000000000E+00 0. -1.
<scales pt_clust_5="13000.00000" pt_clust_6="13000.00000" pt_clust_7="13000.00000" pt_clust_8="13000.00000" pt_clust_9="31.67893"></scales>
<clustering>
<clus scale="   31.679">  1  9  2 -1</clus>
<clus scale="   79.342">  5  6 -1 -1</clus>
<clus scale="   80.581">  1  5  2 -1</clus>
<clus scale="   90.817">  7  8 -1 -1</clus>
<clus scale="   31.679">  1  5  2 -1</clus>
</clustering>
</event>
<event>
 9    1  0.6675710E-005  0.1058839E+03  0.7546771E-02  0.1274926E+00
          1   -1    0    0  502    0 -0.00000000000E+00  0.00000000000E+00  0.73934524646E+02  0.73934524646E+02  0.00000000000E+00 0. -1.
         21   -1    0    0  501  502  0.00000000000E+00 -0.00000000000E+00 -0.16509710555E+03  0.16509710555E+03  0.00000000000E+00 0.  1.
         23    2    1    2    0    0 -0.33090252551E+02 -0.43433521690E+02 -0.42084897172E+02  0.11424139335E+03  0.91096222561E+02 0.  0.
        -24    2    1    2    0    0  0.47183522938E+02  0.28662473322E+02 -0.37042160333E+02  0.10109091273E+03  0.76153980726E+02 0.  0.
         11    1    4    4    0    0  0.53009167496E+02 -0.10341773091E+02 -0.27069621216E+02  0.60412651838E+02  0.00000000000E+00 0. -1.
        -12    1    4    4    0    0 -0.58256445577E+01  0.39004246412E+02 -0.99725391178E+01  0.40678260891E+02  0.00000000000E+00 0.  1.
        -11    1    3    3    0    0  0.17280931088E+02 -0.38566404132E+02 -0.47227071732E+02  0.63375029872E+02  0.00000000000E+00 0.  1.
         11    1    3    3    0    0 -0.50371183640E+02 -0.48671175582E+01  0.51421745593E+01  0.50866363481E+02  0.00000000000E+00 0. -1.
          2    1    1    2  501    0 -0.14093270387E+02  0.14771048368E+02 -0.12035523401E+02  0.23699324118E+02  0.00000000000E+00 0. -1.
<scales pt_clust_5="13000.00000" pt_clust_6="13000.00000" pt_clust_7="13000.00000" pt_clust_8="13000.00000" pt_clust_9="20.41578"></scales>
<clustering>
<clus scale="   20.416">  2  9  1 -1</clus>
<clus scale="   76.154">  5  6 -1 -1</clus>
<clus scale="   91.096">  7  8 -1 -1</clus>
<clus scale="   93.340">  2  5  1 -1</clus>
<clus scale="   20.416">  2  5  1 -1</clus>
</clustering>
</event>
<event>
 9    1  0.6675710E-005  0.1248027E+03  0.7546771E-02  0.1239791E+00
         -2   -1    0    0    0  501 -0.00000000000E+00  0.00000000000E+00  0.87197304049E+03  0.87197304049E+03  0.00000000000E+00 0.  1.
         21   -1    0    0  501  502  0.00000000000E+00 -0.00000000000E+00 -0.29705755747E+02  0.29705755747E+02  0.00000000000E+00 0. -1.
        -24    2    1    2    0    0 -0.69889384484E+02  0.47668321486E+02  0.58744828423E+03  0.59875149574E+03  0.79063721554E+02 0.  0.
         23    2    1    2    0    0  0.73808508248E+02 -0.25951153343E+02  0.25276620285E+03  0.28076406740E+03  0.93896485483E+02 0.  0.
         13    1    3    3    0    0 -0.72274702422E+02  0.37680592216E+02  0.29304221279E+03  0.30416639873E+03  0.00000000000E+00 0. -1.
        -14    1    3    3    0    0  0.23853179384E+01  0.99877292705E+01  0.29440607144E+03  0.29458509700E+03  0.00000000000E+00 0.  1.
        -13    1    4    4    0    0  0.76499394589E+02 -0.36919438203E+00  0.10030587898E+03  0.12614897160E+03  0.00000000000E+00 0. -1.
         13    1    4    4    0    0 -0.26908863406E+01 -0.25581958961E+02  0.15246032387E+03  0.15461509580E+03  0.00000000000E+00 0.  1.
         -1    1    1    2    0  502 -0.39191237644E+01 -0.21717168143E+02  0.20527976567E+01  0.22163233100E+02  0.00000000000E+00 0.  1.
<scales pt_clust_5="13000.00000" pt_clust_6="13000.00000" pt_clust_7="13000.00000" pt_clust_8="13000.00000" pt_clust_9="22.06796"></scales>
<clustering>
<clus scale="   22.068">  2  9  1 -1</clus>
<clus scale="   79.064">  5  6 -1 -1</clus>
<clus scale="   93.896">  7  8 -1 -1</clus>
<clus scale="  114.062">  1  5  2 -1</clus>
<clus scale="   22.068">  2  5  1 -1</clus>
</clustering>
</event>
<event>
 9    1  0.6675710E-005  0.1351822E+03  0.7546771E-02  0.1244330E+00
         21   -1    0    0  501  502  0.00000000000E+00  0.00000000000E+00  0.80450310054E+02  0.80450310054E+02  0.00000000000E+00 0.  1.
         -2   -1    0    0    0  501 -0.00000000000E+00 -0.00000000000E+00 -0.40757163020E+03  0.40757163020E+03  0.00000000000E+00 0.  1.
        -24    2    1    2    0    0 -0.65110211817E+01 -0.85105841045E+01  0.37364068266E+01  0.81961383033E+02  0.81171941791E+02 0.  0.
         23    2    1    2    0    0 -0.92982059389E+02  0.27620438372E+02 -0.20391403107E+03  0.24364515912E+03  0.91506718392E+02 0.  0.
         13    1    3    3    0    0 -0.24065180198E+02  0.20826601916E+02 -0.22407555903E+02  0.38922728667E+02  0.00000000000E+00 0. -1.
        -14    1    3    3    0    0  0.17554159017E+02 -0.29337186021E+02  0.26143962730E+02  0.43038654366E+02  0.00000000000E+00 0.  1.
        -13    1    4    4    0    0  0.96353375321E+01  0.22233882604E+02 -0.74821030101E+02  0.78647134789E+02  0.00000000000E+00 0. -1.
         13    1    4    4    0    0 -0.10261739692E+03  0.53865557673E+01 -0.12909300096E+03  0.16499802433E+03  0.00000000000E+00 0.  1.
         -1    1    1    2    0  502  0.99493080570E+02 -0.19109854267E+02 -0.12694369591E+03  0.16241539811E+03  0.00000000000E+00 0.  1.
<scales pt_clust_5="13000.00000" pt_clust_6="13000.00000" pt_clust_7="13000.00000" pt_clust_8="13000.00000" pt_clust_9="99.50252"></scales>
<clustering>
<clus scale="   81.172">  5  6 -1 -1</clus>
<clus scale="   81.876">  2  5  1 -1</clus>
<clus scale="   91.507">  7  8 -1 -1</clus>
<clus scale="   99.503">  1  9  2 -1</clus>
<clus scale="   99.503">  1  5  2 -1</clus>
</clustering>
</event>
<event>
 9    1  0.6675710E-005  0.1393626E+03  0.7546771E-02  0.1234562E+00
         21   -1    0    0  501  502  0.00000000000E+00  0.00000000000E+00  0.32629919859E+03  0.32629919859E+03  0.00000000000E+00 0. -1.
          3   -1    0    0  502    0 -0.00000000000E+00 -0.00000000000E+00 -0.39559307341E+03  0.39559307341E+03  0.00000000000E+00 0. -1.
        -24    2    1    2    0    0  0.30753159390E+02  0.26984106414E+02 -0.10413144533E+03  0.13838359289E+03  0.81441770986E+02 0.  0.
         23    2    1    2    0    0 -0.35663091276E+02  0.79323697109E+02 -0.24974342191E+03  0.27968011270E+03  0.91022434879E+02 0.  0.
         11    1    3    3    0    0 -0.21596433226E+02  0.15444823045E+02 -0.70268396945E+01  0.27464977027E+02  0.00000000000E+00 0. -1.
        -12    1    3    3    0    0  0.52349592616E+02  0.11539283369E+02 -0.97104605640E+02  0.11091861586E+03  0.00000000000E+00 0.  1.
        -11    1    4    4    0    0 -0.41656728676E+02 -0.27193506285E+00 -0.12332687278E+03  0.13017247998E+03  0.00000000000E+00 0. -1.
         11    1    4    4    0    0  0.59936374001E+01  0.79595632172E+02 -0.12641654913E+03  0.14950763273E+03  0.00000000000E+00 0.  1.
          4    1    1    2  501    0  0.49099318860E+01 -0.10630780352E+03  0.28458099243E+03  0.30382856642E+03  0.00000000000E+00 0. -1.
<scales pt_clust_5="13000.00000" pt_clust_6="13000.00000" pt_clust_7="13000.00000" pt_clust_8="13000.00000" pt_clust_9="105.53126"></scales>
<clustering>
<clus scale="   81.442">  5  6 -1 -1</clus>
<clus scale="   91.022">  7  8 -1 -1</clus>
<clus scale="   91.141">  2  5  1 -1</clus>
<clus scale="  105.531">  1  9  2 -1</clus>
<clus scale="  105.531">  1  5  2 -1</clus>
</clustering>
</event>
<event>
 9    1  0.6675710E-005  0.9823902E+02  0.7546771E-02  0.1288590E+00
          1   -1    0    0  502    0 -0.00000000000E+00  0.00000000000E+00  0.50872736883E+03  0.50872736883E+03  0.00000000000E+00 0. -1.
         21   -1    0    0  501  502  0.00000000000E+00 -0.00000000000E+00 -0.12772156204E+03  0.12772156204E+03  0.00000000000E+00 0.  1.
        -24    2    1    2    0    0 -0.19460315667E+00 -0.40423498832E+02  0.46339824008E+03  0.47202344203E+03  0.80212865502E+02 0.  0.
         23    2    1    2    0    0 -0.35880640683E+01  0.61982653287E+02 -0.90160679291E+02  0.14119939665E+03  0.89182946874E+02 0.  0.
         13    1    3    3    0    0 -0.33538275529E+02  0.40007440974E+01  0.20002052343E+03  0.20285224099E+03  0.00000000000E+00 0. -1.
        -14    1    3    3    0    0  0.33343672373E+02 -0.44424242929E+02  0.26337771664E+03  0.26917120104E+03  0.00000000000E+00 0.  1.
        -11    1    4    4    0    0  0.41026540920E+02  0.38204045528E+02 -0.60952877827E+02  0.82812918497E+02  0.00000000000E+00 0. -1.
         11    1    4    4    0    0 -0.44614604989E+02  0.23778607759E+02 -0.29207801464E+02  0.58386478157E+02  0.00000000000E+00 0.  1.
          2    1    1    2  501    0  0.37826672250E+01 -0.21559154455E+02  0.77682460043E+01  0.23226092184E+02  0.00000000000E+00 0. -1.
<scales pt_clust_5="13000.00000" pt_clust_6="13000.00000" pt_clust_7="13000.00000" pt_clust_8="13000.00000" pt_clust_9="21.88848"></scales>
<clustering>
<clus scale="   21.888">  2  9  1 -1</clus>
<clus scale="   80.213">  5  6 -1 -1</clus>
<clus scale="   89.183">  7  8 -1 -1</clus>
<clus scale="   90.174">  1  5  2 -1</clus>
<clus scale="   21.888">  2  5  1 -1</clus>
</clustering>
</event>
<event>
 9    1  0.6675710E-005  0.9523113E+02  0.7546771E-02  0.1298089E+00
         -4   -1    0    0    0  501 -0.00000000000E+00  0.00000000000E+00  0.45164547500E+03  0.45164547500E+03  0.00000000000E+00 0.  1.
         21   -1    0    0  501  502  0.00000000000E+00 -0.00000000000E+00 -0.40299820168E+02  0.40299820168E+02  0.00000000000E+00 0. -1.
        -24    2    1    2    0    0  0.40491949676E+01 -0.57974335750E+00  0.11363942281E+03  0.13833163131E+03  0.78771757137E+02 0.  0.
         23    2    1    2    0    0  0.59940254120E+02 -0.36864395505E+02  0.16201190490E+03  0.19898616455E+03  0.91628699824E+02 0.  0.
         11    1    3    3    0    0 -0.37188902530E+02 -0.43290063043E+01  0.52067084236E+02  0.64130616930E+02  0.00000000000E+00 0. -1.
        -12    1    3    3    0    0  0.41238097497E+02  0.37492629468E+01  0.61572338570E+02  0.74201014379E+02  0.00000000000E+00 0.  1.
        -11    1    4    4    0    0 -0.22684352219E+02 -0.16326997012E+02  0.59443097916E+02  0.65685862687E+02  0.00000000000E+00 0.  1.
         11    1    4    4    0    0  0.82624606340E+02 -0.20537398493E+02  0.10256880698E+03  0.13330030186E+03  0.00000000000E+00 0. -1.
         -3    1    1    2    0  502 -0.63989449088E+02  0.37444138863E+02  0.13569432712E+03  0.15462749931E+03  0.00000000000E+00 0.  1.
<scales pt_clust_5="13000.00000" pt_clust_6="13000.00000" pt_clust_7="13000.00000" pt_clust_8="13000.00000" pt_clust_9="74.13986"></scales>
<clustering>
<clus scale="   74.140">  2  9  1 -1</clus>
<clus scale="   78.772">  5  6 -1 -1</clus>
<clus scale="   82.935">  1  5  2 -1</clus>
<clus scale="   91.629">  7  8 -1 -1</clus>
<clus scale="   74.140">  2  5  1 -1</clus>
</clustering>
</event>
<event>
 9    1  0.6675710E-005  0.1079968E+03  0.7546771E-02  0.1266644E+00
          1   -1    0    0  502    0 -0.00000000000E+00  0.00000000000E+00  0.55766610012E+02  0.55766610012E+02  0.00000000000E+00 0. -1.
         21   -1    0    0  501  502  0.00000000000E+00 -0.00000000000E+00 -0.35907942844E+03  0.35907942844E+03  0.00000000000E+00 0. -1.
        -24    2    1    2    0    0 -0.79851477747E+02 -0.11700279439E+02 -0.11974563052E+03  0.16777304727E+03  0.85414426906E+02 0.  0.
         23    2    1    2    0    0  0.24518601490E+02  0.32543445466E+02 -0.14654478399E+03  0.17731037113E+03  0.91122754197E+02 0.  0.
         11    1    3    3    0    0 -0.72442025410E+02 -0.38516507900E+02 -0.59298470419E+02  0.10123081063E+03  0.00000000000E+00 0. -1.
        -12    1    3    3    0    0 -0.74094523373E+01  0.26816228461E+02 -0.60447160105E+02  0.66542236643E+02  0.00000000000E+00 0.  1.
        -13    1    4    4    0    0 -0.17022607950E+02  0.46887631647E+02 -0.47176901787E+02  0.68657696183E+02  0.00000000000E+00 0. -1.
         13    1    4    4    0    0  0.41541209440E+02 -0.14344186181E+02 -0.99367882205E+02  0.10865267495E+03  0.00000000000E+00 0.  1.
          2    1    1    2  501    0  0.55332876258E+02 -0.20843166026E+02 -0.37022403908E+02  0.69762620049E+02  0.00000000000E+00 0. -1.
<scales pt_clust_5="13000.00000" pt_clust_6="13000.00000" pt_clust_7="13000.00000" pt_clust_8="13000.00000" pt_clust_9="59.12840"></scales>
<clustering>
<clus scale="   59.128">  2  9  1 -1</clus>
<clus scale="   85.414">  5  6 -1 -1</clus>
<clus scale="   91.123">  7  8 -1 -1</clus>
<clus scale="  103.226">  1  5  2 -1</clus>
<clus scale="   59.128">  2  5  1 -1</clus>
</clustering>
</event>
<event>
 9    1  0.6675710E-005  0.1267102E+03  0.7546771E-02  0.1235330E+00
         21   -1    0    0  501  502  0.00000000000E+00  0.00000000000E+00  0.23897678909E+02  0.23897678909E+02  0.00000000000E+00 0. -1.
          1   -1    0    0  502    0 -0.00000000000E+00 -0.00000000000E+00 -0.12370013069E+04  0.12370013069E+04  0.00000000000E+00 0. -1.
        -24    2    1    2    0    0 -0.12748845089E+02 -0.10027300883E+03 -0.81972423406E+03  0.82994204374E+03  0.81478627346E+02 0.  0.
         23    2    1    2    0    0  0.46099085805E+02  0.48003154471E+02 -0.26999887816E+03  0.29287317075E+03  0.91901422106E+02 0.  0.
         13    1    3    3    0    0 -0.25058184295E+02 -0.28196904794E+02 -0.10657310524E+03  0.11305222157E+03  0.00000000000E+00 0. -1.
        -14    1    3    3    0    0  0.12309339205E+02 -0.72076104035E+02 -0.71315112882E+03  0.71688982218E+03  0.00000000000E+00 0.  1.
        -11    1    4    4    0    0 -0.10511436711E+02  0.53221076466E+02 -0.16173238085E+03  0.17058820679E+03  0.00000000000E+00 0.  1.
         11    1    4    4    0    0  0.56610522516E+02 -0.52179219942E+01 -0.10826649732E+03  0.12228496396E+03  0.00000000000E+00 0. -1.
          2    1    1    2  501    0 -0.33350240716E+02  0.52269854357E+02 -0.12338051578E+03  0.13808377133E+03  0.00000000000E+00 0. -1.
<scales pt_clust_5="13000.00000" pt_clust_6="13000.00000" pt_clust_7="13000.00000" pt_clust_8="13000.00000" pt_clust_9="62.00303"></scales>
<clustering>
<clus scale="   62.003">  1  9  2 -1</clus>
<clus scale="   81.479">  5  6 -1 -1</clus>
<clus scale="   91.901">  7  8 -1 -1</clus>
<clus scale="  119.367">  2  5  1 -1</clus>
<clus scale="   62.003">  1  5  2 -1</clus>
</clustering>
</event>
<event>
 9    1  0.6675710E-005  0.1285678E+03  0.7546771E-02  0.1233015E+00
          1   -1    0    0  502    0 -0.00000000000E+00  0.00000000000E+00  0.29390380889E+03  0.29390380889E+03  0.00000000000E+00 0. -1.
         21   -1    0    0  501  502  0.00000000000E+00 -0.00000000000E+00 -0.30041793036E+03  0.30041793036E+03  0.00000000000E+00 0. -1.
        -24    2    1    2    0    0 -0.52866814847E+02  0.78457881776E+02  0.22347805352E+03  0.25510228516E+03  0.78639660260E+02 0.  0.
         23    2    1    2    0    0 -0.54082233759E+02 -0.92022438071E+02 -0.11491691659E+03  0.18153492320E+03  0.91411232930E+02 0.  0.
         11    1    3    3    0    0 -0.27505270452E+02  0.44988078376E+02  0.20032606281E+03  0.20714970079E+03  0.00000000000E+00 0. -1.
        -12    1    3    3    0    0 -0.25361544396E+02  0.33469803400E+02  0.23151990710E+02  0.47952584368E+02  0.00000000000E+00 0.  1.
        -13    1    4    4    0    0 -0.21117595436E+02 -0.10181716597E+03 -0.99243162327E+02  0.14374245507E+03  0.00000000000E+00 0. -1.
         13    1    4    4    0    0 -0.32964638323E+02  0.97947278943E+01 -0.15673754262E+02  0.37792468125E+02  0.00000000000E+00 0.  1.
          2    1    1    2  501    0  0.10694904861E+03  0.13564556295E+02 -0.11507525840E+03  0.15768453089E+03  0.00000000000E+00 0. -1.
<scales pt_clust_5="13000.00000" pt_clust_6="13000.00000" pt_clust_7="13000.00000" pt_clust_8="13000.00000" pt_clust_9="107.80583"></scales>
<clustering>
<clus scale="   78.640">  5  6 -1 -1</clus>
<clus scale="   91.411">  7  8 -1 -1</clus>
<clus scale="  107.806">  2  9  1 -1</clus>
<clus scale="  119.824">  1  5  2 -1</clus>
<clus scale="  107.806">  2  5  1 -1</clus>
</clustering>
</event>
<event>
 9    1  0.6675710E-005  0.1287283E+03  0.7546771E-02  0.1248858E+00
          1   -1    0    0  502    0 -0.00000000000E+00  0.00000000000E+00  0.51486823843E+03  0.51486823843E+03  0.00000000000E+00 0. -1.
         21   -1    0    0  501  502  0.00000000000E+00 -0.00000000000E+00 -0.64217529977E+02  0.64217529977E+02  0.00000000000E+00 0.  1.
        -24    2    1    2    0    0 -0.21721327222E+02 -0.33203934653E+02  0.89255074437E+02  0.12434481877E+03  0.76947048744E+02 0.  0.
         23    2    1    2    0    0 -0.70117526533E+02  0.17427344589E+02  0.33917065188E+03  0.35894311206E+03  0.92645813351E+02 0.  0.
         13    1    3    3    0    0 -0.17799978986E+02  0.23247058828E+02  0.23133455751E+02  0.37315168110E+02  0.00000000000E+00 0. -1.
        -14    1    3    3    0    0 -0.39213482351E+01 -0.56450993481E+02  0.66121618686E+02  0.87029650663E+02  0.00000000000E+00 0.  1.
        -11    1    4    4    0    0 -0.32127255102E+02 -0.38293284708E+02  0.15023529342E+03  0.15833249686E+03  0.00000000000E+00 0. -1.
         11    1    4    4    0    0 -0.37990271431E+02  0.55720629297E+02  0.18893535846E+03  0.20061061520E+03  0.00000000000E+00 0.  1.
          2    1    1    2  501    0  0.91838853755E+02  0.15776590063E+02  0.22224982136E+02  0.95797837574E+02  0.00000000000E+00 0. -1.
<scales pt_clust_5="13000.00000" pt_clust_6="13000.00000" pt_clust_7="13000.00000" pt_clust_8="13000.00000" pt_clust_9="89.37410"></scales>
<clustering>
<clus scale="   76.947">  5  6 -1 -1</clus>
<clus scale="   86.575">  1  5  2 -1</clus>
<clus scale="   89.374">  2  9  1 -1</clus>
<clus scale="   92.646">  7  8 -1 -1</clus>
<clus scale="   89.374">  2  5  1 -1</clus>
</clustering>
</event>
<event>
 9    1  0.6675710E-005  0.1347561E+03  0.7546771E-02  0.1226559E+00
         21   -1    0    0  501  502  0.00000000000E+00  0.00000000000E+00  0.51829920870E+03  0.51829920870E+03  0.00000000000E+00 0. -1.
          1   -1    0    0  502    0 -0.00000000000E+00 -0.00000000000E+00 -0.58559935506E+02  0.58559935506E+02  0.00000000000E+00 0. -1.
         23    2    1    2    0    0 -0.88300234915E+02 -0.26533503715E+01  0.94578555493E+02  0.16453172185E+03  0.10159533740E+03 0.  0.
        -24    2    1    2    0    0  0.85107284089E+02  0.35116125054E+02  0.14257300655E+03  0.18736227877E+03  0.79379904655E+02 0.  0.
         13    1    4    4    0    0  0.64342707880E+02  0.48149488327E+02  0.57470417865E+02  0.98798816860E+02  0.00000000000E+00 0. -1.
        -14    1    4    4    0    0  0.20764576209E+02 -0.13033363272E+02  0.85102588688E+02  0.88563461906E+02  0.00000000000E+00 0.  1.
        -11    1    3    3    0    0 -0.34699578645E+02  0.15851056687E+01  0.10426439433E+03  0.10989830409E+03  0.00000000000E+00 0.  1.
         11    1    3    3    0    0 -0.53600656270E+02 -0.42384560402E+01 -0.96858388337E+01  0.54633417759E+02  0.00000000000E+00 0. -1.
          2    1    1    2  501    0  0.31929508257E+01 -0.32462774683E+02  0.22258771114E+03  0.22496514358E+03  0.00000000000E+00 0. -1.
<scales pt_clust_5="13000.00000" pt_clust_6="13000.00000" pt_clust_7="13000.00000" pt_clust_8="13000.00000" pt_clust_9="32.61942"></scales>
<clustering>
<clus scale="   32.619">  1  9  2 -1</clus>
<clus scale="   79.380">  5  6 -1 -1</clus>
<clus scale="  101.595">  7  8 -1 -1</clus>
<clus scale="  118.907">  1  5  2 -1</clus>
<clus scale="   32.619">  1  5  2 -1</clus>
</clustering>
</event>
<event>
 9    1  0.6675710E-005  0.2500342E+03  0.7546771E-02  0.1140314E+00
          3   -1    0    0  502    0 -0.00000000000E+00  0.00000000000E+00  0.60100870978E+03  0.60100870978E+03  0.00000000000E+00 0. -1.
         21   -1    0    0  501  502  0.00000000000E+00 -0.00000000000E+00 -0.16140394391E+03  0.16140394391E+03  0.00000000000E+00 0.  1.
        -24    2    1    2    0    0  0.87670252743E+02  0.48448964900E+02  0.80919563398E+02  0.15162375825E+03  0.80052563416E+02 0.  0.
         23    2    1    2    0    0 -0.10359429674E+03 -0.24554099496E+03  0.13846478572E+03  0.31482289157E+03  0.94439386128E+02 0.  0.
         13    1    3    3    0    0  0.77911435792E+02  0.12428609809E+02  0.22046180335E+02  0.81918839325E+02  0.00000000000E+00 0. -1.
        -14    1    3    3    0    0  0.97588169510E+01  0.36020355091E+02  0.58873383062E+02  0.69704918925E+02  0.00000000000E+00 0.  1.
        -11    1    4    4    0    0 -0.79568742418E+02 -0.24614316237E+03  0.12775033368E+03  0.28850959934E+03  0.00000000000E+00 0.  1.
         11    1    4    4    0    0 -0.24025554319E+02  0.60216741367E+00  0.10714452033E+02  0.26313292236E+02  0.00000000000E+00 0. -1.
          4    1    1    2  501    0  0.15924043994E+02  0.19709203006E+03  0.22022041676E+03  0.29596600387E+03  0.00000000000E+00 0. -1.
<scales pt_clust_5="13000.00000" pt_clust_6="13000.00000" pt_clust_7="13000.00000" pt_clust_8="13000.00000" pt_clust_9="231.51317"></scales>
<clustering>
<clus scale="   80.053">  5  6 -1 -1</clus>
<clus scale="   94.439">  7  8 -1 -1</clus>
<clus scale="  128.226">  1  5  2 -1</clus>
<clus scale="  231.513">  2  9  1 -1</clus>
<clus scale="  231.513">  2  5  1 -1</clus>
</clustering>
</event>
<event>
 9    1  0.6675710E-005  0.1401089E+03  0.7546771E-02  0.1214930E+00
         21   -1    0    0  501  502  0.00000000000E+00  0.00000000000E+00  0.96553364138E+02  0.96553364138E+02  0.00000000000E+00 0. -1.
          3   -1    0    0  502    0 -0.00000000000E+00 -0.00000000000E+00 -0.54545169058E+03  0.54545169058E+03  0.00000000000E+00 0. -1.
        -24    2    1    2    0    0  0.67212041894E+02  0.82647324428E+02 -0.44278817984E+03  0.46264708207E+03  0.81442688670E+02 0.  0.
         23    2    1    2    0    0 -0.51178426881E+02 -0.10662307598E+03 -0.15045245760E+02  0.14916278313E+03  0.89640753804E+02 0.  0.
         13    1    3    3    0    0  0.58265269104E+02  0.86985282349E+02 -0.44005115365E+03  0.45233427767E+03  0.00000000000E+00 0. -1.
        -14    1    3    3    0    0  0.89467727902E+01 -0.43379579205E+01 -0.27370261871E+01  0.10312804402E+02  0.00000000000E+00 0.  1.
        -13    1    4    4    0    0  0.17825714943E+02 -0.57723972218E+02 -0.22021141597E+02  0.64301973213E+02  0.00000000000E+00 0. -1.
         13    1    4    4    0    0 -0.69004141824E+02 -0.48899103763E+02  0.69758958371E+01  0.84860809921E+02  0.00000000000E+00 0.  1.
          4    1    1    2  501    0 -0.16033615013E+02  0.23975751553E+02  0.89350991517E+01  0.30195189514E+02  0.00000000000E+00 0. -1.
<scales pt_clust_5="13000.00000" pt_clust_6="13000.00000" pt_clust_7="13000.00000" pt_clust_8="13000.00000" pt_clust_9="28.84291"></scales>
<clustering>
<clus scale="   28.843">  1  9  2 -1</clus>
<clus scale="   81.443">  5  6 -1 -1</clus>
<clus scale="   89.641">  7  8 -1 -1</clus>
<clus scale="  135.011">  2  5  1 -1</clus>
<clus scale="   28.843">  1  5  2 -1</clus>
</clustering>
</event>
<event>
 9    1  0.6675710E-005  0.1104118E+03  0.7546771E-02  0.1270177E+00
         21   -1    0    0  501  502  0.00000000000E+00  0.00000000000E+00  0.96943185216E+02  0.96943185216E+02  0.00000000000E+00 0.  1.
          1   -1    0    0  502    0 -0.00000000000E+00 -0.00000000000E+00 -0.19760140119E+03  0.19760140119E+03  0.00000000000E+00 0. -1.
         23    2    1    2    0    0 -0.21149427184E+02 -0.17529954110E+02 -0.69675436668E+02  0.12733155175E+03  0.10297601679E+03 0.  0.
        -24    2    1    2    0    0  0.29650708647E+02  0.40927911536E+02 -0.71792293250E+02  0.11940976462E+03  0.80933923973E+02 0.  0.
         11    1    4    4    0    0 -0.27981893235E+02  0.85821434211E+01 -0.20094565610E+02  0.35502550638E+02  0.00000000000E+00 0. -1.
        -12    1    4    4    0    0  0.57632601882E+02  0.32345768115E+02 -0.51697727640E+02  0.83907213979E+02  0.00000000000E+00 0.  1.
        -13    1    3    3    0    0 -0.40777601264E+02 -0.21686357125E+02  0.82045661058E+01  0.46908695944E+02  0.00000000000E+00 0.  1.
         13    1    3    3    0    0  0.19628174081E+02  0.41564030153E+01 -0.77880002774E+02  0.80422855805E+02  0.00000000000E+00 0. -1.
          2    1    1    2  501    0 -0.85012814628E+01 -0.23397957426E+02  0.40809513944E+02  0.47803270041E+02  0.00000000000E+00 0. -1.
<scales pt_clust_5="13000.00000" pt_clust_6="13000.00000" pt_clust_7="13000.00000" pt_clust_8="13000.00000" pt_clust_9="24.89450"></scales>
<clustering>
<clus scale="   24.895">  1  9  2 -1</clus>
<clus scale="   80.934">  5  6 -1 -1</clus>
<clus scale="   90.205">  1  5  2 -1</clus>
<clus scale="  102.976">  7  8 -1 -1</clus>
<clus scale="   24.895">  1  5  2 -1</clus>
</clustering>
</event>
<event>
 9    1  0.6675710E-005  0.9789379E+02  0.7546771E-02  0.1290209E+00
          1   -1    0    0  502    0 -0.00000000000E+00  0.00000000000E+00  0.40399988430E+02  0.40399988430E+02  0.00000000000E+00 0. -1.
         21   -1    0    0  501  502  0.00000000000E+00 -0.00000000000E+00 -0.53137207363E+03  0.53137207363E+03  0.00000000000E+00 0. -1.
        -24    2    1    2    0    0 -0.50252788114E+02 -0.25856251204E+02 -0.73677080857E+02  0.12310833246E+03  0.80829826415E+02 0.  0.
         23    2    1    2    0    0 -0.11810655112E+02 -0.11165066509E+02 -0.23518839956E+03  0.25274215229E+03  0.91109066353E+02 0.  0.
         13    1    3    3    0    0  0.36584185612E+01 -0.41177866922E+02 -0.21789157540E+02  0.46730805010E+02  0.00000000000E+00 0. -1.
        -14    1    3    3    0    0 -0.53911206675E+02  0.15321615718E+02 -0.51887923318E+02  0.76377527451E+02  0.00000000000E+00 0.  1.
        -11    1    4    4    0    0  0.32250695506E+02  0.54588891956E+01 -0.38615789272E+02  0.50607173533E+02  0.00000000000E+00 0.  1.
         11    1    4    4    0    0 -0.44061350618E+02 -0.16623955705E+02 -0.19657261029E+03  0.20213497876E+03  0.00000000000E+00 0. -1.
          2    1    1    2  501    0  0.62063443226E+02  0.37021317713E+02 -0.18210660479E+03  0.19592157731E+03  0.00000000000E+00 0. -1.
<scales pt_clust_5="13000.00000" pt_clust_6="13000.00000" pt_clust_7="13000.00000" pt_clust_8="13000.00000" pt_clust_9="72.26651"></scales>
<clustering>
<clus scale="   72.267">  2  9  1 -1</clus>
<clus scale="   80.830">  5  6 -1 -1</clus>
<clus scale="   88.407">  1  5  2 -1</clus>
<clus scale="   91.109">  7  8 -1 -1</clus>
<clus scale="   72.267">  2  5  1 -1</clus>
</clustering>
</event>
<event>
 9    1  0.6675710E-005  0.9457694E+02  0.7546771E-02  0.1301709E+00
          1   -1    0    0  502    0 -0.00000000000E+00  0.00000000000E+00  0.67518702161E+03  0.67518702161E+03  0.00000000000E+00 0. -1.
         21   -1    0    0  501  502  0.00000000000E+00 -0.00000000000E+00 -0.16937524722E+02  0.16937524722E+02  0.00000000000E+00 0.  1.
         23    2    1    2    0    0 -0.32182191703E+02  0.13975972960E+02  0.28493782187E+03  0.30135534162E+03  0.91621276487E+02 0.  0.
        -24    2    1    2    0    0  0.39302604999E+01 -0.17058492047E+02  0.18977479080E+03  0.20504505063E+03  0.75647620374E+02 0.  0.
         13    1    4    4    0    0 -0.35710479188E+02 -0.11925981446E+02  0.89411287281E+02  0.97014667192E+02  0.00000000000E+00 0. -1.
        -14    1    4    4    0    0  0.39640739688E+02 -0.51325106010E+01  0.10036350352E+03  0.10803038344E+03  0.00000000000E+00 0.  1.
        -11    1    3    3    0    0 -0.63875656740E+02  0.17466735100E+02  0.19110724621E+03  0.20225519996E+03  0.00000000000E+00 0.  1.
         11    1    3    3    0    0  0.31693465037E+02 -0.34907621401E+01  0.93830575669E+02  0.99100141658E+02  0.00000000000E+00 0. -1.
          2    1    1    2  501    0  0.28251931203E+02  0.30825190871E+01  0.18353688422E+03  0.18572415408E+03  0.00000000000E+00 0. -1.
<scales pt_clust_5="13000.00000" pt_clust_6="13000.00000" pt_clust_7="13000.00000" pt_clust_8="13000.00000" pt_clust_9="28.41961"></scales>
<clustering>
<clus scale="   28.420">  2  9  1 -1</clus>
<clus scale="   75.648">  5  6 -1 -1</clus>
<clus scale="   79.202">  2  5  1 -1</clus>
<clus scale="   91.621">  7  8 -1 -1</clus>
<clus scale="   28.420">  2  5  1 -1</clus>
</clustering>
</event>
<event>
 9    1  0.6675710E-005  0.9324711E+02  0.7546771E-02  0.1297411E+00
          1   -1    0    0  502    0 -0.00000000000E+00  0.00000000000E+00  0.12401020146E+03  0.12401020146E+03  0.00000000000E+00 0. -1.
         21   -1    0    0  501  502  0.00000000000E+00 -0.00000000000E+00 -0.18237933716E+03  0.18237933716E+03  0.00000000000E+00 0.  1.
        -24    2    1    2    0    0 -0.23817186569E+02  0.26615739818E+02  0.82747189522E+02  0.12246148238E+03  0.82909959061E+02 0.  0.
         23    2    1    2    0    0  0.27527044687E+02 -0.54878312549E+00 -0.11554530145E+03  0.14722483383E+03  0.86985031227E+02 0.  0.
         13    1    3    3    0    0 -0.21877784290E+02  0.40909339713E+02  0.93562573649E+02  0.10443259409E+03  0.00000000000E+00 0. -1.
        -14    1    3    3    0    0 -0.19394022795E+01 -0.14293599895E+02 -0.10815384127E+02  0.18028888290E+02  0.00000000000E+00 0.  1.
        -13    1    4    4    0    0  0.89749619777E+01  0.37586329268E+02 -0.21882662409E+02  0.44408704152E+02  0.00000000000E+00 0. -1.
         13    1    4    4    0    0  0.18552082709E+02 -0.38135112394E+02 -0.93662639044E+02  0.10281612968E+03  0.00000000000E+00 0.  1.
          2    1    1    2  501    0 -0.37098581177E+01 -0.26066956693E+02 -0.25571023767E+02  0.36703222405E+02  0.00000000000E+00 0. -1.
<scales pt_clust_5="13000.00000" pt_clust_6="13000.00000" pt_clust_7="13000.00000" pt_clust_8="13000.00000" pt_clust_9="26.32963"></scales>
<clustering>
<clus scale="   26.330">  2  9  1 -1</clus>
<clus scale="   82.910">  5  6 -1 -1</clus>
<clus scale="   86.985">  7  8 -1 -1</clus>
<clus scale="   89.458">  1  5  2 -1</clus>
<clus scale="   26.330">  2  5  1 -1</clus>
</clustering>
</event>
<event>
 9    1  0.6675710E-005  0.6674069E+03  0.7546771E-02  0.9774654E-01
         21   -1    0    0  501  502  0.00000000000E+00  0.00000000000E+00  0.19800831448E+04  0.19800831448E+04  0.00000000000E+00 0. -1.
          1   -1    0    0  502    0 -0.00000000000E+00 -0.00000000000E+00 -0.22646494526E+03  0.22646494526E+03  0.00000000000E+00 0. -1.
        -24    2    1    2    0    0 -0.40494375194E+03 -0.70618941382E+01  0.33974515723E+03  0.53493464088E+03  0.81847330836E+02 0.  0.
         23    2    1    2    0    0 -0.21975482378E+03 -0.77971823176E+02  0.28836095147E+03  0.38155278773E+03  0.89770282976E+02 0.  0.
         13    1    3    3    0    0 -0.26010285198E+03 -0.30213126337E+02  0.17821249799E+03  0.31674283110E+03  0.00000000000E+00 0. -1.
        -14    1    3    3    0    0 -0.14484089996E+03  0.23151232199E+02  0.16153265925E+03  0.21819180978E+03  0.00000000000E+00 0.  1.
        -11    1    4    4    0    0 -0.22193732072E+02  0.19488246466E+02  0.32127518890E+02  0.43640932204E+02  0.00000000000E+00 0. -1.
         11    1    4    4    0    0 -0.19756109171E+03 -0.97460069642E+02  0.25623343258E+03  0.33791185552E+03  0.00000000000E+00 0.  1.
          2    1    1    2  501    0  0.62469857573E+03  0.85033717315E+02  0.11255120908E+04  0.12900606614E+04  0.00000000000E+00 0. -1.
<scales pt_clust_5="13000.00000" pt_clust_6="13000.00000" pt_clust_7="13000.00000" pt_clust_8="13000.00000" pt_clust_9="630.45939"></scales>
<clustering>
<clus scale="   81.847">  5  6 -1 -1</clus>
<clus scale="   89.770">  7  8 -1 -1</clus>
<clus scale="  129.375">  5  7 -1 -1</clus>
<clus scale="  630.459">  1  9  2 -1</clus>
<clus scale="  630.459">  1  5  2 -1</clus>
</clustering>
</event>
<event>
 9    1  0.6675710E-005  0.1238007E+03  0.7546771E-02  0.1251357E+00
         21   -1    0    0  501  502  0.00000000000E+00  0.00000000000E+00  0.23137545035E+03  0.23137545035E+03  0.00000000000E+00 0.  1.
          1   -1    0    0  502    0 -0.00000000000E+00 -0.00000000000E+00 -0.41033104931E+03  0.41033104931E+03  0.00000000000E+00 0. -1.
        -24    2    1    2    0    0 -0.25404754145E+02  0.31636926247E+02 -0.33401696374E+03  0.34661253899E+03  0.83226338908E+02 0.  0.
         23    2    1    2    0    0  0.21785631853E+02  0.72931719274E+02  0.14853733496E+03  0.19025950719E+03  0.91332856989E+02 0.  0.
         11    1    3    3    0    0 -0.46328772479E+02 -0.37817862469E+01 -0.12021127327E+03  0.12888524853E+03  0.00000000000E+00 0. -1.
        -12    1    3    3    0    0  0.20924018334E+02  0.35418712494E+02 -0.21380569046E+03  0.21772729046E+03  0.00000000000E+00 0.  1.
        -13    1    4    4    0    0  0.36163444511E+02  0.89707473236E+02  0.11821570841E+03  0.15274219845E+03  0.00000000000E+00 0.  1.
         13    1    4    4    0    0 -0.14377812659E+02 -0.16775753962E+02  0.30321626556E+02  0.37517308737E+02  0.00000000000E+00 0. -1.
          2    1    1    2  501    0  0.36191222927E+01 -0.10456864552E+03  0.65240298161E+01  0.10483445348E+03  0.00000000000E+00 0. -1.
<scales pt_clust_5="13000.00000" pt_clust_6="13000.00000" pt_clust_7="13000.00000" pt_clust_8="13000.00000" pt_clust_9="83.57585"></scales>
<clustering>
<clus scale="   83.226">  5  6 -1 -1</clus>
<clus scale="   91.333">  7  8 -1 -1</clus>
<clus scale="   92.590">  2  5  1 -1</clus>
<clus scale="   83.576">  1  9  2 -1</clus>
<clus scale="   83.576">  1  5  2 -1</clus>
</clustering>
</event>
<event>
 9    1  0.6675710E-005  0.4192477E+03  0.7546771E-02  0.1037311E+00
          1   -1    0    0  502    0 -0.00000000000E+00  0.00000000000E+00  0.12259419808E+04  0.12259419808E+04  0.00000000000E+00 0. -1.
         21   -1    0    0  501  502  0.00000000000E+00 -0.00000000000E+00 -0.33599569057E+03  0.33599569057E+03  0.00000000000E+00 0. -1.
        -24    2    1    2    0    0 -0.36304358319E+01 -0.20572860368E+03  0.69313357391E+03  0.72746141824E+03  0.80178084987E+02 0.  0.
         23    2    1    2    0    0 -0.33471254406E+02 -0.16162021713E+03  0.37829119439E+03  0.42306875499E+03  0.92959799043E+02 0.  0.
         13    1    3    3    0    0 -0.33411595116E+02 -0.15136410439E+03  0.42880297767E+03  0.45595988908E+03  0.00000000000E+00 0. -1.
        -14    1    3    3    0    0  0.29781159285E+02 -0.54364499286E+02  0.26433059623E+03  0.27150152916E+03  0.00000000000E+00 0.  1.
        -13    1    4    4    0    0  0.20326871294E+02 -0.87014327705E+01  0.86398453475E+02  0.89182898539E+02  0.00000000000E+00 0. -1.
         13    1    4    4    0    0 -0.53798125701E+02 -0.15291878435E+03  0.29189274092E+03  0.33388585645E+03  0.00000000000E+00 0.  1.
          2    1    1    2  501    0  0.37101690238E+02  0.36734882080E+03 -0.18147847804E+03  0.41140749817E+03  0.00000000000E+00 0. -1.
<scales pt_clust_5="13000.00000" pt_clust_6="13000.00000" pt_clust_7="13000.00000" pt_clust_8="13000.00000" pt_clust_9="369.21768"></scales>
<clustering>
<clus scale="   80.178">  5  6 -1 -1</clus>
<clus scale="   92.960">  7  8 -1 -1</clus>
<clus scale="  116.884">  5  7 -1 -1</clus>
<clus scale="  369.218">  2  9  1 -1</clus>
<clus scale="  369.218">  2  5  1 -1</clus>
</clustering>
</event>
<event>
 9    1  0.6675710E-005  0.2513745E+03  0.7546771E-02  0.1112439E+00
         21   -1    0    0  501  502  0.00000000000E+00  0.00000000000E+00  0.34497670881E+02  0.34497670881E+02  0.00000000000E+00 0. -1.
          1   -1    0    0  502    0 -0.00000000000E+00 -0.00000000000E+00 -0.14253375900E+04  0.14253375900E+04  0.00000000000E+00 0. -1.
        -24    2    1    2    0    0 -0.26936165137E+01 -0.79963539858E+02 -0.60132582587E+03  0.61196299830E+03  0.80650723196E+02 0.  0.
         23    2    1    2    0    0  0.72913695240E+00 -0.92875058291E+02 -0.42131397523E+03  0.44111881503E+03  0.91945827277E+02 0.  0.
         13    1    3    3    0    0  0.34038648196E+02 -0.65698650111E+02 -0.40960790677E+03  0.41623740760E+03  0.00000000000E+00 0. -1.
        -14    1    3    3    0    0 -0.36732264709E+02 -0.14264889747E+02 -0.19171791910E+03  0.19572559070E+03  0.00000000000E+00 0.  1.
        -13    1    4    4    0    0  0.45058311420E+02 -0.33582165015E+02 -0.16362134062E+03  0.17300276397E+03  0.00000000000E+00 0.  1.
         13    1    4    4    0    0 -0.44329174468E+02 -0.59292893277E+02 -0.25769263461E+03  0.26811605105E+03  0.00000000000E+00 0. -1.
          2    1    1    2  501    0  0.19644795613E+01  0.17283859815E+03 -0.36820011803E+03  0.40675344757E+03  0.00000000000E+00 0. -1.
<scales pt_clust_5="13000.00000" pt_clust_6="13000.00000" pt_clust_7="13000.00000" pt_clust_8="13000.00000" pt_clust_9="172.84976"></scales>
<clustering>
<clus scale="   80.651">  5  6 -1 -1</clus>
<clus scale="   91.946">  7  8 -1 -1</clus>
<clus scale="  106.481">  5  7 -1 -1</clus>
<clus scale="  172.850">  1  9  2 -1</clus>
<clus scale="  172.850">  1  5  2 -1</clus>
</clustering>
</event>
<event>
 9    1  0.6675710E-005  0.1211753E+03  0.7546771E-02  0.1245755E+00
         21   -1    0    0  501  502  0.00000000000E+00  0.00000000000E+00  0.21526788964E+03  0.21526788964E+03  0.00000000000E+00 0.  1.
          1   -1    0    0  502    0 -0.00000000000E+00 -0.00000000000E+00 -0.11212989779E+03  0.11212989779E+03  0.00000000000E+00 0. -1.
         23    2    1    2    0    0 -0.69526488359E+02  0.48807676788E+02 -0.53039560522E+01  0.12665089479E+03  0.93788033903E+02 0.  0.
        -24    2    1    2    0    0  0.40102608171E+02 -0.41401325429E+02  0.13045296881E+03  0.16326217833E+03  0.79462399102E+02 0.  0.
         11    1    4    4    0    0  0.39166268785E+02 -0.64220664073E+02  0.96789903502E+02  0.12258293407E+03  0.00000000000E+00 0. -1.
        -12    1    4    4    0    0  0.93633938641E+00  0.22819338644E+02  0.33663065311E+02  0.40679244262E+02  0.00000000000E+00 0.  1.
        -13    1    3    3    0    0 -0.50844875027E+02 -0.14001614540E+02  0.20005290795E+02  0.56404416370E+02  0.00000000000E+00 0.  1.
         13    1    3    3    0    0 -0.18681613331E+02  0.62809291328E+02 -0.25309246848E+02  0.70246478415E+02  0.00000000000E+00 0. -1.
          2    1    1    2  501    0  0.29423880188E+02 -0.74063513583E+01 -0.22011020917E+02  0.37484714319E+02  0.00000000000E+00 0. -1.
<scales pt_clust_5="13000.00000" pt_clust_6="13000.00000" pt_clust_7="13000.00000" pt_clust_8="13000.00000" pt_clust_9="30.34172"></scales>
<clustering>
<clus scale="   30.342">  1  9  2 -1</clus>
<clus scale="   79.462">  5  6 -1 -1</clus>
<clus scale="   93.788">  7  8 -1 -1</clus>
<clus scale="  110.461">  1  5  2 -1</clus>
<clus scale="   30.342">  1  5  2 -1</clus>
</clustering>
</event>
<event>
 9    1  0.6675710E-005  0.9747373E+02  0.7546771E-02  0.1291810E+00
         -2   -1    0    0    0  501 -0.00000000000E+00  0.00000000000E+00  0.14889926098E+03  0.14889926098E+03  0.00000000000E+00 0.  1.
         21   -1    0    0  501  502  0.00000000000E+00 -0.00000000000E+00 -0.25240825985E+03  0.25240825985E+03  0.00000000000E+00 0.  1.
        -24    2    1    2    0    0  0.41756505938E+02 -0.18606255320E+02  0.11434451376E+03  0.14472976783E+03  0.76041037221E+02 0.  0.
         23    2    1    2    0    0 -0.13703639458E+02  0.58894775372E+01 -0.96569560175E+02  0.13144391713E+03  0.87916708986E+02 0.  0.
         13    1    3    3    0    0  0.32579149456E+02 -0.55497882344E+01  0.40604606972E+01  0.33296973884E+02  0.00000000000E+00 0. -1.
        -14    1    3    3    0    0  0.91773564816E+01 -0.13056467086E+02  0.11028405307E+03  0.11143279394E+03  0.00000000000E+00 0.  1.
        -11    1    4    4    0    0 -0.36604150248E+00 -0.35650812113E+02 -0.74409043093E+02  0.82509515116E+02  0.00000000000E+00 0.  1.
         11    1    4    4    0    0 -0.13337597956E+02  0.41540289650E+02 -0.22160517083E+02  0.48934402018E+02  0.00000000000E+00 0. -1.
         -1    1    1    2    0  502 -0.28052866480E+02  0.12716777783E+02 -0.12128395246E+03  0.12513383587E+03  0.00000000000E+00 0.  1.
<scales pt_clust_5="13000.00000" pt_clust_6="13000.00000" pt_clust_7="13000.00000" pt_clust_8="13000.00000" pt_clust_9="30.80065"></scales>
<clustering>
<clus scale="   30.801">  2  9  1 -1</clus>
<clus scale="   76.041">  5  6 -1 -1</clus>
<clus scale="   86.914">  1  5  2 -1</clus>
<clus scale="   87.917">  7  8 -1 -1</clus>
<clus scale="   30.801">  2  5  1 -1</clus>
</clustering>
</event>
<event>
 9    1  0.6675710E-005  0.1135372E+03  0.7546771E-02  0.1264770E+00
         21   -1    0    0  501  502  0.00000000000E+00  0.00000000000E+00  0.21722014795E+03  0.21722014795E+03  0.00000000000E+00 0. -1.
          1   -1    0    0  502    0 -0.00000000000E+00 -0.00000000000E+00 -0.17784538160E+03  0.17784538160E+03  0.00000000000E+00 0. -1.
        -24    2    1    2    0    0  0.41383582900E+02  0.88772741439E+01 -0.11221631132E+03  0.14519931723E+03  0.81847017469E+02 0.  0.
         23    2    1    2    0    0  0.52436215271E+02 -0.30905471766E+02  0.77700904671E+02  0.12842835296E+03  0.82168767798E+02 0.  0.
         13    1    3    3    0    0  0.44701362477E+02  0.39514910755E+02 -0.86398891127E+02  0.10499718266E+03  0.00000000000E+00 0. -1.
        -14    1    3    3    0    0 -0.33177795777E+01 -0.30637636611E+02 -0.25817420192E+02  0.40202134567E+02  0.00000000000E+00 0.  1.
        -11    1    4    4    0    0  0.30674947926E+02 -0.28132615149E+02  0.92861119334E+02  0.10176238966E+03  0.00000000000E+00 0. -1.
         11    1    4    4    0    0  0.21761267345E+02 -0.27728566170E+01 -0.15160214664E+02  0.26665963304E+02  0.00000000000E+00 0.  1.
          2    1    1    2  501    0 -0.93819798171E+02  0.22028197622E+02  0.73890172993E+02  0.12143785935E+03  0.00000000000E+00 0. -1.
<scales pt_clust_5="13000.00000" pt_clust_6="13000.00000" pt_clust_7="13000.00000" pt_clust_8="13000.00000" pt_clust_9="78.35170"></scales>
<clustering>
<clus scale="   81.847">  5  6 -1 -1</clus>
<clus scale="   82.169">  7  8 -1 -1</clus>
<clus scale="   92.143">  2  5  1 -1</clus>
<clus scale="   78.352">  1  9  2 -1</clus>
<clus scale="   78.352">  1  5  2 -1</clus>
</clustering>
</event>
<event>
 9    1  0.6675710E-005  0.8902645E+02  0.7546771E-02  0.1309599E+00
         21   -1    0    0  501  502  0.00000000000E+00  0.00000000000E+00  0.13855123418E+03  0.13855123418E+03  0.00000000000E+00 0. -1.
         -2   -1    0    0    0  501 -0.00000000000E+00 -0.00000000000E+00 -0.12508115761E+03  0.12508115761E+03  0.00000000000E+00 0.  1.
        -24    2    1    2    0    0  0.14743253411E+02 -0.41141636787E+01 -0.71278473420E+02  0.10920758772E+03  0.81310433400E+02 0.  0.
         23    2    1    2    0    0  0.10103068276E+02  0.93961741024E+01  0.91814277535E+02  0.12805884417E+03  0.88197766047E+02 0.  0.
         13    1    3    3    0    0 -0.16469844349E+02 -0.33159305585E+02 -0.18591144686E+02  0.41429771669E+02  0.00000000000E+00 0. -1.
        -14    1    3    3    0    0  0.31213097761E+02  0.29045141906E+02 -0.52687328734E+02  0.67777816056E+02  0.00000000000E+00 0.  1.
        -13    1    4    4    0    0 -0.23387842952E+02 -0.29645442957E+02  0.36340692278E+02  0.52406959473E+02  0.00000000000E+00 0.  1.
         13    1    4    4    0    0  0.33490911228E+02  0.39041617059E+02  0.55473585257E+02  0.75651884701E+02  0.00000000000E+00 0. -1.
         -1    1    1    2    0  502 -0.24846321688E+02 -0.52820104237E+01 -0.70657275476E+01  0.26365959897E+02  0.00000000000E+00 0.  1.
<scales pt_clust_5="13000.00000" pt_clust_6="13000.00000" pt_clust_7="13000.00000" pt_clust_8="13000.00000" pt_clust_9="25.40157"></scales>
<clustering>
<clus scale="   25.402">  1  9  2 -1</clus>
<clus scale="   81.310">  5  6 -1 -1</clus>
<clus scale="   82.209">  2  5  1 -1</clus>
<clus scale="   88.198">  7  8 -1 -1</clus>
<clus scale="   25.402">  1  5  2 -1</clus>
</clustering>
</event>
<event>
 9    1  0.6675710E-005  0.1474670E+03  0.7546771E-02  0.1226368E+00
         21   -1    0    0  501  502  0.00000000000E+00  0.00000000000E+00  0.53983869005E+03  0.53983869005E+03  0.00000000000E+00 0.  1.
         -4   -1    0    0    0  501 -0.00000000000E+00 -0.00000000000E+00 -0.71251550486E+02  0.71251550486E+02  0.00000000000E+00 0.  1.
        -24    2    1    2    0    0 -0.43234679279E+02  0.73516146121E+01  0.29357660386E+02  0.95708059435E+02  0.79842824899E+02 0.  0.
         23    2    1    2    0    0 -0.29904707100E+02 -0.10492388171E+03  0.18598877652E+03  0.23431177955E+03  0.91688999253E+02 0.  0.
         13    1    3    3    0    0 -0.68246610216E+01 -0.32705495955E+02  0.24356427375E+02  0.41345628768E+02  0.00000000000E+00 0. -1.
        -14    1    3    3    0    0 -0.36410018257E+02  0.40057110567E+02  0.50012330104E+01  0.54362430668E+02  0.00000000000E+00 0.  1.
        -13    1    4    4    0    0 -0.38175401958E+01 -0.22526046160E+02 -0.61230760442E+01  0.23653507752E+02  0.00000000000E+00 0. -1.
         13    1    4    4    0    0 -0.26087166904E+02 -0.82397835548E+02  0.19211185257E+03  0.21065827180E+03  0.00000000000E+00 0.  1.
         -3    1    1    2    0  502  0.73139386379E+02  0.97572267096E+02  0.25324070266E+03  0.28107040156E+03  0.00000000000E+00 0.  1.
<scales pt_clust_5="13000.00000" pt_clust_6="13000.00000" pt_clust_7="13000.00000" pt_clust_8="13000.00000" pt_clust_9="115.49743"></scales>
<clustering>
<clus scale="   79.843">  5  6 -1 -1</clus>
<clus scale="   91.094">  2  5  1 -1</clus>
<clus scale="   91.689">  7  8 -1 -1</clus>
<clus scale="  115.497">  1  9  2 -1</clus>
<clus scale="  115.497">  1  5  2 -1</clus>
</clustering>
</event>
<event>
 9    1  0.6675710E-005  0.9149310E+02  0.7546771E-02  0.1306885E+00
         21   -1    0    0  501  502  0.00000000000E+00  0.00000000000E+00  0.15126828609E+03  0.15126828609E+03  0.00000000000E+00 0. -1.
          1   -1    0    0  502    0 -0.00000000000E+00 -0.00000000000E+00 -0.19294765981E+03  0.19294765981E+03  0.00000000000E+00 0. -1.
        -24    2    1    2    0    0  0.24446884697E+02 -0.12439347288E+02 -0.12912211315E+03  0.15317281350E+03  0.77698154152E+02 0.  0.
         23    2    1    2    0    0  0.36791967507E+02 -0.15016880944E+02  0.30099918410E+02  0.10276946355E+03  0.89868804176E+02 0.  0.
         11    1    3    3    0    0  0.42771943929E+02  0.13779800377E+02 -0.46928261695E+02  0.64973716468E+02  0.00000000000E+00 0. -1.
        -12    1    3    3    0    0 -0.18325059232E+02 -0.26219147665E+02 -0.82193851459E+02  0.88199097035E+02  0.00000000000E+00 0.  1.
        -13    1    4    4    0    0 -0.48673774228E+01  0.32441372013E+02 -0.21684652428E-01  0.32804488280E+02  0.00000000000E+00 0.  1.
         13    1    4    4    0    0  0.41659344930E+02 -0.47458252957E+02  0.30121603063E+02  0.69964975272E+02  0.00000000000E+00 0. -1.
          2    1    1    2  501    0 -0.61238852205E+02  0.27456228232E+02  0.57342821020E+02  0.88273668840E+02  0.00000000000E+00 0. -1.
<scales pt_clust_5="13000.00000" pt_clust_6="13000.00000" pt_clust_7="13000.00000" pt_clust_8="13000.00000" pt_clust_9="67.11216"></scales>
<clustering>
<clus scale="   67.112">  1  9  2 -1</clus>
<clus scale="   77.698">  5  6 -1 -1</clus>
<clus scale="   79.571">  2  5  1 -1</clus>
<clus scale="   89.869">  7  8 -1 -1</clus>
<clus scale="   67.112">  1  5  2 -1</clus>
</clustering>
</event>
<event>
 9    1  0.6675710E-005  0.1149920E+03  0.7546771E-02  0.1255090E+00
          1   -1    0    0  502    0 -0.00000000000E+00  0.00000000000E+00  0.55237212846E+03  0.55237212846E+03  0.00000000000E+00 0. -1.
         21   -1    0    0  501  502  0.00000000000E+00 -0.00000000000E+00 -0.29692447166E+02  0.29692447166E+02  0.00000000000E+00 0.  1.
         23    2    1    2    0    0  0.63710038991E+02 -0.48285491456E+02  0.30870155684E+03  0.33155746978E+03  0.90792327958E+02 0.  0.
        -24    2    1    2    0    0 -0.47459539318E+02  0.31513483713E+02  0.12987969058E+03  0.16322637737E+03  0.80799806416E+02 0.  0.
         11    1    4    4    0    0  0.22390822627E+02  0.12090556877E+02  0.24565337629E+02  0.35369284928E+02  0.00000000000E+00 0. -1.
        -12    1    4    4    0    0 -0.69850361945E+02  0.19422926836E+02  0.10531435295E+03  0.12785709244E+03  0.00000000000E+00 0.  1.
        -11    1    3    3    0    0 -0.21651876887E+01 -0.53103449702E+02  0.16623013720E+03  0.17451969208E+03  0.00000000000E+00 0.  1.
         11    1    3    3    0    0  0.65875226679E+02  0.48179582454E+01  0.14247141964E+03  0.15703777771E+03  0.00000000000E+00 0. -1.
          2    1    1    2  501    0 -0.16250499673E+02  0.16772007743E+02  0.84098433866E+02  0.87280728469E+02  0.00000000000E+00 0. -1.
<scales pt_clust_5="13000.00000" pt_clust_6="13000.00000" pt_clust_7="13000.00000" pt_clust_8="13000.00000" pt_clust_9="23.35336"></scales>
<clustering>
<clus scale="   23.353">  2  9  1 -1</clus>
<clus scale="   80.800">  5  6 -1 -1</clus>
<clus scale="   90.792">  7  8 -1 -1</clus>
<clus scale="  107.278">  2  5  1 -1</clus>
<clus scale="   23.353">  2  5  1 -1</clus>
</clustering>
</event>
<event>
 9    1  0.6675710E-005  0.2200131E+03  0.7546771E-02  0.1174401E+00
         21   -1    0    0  501  502  0.00000000000E+00  0.00000000000E+00  0.29507927183E+03  0.29507927183E+03  0.00000000000E+00 0.  1.
         -2   -1    0    0    0  501 -0.00000000000E+00 -0.00000000000E+00 -0.37491488214E+03  0.37491488214E+03  0.00000000000E+00 0.  1.
        -24    2    1    2    0    0  0.17680331319E+02  0.18055523246E+02 -0.10616690027E+03  0.13586792173E+03  0.80932597928E+02 0.  0.
         23    2    1    2    0    0 -0.79806483888E+02  0.18158695497E+03  0.17323520434E+03  0.27859240277E+03  0.90886708465E+02 0.  0.
         13    1    3    3    0    0 -0.30925012384E+02  0.15141881009E+02 -0.57518854964E+02  0.67037688116E+02  0.00000000000E+00 0. -1.
        -14    1    3    3    0    0  0.48605343703E+02  0.29136422371E+01 -0.48648045306E+02  0.68830233616E+02  0.00000000000E+00 0.  1.
        -11    1    4    4    0    0 -0.42802720715E+02  0.16353537734E+03  0.16574781194E+03  0.23674507325E+03  0.00000000000E+00 0.  1.
         11    1    4    4    0    0 -0.37003763173E+02  0.18051577623E+02  0.74873924020E+01  0.41847329528E+02  0.00000000000E+00 0. -1.
         -1    1    1    2    0  502  0.62126152569E+02 -0.19964247821E+03 -0.14690391438E+03  0.25553382946E+03  0.00000000000E+00 0.  1.
<scales pt_clust_5="13000.00000" pt_clust_6="13000.00000" pt_clust_7="13000.00000" pt_clust_8="13000.00000" pt_clust_9="200.36323"></scales>
<clustering>
<clus scale="   80.933">  5  6 -1 -1</clus>
<clus scale="   84.786">  2  5  1 -1</clus>
<clus scale="   90.887">  7  8 -1 -1</clus>
<clus scale="  200.363">  1  9  2 -1</clus>
<clus scale="  200.363">  1  5  2 -1</clus>
</clustering>
</event>
<event>
 9    1  0.6675710E-005  0.1757147E+03  0.7546771E-02  0.1197074E+00
         21   -1    0    0  501  502  0.00000000000E+00  0.00000000000E+00  0.61528939045E+03  0.61528939045E+03  0.00000000000E+00 0.  1.
         -2   -1    0    0    0  501 -0.00000000000E+00 -0.00000000000E+00 -0.80452739172E+02  0.80452739172E+02  0.00000000000E+00 0.  1.
        -24    2    1    2    0    0  0.57773104226E+02  0.18902757107E+02  0.64808137089E+02  0.11956549728E+03  0.80004798035E+02 0.  0.
         23    2    1    2    0    0 -0.95019888635E+02  0.12611602950E+03  0.28662216323E+03  0.33941586492E+03  0.90093466865E+02 0.  0.
         11    1    3    3    0    0  0.74596833762E+01 -0.26253692936E+02  0.38118601833E+02  0.46882097591E+02  0.00000000000E+00 0. -1.
        -12    1    3    3    0    0  0.50313420850E+02  0.45156450043E+02  0.26689535257E+02  0.72683399689E+02  0.00000000000E+00 0.  1.
        -11    1    4    4    0    0 -0.10930831662E+02  0.89193920497E+02  0.14737542703E+03  0.17261099336E+03  0.00000000000E+00 0.  1.
         11    1    4    4    0    0 -0.84089056973E+02  0.36922109004E+02  0.13924673620E+03  0.16680487156E+03  0.00000000000E+00 0. -1.
         -1    1    1    2    0  502  0.37246784409E+02 -0.14501878661E+03  0.18340635096E+03  0.23676076743E+03  0.00000000000E+00 0.  1.
<scales pt_clust_5="13000.00000" pt_clust_6="13000.00000" pt_clust_7="13000.00000" pt_clust_8="13000.00000" pt_clust_9="150.86032"></scales>
<clustering>
<clus scale="   80.005">  5  6 -1 -1</clus>
<clus scale="   90.093">  7  8 -1 -1</clus>
<clus scale="  100.478">  2  5  1 -1</clus>
<clus scale="  150.860">  1  9  2 -1</clus>
<clus scale="  150.860">  1  5  2 -1</clus>
</clustering>
</event>
<event>
 9    1  0.6675710E-005  0.1023210E+03  0.7546771E-02  0.1280795E+00
         21   -1    0    0  501  502  0.00000000000E+00  0.00000000000E+00  0.10808197711E+03  0.10808197711E+03  0.00000000000E+00 0. -1.
         -4   -1    0    0    0  501 -0.00000000000E+00 -0.00000000000E+00 -0.52272581943E+03  0.52272581943E+03  0.00000000000E+00 0.  1.
        -24    2    1    2    0    0 -0.39573919875E+02  0.18127945133E+02 -0.47208500129E+03  0.48115456088E+03  0.82162920376E+02 0.  0.
         23    2    1    2    0    0  0.35191724118E+02  0.13878868738E+02  0.24360815091E+02  0.10341527588E+03  0.93113852506E+02 0.  0.
         11    1    3    3    0    0  0.22853048745E+02  0.19094716114E+02 -0.12497236021E+03  0.12847163436E+03  0.00000000000E+00 0. -1.
        -12    1    3    3    0    0 -0.62426968620E+02 -0.96677098125E+00 -0.34711264109E+03  0.35268292652E+03  0.00000000000E+00 0.  1.
        -11    1    4    4    0    0  0.14519342266E+02  0.40665549083E+02 -0.20029988022E+02  0.47599355061E+02  0.00000000000E+00 0.  1.
         11    1    4    4    0    0  0.20672381852E+02 -0.26786680344E+02  0.44390803113E+02  0.55815920814E+02  0.00000000000E+00 0. -1.
         -3    1    1    2    0  502  0.43821957566E+01 -0.32006813871E+02  0.33080343880E+02  0.46237959785E+02  0.00000000000E+00 0.  1.
<scales pt_clust_5="13000.00000" pt_clust_6="13000.00000" pt_clust_7="13000.00000" pt_clust_8="13000.00000" pt_clust_9="32.30541"></scales>
<clustering>
<clus scale="   32.305">  1  9  2 -1</clus>
<clus scale="   82.163">  5  6 -1 -1</clus>
<clus scale="   92.467">  2  5  1 -1</clus>
<clus scale="   93.114">  7  8 -1 -1</clus>
<clus scale="   32.305">  1  5  2 -1</clus>
</clustering>
</event>
<event>
 9    1  0.6675710E-005  0.1146985E+03  0.7546771E-02  0.1254095E+00
         21   -1    0    0  501  502  0.00000000000E+00  0.00000000000E+00  0.78367314264E+02  0.78367314264E+02  0.00000000000E+00 0.  1.
          1   -1    0    0  502    0 -0.00000000000E+00 -0.00000000000E+00 -0.50567759007E+03  0.50567759007E+03  0.00000000000E+00 0. -1.
        -24    2    1    2    0    0 -0.23905405348E+02 -0.67477109117E+02 -0.39527901936E+03  0.40989863066E+03  0.81527637098E+02 0.  0.
         23    2    1    2    0    0  0.34754701435E+02  0.91868666086E+02  0.12115518708E+01  0.13151131640E+03  0.87441508470E+02 0.  0.
         11    1    3    3    0    0 -0.39627079998E+02 -0.12222407513E+01 -0.16947618186E+03  0.17405164624E+03  0.00000000000E+00 0. -1.
        -12    1    3    3    0    0  0.15721674650E+02 -0.66254868366E+02 -0.22580283750E+03  0.23584698441E+03  0.00000000000E+00 0.  1.
        -11    1    4    4    0    0  0.61686024301E+02  0.43012824242E+02  0.64571933737E+01  0.75478235205E+02  0.00000000000E+00 0.  1.
         11    1    4    4    0    0 -0.26931322866E+02  0.48855841844E+02 -0.52456415029E+01  0.56033081196E+02  0.00000000000E+00 0. -1.
          2    1    1    2  501    0 -0.10849296088E+02 -0.24391556969E+02 -0.33242808319E+02  0.42634957275E+02  0.00000000000E+00 0. -1.
<scales pt_clust_5="13000.00000" pt_clust_6="13000.00000" pt_clust_7="13000.00000" pt_clust_8="13000.00000" pt_clust_9="26.69562"></scales>
<clustering>
<clus scale="   26.696">  1  9  2 -1</clus>
<clus scale="   81.528">  5  6 -1 -1</clus>
<clus scale="   87.442">  7  8 -1 -1</clus>
<clus scale="  110.256">  2  5  1 -1</clus>
<clus scale="   26.696">  1  5  2 -1</clus>
</clustering>
</event>
<event>
 9    1  0.6675710E-005  0.1741105E+03  0.7546771E-02  0.1193006E+00
          1   -1    0    0  502    0 -0.00000000000E+00  0.00000000000E+00  0.38831403941E+03  0.38831403941E+03  0.00000000000E+00 0. -1.
         21   -1    0    0  501  502  0.00000000000E+00 -0.00000000000E+00 -0.14330915737E+03  0.14330915737E+03  0.00000000000E+00 0. -1.
         23    2    1    2    0    0 -0.20776491476E+02  0.57050647477E+02  0.14224955352E+03  0.18161182043E+03  0.95191800427E+02 0.  0.
        -24    2    1    2    0    0  0.12538457659E+03  0.71787399188E+02  0.74558615126E+02  0.18167496203E+03  0.81068378601E+02 0.  0.
         11    1    4    4    0    0  0.13416038780E+03  0.76976543345E+02  0.65268915108E+02  0.16788218834E+03  0.00000000000E+00 0. -1.
        -12    1    4    4    0    0 -0.87758112169E+01 -0.51891441572E+01  0.92897000183E+01  0.13792773689E+02  0.00000000000E+00 0.  1.
        -11    1    3    3    0    0  0.22711347668E+02  0.40877449071E+02  0.12261659220E+03  0.13123109326E+03  0.00000000000E+00 0. -1.
         11    1    3    3    0    0 -0.43487839143E+02  0.16173198407E+02  0.19632961317E+02  0.50380727169E+02  0.00000000000E+00 0.  1.
          2    1    1    2  501    0 -0.10460808511E+03 -0.12883804667E+03  0.28196713393E+02  0.16833641432E+03  0.00000000000E+00 0. -1.
<scales pt_clust_5="13000.00000" pt_clust_6="13000.00000" pt_clust_7="13000.00000" pt_clust_8="13000.00000" pt_clust_9="154.08566"></scales>
<clustering>
<clus scale="   81.068">  5  6 -1 -1</clus>
<clus scale="   95.192">  7  8 -1 -1</clus>
<clus scale="  112.907">  1  7  2 -1</clus>
<clus scale="  154.086">  2  9  1 -1</clus>
<clus scale="  154.086">  2  5  1 -1</clus>
</clustering>
</event>
<event>
 9    1  0.6675710E-005  0.1224638E+03  0.7546771E-02  0.1242047E+00
         21   -1    0    0  501  502  0.00000000000E+00  0.00000000000E+00  0.40792691421E+02  0.40792691421E+02  0.00000000000E+00 0.  1.
         -2   -1    0    0    0  501 -0.00000000000E+00 -0.00000000000E+00 -0.72635348909E+03  0.72635348909E+03  0.00000000000E+00 0.  1.
         23    2    1    2    0    0 -0.46475739622E+02 -0.94232475935E+02 -0.46331380395E+03  0.48361779540E+03  0.90480590156E+02 0.  0.
        -24    2    1    2    0    0 -0.16099634951E+02  0.48252984980E+02 -0.95572771194E+02  0.13494793639E+03  0.80555832424E+02 0.  0.
         11    1    4    4    0    0  0.89931521891E+01  0.34960577810E+02 -0.99901822785E+02  0.10622378727E+03  0.00000000000E+00 0. -1.
        -12    1    4    4    0    0 -0.25092787140E+02  0.13292407170E+02  0.43290515909E+01  0.28724149117E+02  0.00000000000E+00 0.  1.
        -11    1    3    3    0    0  0.21640860746E+02 -0.19467643537E+02 -0.47750618593E+02  0.55923497519E+02  0.00000000000E+00 0. -1.
         11    1    3    3    0    0 -0.68116600368E+02 -0.74764832398E+02 -0.41556318536E+03  0.42769429788E+03  0.00000000000E+00 0.  1.
         -1    1    1    2    0  502  0.62575374573E+02  0.45979490956E+02 -0.12667422252E+03  0.14858044872E+03  0.00000000000E+00 0.  1.
<scales pt_clust_5="13000.00000" pt_clust_6="13000.00000" pt_clust_7="13000.00000" pt_clust_8="13000.00000" pt_clust_9="77.65173"></scales>
<clustering>
<clus scale="   77.652">  1  9  2 -1</clus>
<clus scale="   80.556">  5  6 -1 -1</clus>
<clus scale="   90.481">  7  8 -1 -1</clus>
<clus scale="  115.325">  1  5  2 -1</clus>
<clus scale="   77.652">  1  5  2 -1</clus>
</clustering>
</event>
<event>
 9    1  0.6675710E-005  0.1017597E+03  0.7546771E-02  0.1282040E+00
         21   -1    0    0  501  502  0.00000000000E+00  0.00000000000E+00  0.26860825420E+03  0.26860825420E+03  0.00000000000E+00 0. -1.
         -2   -1    0    0    0  501 -0.00000000000E+00 -0.00000000000E+00 -0.15116283069E+03  0.15116283069E+03  0.00000000000E+00 0.  1.
         23    2    1    2    0    0  0.39190863617E+02  0.24247839127E+02 -0.11554828980E+03  0.15373891418E+03  0.90334738412E+02 0.  0.
        -24    2    1    2    0    0 -0.59400239827E+02 -0.49930607807E+01  0.16294110280E+03  0.19062306240E+03  0.78955872435E+02 0.  0.
         13    1    4    4    0    0 -0.58541756385E+02 -0.18762357034E+02  0.16553845162E+03  0.17658466028E+03  0.00000000000E+00 0. -1.
        -14    1    4    4    0    0 -0.85848344255E+00  0.13769296253E+02 -0.25973488261E+01  0.14038402119E+02  0.00000000000E+00 0.  1.
        -11    1    3    3    0    0  0.66829320628E+02  0.29699715468E+02 -0.86549209351E+02  0.11330929721E+03  0.00000000000E+00 0.  1.
         11    1    3    3    0    0 -0.27638457011E+02 -0.54518763409E+01 -0.28999080453E+02  0.40429616974E+02  0.00000000000E+00 0. -1.
         -1    1    1    2    0  502  0.20209376210E+02 -0.19254778347E+02  0.70052610513E+02  0.75409108307E+02  0.00000000000E+00 0.  1.
<scales pt_clust_5="13000.00000" pt_clust_6="13000.00000" pt_clust_7="13000.00000" pt_clust_8="13000.00000" pt_clust_9="27.91353"></scales>
<clustering>
<clus scale="   27.914">  1  9  2 -1</clus>
<clus scale="   78.956">  5  6 -1 -1</clus>
<clus scale="   90.335">  7  8 -1 -1</clus>
<clus scale="   91.808">  1  5  2 -1</clus>
<clus scale="   27.914">  1  5  2 -1</clus>
</clustering>
</event>
<event>
 9    1  0.6675710E-005  0.9817009E+02  0.7546771E-02  0.1290332E+00
         21   -1    0    0  501  502  0.00000000000E+00  0.00000000000E+00  0.16177534390E+03  0.16177534390E+03  0.00000000000E+00 0.  1.
         -4   -1    0    0    0  501 -0.00000000000E+00 -0.00000000000E+00 -0.15374456974E+03  0.15374456974E+03  0.00000000000E+00 0.  1.
        -24    2    1    2    0    0 -0.74684490003E+01 -0.39552743379E+02  0.41515742015E+01  0.89925969177E+02  0.80307204688E+02 0.  0.
         23    2    1    2    0    0 -0.22094844132E+02  0.22927389937E+02  0.90344561394E+02  0.13271418669E+03  0.91853515055E+02 0.  0.
         13    1    3    3    0    0  0.22161297503E+02  0.10658496495E+02  0.17416756598E+02  0.30134200918E+02  0.00000000000E+00 0. -1.
        -14    1    3    3    0    0 -0.29629746504E+02 -0.50211239873E+02 -0.13265182397E+02  0.59791768259E+02  0.00000000000E+00 0.  1.
        -11    1    4    4    0    0 -0.37756268061E+02  0.34735392092E+00 -0.54448702244E+00  0.37761791519E+02  0.00000000000E+00 0. -1.
         11    1    4    4    0    0  0.15661423929E+02  0.22580036016E+02  0.90889048417E+02  0.94952395168E+02  0.00000000000E+00 0.  1.
         -3    1    1    2    0  502  0.29563293132E+02  0.16625353442E+02 -0.86465361434E+02  0.92879757783E+02  0.00000000000E+00 0.  1.
<scales pt_clust_5="13000.00000" pt_clust_6="13000.00000" pt_clust_7="13000.00000" pt_clust_8="13000.00000" pt_clust_9="33.91743"></scales>
<clustering>
<clus scale="   33.917">  1  9  2 -1</clus>
<clus scale="   80.307">  5  6 -1 -1</clus>
<clus scale="   87.462">  2  5  1 -1</clus>
<clus scale="   91.854">  7  8 -1 -1</clus>
<clus scale="   33.917">  1  5  2 -1</clus>
</clustering>
</event>
<event>
 9    1  0.6675710E-005  0.1378333E+03  0.7546771E-02  0.1223689E+00
         21   -1    0    0  501  502  0.00000000000E+00  0.00000000000E+00  0.13825077202E+03  0.13825077202E+03  0.00000000000E+00 0. -1.
          1   -1    0    0  502    0 -0.00000000000E+00 -0.00000000000E+00 -0.25317749916E+03  0.25317749916E+03  0.00000000000E+00 0. -1.
         23    2    1    2    0    0 -0.84963916000E+01 -0.75176762097E+02 -0.11328495218E+02  0.11850423796E+03  0.90505167703E+02 0.  0.
        -24    2    1    2    0    0 -0.75702779048E+02 -0.17253678858E+02 -0.82677804378E+02  0.14615435608E+03  0.92178502239E+02 0.  0.
         13    1    4    4    0    0 -0.85979968235E+02 -0.39593111516E+01 -0.92773663744E+02  0.12655111128E+03  0.00000000000E+00 0. -1.
        -14    1    4    4    0    0  0.10277189186E+02 -0.13294367706E+02  0.10095859366E+02  0.19603244798E+02  0.00000000000E+00 0.  1.
        -11    1    3    3    0    0  0.15937879843E+02 -0.87192008335E+02 -0.18055373701E+02  0.90456944736E+02  0.00000000000E+00 0.  1.
         11    1    3    3    0    0 -0.24434271443E+02  0.12015246238E+02  0.67268784826E+01  0.28047293224E+02  0.00000000000E+00 0. -1.
          2    1    1    2  501    0  0.84199170648E+02  0.92430440955E+02 -0.20920427539E+02  0.12676967714E+03  0.00000000000E+00 0. -1.
<scales pt_clust_5="13000.00000" pt_clust_6="13000.00000" pt_clust_7="13000.00000" pt_clust_8="13000.00000" pt_clust_9="102.47510"></scales>
<clustering>
<clus scale="   90.505">  7  8 -1 -1</clus>
<clus scale="   92.179">  5  6 -1 -1</clus>
<clus scale="  117.962">  2  7  1 -1</clus>
<clus scale="  102.475">  1  9  2 -1</clus>
<clus scale="  102.475">  1  5  2 -1</clus>
</clustering>
</event>
<event>
 9    1  0.6675710E-005  0.1489943E+03  0.7546771E-02  0.1219410E+00
          1   -1    0    0  502    0 -0.00000000000E+00  0.00000000000E+00  0.62614727752E+03  0.62614727752E+03  0.00000000000E+00 0. -1.
         21   -1    0    0  501  502  0.00000000000E+00 -0.00000000000E+00 -0.72493781887E+02  0.72493781887E+02  0.00000000000E+00 0. -1.
         23    2    1    2    0    0 -0.45585414034E+02 -0.16885189805E+02  0.35726857921E+02  0.10821259535E+03  0.89835504160E+02 0.  0.
        -24    2    1    2    0    0  0.71374059008E+02 -0.10791508925E+03  0.33119050787E+03  0.36435204767E+03  0.79532002023E+02 0.  0.
         13    1    4    4    0    0  0.62011587241E+02 -0.92967249964E+02  0.32788685209E+03  0.34640746858E+03  0.00000000000E+00 0. -1.
        -14    1    4    4    0    0  0.93624717667E+01 -0.14947839287E+02  0.33036557859E+01  0.17944579083E+02  0.00000000000E+00 0.  1.
        -13    1    3    3    0    0 -0.46053697113E+02  0.44091710209E+01  0.60099720606E+02  0.75844315699E+02  0.00000000000E+00 0.  1.
         13    1    3    3    0    0  0.46828307909E+00 -0.21294360826E+02 -0.24372862685E+02  0.32368279650E+02  0.00000000000E+00 0. -1.
          2    1    1    2  501    0 -0.25788644974E+02  0.12480027906E+03  0.18673612984E+03  0.22607641640E+03  0.00000000000E+00 0. -1.
<scales pt_clust_5="13000.00000" pt_clust_6="13000.00000" pt_clust_7="13000.00000" pt_clust_8="13000.00000" pt_clust_9="125.99190"></scales>
<clustering>
<clus scale="   79.532">  5  6 -1 -1</clus>
<clus scale="   89.836">  7  8 -1 -1</clus>
<clus scale="  102.145">  1  7  2 -1</clus>
<clus scale="  125.992">  2  9  1 -1</clus>
<clus scale="  125.992">  2  5  1 -1</clus>
</clustering>
</event>
<event>
 9    1  0.6675710E-005  0.1388176E+03  0.7546771E-02  0.1215831E+00
         -2   -1    0    0    0  501 -0.00000000000E+00  0.00000000000E+00  0.33801373028E+02  0.33801373028E+02  0.00000000000E+00 0.  1.
         21   -1    0    0  501  502  0.00000000000E+00 -0.00000000000E+00 -0.12381096607E+04  0.12381096607E+04  0.00000000000E+00 0.  1.
         23    2    1    2    0    0 -0.10481773009E+03 -0.69620425343E+02 -0.30851003446E+03  0.34543656424E+03  0.91182335923E+02 0.  0.
        -24    2    1    2    0    0  0.78434273140E+02 -0.31362871378E+02 -0.58350217177E+03  0.59719866488E+03  0.95057329910E+02 0.  0.
         13    1    4    4    0    0  0.43445250871E+02 -0.22492900862E+02 -0.90500935357E+02  0.10287779018E+03  0.00000000000E+00 0. -1.
        -14    1    4    4    0    0  0.34989022269E+02 -0.88699705158E+01 -0.49300123641E+03  0.49432087469E+03  0.00000000000E+00 0.  1.
        -11    1    3    3    0    0 -0.10210770881E+03 -0.26218154886E+02 -0.25846541708E+03  0.27913750674E+03  0.00000000000E+00 0.  1.
         11    1    3    3    0    0 -0.27100212781E+01 -0.43402270456E+02 -0.50044617381E+02  0.66299057496E+02  0.00000000000E+00 0. -1.
         -1    1    1    2    0  502  0.26383456949E+02  0.10098329672E+03 -0.31229608143E+03  0.32927580459E+03  0.00000000000E+00 0.  1.
<scales pt_clust_5="13000.00000" pt_clust_6="13000.00000" pt_clust_7="13000.00000" pt_clust_8="13000.00000" pt_clust_9="104.37295"></scales>
<clustering>
<clus scale="   91.182">  7  8 -1 -1</clus>
<clus scale="   95.057">  5  6 -1 -1</clus>
<clus scale="  104.373">  2  9  1 -1</clus>
<clus scale="  136.193">  1  7  2 -1</clus>
<clus scale="  104.373">  2  5  1 -1</clus>
</clustering>
</event>
<event>
 9    1  0.6675710E-005  0.1226007E+03  0.7546771E-02  0.1242346E+00
         21   -1    0    0  501  502  0.00000000000E+00  0.00000000000E+00  0.24322553647E+03  0.24322553647E+03  0.00000000000E+00 0. -1.
          1   -1    0    0  502    0 -0.00000000000E+00 -0.00000000000E+00 -0.12651375982E+03  0.12651375982E+03  0.00000000000E+00 0. -1.
        -24    2    1    2    0    0 -0.69984198834E+02  0.56570135615E+01  0.24057946922E+02  0.10895037693E+03  0.79759701194E+02 0.  0.
         23    2    1    2    0    0  0.11126388852E+03  0.17532581889E+02  0.13436428540E+03  0.19768953562E+03  0.91325500194E+02 0.  0.
         11    1    3    3    0    0 -0.77099035775E+02 -0.19743986719E+02  0.21549112447E+02  0.82452717216E+02  0.00000000000E+00 0. -1.
        -12    1    3    3    0    0  0.71148369419E+01  0.25401000280E+02  0.25088344747E+01  0.26497659715E+02  0.00000000000E+00 0.  1.
        -13    1    4    4    0    0  0.39402959707E+02 -0.48575033732E+00  0.11434835367E+03  0.12094782004E+03  0.00000000000E+00 0.  1.
         13    1    4    4    0    0  0.71860928812E+02  0.18018332227E+02  0.20015931730E+02  0.76741715572E+02  0.00000000000E+00 0. -1.
          2    1    1    2  501    0 -0.41279689685E+02 -0.23189595451E+02 -0.41710455669E+02  0.63099383751E+02  0.00000000000E+00 0. -1.
<scales pt_clust_5="13000.00000" pt_clust_6="13000.00000" pt_clust_7="13000.00000" pt_clust_8="13000.00000" pt_clust_9="47.34736"></scales>
<clustering>
<clus scale="   47.347">  1  9  2 -1</clus>
<clus scale="   79.760">  5  6 -1 -1</clus>
<clus scale="   91.326">  7  8 -1 -1</clus>
<clus scale="  114.246">  2  5  1 -1</clus>
<clus scale="   47.347">  1  5  2 -1</clus>
</clustering>
</event>
<event>
 9    1  0.6675710E-005  0.9487991E+02  0.7546771E-02  0.1297767E+00
          1   -1    0    0  502    0 -0.00000000000E+00  0.00000000000E+00  0.44346808032E+02  0.44346808032E+02  0.00000000000E+00 0. -1.
         21   -1    0    0  501  502  0.00000000000E+00 -0.00000000000E+00 -0.31112873823E+03  0.31112873823E+03  0.00000000000E+00 0.  1.
        -24    2    1    2    0    0  0.64213470177E+01  0.16093820164E+02 -0.10671458813E+03  0.13495952242E+03  0.80782576254E+02 0.  0.
         23    2    1    2    0    0 -0.43919730766E+02  0.30371931660E-01 -0.14479374917E+03  0.17693390602E+03  0.91713868236E+02 0.  0.
         11    1    3    3    0    0  0.35655295999E+02  0.17496483038E+02 -0.95828489030E+02  0.10373295697E+03  0.00000000000E+00 0. -1.
        -12    1    3    3    0    0 -0.29233948981E+02 -0.14026628739E+01 -0.10886099101E+02  0.31226565450E+02  0.00000000000E+00 0.  1.
        -11    1    4    4    0    0 -0.24910558502E+02  0.45641365276E+02 -0.67706003822E+02  0.85368454963E+02  0.00000000000E+00 0.  1.
         11    1    4    4    0    0 -0.19009172264E+02 -0.45610993345E+02 -0.77087745349E+02  0.91565451056E+02  0.00000000000E+00 0. -1.
          2    1    1    2  501    0  0.37498383748E+02 -0.16124192096E+02 -0.15273592900E+02  0.43582117830E+02  0.00000000000E+00 0. -1.
<scales pt_clust_5="13000.00000" pt_clust_6="13000.00000" pt_clust_7="13000.00000" pt_clust_8="13000.00000" pt_clust_9="40.81813"></scales>
<clustering>
<clus scale="   40.818">  2  9  1 -1</clus>
<clus scale="   80.783">  5  6 -1 -1</clus>
<clus scale="   84.360">  1  5  2 -1</clus>
<clus scale="   91.714">  7  8 -1 -1</clus>
<clus scale="   40.818">  2  5  1 -1</clus>
</clustering>
</event>
<event>
 9    1  0.6675710E-005  0.9395069E+02  0.7546771E-02  0.1298283E+00
         21   -1    0    0  501  502  0.00000000000E+00  0.00000000000E+00  0.26132319819E+03  0.26132319819E+03  0.00000000000E+00 0.  1.
         -4   -1    0    0    0  501 -0.00000000000E+00 -0.00000000000E+00 -0.35230943681E+03  0.35230943681E+03  0.00000000000E+00 0.  1.
        -24    2    1    2    0    0  0.33145519679E+02  0.11127659282E+02 -0.31492175216E+03  0.32669101059E+03  0.79554108233E+02 0.  0.
         23    2    1    2    0    0 -0.47701555212E+01 -0.13970538001E+02  0.35011220362E+02  0.95877154137E+02  0.88026773305E+02 0.  0.
         11    1    3    3    0    0 -0.58973219220E+01  0.30050685622E+02 -0.53092941534E+02  0.61291782099E+02  0.00000000000E+00 0. -1.
        -12    1    3    3    0    0  0.39042841601E+02 -0.18923026339E+02 -0.26182881063E+03  0.26539922849E+03  0.00000000000E+00 0.  1.
        -13    1    4    4    0    0  0.40405010524E+02  0.19703322922E+00  0.24909903482E+02  0.47466904144E+02  0.00000000000E+00 0.  1.
         13    1    4    4    0    0 -0.45175166045E+02 -0.14167571230E+02  0.10101316880E+02  0.48410249994E+02  0.00000000000E+00 0. -1.
         -3    1    1    2    0  502 -0.28375364158E+02  0.28428787185E+01  0.18892429318E+03  0.19106447028E+03  0.00000000000E+00 0.  1.
<scales pt_clust_5="13000.00000" pt_clust_6="13000.00000" pt_clust_7="13000.00000" pt_clust_8="13000.00000" pt_clust_9="28.51742"></scales>
<clustering>
<clus scale="   28.517">  1  9  2 -1</clus>
<clus scale="   79.554">  5  6 -1 -1</clus>
<clus scale="   86.063">  2  5  1 -1</clus>
<clus scale="   88.027">  7  8 -1 -1</clus>
<clus scale="   28.517">  1  5  2 -1</clus>
</clustering>
</event>
<event>
 9    1  0.6675710E-005  0.3035910E+03  0.7546771E-02  0.1116759E+00
          1   -1    0    0  502    0 -0.00000000000E+00  0.00000000000E+00  0.38703881944E+03  0.38703881944E+03  0.00000000000E+00 0. -1.
         21   -1    0    0  501  502  0.00000000000E+00 -0.00000000000E+00 -0.37196634011E+03  0.37196634011E+03  0.00000000000E+00 0. -1.
        -24    2    1    2    0    0  0.55231814439E+02 -0.86418652323E+02  0.83170539676E+02  0.15260304295E+03  0.76495838135E+02 0.  0.
         23    2    1    2    0    0  0.17552552459E+03  0.25029313223E+03 -0.29281200050E+02  0.32072652555E+03  0.92478395818E+02 0.  0.
         13    1    3    3    0    0 -0.50998036659E+01 -0.27491435620E+02 -0.73237005829E+01  0.28903695613E+02  0.00000000000E+00 0. -1.
        -14    1    3    3    0    0  0.60331618105E+02 -0.58927216704E+02  0.90494240259E+02  0.12369934734E+03  0.00000000000E+00 0.  1.
        -13    1    4    4    0    0  0.16576920253E+03  0.17890530516E+03 -0.42210423348E+02  0.24752425449E+03  0.00000000000E+00 0. -1.
         13    1    4    4    0    0  0.97563220611E+01  0.71387827066E+02  0.12929223298E+02  0.73202271061E+02  0.00000000000E+00 0.  1.
          2    1    1    2  501    0 -0.23075733903E+03 -0.16387447990E+03 -0.38816860290E+02  0.28567559105E+03  0.00000000000E+00 0. -1.
<scales pt_clust_5="13000.00000" pt_clust_6="13000.00000" pt_clust_7="13000.00000" pt_clust_8="13000.00000" pt_clust_9="289.16297"></scales>
<clustering>
<clus scale="   76.496">  5  6 -1 -1</clus>
<clus scale="   92.478">  7  8 -1 -1</clus>
<clus scale="  127.947">  1  5  2 -1</clus>
<clus scale="  289.163">  2  9  1 -1</clus>
<clus scale="  289.163">  2  5  1 -1</clus>
</clustering>
</event>
<event>
 9    1  0.6675710E-005  0.9714950E+02  0.7546771E-02  0.1294294E+00
         21   -1    0    0  501  502  0.00000000000E+00  0.00000000000E+00  0.25099872738E+03  0.25099872738E+03  0.00000000000E+00 0.  1.
         -4   -1    0    0    0  501 -0.00000000000E+00 -0.00000000000E+00 -0.71414313532E+02  0.71414313532E+02  0.00000000000E+00 0.  1.
        -24    2    1    2    0    0  0.34262438754E+02 -0.96890252386E+01 -0.20651871621E+01  0.86505588344E+02  0.78810912299E+02 0.  0.
         23    2    1    2    0    0 -0.12965936599E+02 -0.31334989405E+02  0.92028114740E+02  0.13506836499E+03  0.92867067609E+02 0.  0.
         11    1    3    3    0    0 -0.21808266891E+02 -0.16840919313E+02  0.88421122044E+01  0.28937864750E+02  0.00000000000E+00 0. -1.
        -12    1    3    3    0    0  0.56070705645E+02  0.71518940741E+01 -0.10907299366E+02  0.57567723594E+02  0.00000000000E+00 0.  1.
        -13    1    4    4    0    0 -0.25855642427E+02  0.22368151258E+02  0.90062869134E+01  0.35354796563E+02  0.00000000000E+00 0. -1.
         13    1    4    4    0    0  0.12889705828E+02 -0.53703140663E+02  0.83021827826E+02  0.99713568430E+02  0.00000000000E+00 0.  1.
         -3    1    1    2    0  502 -0.21296502155E+02  0.41024014644E+02  0.89621486272E+02  0.10083908758E+03  0.00000000000E+00 0.  1.
<scales pt_clust_5="13000.00000" pt_clust_6="13000.00000" pt_clust_7="13000.00000" pt_clust_8="13000.00000" pt_clust_9="46.22241"></scales>
<clustering>
<clus scale="   46.222">  1  9  2 -1</clus>
<clus scale="   78.811">  5  6 -1 -1</clus>
<clus scale="   83.815">  2  5  1 -1</clus>
<clus scale="   92.867">  7  8 -1 -1</clus>
<clus scale="   46.222">  1  5  2 -1</clus>
</clustering>
</event>
<event>
 9    1  0.6675710E-005  0.9978844E+02  0.7546771E-02  0.1286306E+00
          1   -1    0    0  502    0 -0.00000000000E+00  0.00000000000E+00  0.10471535836E+04  0.10471535836E+04  0.00000000000E+00 0. -1.
         21   -1    0    0  501  502  0.00000000000E+00 -0.00000000000E+00 -0.15327087372E+02  0.15327087372E+02  0.00000000000E+00 0. -1.
        -24    2    1    2    0    0  0.26876741133E+02 -0.42154070755E+02  0.51860745134E+03  0.52712955086E+03  0.80078398566E+02 0.  0.
         23    2    1    2    0    0  0.54779546873E+01  0.24564014187E+02  0.21498467900E+03  0.23485158029E+03  0.91123288900E+02 0.  0.
         11    1    3    3    0    0 -0.56814107830E+01 -0.33567747309E+02  0.76403159543E+02  0.83645172461E+02  0.00000000000E+00 0. -1.
        -12    1    3    3    0    0  0.32558151916E+02 -0.85863234456E+01  0.44220429179E+03  0.44348437840E+03  0.00000000000E+00 0.  1.
        -13    1    4    4    0    0 -0.28311237934E+02 -0.10958336997E+02  0.15217434554E+03  0.15517294475E+03  0.00000000000E+00 0.  1.
         13    1    4    4    0    0  0.33789192621E+02  0.35522351184E+02  0.62810333458E+02  0.79678635535E+02  0.00000000000E+00 0. -1.
          2    1    1    2  501    0 -0.32354695820E+02  0.17590056568E+02  0.29823436589E+03  0.30049953981E+03  0.00000000000E+00 0. -1.
<scales pt_clust_5="13000.00000" pt_clust_6="13000.00000" pt_clust_7="13000.00000" pt_clust_8="13000.00000" pt_clust_9="36.82713"></scales>
<clustering>
<clus scale="   36.827">  2  9  1 -1</clus>
<clus scale="   80.078">  5  6 -1 -1</clus>
<clus scale="   89.816">  1  5  2 -1</clus>
<clus scale="   91.123">  7  8 -1 -1</clus>
<clus scale="   36.827">  2  5  1 -1</clus>
</clustering>
</event>
<event>
 9    1  0.6675710E-005  0.9506576E+02  0.7546771E-02  0.1297358E+00
         21   -1    0    0  501  502  0.00000000000E+00  0.00000000000E+00  0.28379143956E+03  0.28379143956E+03  0.00000000000E+00 0. -1.
         -2   -1    0    0    0  501 -0.00000000000E+00 -0.00000000000E+00 -0.23009381148E+03  0.23009381148E+03  0.00000000000E+00 0.  1.
         23    2    1    2    0    0  0.19860996723E+01  0.27802463766E+02 -0.20273984691E+03  0.22370850020E+03  0.90361086505E+02 0.  0.
        -24    2    1    2    0    0  0.55242965968E+01 -0.53499574129E+02  0.13294656089E+03  0.16381713152E+03  0.79174126082E+02 0.  0.
         13    1    4    4    0    0  0.40432906968E+02 -0.27347144278E+02  0.48718792372E+02  0.68965259343E+02  0.00000000000E+00 0. -1.
        -14    1    4    4    0    0 -0.34908610371E+02 -0.26152429851E+02  0.84227768522E+02  0.94851872176E+02  0.00000000000E+00 0.  1.
        -13    1    3    3    0    0 -0.41094778333E+02  0.39229431618E+01 -0.61015791471E+02  0.73668833967E+02  0.00000000000E+00 0.  1.
         13    1    3    3    0    0  0.43080878005E+02  0.23879520605E+02 -0.14172405543E+03  0.15003966623E+03  0.00000000000E+00 0. -1.
         -1    1    1    2    0  502 -0.75103962691E+01  0.25697110362E+02  0.12349091409E+03  0.12635961932E+03  0.00000000000E+00 0.  1.
<scales pt_clust_5="13000.00000" pt_clust_6="13000.00000" pt_clust_7="13000.00000" pt_clust_8="13000.00000" pt_clust_9="26.77214"></scales>
<clustering>
<clus scale="   26.772">  1  9  2 -1</clus>
<clus scale="   79.174">  5  6 -1 -1</clus>
<clus scale="   84.504">  1  5  2 -1</clus>
<clus scale="   90.361">  7  8 -1 -1</clus>
<clus scale="   26.772">  1  5  2 -1</clus>
</clustering>
</event>
<event>
 9    1  0.6675710E-005  0.9182915E+02  0.7546771E-02  0.1303714E+00
          1   -1    0    0  502    0 -0.00000000000E+00  0.00000000000E+00  0.11141925223E+03  0.11141925223E+03  0.00000000000E+00 0. -1.
         21   -1    0    0  501  502  0.00000000000E+00 -0.00000000000E+00 -0.15086364071E+03  0.15086364071E+03  0.00000000000E+00 0.  1.
        -24    2    1    2    0    0 -0.66029509277E+01  0.12756465966E+02  0.56350874776E+02  0.10037385756E+03  0.81811758380E+02 0.  0.
         23    2    1    2    0    0 -0.17152855558E+02 -0.31816543793E+02 -0.86055265779E+02  0.12993259937E+03  0.90390589654E+02 0.  0.
         13    1    3    3    0    0  0.20834993423E+02  0.39146759995E+02  0.24050680529E+02  0.50448002963E+02  0.00000000000E+00 0. -1.
        -14    1    3    3    0    0 -0.27437944351E+02 -0.26390294029E+02  0.32300194247E+02  0.49925854600E+02  0.00000000000E+00 0.  1.
        -13    1    4    4    0    0 -0.32019026347E+02  0.14341818799E+02 -0.70934395032E+02  0.79136554217E+02  0.00000000000E+00 0.  1.
         13    1    4    4    0    0  0.14866170789E+02 -0.46158362592E+02 -0.15120870747E+02  0.50796045153E+02  0.00000000000E+00 0. -1.
          2    1    1    2  501    0  0.23755806486E+02  0.19060077827E+02 -0.97399974786E+01  0.31976436003E+02  0.00000000000E+00 0. -1.
<scales pt_clust_5="13000.00000" pt_clust_6="13000.00000" pt_clust_7="13000.00000" pt_clust_8="13000.00000" pt_clust_9="30.45694"></scales>
<clustering>
<clus scale="   30.457">  2  9  1 -1</clus>
<clus scale="   81.812">  5  6 -1 -1</clus>
<clus scale="   83.398">  1  5  2 -1</clus>
<clus scale="   90.391">  7  8 -1 -1</clus>
<clus scale="   30.457">  2  5  1 -1</clus>
</clustering>
</event>
<event>
 9    1  0.6675710E-005  0.1995131E+03  0.7546771E-02  0.1169233E+00
         21   -1    0    0  501  502  0.00000000000E+00  0.00000000000E+00  0.18765821617E+03  0.18765821617E+03  0.00000000000E+00 0. -1.
          1   -1    0    0  502    0 -0.00000000000E+00 -0.00000000000E+00 -0.66988410898E+03  0.66988410898E+03  0.00000000000E+00 0. -1.
        -24    2    1    2    0    0  0.90366088540E+02  0.18114018276E+02 -0.13828048258E+03  0.18837460394E+03  0.88709367777E+02 0.  0.
         23    2    1    2    0    0 -0.35449830723E+02  0.15614452000E+03 -0.42966096016E+03  0.46735347732E+03  0.90404261242E+02 0.  0.
         11    1    3    3    0    0  0.39933605629E+02  0.29895821921E+02 -0.11172098113E+02  0.51120140875E+02  0.00000000000E+00 0. -1.
        -12    1    3    3    0    0  0.50432482911E+02 -0.11781803645E+02 -0.12710838447E+03  0.13725446307E+03  0.00000000000E+00 0.  1.
        -13    1    4    4    0    0 -0.24591280502E+02  0.62893958402E+02 -0.77033168992E+02  0.10244261909E+03  0.00000000000E+00 0.  1.
         13    1    4    4    0    0 -0.10858550220E+02  0.93250561599E+02 -0.35262779117E+03  0.36491085823E+03  0.00000000000E+00 0. -1.
          2    1    1    2  501    0 -0.54916257817E+02 -0.17425853828E+03  0.85715549930E+02  0.20181424389E+03  0.00000000000E+00 0. -1.
<scales pt_clust_5="13000.00000" pt_clust_6="13000.00000" pt_clust_7="13000.00000" pt_clust_8="13000.00000" pt_clust_9="177.85542"></scales>
<clustering>
<clus scale="   88.709">  5  6 -1 -1</clus>
<clus scale="   90.404">  7  8 -1 -1</clus>
<clus scale="  127.920">  2  5  1 -1</clus>
<clus scale="  177.855">  1  9  2 -1</clus>
<clus scale="  177.855">  1  5  2 -1</clus>
</clustering>
</event>
<event>
 9    1  0.6675710E-005  0.2216814E+03  0.7546771E-02  0.1134016E+00
         -2   -1    0    0    0  501 -0.00000000000E+00  0.00000000000E+00  0.92110511655E+02  0.92110511655E+02  0.00000000000E+00 0.  1.
         21   -1    0    0  501  502  0.00000000000E+00 -0.00000000000E+00 -0.81294453969E+03  0.81294453969E+03  0.00000000000E+00 0. -1.
        -24    2    1    2    0    0 -0.75398769755E+02 -0.16956780179E+03 -0.16459394808E+03  0.26078527018E+03  0.80495810556E+02 0.  0.
         23    2    1    2    0    0  0.87361465410E+02  0.21634503093E+03 -0.53423680156E+03  0.59120981967E+03  0.98401690457E+02 0.  0.
         13    1    3    3    0    0 -0.52995963063E+02 -0.17073668896E+03 -0.15408615713E+03  0.23601299303E+03  0.00000000000E+00 0. -1.
        -14    1    3    3    0    0 -0.22402806692E+02  0.11688871720E+01 -0.10507790943E+02  0.24772277154E+02  0.00000000000E+00 0.  1.
        -11    1    4    4    0    0  0.10678685575E+03  0.16433107243E+03 -0.44287133423E+03  0.48429655440E+03  0.00000000000E+00 0.  1.
         11    1    4    4    0    0 -0.19425390340E+02  0.52013958499E+02 -0.91365467329E+02  0.10691326526E+03  0.00000000000E+00 0. -1.
         -1    1    1    2    0  502 -0.11962695655E+02 -0.46777229143E+02 -0.22003278405E+02  0.53059961498E+02  0.00000000000E+00 0.  1.
<scales pt_clust_5="13000.00000" pt_clust_6="13000.00000" pt_clust_7="13000.00000" pt_clust_8="13000.00000" pt_clust_9="48.28268"></scales>
<clustering>
<clus scale="   48.283">  2  9  1 -1</clus>
<clus scale="   80.496">  5  6 -1 -1</clus>
<clus scale="   98.402">  7  8 -1 -1</clus>
<clus scale="  214.335">  1  5  2 -1</clus>
<clus scale="   48.283">  2  5  1 -1</clus>
</clustering>
</event>
<event>
 9    1  0.6675710E-005  0.1022095E+03  0.7546771E-02  0.1281541E+00
         21   -1    0    0  501  502  0.00000000000E+00  0.00000000000E+00  0.37943657478E+03  0.37943657478E+03  0.00000000000E+00 0. -1.
          1   -1    0    0  502    0 -0.00000000000E+00 -0.00000000000E+00 -0.22939332557E+03  0.22939332557E+03  0.00000000000E+00 0. -1.
        -24    2    1    2    0    0 -0.37771513269E+02  0.33253090001E+02 -0.20857543844E+03  0.22791178701E+03  0.76861003952E+02 0.  0.
         23    2    1    2    0    0  0.10150540913E+02 -0.35163308161E+02  0.23187202691E+03  0.25118267849E+03  0.89379020943E+02 0.  0.
         11    1    3    3    0    0 -0.46281611423E+02  0.18210897570E+02 -0.20408145106E+03  0.21005442869E+03  0.00000000000E+00 0. -1.
        -12    1    3    3    0    0  0.85100981545E+01  0.15042192431E+02 -0.44939873879E+01  0.17857358326E+02  0.00000000000E+00 0.  1.
        -11    1    4    4    0    0  0.45880719146E+02 -0.64059132336E+01  0.15390108952E+03  0.16072218723E+03  0.00000000000E+00 0.  1.
         11    1    4    4    0    0 -0.35730178233E+02 -0.28757394928E+02  0.77970937392E+02  0.90460491251E+02  0.00000000000E+00 0. -1.
          2    1    1    2  501    0  0.27620972356E+02  0.19102181603E+01  0.12674666074E+03  0.12973543485E+03  0.00000000000E+00 0. -1.
<scales pt_clust_5="13000.00000" pt_clust_6="13000.00000" pt_clust_7="13000.00000" pt_clust_8="13000.00000" pt_clust_9="27.68695"></scales>
<clustering>
<clus scale="   27.687">  1  9  2 -1</clus>
<clus scale="   76.861">  5  6 -1 -1</clus>
<clus scale="   89.379">  7  8 -1 -1</clus>
<clus scale="   91.465">  2  5  1 -1</clus>
<clus scale="   27.687">  1  5  2 -1</clus>
</clustering>
</event>
<event>
 9    1  0.6675710E-005  0.1792044E+03  0.7546771E-02  0.1189777E+00
          1   -1    0    0  502    0 -0.00000000000E+00  0.00000000000E+00  0.26313934559E+03  0.26313934559E+03  0.00000000000E+00 0. -1.
         21   -1    0    0  501  502  0.00000000000E+00 -0.00000000000E+00 -0.24623994419E+03  0.24623994419E+03  0.00000000000E+00 0. -1.
        -24    2    1    2    0    0 -0.44648008406E+02  0.62041333520E+02  0.29575821269E+02  0.11505296876E+03  0.80745802967E+02 0.  0.
         23    2    1    2    0    0 -0.12786422623E+02  0.13529483877E+03 -0.74548407159E+02  0.17969076578E+03  0.90901706770E+02 0.  0.
         11    1    3    3    0    0 -0.29985948185E+02  0.73576384837E+02  0.44586987870E+02  0.91107853567E+02  0.00000000000E+00 0. -1.
        -12    1    3    3    0    0 -0.14662060222E+02 -0.11535051317E+02 -0.15011166601E+02  0.23945115192E+02  0.00000000000E+00 0.  1.
        -13    1    4    4    0    0  0.13803406890E+02  0.12185629016E+03 -0.30259494257E+02  0.12631360373E+03  0.00000000000E+00 0.  1.
         13    1    4    4    0    0 -0.26589829513E+02  0.13438548607E+02 -0.44288912902E+02  0.53377162048E+02  0.00000000000E+00 0. -1.
          2    1    1    2  501    0  0.57434431029E+02 -0.19733617229E+03  0.61871987290E+02  0.21463555524E+03  0.00000000000E+00 0. -1.
<scales pt_clust_5="13000.00000" pt_clust_6="13000.00000" pt_clust_7="13000.00000" pt_clust_8="13000.00000" pt_clust_9="154.43809"></scales>
<clustering>
<clus scale="   80.746">  5  6 -1 -1</clus>
<clus scale="   90.902">  7  8 -1 -1</clus>
<clus scale="  111.187">  1  5  2 -1</clus>
<clus scale="  154.438">  2  9  1 -1</clus>
<clus scale="  154.438">  2  5  1 -1</clus>
</clustering>
</event>
<event>
 9    1  0.6675710E-005  0.1213316E+03  0.7546771E-02  0.1243414E+00
         -2   -1    0    0    0  501 -0.00000000000E+00  0.00000000000E+00  0.11188547617E+03  0.11188547617E+03  0.00000000000E+00 0.  1.
         21   -1    0    0  501  502  0.00000000000E+00 -0.00000000000E+00 -0.19204931695E+03  0.19204931695E+03  0.00000000000E+00 0.  1.
        -24    2    1    2    0    0 -0.47343985088E+01 -0.75021144705E+02 -0.20271859809E+02  0.11395815216E+03  0.83216137028E+02 0.  0.
         23    2    1    2    0    0  0.30798026868E+02  0.84964974731E+02 -0.83667264642E+02  0.15332344747E+03  0.91325259277E+02 0.  0.
         11    1    3    3    0    0 -0.24341472076E+02 -0.13543914556E+01 -0.28244731965E+02  0.37310943741E+02  0.00000000000E+00 0. -1.
        -12    1    3    3    0    0  0.19607073567E+02 -0.73666753249E+02  0.79728721562E+01  0.76647208420E+02  0.00000000000E+00 0.  1.
        -11    1    4    4    0    0  0.55849791040E+02  0.31170774044E+02 -0.21738094823E+02  0.67552654132E+02  0.00000000000E+00 0. -1.
         11    1    4    4    0    0 -0.25051764172E+02  0.53794200687E+02 -0.61929169819E+02  0.85770793340E+02  0.00000000000E+00 0.  1.
         -1    1    1    2    0  502 -0.26063628359E+02 -0.99438300257E+01  0.23775283677E+02  0.36653193487E+02  0.00000000000E+00 0.  1.
<scales pt_clust_5="13000.00000" pt_clust_6="13000.00000" pt_clust_7="13000.00000" pt_clust_8="13000.00000" pt_clust_9="27.89612"></scales>
<clustering>
<clus scale="   27.896">  2  9  1 -1</clus>
<clus scale="   83.216">  5  6 -1 -1</clus>
<clus scale="   91.325">  7  8 -1 -1</clus>
<clus scale="  115.352">  1  5  2 -1</clus>
<clus scale="   27.896">  2  5  1 -1</clus>
</clustering>
</event>
<event>
 9    1  0.6675710E-005  0.1085332E+03  0.7546771E-02  0.1268030E+00
         -4   -1    0    0    0  501 -0.00000000000E+00  0.00000000000E+00  0.98801247984E+03  0.98801247984E+03  0.00000000000E+00 0.  1.
         21   -1    0    0  501  502  0.00000000000E+00 -0.00000000000E+00 -0.66656345822E+02  0.66656345822E+02  0.00000000000E+00 0.  1.
        -24    2    1    2    0    0 -0.45625136764E+02 -0.52083925028E+02  0.81976690088E+03  0.82658140540E+03  0.80153974433E+02 0.  0.
         23    2    1    2    0    0  0.22418431327E+02 -0.17897549411E+02  0.11840681447E+03  0.15246474519E+03  0.91664695901E+02 0.  0.
         11    1    3    3    0    0  0.22332980956E+02 -0.10468407938E+02  0.13958008891E+03  0.14174255121E+03  0.00000000000E+00 0. -1.
        -12    1    3    3    0    0 -0.67958117720E+02 -0.41615517090E+02  0.68018681197E+03  0.68483885418E+03  0.00000000000E+00 0.  1.
        -13    1    4    4    0    0  0.39724945268E+02  0.11368503669E+00  0.12099804290E+03  0.12735230891E+03  0.00000000000E+00 0. -1.
         13    1    4    4    0    0 -0.17306513941E+02 -0.18011234448E+02 -0.25912284230E+01  0.25112436279E+02  0.00000000000E+00 0.  1.
         -3    1    1    2    0  502  0.23206705437E+02  0.69981474440E+02 -0.16817581343E+02  0.75622675066E+02  0.00000000000E+00 0.  1.
<scales pt_clust_5="13000.00000" pt_clust_6="13000.00000" pt_clust_7="13000.00000" pt_clust_8="13000.00000" pt_clust_9="73.72895"></scales>
<clustering>
<clus scale="   73.729">  2  9  1 -1</clus>
<clus scale="   80.154">  5  6 -1 -1</clus>
<clus scale="   91.665">  7  8 -1 -1</clus>
<clus scale="   99.003">  1  5  2 -1</clus>
<clus scale="   73.729">  2  5  1 -1</clus>
</clustering>
</event>
<event>
 9    1  0.6675710E-005  0.1006588E+03  0.7546771E-02  0.1283425E+00
         -2   -1    0    0    0  501 -0.00000000000E+00  0.00000000000E+00  0.10197652969E+03  0.10197652969E+03  0.00000000000E+00 0.  1.
         21   -1    0    0  501  502  0.00000000000E+00 -0.00000000000E+00 -0.19624448029E+03  0.19624448029E+03  0.00000000000E+00 0.  1.
        -24    2    1    2    0    0 -0.43123413298E+02 -0.56820474867E+01  0.20929979641E+02  0.95506277054E+02  0.82410378417E+02 0.  0.
         23    2    1    2    0    0  0.34699542808E+02 -0.49152639314E+02 -0.89932633320E+02  0.14175458448E+03  0.91577527055E+02 0.  0.
         13    1    3    3    0    0  0.48764560740E+01 -0.35050979496E+02  0.16541109747E+02  0.39063529016E+02  0.00000000000E+00 0. -1.
        -14    1    3    3    0    0 -0.47999869372E+02  0.29368932010E+02  0.43888698939E+01  0.56442748038E+02  0.00000000000E+00 0.  1.
        -13    1    4    4    0    0  0.56572550967E+02 -0.44198713415E+02 -0.30080057532E+02  0.77838227444E+02  0.00000000000E+00 0.  1.
         13    1    4    4    0    0 -0.21873008160E+02 -0.49539258996E+01 -0.59852575788E+02  0.63916357032E+02  0.00000000000E+00 0. -1.
         -1    1    1    2    0  502  0.84238704901E+01  0.54834686801E+02 -0.25265296924E+02  0.60960148452E+02  0.00000000000E+00 0.  1.
<scales pt_clust_5="13000.00000" pt_clust_6="13000.00000" pt_clust_7="13000.00000" pt_clust_8="13000.00000" pt_clust_9="55.47796"></scales>
<clustering>
<clus scale="   55.478">  2  9  1 -1</clus>
<clus scale="   82.410">  5  6 -1 -1</clus>
<clus scale="   91.578">  7  8 -1 -1</clus>
<clus scale="   92.397">  1  5  2 -1</clus>
<clus scale="   55.478">  2  5  1 -1</clus>
</clustering>
</event>
<event>
 9    1  0.6675710E-005  0.9117920E+02  0.7546771E-02  0.1306582E+00
         21   -1    0    0  501  502  0.00000000000E+00  0.00000000000E+00  0.19794206780E+03  0.19794206780E+03  0.00000000000E+00 0.  1.
         -2   -1    0    0    0  501 -0.00000000000E+00 -0.00000000000E+00 -0.57423477310E+02  0.57423477310E+02  0.00000000000E+00 0.  1.
         23    2    1    2    0    0  0.62724173622E+00 -0.16077227898E+02  0.35691346541E+02  0.98429898667E+02  0.90308925609E+02 0.  0.
        -24    2    1    2    0    0 -0.23757235125E+02 -0.59002090423E+01  0.64606247294E+02  0.10559625708E+03  0.79858522599E+02 0.  0.
         13    1    4    4    0    0 -0.17413172281E+01 -0.41367944866E+02  0.27165992781E+02  0.49521007783E+02  0.00000000000E+00 0. -1.
        -14    1    4    4    0    0 -0.22015917897E+02  0.35467735824E+02  0.37440254513E+02  0.56075249293E+02  0.00000000000E+00 0.  1.
        -11    1    3    3    0    0 -0.41819357403E+02  0.16935726252E+01  0.29565322203E+01  0.41957930414E+02  0.00000000000E+00 0.  1.
         11    1    3    3    0    0  0.42446599140E+02 -0.17770800523E+02  0.32734814321E+02  0.56471968253E+02  0.00000000000E+00 0. -1.
         -1    1    1    2    0  502  0.23129993389E+02  0.21977436940E+02  0.40220996658E+02  0.51339389369E+02  0.00000000000E+00 0.  1.
<scales pt_clust_5="13000.00000" pt_clust_6="13000.00000" pt_clust_7="13000.00000" pt_clust_8="13000.00000" pt_clust_9="31.90618"></scales>
<clustering>
<clus scale="   31.906">  1  9  2 -1</clus>
<clus scale="   79.859">  5  6 -1 -1</clus>
<clus scale="   80.841">  1  5  2 -1</clus>
<clus scale="   90.309">  7  8 -1 -1</clus>
<clus scale="   31.906">  1  5  2 -1</clus>
</clustering>
</event>
<event>
 9    1  0.6675710E-005  0.2001053E+03  0.7546771E-02  0.1160495E+00
         21   -1    0    0  501  502  0.00000000000E+00  0.00000000000E+00  0.24026440312E+03  0.24026440312E+03  0.00000000000E+00 0. -1.
          1   -1    0    0  502    0 -0.00000000000E+00 -0.00000000000E+00 -0.71622786201E+03  0.71622786201E+03  0.00000000000E+00 0. -1.
        -24    2    1    2    0    0 -0.12325320894E+03  0.28315754738E+02 -0.53102460814E+03  0.55321666720E+03  0.89824333787E+02 0.  0.
         23    2    1    2    0    0  0.20458130911E+02  0.15925439461E+03  0.14143909068E+02  0.18550597300E+03  0.91825478665E+02 0.  0.
         11    1    3    3    0    0 -0.13122073700E+03  0.59285063043E+01 -0.45015981030E+03  0.46893270713E+03  0.00000000000E+00 0. -1.
        -12    1    3    3    0    0  0.79675280632E+01  0.22387248434E+02 -0.80864797838E+02  0.84283960071E+02  0.00000000000E+00 0.  1.
        -11    1    4    4    0    0 -0.36513869360E+02  0.53776719228E+02  0.23070733063E+01  0.65042453627E+02  0.00000000000E+00 0.  1.
         11    1    4    4    0    0  0.56972000271E+02  0.10547767539E+03  0.11836835762E+02  0.12046351938E+03  0.00000000000E+00 0. -1.
          2    1    1    2  501    0  0.10279507803E+03 -0.18757014935E+03  0.40917240179E+02  0.21776962492E+03  0.00000000000E+00 0. -1.
<scales pt_clust_5="13000.00000" pt_clust_6="13000.00000" pt_clust_7="13000.00000" pt_clust_8="13000.00000" pt_clust_9="177.79274"></scales>
<clustering>
<clus scale="   89.824">  5  6 -1 -1</clus>
<clus scale="   91.825">  7  8 -1 -1</clus>
<clus scale="  155.118">  2  5  1 -1</clus>
<clus scale="  177.793">  1  9  2 -1</clus>
<clus scale="  177.793">  1  5  2 -1</clus>
</clustering>
</event>
<event>
 9    1  0.1112427E-004  0.1833856E+03  0.7546771E-02  0.1165458E+00
          1   -1    0    0  502    0 -0.00000000000E+00  0.00000000000E+00  0.68438089661E+03  0.68438089661E+03  0.00000000000E+00 0. -1.
         21   -1    0    0  501  502  0.00000000000E+00 -0.00000000000E+00 -0.11277827688E+04  0.11277827688E+04  0.00000000000E+00 0. -1.
        -24    2    1    2    0    0 -0.18927761835E+03 -0.55011384117E+02 -0.43407667501E+03  0.48370064589E+03  0.81801502744E+02 0.  0.
         23    2    1    2    0    0  0.52373586301E+02  0.13713546821E+03 -0.64783942916E+03  0.67029320583E+03  0.89710237036E+02 0.  0.
         11    1    3    3    0    0 -0.13465244986E+03 -0.15958268717E+02 -0.35468074527E+03  0.37971618303E+03  0.00000000000E+00 0. -1.
        -12    1    3    3    0    0 -0.54625168489E+02 -0.39053115400E+02 -0.79395929744E+02  0.10398446285E+03  0.00000000000E+00 0.  1.
        -13    1    4    4    0    0 -0.22216507202E+02  0.13448621312E+02 -0.69597001691E+02  0.74284461712E+02  0.00000000000E+00 0.  1.
         13    1    4    4    0    0  0.74590093503E+02  0.12368684690E+03 -0.57824242747E+03  0.59600874412E+03  0.00000000000E+00 0. -1.
          2    1    1    2  501    0  0.13690403205E+03 -0.82124084094E+02  0.63851423200E+03  0.65816981368E+03  0.00000000000E+00 0. -1.
<scales pt_clust_5="13000.00000" pt_clust_6="13000.00000" pt_clust_7="13000.00000" pt_clust_8="13000.00000" pt_clust_9="159.64681"></scales>
<clustering>
<clus scale="   81.802">  5  6 -1 -1</clus>
<clus scale="   89.710">  7  8 -1 -1</clus>
<clus scale="  159.647">  2  9  1 -1</clus>
<clus scale="  179.649">  1  5  2 -1</clus>
<clus scale="  159.647">  2  5  1 -1</clus>
</clustering>
</event>
<event>
 9    1  0.6675710E-005  0.9663708E+02  0.7546771E-02  0.1294347E+00
         -4   -1    0    0    0  501 -0.00000000000E+00  0.00000000000E+00  0.38749870141E+03  0.38749870141E+03  0.00000000000E+00 0.  1.
         21   -1    0    0  501  502  0.00000000000E+00 -0.00000000000E+00 -0.99669367069E+02  0.99669367069E+02  0.00000000000E+00 0. -1.
        -24    2    1    2    0    0 -0.32734249436E+01 -0.32565479253E+02  0.26658608097E+03  0.28015980498E+03  0.79687841032E+02 0.  0.
         23    2    1    2    0    0 -0.63004751082E+02 -0.14550308187E+01 -0.31385010540E+02  0.11579463576E+03  0.91932926700E+02 0.  0.
         13    1    3    3    0    0  0.26332646607E+02 -0.33699786254E+02  0.22541569602E+03  0.22943696277E+03  0.00000000000E+00 0. -1.
        -14    1    3    3    0    0 -0.29606071551E+02  0.11343070014E+01  0.41170384944E+02  0.50722842206E+02  0.00000000000E+00 0.  1.
        -13    1    4    4    0    0 -0.39856403830E+02 -0.42474524648E+02  0.16410331335E+01  0.58269298606E+02  0.00000000000E+00 0.  1.
         13    1    4    4    0    0 -0.23148347252E+02  0.41019493829E+02 -0.33026043673E+02  0.57525337158E+02  0.00000000000E+00 0. -1.
         -3    1    1    2    0  502  0.66278176026E+02  0.34020510072E+02  0.52628263914E+02  0.91213627740E+02  0.00000000000E+00 0.  1.
<scales pt_clust_5="13000.00000" pt_clust_6="13000.00000" pt_clust_7="13000.00000" pt_clust_8="13000.00000" pt_clust_9="74.49961"></scales>
<clustering>
<clus scale="   74.500">  2  9  1 -1</clus>
<clus scale="   79.688">  5  6 -1 -1</clus>
<clus scale="   85.072">  1  5  2 -1</clus>
<clus scale="   91.933">  7  8 -1 -1</clus>
<clus scale="   74.500">  2  5  1 -1</clus>
</clustering>
</event>
<event>
 9    1  0.6675710E-005  0.1641548E+03  0.7546771E-02  0.1185784E+00
         21   -1    0    0  501  502  0.00000000000E+00  0.00000000000E+00  0.20610352176E+03  0.20610352176E+03  0.00000000000E+00 0. -1.
         -2   -1    0    0    0  501 -0.00000000000E+00 -0.00000000000E+00 -0.50956663192E+03  0.50956663192E+03  0.00000000000E+00 0.  1.
         23    2    1    2    0    0 -0.16674235773E+02  0.13257332693E+03 -0.43069598849E+03  0.46014993410E+03  0.91570793393E+02 0.  0.
        -24    2    1    2    0    0 -0.11077194392E+01 -0.16283889092E+03  0.84428994702E+02  0.20016342461E+03  0.80121220444E+02 0.  0.
         13    1    4    4    0    0  0.20714572906E+02 -0.14980997399E+03  0.87238298864E+02  0.17459279087E+03  0.00000000000E+00 0. -1.
        -14    1    4    4    0    0 -0.21822292346E+02 -0.13028916938E+02 -0.28093041620E+01  0.25570633736E+02  0.00000000000E+00 0.  1.
        -11    1    3    3    0    0 -0.15519934025E+00  0.44573383275E+02 -0.41893300762E+02  0.61170738366E+02  0.00000000000E+00 0. -1.
         11    1    3    3    0    0 -0.16519036433E+02  0.87999943656E+02 -0.38880268772E+03  0.39897919574E+03  0.00000000000E+00 0.  1.
         -1    1    1    2    0  502  0.17781955212E+02  0.30265563993E+02  0.42803883623E+02  0.55356794960E+02  0.00000000000E+00 0.  1.
<scales pt_clust_5="13000.00000" pt_clust_6="13000.00000" pt_clust_7="13000.00000" pt_clust_8="13000.00000" pt_clust_9="35.10274"></scales>
<clustering>
<clus scale="   35.103">  1  9  2 -1</clus>
<clus scale="   80.121">  5  6 -1 -1</clus>
<clus scale="   91.571">  7  8 -1 -1</clus>
<clus scale="  158.054">  1  5  2 -1</clus>
<clus scale="   35.103">  1  5  2 -1</clus>
</clustering>
</event>
<event>
 9    1  0.6675710E-005  0.9291063E+02  0.7546771E-02  0.1303372E+00
         21   -1    0    0  501  502  0.00000000000E+00  0.00000000000E+00  0.19885554722E+03  0.19885554722E+03  0.00000000000E+00 0.  1.
         -2   -1    0    0    0  501 -0.00000000000E+00 -0.00000000000E+00 -0.12069831942E+03  0.12069831942E+03  0.00000000000E+00 0.  1.
        -24    2    1    2    0    0  0.79021140969E+01  0.19470144912E+02 -0.47200198126E+02  0.95240271005E+02  0.80008253123E+02 0.  0.
         23    2    1    2    0    0 -0.22840911301E+02  0.34722339398E+02  0.17211777701E+02  0.10243056052E+03  0.92024053134E+02 0.  0.
         13    1    3    3    0    0 -0.35472187229E+02  0.16841749752E+02 -0.22546197405E+02  0.45279704272E+02  0.00000000000E+00 0. -1.
        -14    1    3    3    0    0  0.43374301326E+02  0.26283951596E+01 -0.24654000721E+02  0.49960566732E+02  0.00000000000E+00 0.  1.
        -13    1    4    4    0    0 -0.17148153988E+02 -0.19987281659E+02  0.35734669745E+02  0.44390508390E+02  0.00000000000E+00 0. -1.
         13    1    4    4    0    0 -0.56927573130E+01  0.54709621057E+02 -0.18522892044E+02  0.58040052134E+02  0.00000000000E+00 0.  1.
         -1    1    1    2    0  502  0.14938797204E+02 -0.54192484310E+02  0.10814564822E+03  0.12188303511E+03  0.00000000000E+00 0.  1.
<scales pt_clust_5="13000.00000" pt_clust_6="13000.00000" pt_clust_7="13000.00000" pt_clust_8="13000.00000" pt_clust_9="56.21382"></scales>
<clustering>
<clus scale="   56.214">  1  9  2 -1</clus>
<clus scale="   80.008">  5  6 -1 -1</clus>
<clus scale="   81.026">  2  5  1 -1</clus>
<clus scale="   92.024">  7  8 -1 -1</clus>
<clus scale="   56.214">  1  5  2 -1</clus>
</clustering>
</event>
<event>
 9    1  0.6675710E-005  0.1058492E+03  0.7546771E-02  0.1273051E+00
          1   -1    0    0  502    0 -0.00000000000E+00  0.00000000000E+00  0.75235133294E+03  0.75235133294E+03  0.00000000000E+00 0. -1.
         21   -1    0    0  501  502  0.00000000000E+00 -0.00000000000E+00 -0.54089560927E+02  0.54089560927E+02  0.00000000000E+00 0. -1.
        -24    2    1    2    0    0  0.65047660749E+02 -0.78254168596E+01  0.59570941972E+03  0.60409968685E+03  0.75988706957E+02 0.  0.
         23    2    1    2    0    0 -0.23777690528E+02 -0.50001675807E+02  0.56968863600E+02  0.11793126963E+03  0.87159547884E+02 0.  0.
         13    1    3    3    0    0  0.66099577327E+02 -0.33552823743E+02  0.41561612208E+03  0.42217497206E+03  0.00000000000E+00 0. -1.
        -14    1    3    3    0    0 -0.10519165784E+01  0.25727406884E+02  0.18009329764E+03  0.18192471478E+03  0.00000000000E+00 0.  1.
        -13    1    4    4    0    0 -0.51225868628E+02 -0.31702768013E+02  0.59721268469E+02  0.84827973121E+02  0.00000000000E+00 0.  1.
         13    1    4    4    0    0  0.27448178100E+02 -0.18298907795E+02 -0.27524048686E+01  0.33103296513E+02  0.00000000000E+00 0. -1.
          2    1    1    2  501    0 -0.41269970220E+02  0.57827092667E+02  0.45583488692E+02  0.84409937386E+02  0.00000000000E+00 0. -1.
<scales pt_clust_5="13000.00000" pt_clust_6="13000.00000" pt_clust_7="13000.00000" pt_clust_8="13000.00000" pt_clust_9="71.04353"></scales>
<clustering>
<clus scale="   71.044">  2  9  1 -1</clus>
<clus scale="   75.989">  5  6 -1 -1</clus>
<clus scale="   87.160">  7  8 -1 -1</clus>
<clus scale="   96.858">  1  5  2 -1</clus>
<clus scale="   71.044">  2  5  1 -1</clus>
</clustering>
</event>
<event>
 9    1  0.7653561E-005  0.1264763E+03  0.7546771E-02  0.1244932E+00
         21   -1    0    0  501  502  0.00000000000E+00  0.00000000000E+00  0.72580912978E+02  0.72580912978E+02  0.00000000000E+00 0. -1.
          3   -1    0    0  502    0 -0.00000000000E+00 -0.00000000000E+00 -0.10792864992E+04  0.10792864992E+04  0.00000000000E+00 0. -1.
        -24    2    1    2    0    0  0.11643916840E+02 -0.57635170729E+02 -0.40290611137E+02  0.10667000653E+03  0.79358447836E+02 0.  0.
         23    2    1    2    0    0 -0.59354842717E+02 -0.61170189786E+02 -0.75291955448E+02  0.14492451243E+03  0.89830096711E+02 0.  0.
         11    1    3    3    0    0  0.28324910642E+02  0.92784656911E+01 -0.12356641982E+02  0.32265726236E+02  0.00000000000E+00 0. -1.
        -12    1    3    3    0    0 -0.16680993803E+02 -0.66913636421E+02 -0.27933969155E+02  0.74404280294E+02  0.00000000000E+00 0.  1.
        -11    1    4    4    0    0 -0.55280202022E+02 -0.36730176559E+02 -0.75210126014E+00  0.66374485022E+02  0.00000000000E+00 0. -1.
         11    1    4    4    0    0 -0.40746406956E+01 -0.24440013227E+02 -0.74539854187E+02  0.78550027407E+02  0.00000000000E+00 0.  1.
          4    1    1    2  501    0  0.47710925878E+02  0.11880536052E+03 -0.89112301959E+03  0.90027289317E+03  0.00000000000E+00 0. -1.
<scales pt_clust_5="13000.00000" pt_clust_6="13000.00000" pt_clust_7="13000.00000" pt_clust_8="13000.00000" pt_clust_9="89.03267"></scales>
<clustering>
<clus scale="   79.358">  5  6 -1 -1</clus>
<clus scale="   89.830">  7  8 -1 -1</clus>
<clus scale="   98.768">  2  5  1 -1</clus>
<clus scale="   89.033">  1  9  2 -1</clus>
<clus scale="   89.033">  1  5  2 -1</clus>
</clustering>
</event>
<event>
 9    1  0.6675710E-005  0.1037498E+03  0.7546771E-02  0.1276257E+00
         21   -1    0    0  501  502  0.00000000000E+00  0.00000000000E+00  0.63081457615E+02  0.63081457615E+02  0.00000000000E+00 0. -1.
          1   -1    0    0  502    0 -0.00000000000E+00 -0.00000000000E+00 -0.44121745957E+03  0.44121745957E+03  0.00000000000E+00 0. -1.
        -24    2    1    2    0    0 -0.56809599228E+02  0.10697332990E+01 -0.30462786759E+03  0.32074555067E+03  0.82771345693E+02 0.  0.
         23    2    1    2    0    0  0.33882848825E+02  0.85845649534E+01 -0.10514325998E+03  0.14330883234E+03  0.90887700521E+02 0.  0.
         13    1    3    3    0    0 -0.75229918071E+02 -0.13293620142E+02 -0.24765127463E+03  0.25916677012E+03  0.00000000000E+00 0. -1.
        -14    1    3    3    0    0  0.18420318843E+02  0.14363353441E+02 -0.56976592955E+02  0.61578780543E+02  0.00000000000E+00 0.  1.
        -13    1    4    4    0    0  0.19165177178E+02  0.37711492807E+02 -0.10212009956E+03  0.11053495121E+03  0.00000000000E+00 0. -1.
         13    1    4    4    0    0  0.14717671646E+02 -0.29126927853E+02 -0.30231604228E+01  0.32773881122E+02  0.00000000000E+00 0.  1.
          2    1    1    2  501    0  0.22926750403E+02 -0.96542982523E+01  0.31635125615E+02  0.40244534181E+02  0.00000000000E+00 0. -1.
<scales pt_clust_5="13000.00000" pt_clust_6="13000.00000" pt_clust_7="13000.00000" pt_clust_8="13000.00000" pt_clust_9="24.87652"></scales>
<clustering>
<clus scale="   24.877">  1  9  2 -1</clus>
<clus scale="   82.771">  5  6 -1 -1</clus>
<clus scale="   90.888">  7  8 -1 -1</clus>
<clus scale="   96.719">  2  5  1 -1</clus>
<clus scale="   24.877">  1  5  2 -1</clus>
</clustering>
</event>
<event>
 9    1  0.6675710E-005  0.9951785E+02  0.7546771E-02  0.1282827E+00
         -2   -1    0    0    0  501 -0.00000000000E+00  0.00000000000E+00  0.42870844317E+03  0.42870844317E+03  0.00000000000E+00 0.  1.
         21   -1    0    0  501  502  0.00000000000E+00 -0.00000000000E+00 -0.88395006293E+02  0.88395006293E+02  0.00000000000E+00 0. -1.
        -24    2    1    2    0    0  0.33468586163E+02  0.48660274382E+01  0.36684976737E+03  0.37996927061E+03  0.93027255714E+02 0.  0.
         23    2    1    2    0    0 -0.48722046438E+02  0.95746761789E+01  0.62593877957E+00  0.10279774276E+03  0.90008176763E+02 0.  0.
         13    1    3    3    0    0 -0.29743267623E+02  0.16679597127E+02  0.14728726741E+03  0.15118336572E+03  0.00000000000E+00 0. -1.
        -14    1    3    3    0    0  0.63211853786E+02 -0.11813569689E+02  0.21956249996E+03  0.22878590489E+03  0.00000000000E+00 0.  1.
        -11    1    4    4    0    0 -0.24289765664E+02  0.73709186469E+01  0.45245350200E+02  0.51879329915E+02  0.00000000000E+00 0.  1.
         11    1    4    4    0    0 -0.24432280774E+02  0.22037575320E+01 -0.44619411421E+02  0.50918412845E+02  0.00000000000E+00 0. -1.
         -1    1    1    2    0  502  0.15253460275E+02 -0.14440703617E+02 -0.27162269274E+02  0.34336436091E+02  0.00000000000E+00 0.  1.
<scales pt_clust_5="13000.00000" pt_clust_6="13000.00000" pt_clust_7="13000.00000" pt_clust_8="13000.00000" pt_clust_9="21.00481"></scales>
<clustering>
<clus scale="   21.005">  2  9  1 -1</clus>
<clus scale="   90.008">  7  8 -1 -1</clus>
<clus scale="   93.027">  5  6 -1 -1</clus>
<clus scale="   96.702">  2  7  1 -1</clus>
<clus scale="   21.005">  2  5  1 -1</clus>
</clustering>
</event>
<event>
 9    1  0.6675710E-005  0.9628778E+02  0.7546771E-02  0.1296593E+00
         -2   -1    0    0    0  501 -0.00000000000E+00  0.00000000000E+00  0.10485958983E+03  0.10485958983E+03  0.00000000000E+00 0.  1.
         21   -1    0    0  501  502  0.00000000000E+00 -0.00000000000E+00 -0.12326400547E+03  0.12326400547E+03  0.00000000000E+00 0.  1.
         23    2    1    2    0    0 -0.97488565563E+00  0.17489940025E+02 -0.22873178965E+01  0.97738883702E+02  0.96129127532E+02 0.  0.
        -24    2    1    2    0    0  0.79567570021E+01  0.24694861257E+02 -0.15155331077E+02  0.87615225027E+02  0.82301867791E+02 0.  0.
         11    1    4    4    0    0  0.40530396184E+02  0.33394734566E+02 -0.10863116029E+02  0.53627685028E+02  0.00000000000E+00 0. -1.
        -12    1    4    4    0    0 -0.32573639182E+02 -0.86998733087E+01 -0.42922150476E+01  0.33987539999E+02  0.00000000000E+00 0.  1.
        -13    1    3    3    0    0 -0.14072122103E+02 -0.37695071640E+02 -0.69408984571E+01  0.40830370042E+02  0.00000000000E+00 0. -1.
         13    1    3    3    0    0  0.13097236447E+02  0.55185011664E+02  0.46535805607E+01  0.56908513660E+02  0.00000000000E+00 0.  1.
         -1    1    1    2    0  502 -0.69818713464E+01 -0.42184801282E+02 -0.96176666874E+00  0.42769486574E+02  0.00000000000E+00 0.  1.
<scales pt_clust_5="13000.00000" pt_clust_6="13000.00000" pt_clust_7="13000.00000" pt_clust_8="13000.00000" pt_clust_9="42.75869"></scales>
<clustering>
<clus scale="   42.759">  2  9  1 -1</clus>
<clus scale="   82.302">  5  6 -1 -1</clus>
<clus scale="   82.487">  2  5  1 -1</clus>
<clus scale="   96.129">  7  8 -1 -1</clus>
<clus scale="   42.759">  2  5  1 -1</clus>
</clustering>
</event>
<event>
 9    1  0.6675710E-005  0.1479170E+03  0.7546771E-02  0.1204879E+00
         -2   -1    0    0    0  501 -0.00000000000E+00  0.00000000000E+00  0.38381441780E+03  0.38381441780E+03  0.00000000000E+00 0.  1.
         21   -1    0    0  501  502  0.00000000000E+00 -0.00000000000E+00 -0.21139236816E+03  0.21139236816E+03  0.00000000000E+00 0.  1.
         23    2    1    2    0    0  0.31729958285E+02 -0.10116105061E+03  0.17186387756E+03  0.22190492352E+03  0.92001381845E+02 0.  0.
        -24    2    1    2    0    0 -0.93678274901E+02  0.99813327495E+02  0.14520344146E+03  0.21594346817E+03  0.82518013190E+02 0.  0.
         11    1    4    4    0    0 -0.26520340134E+02  0.25976376545E+01  0.72423691300E+02  0.77170377890E+02  0.00000000000E+00 0. -1.
        -12    1    4    4    0    0 -0.67157934766E+02  0.97215689841E+02  0.72779750160E+02  0.13877309028E+03  0.00000000000E+00 0.  1.
        -13    1    3    3    0    0 -0.14170153127E+02 -0.19396971596E+02 -0.22717838108E+01  0.24128753561E+02  0.00000000000E+00 0. -1.
         13    1    3    3    0    0  0.45900111411E+02 -0.81764079015E+02  0.17413566137E+03  0.19777616996E+03  0.00000000000E+00 0.  1.
         -1    1    1    2    0  502  0.61948316616E+02  0.13477231156E+01 -0.14464526938E+03  0.15735839426E+03  0.00000000000E+00 0.  1.
<scales pt_clust_5="13000.00000" pt_clust_6="13000.00000" pt_clust_7="13000.00000" pt_clust_8="13000.00000" pt_clust_9="61.96298"></scales>
<clustering>
<clus scale="   61.963">  2  9  1 -1</clus>
<clus scale="   82.518">  5  6 -1 -1</clus>
<clus scale="   92.001">  7  8 -1 -1</clus>
<clus scale="  142.213">  2  5  1 -1</clus>
<clus scale="   61.963">  2  5  1 -1</clus>
</clustering>
</event>
<event>
 9    1  0.6675710E-005  0.5275179E+03  0.7546771E-02  0.1060901E+00
          1   -1    0    0  502    0 -0.00000000000E+00  0.00000000000E+00  0.21125395911E+04  0.21125395911E+04  0.00000000000E+00 0. -1.
         21   -1    0    0  501  502  0.00000000000E+00 -0.00000000000E+00 -0.19723024355E+03  0.19723024355E+03  0.00000000000E+00 0. -1.
        -24    2    1    2    0    0 -0.17674485341E+02 -0.71708893358E+02  0.15112562198E+03  0.18530441797E+03  0.77744587475E+02 0.  0.
         23    2    1    2    0    0  0.29209949978E+03 -0.41357170435E+03  0.40267305078E+03  0.65323543308E+03  0.90593999795E+02 0.  0.
         11    1    3    3    0    0  0.25308975999E+02 -0.36815981323E+02  0.10173297821E+03  0.11111057377E+03  0.00000000000E+00 0. -1.
        -12    1    3    3    0    0 -0.42983461340E+02 -0.34892912034E+02  0.49392643761E+02  0.74193844197E+02  0.00000000000E+00 0.  1.
        -13    1    4    4    0    0  0.25948089799E+03 -0.40325184640E+03  0.36734643853E+03  0.60405777368E+03  0.00000000000E+00 0. -1.
         13    1    4    4    0    0  0.32618601787E+02 -0.10319857947E+02  0.35326612247E+02  0.49177659394E+02  0.00000000000E+00 0.  1.
          2    1    1    2  501    0 -0.27442501444E+03  0.48528059771E+03  0.13615106748E+04  0.14712299836E+04  0.00000000000E+00 0. -1.
<scales pt_clust_5="13000.00000" pt_clust_6="13000.00000" pt_clust_7="13000.00000" pt_clust_8="13000.00000" pt_clust_9="519.68082"></scales>
<clustering>
<clus scale="   77.745">  5  6 -1 -1</clus>
<clus scale="   90.594">  7  8 -1 -1</clus>
<clus scale="  107.232">  1  5  2 -1</clus>
<clus scale="  519.681">  2  9  1 -1</clus>
<clus scale="  519.681">  2  5  1 -1</clus>
</clustering>
</event>
<event>
 9    1  0.6675710E-005  0.1013565E+03  0.7546771E-02  0.1279461E+00
          1   -1    0    0  502    0 -0.00000000000E+00  0.00000000000E+00  0.41603659435E+02  0.41603659435E+02  0.00000000000E+00 0. -1.
         21   -1    0    0  501  502  0.00000000000E+00 -0.00000000000E+00 -0.54329341906E+03  0.54329341906E+03  0.00000000000E+00 0.  1.
        -24    2    1    2    0    0  0.35461868243E+02 -0.38656177493E+02 -0.54387788279E+02  0.10982376787E+03  0.79695572757E+02 0.  0.
         23    2    1    2    0    0 -0.35835400236E+02  0.69497921552E+02 -0.41406654545E+03  0.42973076728E+03  0.84281025602E+02 0.  0.
         13    1    3    3    0    0  0.55218224143E+02 -0.36278755328E+02 -0.18207820043E+02  0.68532657006E+02  0.00000000000E+00 0. -1.
        -14    1    3    3    0    0 -0.19756355900E+02 -0.23774221649E+01 -0.36179968236E+02  0.41291110861E+02  0.00000000000E+00 0.  1.
        -11    1    4    4    0    0  0.16560001323E+02  0.58760904969E+02 -0.20201446761E+03  0.21103772819E+03  0.00000000000E+00 0.  1.
         11    1    4    4    0    0 -0.52395401559E+02  0.10737016583E+02 -0.21205207784E+03  0.21869303909E+03  0.00000000000E+00 0. -1.
          2    1    1    2  501    0  0.37353199298E+00 -0.30841744060E+02 -0.33235425896E+02  0.45342543348E+02  0.00000000000E+00 0. -1.
<scales pt_clust_5="13000.00000" pt_clust_6="13000.00000" pt_clust_7="13000.00000" pt_clust_8="13000.00000" pt_clust_9="30.84402"></scales>
<clustering>
<clus scale="   30.844">  2  9  1 -1</clus>
<clus scale="   79.696">  5  6 -1 -1</clus>
<clus scale="   84.281">  7  8 -1 -1</clus>
<clus scale="   97.577">  1  5  2 -1</clus>
<clus scale="   30.844">  2  5  1 -1</clus>
</clustering>
</event>
<event>
 9    1  0.6675710E-005  0.1254646E+03  0.7546771E-02  0.1236568E+00
         21   -1    0    0  501  502  0.00000000000E+00  0.00000000000E+00  0.10600189234E+04  0.10600189234E+04  0.00000000000E+00 0. -1.
          1   -1    0    0  502    0 -0.00000000000E+00 -0.00000000000E+00 -0.21825627676E+02  0.21825627676E+02  0.00000000000E+00 0. -1.
         23    2    1    2    0    0  0.54878844236E+02 -0.74528084043E+02  0.25596050438E+03  0.28680238030E+03  0.90408532154E+02 0.  0.
        -24    2    1    2    0    0 -0.56899705327E+02  0.47754770804E+02  0.69376283614E+03  0.70258771089E+03  0.82489539165E+02 0.  0.
         13    1    4    4    0    0 -0.45851258921E+02  0.71302656213E+02  0.51122438628E+03  0.51820534526E+03  0.00000000000E+00 0. -1.
        -14    1    4    4    0    0 -0.11048446406E+02 -0.23547885409E+02  0.18253844987E+03  0.18438236563E+03  0.00000000000E+00 0.  1.
        -11    1    3    3    0    0 -0.14634817994E+02 -0.25007283588E+02  0.18272619124E+02  0.34255375342E+02  0.00000000000E+00 0.  1.
         11    1    3    3    0    0  0.69513662231E+02 -0.49520800454E+02  0.23768788526E+03  0.25254700496E+03  0.00000000000E+00 0. -1.
          2    1    1    2  501    0  0.20208610910E+01  0.26773313238E+02  0.88469955231E+02  0.92454459924E+02  0.00000000000E+00 0. -1.
<scales pt_clust_5="13000.00000" pt_clust_6="13000.00000" pt_clust_7="13000.00000" pt_clust_8="13000.00000" pt_clust_9="26.84949"></scales>
<clustering>
<clus scale="   26.849">  1  9  2 -1</clus>
<clus scale="   82.490">  5  6 -1 -1</clus>
<clus scale="   90.409">  7  8 -1 -1</clus>
<clus scale="  119.884">  1  5  2 -1</clus>
<clus scale="   26.849">  1  5  2 -1</clus>
</clustering>
</event>
<event>
 9    1  0.6675710E-005  0.1025834E+03  0.7546771E-02  0.1280434E+00
          1   -1    0    0  502    0 -0.00000000000E+00  0.00000000000E+00  0.55380736632E+02  0.55380736632E+02  0.00000000000E+00 0. -1.
         21   -1    0    0  501  502  0.00000000000E+00 -0.00000000000E+00 -0.57993120491E+03  0.57993120491E+03  0.00000000000E+00 0. -1.
         23    2    1    2    0    0  0.12008514979E+02  0.47610744493E+02 -0.42936709116E+02  0.11035166088E+03  0.89010901836E+02 0.  0.
        -24    2    1    2    0    0  0.85190347431E+01 -0.66433502318E+02 -0.48614059110E+03  0.49674381886E+03  0.77043903555E+02 0.  0.
         11    1    4    4    0    0 -0.20773264354E+02 -0.66322125906E+02 -0.39324848834E+03  0.39934261791E+03  0.00000000000E+00 0. -1.
        -12    1    4    4    0    0  0.29292299097E+02 -0.11137641281E+00 -0.92892102757E+02  0.97401200946E+02  0.00000000000E+00 0.  1.
        -11    1    3    3    0    0 -0.20069283286E+02  0.60441778477E+02 -0.41011780760E+02  0.75749263219E+02  0.00000000000E+00 0.  1.
         11    1    3    3    0    0  0.32077798265E+02 -0.12831033984E+02 -0.19249283556E+01  0.34602397660E+02  0.00000000000E+00 0. -1.
          2    1    1    2  501    0 -0.20527549722E+02  0.18822757825E+02  0.45268319332E+01  0.28216461811E+02  0.00000000000E+00 0. -1.
<scales pt_clust_5="13000.00000" pt_clust_6="13000.00000" pt_clust_7="13000.00000" pt_clust_8="13000.00000" pt_clust_9="27.85098"></scales>
<clustering>
<clus scale="   27.851">  2  9  1 -1</clus>
<clus scale="   77.044">  5  6 -1 -1</clus>
<clus scale="   89.011">  7  8 -1 -1</clus>
<clus scale="   92.391">  2  5  1 -1</clus>
<clus scale="   27.851">  2  5  1 -1</clus>
</clustering>
</event>
<event>
 9    1  0.6675710E-005  0.1251478E+03  0.7546771E-02  0.1237265E+00
         21   -1    0    0  501  502  0.00000000000E+00  0.00000000000E+00  0.30065533557E+02  0.30065533557E+02  0.00000000000E+00 0. -1.
         -4   -1    0    0    0  501 -0.00000000000E+00 -0.00000000000E+00 -0.88563961432E+03  0.88563961432E+03  0.00000000000E+00 0.  1.
        -24    2    1    2    0    0 -0.85137579347E+02 -0.37608803513E+02 -0.52560657369E+03  0.54098676978E+03  0.87986278809E+02 0.  0.
         23    2    1    2    0    0  0.33570625378E+02  0.41959595678E+02 -0.14135599126E+03  0.17913621114E+03  0.96024326693E+02 0.  0.
         13    1    3    3    0    0 -0.88496979959E+02  0.35134957761E+00 -0.32739248492E+03  0.33914256307E+03  0.00000000000E+00 0. -1.
        -14    1    3    3    0    0  0.33594006113E+01 -0.37960153090E+02 -0.19821408877E+03  0.20184420671E+03  0.00000000000E+00 0.  1.
        -11    1    4    4    0    0  0.50582378222E+02 -0.99761464659E+01 -0.92175492357E+02  0.10561449652E+03  0.00000000000E+00 0.  1.
         11    1    4    4    0    0 -0.17011752844E+02  0.51935742144E+02 -0.49180498907E+02  0.73521714613E+02  0.00000000000E+00 0. -1.
         -3    1    1    2    0  502  0.51566953970E+02 -0.43507921654E+01 -0.18861151581E+03  0.19558216695E+03  0.00000000000E+00 0.  1.
<scales pt_clust_5="13000.00000" pt_clust_6="13000.00000" pt_clust_7="13000.00000" pt_clust_8="13000.00000" pt_clust_9="51.75020"></scales>
<clustering>
<clus scale="   51.750">  1  9  2 -1</clus>
<clus scale="   87.986">  5  6 -1 -1</clus>
<clus scale="   96.024">  7  8 -1 -1</clus>
<clus scale="  119.092">  2  5  1 -1</clus>
<clus scale="   51.750">  1  5  2 -1</clus>
</clustering>
</event>
<event>
 9    1  0.6675710E-005  0.8388383E+02  0.7546771E-02  0.1319228E+00
         21   -1    0    0  501  502  0.00000000000E+00  0.00000000000E+00  0.33952733575E+02  0.33952733575E+02  0.00000000000E+00 0.  1.
          1   -1    0    0  502    0 -0.00000000000E+00 -0.00000000000E+00 -0.40097389073E+03  0.40097389073E+03  0.00000000000E+00 0. -1.
        -24    2    1    2    0    0 -0.15880772002E+02 -0.25436386274E+02 -0.22720928359E+03  0.24357588207E+03  0.82498140059E+02 0.  0.
         23    2    1    2    0    0  0.41109638032E+01 -0.18944727449E+02 -0.10240147020E+03  0.13212448183E+03  0.81209696956E+02 0.  0.
         11    1    3    3    0    0  0.21257401508E+02  0.73876137245E+01 -0.18710181390E+02  0.29266445686E+02  0.00000000000E+00 0. -1.
        -12    1    3    3    0    0 -0.37138173510E+02 -0.32823999998E+02 -0.20849910220E+03  0.21430943639E+03  0.00000000000E+00 0.  1.
        -13    1    4    4    0    0 -0.27166658746E+02 -0.86456294454E+01 -0.93875437852E+02  0.98108980669E+02  0.00000000000E+00 0. -1.
         13    1    4    4    0    0  0.31277622549E+02 -0.10299098004E+02 -0.85260323468E+01  0.34015501166E+02  0.00000000000E+00 0.  1.
          2    1    1    2  501    0  0.11769808199E+02  0.44381113723E+02 -0.37410403364E+02  0.59226260393E+02  0.00000000000E+00 0. -1.
<scales pt_clust_5="13000.00000" pt_clust_6="13000.00000" pt_clust_7="13000.00000" pt_clust_8="13000.00000" pt_clust_9="45.91527"></scales>
<clustering>
<clus scale="   45.915">  1  9  2 -1</clus>
<clus scale="   81.210">  7  8 -1 -1</clus>
<clus scale="   82.498">  5  6 -1 -1</clus>
<clus scale="   82.617">  1  7  2 -1</clus>
<clus scale="   45.915">  1  5  2 -1</clus>
</clustering>
</event>
<event>
 9    1  0.6675710E-005  0.9698219E+02  0.7546771E-02  0.1291650E+00
          3   -1    0    0  502    0 -0.00000000000E+00  0.00000000000E+00  0.34818494419E+02  0.34818494419E+02  0.00000000000E+00 0. -1.
         21   -1    0    0  501  502  0.00000000000E+00 -0.00000000000E+00 -0.48377470118E+03  0.48377470118E+03  0.00000000000E+00 0. -1.
         23    2    1    2    0    0 -0.47873316448E+02  0.16925167211E+02 -0.98364618832E+02  0.14285460633E+03  0.90296869264E+02 0.  0.
        -24    2    1    2    0    0  0.12414415166E+01 -0.22846085386E+02 -0.17947588634E+03  0.19828388417E+03  0.81125952379E+02 0.  0.
         11    1    4    4    0    0  0.13286578455E+02 -0.49615655653E+02 -0.13974163779E+03  0.14888240925E+03  0.00000000000E+00 0. -1.
        -12    1    4    4    0    0 -0.12045136938E+02  0.26769570267E+02 -0.39734248557E+02  0.49401474922E+02  0.00000000000E+00 0.  1.
        -11    1    3    3    0    0 -0.40395909244E+02 -0.98221862695E+01 -0.97709957729E+00  0.41584366658E+02  0.00000000000E+00 0. -1.
         11    1    3    3    0    0 -0.74774072047E+01  0.26747353480E+02 -0.97387519255E+02  0.10127023967E+03  0.00000000000E+00 0.  1.
          4    1    1    2  501    0  0.46631874932E+02  0.59209181757E+01 -0.17111570158E+03  0.17745470509E+03  0.00000000000E+00 0. -1.
<scales pt_clust_5="13000.00000" pt_clust_6="13000.00000" pt_clust_7="13000.00000" pt_clust_8="13000.00000" pt_clust_9="47.00627"></scales>
<clustering>
<clus scale="   47.006">  2  9  1 -1</clus>
<clus scale="   81.126">  5  6 -1 -1</clus>
<clus scale="   88.507">  2  5  1 -1</clus>
<clus scale="   90.297">  7  8 -1 -1</clus>
<clus scale="   47.006">  2  5  1 -1</clus>
</clustering>
</event>
<event>
 9    1  0.6675710E-005  0.1143993E+03  0.7546771E-02  0.1256360E+00
         -4   -1    0    0    0  501 -0.00000000000E+00  0.00000000000E+00  0.42752718129E+03  0.42752718129E+03  0.00000000000E+00 0.  1.
         21   -1    0    0  501  502  0.00000000000E+00 -0.00000000000E+00 -0.13661251546E+03  0.13661251546E+03  0.00000000000E+00 0. -1.
        -24    2    1    2    0    0  0.27005532731E+02 -0.60591953317E+02  0.34385928047E+03  0.35936848442E+03  0.80658658721E+02 0.  0.
         23    2    1    2    0    0 -0.98061313009E+01  0.11059882180E+03 -0.48900443977E+02  0.15173479444E+03  0.91125928397E+02 0.  0.
         11    1    3    3    0    0 -0.24123462890E+02  0.10347210002E+01  0.89738557049E+02  0.92930192782E+02  0.00000000000E+00 0. -1.
        -12    1    3    3    0    0  0.51128995621E+02 -0.61626674317E+02  0.25412072342E+03  0.26643829164E+03  0.00000000000E+00 0.  1.
        -11    1    4    4    0    0  0.40148463104E+02  0.42171151600E+02 -0.12657454223E+02  0.59586208675E+02  0.00000000000E+00 0. -1.
         11    1    4    4    0    0 -0.49954594405E+02  0.68427670204E+02 -0.36242989754E+02  0.92148585762E+02  0.00000000000E+00 0.  1.
         -3    1    1    2    0  502 -0.17199401431E+02 -0.50006868487E+02 -0.40441706609E+01  0.53036417882E+02  0.00000000000E+00 0.  1.
<scales pt_clust_5="13000.00000" pt_clust_6="13000.00000" pt_clust_7="13000.00000" pt_clust_8="13000.00000" pt_clust_9="52.88200"></scales>
<clustering>
<clus scale="   52.882">  2  9  1 -1</clus>
<clus scale="   80.659">  5  6 -1 -1</clus>
<clus scale="   91.126">  7  8 -1 -1</clus>
<clus scale="  106.250">  1  5  2 -1</clus>
<clus scale="   52.882">  2  5  1 -1</clus>
</clustering>
</event>
<event>
 9    1  0.6675710E-005  0.1067177E+03  0.7546771E-02  0.1271650E+00
         21   -1    0    0  501  502  0.00000000000E+00  0.00000000000E+00  0.36204718708E+03  0.36204718708E+03  0.00000000000E+00 0.  1.
          1   -1    0    0  502    0 -0.00000000000E+00 -0.00000000000E+00 -0.63090041898E+02  0.63090041898E+02  0.00000000000E+00 0. -1.
        -24    2    1    2    0    0 -0.64852455719E+01 -0.61528246345E+02  0.65728858881E+01  0.10197960068E+03  0.80801315693E+02 0.  0.
         23    2    1    2    0    0  0.13062895850E+01  0.27901865326E+02  0.16239731440E+03  0.18879185539E+03  0.92137161107E+02 0.  0.
         13    1    3    3    0    0 -0.26536382605E+01 -0.55776425066E+02 -0.30937979350E+02  0.63837371151E+02  0.00000000000E+00 0. -1.
        -14    1    3    3    0    0 -0.38316073114E+01 -0.57518212792E+01  0.37510865239E+02  0.38142229531E+02  0.00000000000E+00 0.  1.
        -11    1    4    4    0    0  0.36060861208E+01 -0.29707065098E+02  0.22377821195E+02  0.37366836303E+02  0.00000000000E+00 0. -1.
         11    1    4    4    0    0 -0.22997965358E+01  0.57608930425E+02  0.14001949320E+03  0.15142501909E+03  0.00000000000E+00 0.  1.
          2    1    1    2  501    0  0.51789559870E+01  0.33626381019E+02  0.12998694489E+03  0.13436577290E+03  0.00000000000E+00 0. -1.
<scales pt_clust_5="13000.00000" pt_clust_6="13000.00000" pt_clust_7="13000.00000" pt_clust_8="13000.00000" pt_clust_9="34.02286"></scales>
<clustering>
<clus scale="   34.023">  1  9  2 -1</clus>
<clus scale="   80.801">  5  6 -1 -1</clus>
<clus scale="   92.137">  7  8 -1 -1</clus>
<clus scale="   97.099">  2  5  1 -1</clus>
<clus scale="   34.023">  1  5  2 -1</clus>
</clustering>
</event>
<event>
 9    1  0.6675710E-005  0.1258279E+03  0.7546771E-02  0.1249561E+00
          1   -1    0    0  502    0 -0.00000000000E+00  0.00000000000E+00  0.34660285797E+03  0.34660285797E+03  0.00000000000E+00 0. -1.
         21   -1    0    0  501  502  0.00000000000E+00 -0.00000000000E+00 -0.20746186375E+03  0.20746186375E+03  0.00000000000E+00 0. -1.
        -24    2    1    2    0    0 -0.18836333399E+02 -0.39600683374E+02  0.27840367109E+03  0.29302471116E+03  0.80198850968E+02 0.  0.
         23    2    1    2    0    0 -0.46938721076E+02 -0.30513418495E+02 -0.25210441110E+02  0.11187480834E+03  0.93520554726E+02 0.  0.
         11    1    3    3    0    0 -0.47549510314E+02 -0.40815631485E+02  0.19161793663E+03  0.20160432868E+03  0.00000000000E+00 0. -1.
        -12    1    3    3    0    0  0.28713176915E+02  0.12149481110E+01  0.86785734459E+02  0.91420382481E+02  0.00000000000E+00 0.  1.
        -13    1    4    4    0    0 -0.14522526218E+02  0.32765137210E+02  0.16360393453E+01  0.35876658273E+02  0.00000000000E+00 0.  1.
         13    1    4    4    0    0 -0.32416194858E+02 -0.63278555705E+02 -0.26846480456E+02  0.75998150069E+02  0.00000000000E+00 0. -1.
          2    1    1    2  501    0  0.65775054475E+02  0.70114101869E+02 -0.11405223575E+03  0.14916520222E+03  0.00000000000E+00 0. -1.
<scales pt_clust_5="13000.00000" pt_clust_6="13000.00000" pt_clust_7="13000.00000" pt_clust_8="13000.00000" pt_clust_9="84.18176"></scales>
<clustering>
<clus scale="   80.199">  5  6 -1 -1</clus>
<clus scale="   91.405">  1  5  2 -1</clus>
<clus scale="   84.182">  2  9  1 -1</clus>
<clus scale="   93.521">  7  8 -1 -1</clus>
<clus scale="   84.182">  2  5  1 -1</clus>
</clustering>
</event>
<event>
 9    1  0.6675710E-005  0.1023634E+03  0.7546771E-02  0.1279395E+00
          1   -1    0    0  502    0 -0.00000000000E+00  0.00000000000E+00  0.43145981448E+03  0.43145981448E+03  0.00000000000E+00 0. -1.
         21   -1    0    0  501  502  0.00000000000E+00 -0.00000000000E+00 -0.32439703441E+03  0.32439703441E+03  0.00000000000E+00 0. -1.
         23    2    1    2    0    0  0.44357783951E+02 -0.24961361994E+02  0.37491516362E+03  0.38949921046E+03  0.92507148101E+02 0.  0.
        -24    2    1    2    0    0  0.48931875883E+02  0.42070175600E+02 -0.22998732400E+02  0.10377625558E+03  0.77950890814E+02 0.  0.
         13    1    4    4    0    0  0.32664791757E+02 -0.11330048964E+02  0.13460542560E+02  0.37101817153E+02  0.00000000000E+00 0. -1.
        -14    1    4    4    0    0  0.16267084126E+02  0.53400224565E+02 -0.36459274960E+02  0.66674438431E+02  0.00000000000E+00 0.  1.
        -13    1    3    3    0    0  0.31368500028E+02 -0.59088665216E+02  0.20266534694E+03  0.21342140474E+03  0.00000000000E+00 0. -1.
         13    1    3    3    0    0  0.12989283923E+02  0.34127303222E+02  0.17224981668E+03  0.17607780573E+03  0.00000000000E+00 0.  1.
          2    1    1    2  501    0 -0.93289659834E+02 -0.17108813606E+02 -0.24485365115E+03  0.26258138284E+03  0.00000000000E+00 0. -1.
<scales pt_clust_5="13000.00000" pt_clust_6="13000.00000" pt_clust_7="13000.00000" pt_clust_8="13000.00000" pt_clust_9="94.84552"></scales>
<clustering>
<clus scale="   77.951">  5  6 -1 -1</clus>
<clus scale="   92.507">  7  8 -1 -1</clus>
<clus scale="   94.846">  2  9  1 -1</clus>
<clus scale="   94.846">  2  5  1 -1</clus>
<clus scale="   94.846">  2  5  1 -1</clus>
</clustering>
</event>
<event>
 9    1  0.6675710E-005  0.9631929E+02  0.7546771E-02  0.1294454E+00
         21   -1    0    0  501  502  0.00000000000E+00  0.00000000000E+00  0.11873162833E+03  0.11873162833E+03  0.00000000000E+00 0. -1.
         -2   -1    0    0    0  501 -0.00000000000E+00 -0.00000000000E+00 -0.93290046736E+02  0.93290046736E+02  0.00000000000E+00 0.  1.
        -24    2    1    2    0    0 -0.34690545506E+02  0.85287538865E+01 -0.11022060150E+02  0.89069401889E+02  0.80843669836E+02 0.  0.
         23    2    1    2    0    0  0.12500852525E+02 -0.15602441575E+02  0.29440928789E+02  0.98626607115E+02  0.91982236579E+02 0.  0.
         11    1    3    3    0    0  0.26155654731E+02 -0.30538815666E+01 -0.12365090884E+01  0.26362348563E+02  0.00000000000E+00 0. -1.
        -12    1    3    3    0    0 -0.60846200236E+02  0.11582635453E+02 -0.97855510618E+01  0.62707053326E+02  0.00000000000E+00 0.  1.
        -11    1    4    4    0    0  0.23021140156E+02 -0.32858308792E+02 -0.20280458368E+02  0.44954847818E+02  0.00000000000E+00 0.  1.
         11    1    4    4    0    0 -0.10520287630E+02  0.17255867217E+02  0.49721387157E+02  0.53671759297E+02  0.00000000000E+00 0. -1.
         -1    1    1    2    0  502  0.22189692981E+02  0.70736876883E+01  0.70227129553E+01  0.24325666062E+02  0.00000000000E+00 0.  1.
<scales pt_clust_5="13000.00000" pt_clust_6="13000.00000" pt_clust_7="13000.00000" pt_clust_8="13000.00000" pt_clust_9="23.28990"></scales>
<clustering>
<clus scale="   23.290">  1  9  2 -1</clus>
<clus scale="   80.844">  5  6 -1 -1</clus>
<clus scale="   85.746">  2  5  1 -1</clus>
<clus scale="   91.982">  7  8 -1 -1</clus>
<clus scale="   23.290">  1  5  2 -1</clus>
</clustering>
</event>
<event>
 9    1  0.6675710E-005  0.9209447E+02  0.7546771E-02  0.1303819E+00
          3   -1    0    0  502    0 -0.00000000000E+00  0.00000000000E+00  0.11110358252E+03  0.11110358252E+03  0.00000000000E+00 0. -1.
         21   -1    0    0  501  502  0.00000000000E+00 -0.00000000000E+00 -0.21282087858E+03  0.21282087858E+03  0.00000000000E+00 0. -1.
        -24    2    1    2    0    0  0.12589762236E+02 -0.20474407133E+02  0.20675809598E+02  0.86941188616E+02  0.80954170460E+02 0.  0.
         23    2    1    2    0    0 -0.20137428539E+02 -0.46110705595E+02 -0.75134961207E+01  0.10398752370E+03  0.90693104829E+02 0.  0.
         11    1    3    3    0    0  0.36261669957E+02 -0.29083004341E+02  0.34796215893E+02  0.58064675062E+02  0.00000000000E+00 0. -1.
        -12    1    3    3    0    0 -0.23671907722E+02  0.86085972087E+01 -0.14120406295E+02  0.28876513554E+02  0.00000000000E+00 0.  1.
        -13    1    4    4    0    0 -0.22778067984E+02  0.24243733056E+02 -0.96377665902E+00  0.33279540848E+02  0.00000000000E+00 0.  1.
         13    1    4    4    0    0  0.26406394452E+01 -0.70354438652E+02 -0.65497194617E+01  0.70707982857E+02  0.00000000000E+00 0. -1.
          4    1    1    2  501    0  0.75476663033E+01  0.66585112728E+02 -0.11487960954E+03  0.13299574878E+03  0.00000000000E+00 0. -1.
<scales pt_clust_5="13000.00000" pt_clust_6="13000.00000" pt_clust_7="13000.00000" pt_clust_8="13000.00000" pt_clust_9="67.01153"></scales>
<clustering>
<clus scale="   67.012">  2  9  1 -1</clus>
<clus scale="   80.954">  5  6 -1 -1</clus>
<clus scale="   82.521">  1  5  2 -1</clus>
<clus scale="   90.693">  7  8 -1 -1</clus>
<clus scale="   67.012">  2  5  1 -1</clus>
</clustering>
</event>
<event>
 9    1  0.6675710E-005  0.1099580E+03  0.7546771E-02  0.1260879E+00
          1   -1    0    0  502    0 -0.00000000000E+00  0.00000000000E+00  0.50347606591E+03  0.50347606591E+03  0.00000000000E+00 0. -1.
         21   -1    0    0  501  502  0.00000000000E+00 -0.00000000000E+00 -0.97098472790E+02  0.97098472790E+02  0.00000000000E+00 0.  1.
         23    2    1    2    0    0  0.15845507046E+02 -0.66162821312E+02  0.32965296183E+03  0.34860518500E+03  0.90696751599E+02 0.  0.
        -24    2    1    2    0    0 -0.10010142260E+03 -0.48768286006E+01  0.53028957466E+02  0.13924324260E+03  0.80824080662E+02 0.  0.
         11    1    4    4    0    0 -0.22929604368E+02  0.24257583557E+02  0.45473784341E+02  0.56409770242E+02  0.00000000000E+00 0. -1.
        -12    1    4    4    0    0 -0.77171818235E+02 -0.29134412157E+02  0.75551731241E+01  0.82833472355E+02  0.00000000000E+00 0.  1.
        -13    1    3    3    0    0  0.53796854941E+02 -0.37655801251E+02  0.17989998520E+03  0.19150996226E+03  0.00000000000E+00 0.  1.
         13    1    3    3    0    0 -0.37951347894E+02 -0.28507020061E+02  0.14975297662E+03  0.15709522274E+03  0.00000000000E+00 0. -1.
          2    1    1    2  501    0  0.84255915556E+02  0.71039649912E+02  0.23695673826E+02  0.11272611110E+03  0.00000000000E+00 0. -1.
<scales pt_clust_5="13000.00000" pt_clust_6="13000.00000" pt_clust_7="13000.00000" pt_clust_8="13000.00000" pt_clust_9="110.20749"></scales>
<clustering>
<clus scale="   80.824">  5  6 -1 -1</clus>
<clus scale="   90.697">  7  8 -1 -1</clus>
<clus scale="  110.207">  2  9  1 -1</clus>
<clus scale="  110.207">  2  5  1 -1</clus>
<clus scale="  109.958">  2  5  1 -1</clus>
</clustering>
</event>
<event>
 9    1  0.6675710E-005  0.9612541E+02  0.7546771E-02  0.1294616E+00
         21   -1    0    0  501  502  0.00000000000E+00  0.00000000000E+00  0.73692328477E+02  0.73692328477E+02  0.00000000000E+00 0.  1.
         -4   -1    0    0    0  501 -0.00000000000E+00 -0.00000000000E+00 -0.24750909612E+03  0.24750909612E+03  0.00000000000E+00 0.  1.
        -24    2    1    2    0    0  0.36326817409E+02 -0.38944903238E+02 -0.55850550571E+02  0.11113728917E+03  0.79974182672E+02 0.  0.
         23    2    1    2    0    0 -0.10012190353E+02 -0.96493480811E+01 -0.14777589376E+02  0.93009644935E+02  0.90769284612E+02 0.  0.
         11    1    3    3    0    0 -0.14532173155E+02 -0.28237808049E+02  0.38413937944E+01  0.31989282054E+02  0.00000000000E+00 0. -1.
        -12    1    3    3    0    0  0.50858990564E+02 -0.10707095189E+02 -0.59691944365E+02  0.79148007118E+02  0.00000000000E+00 0.  1.
        -11    1    4    4    0    0 -0.16614836122E+02  0.11414279958E+02 -0.48603732090E+02  0.52618070464E+02  0.00000000000E+00 0. -1.
         11    1    4    4    0    0  0.66026457685E+01 -0.21063628039E+02  0.33826142714E+02  0.40391574470E+02  0.00000000000E+00 0.  1.
         -3    1    1    2    0  502 -0.26314627056E+02  0.48594251319E+02 -0.10318862770E+03  0.11705449050E+03  0.00000000000E+00 0.  1.
<scales pt_clust_5="13000.00000" pt_clust_6="13000.00000" pt_clust_7="13000.00000" pt_clust_8="13000.00000" pt_clust_9="55.26178"></scales>
<clustering>
<clus scale="   55.262">  1  9  2 -1</clus>
<clus scale="   79.974">  5  6 -1 -1</clus>
<clus scale="   86.005">  2  5  1 -1</clus>
<clus scale="   90.769">  7  8 -1 -1</clus>
<clus scale="   55.262">  1  5  2 -1</clus>
</clustering>
</event>
<event>
 9    1  0.6675710E-005  0.9620237E+02  0.7546771E-02  0.1291432E+00
          1   -1    0    0  502    0 -0.00000000000E+00  0.00000000000E+00  0.33091765462E+03  0.33091765462E+03  0.00000000000E+00 0. -1.
         21   -1    0    0  501  502  0.00000000000E+00 -0.00000000000E+00 -0.52157181482E+02  0.52157181482E+02  0.00000000000E+00 0. -1.
         23    2    1    2    0    0 -0.85680561436E+01  0.36176908605E+02  0.21221993259E+03  0.23389072310E+03  0.91024119126E+02 0.  0.
        -24    2    1    2    0    0 -0.12149706057E+02 -0.21875106148E+02  0.80749051585E+02  0.12027651867E+03  0.85556390674E+02 0.  0.
         13    1    4    4    0    0 -0.43837501316E+02 -0.13638364868E+02  0.73630386181E+02  0.86770762859E+02  0.00000000000E+00 0. -1.
        -14    1    4    4    0    0  0.31687795259E+02 -0.82367412799E+01  0.71186654034E+01  0.33505755810E+02  0.00000000000E+00 0.  1.
        -13    1    3    3    0    0 -0.46306008081E+02  0.58514035471E+00  0.10634088121E+03  0.11598694664E+03  0.00000000000E+00 0.  1.
         13    1    3    3    0    0  0.37737951938E+02  0.35591768251E+02  0.10587905137E+03  0.11790377646E+03  0.00000000000E+00 0. -1.
          2    1    1    2  501    0  0.20717762201E+02 -0.14301802457E+02 -0.14208511035E+02  0.28907594330E+02  0.00000000000E+00 0. -1.
<scales pt_clust_5="13000.00000" pt_clust_6="13000.00000" pt_clust_7="13000.00000" pt_clust_8="13000.00000" pt_clust_9="25.17473"></scales>
<clustering>
<clus scale="   25.175">  2  9  1 -1</clus>
<clus scale="   85.556">  5  6 -1 -1</clus>
<clus scale="   91.024">  7  8 -1 -1</clus>
<clus scale="   91.046">  2  5  1 -1</clus>
<clus scale="   25.175">  2  5  1 -1</clus>
</clustering>
</event>
<event>
 9    1  0.6675710E-005  0.1572098E+03  0.7546771E-02  0.1207689E+00
         21   -1    0    0  501  502  0.00000000000E+00  0.00000000000E+00  0.73766987332E+03  0.73766987332E+03  0.00000000000E+00 0. -1.
          3   -1    0    0  502    0 -0.00000000000E+00 -0.00000000000E+00 -0.77285183292E+02  0.77285183292E+02  0.00000000000E+00 0. -1.
        -24    2    1    2    0    0  0.35560385811E+02  0.67537506655E+02  0.11523810708E+03  0.16035965041E+03  0.81299079400E+02 0.  0.
         23    2    1    2    0    0  0.86185684206E+02 -0.11171290100E+03  0.11003608437E+03  0.20061884623E+03  0.90731676872E+02 0.  0.
         13    1    3    3    0    0  0.20922042815E+02  0.44509849019E+02  0.12260038100E+03  0.13209735787E+03  0.00000000000E+00 0. -1.
        -14    1    3    3    0    0  0.14638342996E+02  0.23027657636E+02 -0.73622739242E+01  0.28262292533E+02  0.00000000000E+00 0.  1.
        -11    1    4    4    0    0  0.56439736447E+02 -0.20450405584E+02  0.80045954313E+02  0.10005507354E+03  0.00000000000E+00 0.  1.
         11    1    4    4    0    0  0.29745947759E+02 -0.91262495414E+02  0.29990130054E+02  0.10056377269E+03  0.00000000000E+00 0. -1.
          4    1    1    2  501    0 -0.12174607002E+03  0.44175394344E+02  0.43511049858E+03  0.45397655997E+03  0.00000000000E+00 0. -1.
<scales pt_clust_5="13000.00000" pt_clust_6="13000.00000" pt_clust_7="13000.00000" pt_clust_8="13000.00000" pt_clust_9="128.38496"></scales>
<clustering>
<clus scale="   81.299">  5  6 -1 -1</clus>
<clus scale="   90.732">  7  8 -1 -1</clus>
<clus scale="  111.514">  2  5  1 -1</clus>
<clus scale="  128.385">  1  9  2 -1</clus>
<clus scale="  128.385">  1  5  2 -1</clus>
</clustering>
</event>
<event>
 9    1  0.6675710E-005  0.2053095E+03  0.7546771E-02  0.1180674E+00
          1   -1    0    0  502    0 -0.00000000000E+00  0.00000000000E+00  0.99763167469E+02  0.99763167469E+02  0.00000000000E+00 0. -1.
         21   -1    0    0  501  502  0.00000000000E+00 -0.00000000000E+00 -0.74682471813E+03  0.74682471813E+03  0.00000000000E+00 0. -1.
        -24    2    1    2    0    0 -0.31879424671E+02  0.41953326577E+01 -0.17585709811E-01  0.90560976028E+02  0.84660448477E+02 0.  0.
         23    2    1    2    0    0 -0.16760692005E+03  0.23917612175E+01 -0.28811591724E+03  0.34533537694E+03  0.90265943910E+02 0.  0.
         13    1    3    3    0    0 -0.17448706265E+02  0.44128423747E+02 -0.54063392510E+01  0.47759853819E+02  0.00000000000E+00 0. -1.
        -14    1    3    3    0    0 -0.14430718406E+02 -0.39933091089E+02  0.53887535411E+01  0.42801122209E+02  0.00000000000E+00 0.  1.
        -13    1    4    4    0    0 -0.86270256275E+02  0.36477274548E+02 -0.96936696685E+02  0.13479566699E+03  0.00000000000E+00 0.  1.
         13    1    4    4    0    0 -0.81336663779E+02 -0.34085513330E+02 -0.19117922055E+03  0.21053970995E+03  0.00000000000E+00 0. -1.
          2    1    1    2  501    0  0.19948634473E+03 -0.65870938752E+01 -0.35892804771E+03  0.41069153263E+03  0.00000000000E+00 0. -1.
<scales pt_clust_5="13000.00000" pt_clust_6="13000.00000" pt_clust_7="13000.00000" pt_clust_8="13000.00000" pt_clust_9="184.40195"></scales>
<clustering>
<clus scale="   84.660">  5  6 -1 -1</clus>
<clus scale="   90.266">  7  8 -1 -1</clus>
<clus scale="   90.561">  1  5  2 -1</clus>
<clus scale="  184.402">  2  9  1 -1</clus>
<clus scale="  184.402">  2  5  1 -1</clus>
</clustering>
</event>
<event>
 9    1  0.6675710E-005  0.2113872E+03  0.7546771E-02  0.1140472E+00
         21   -1    0    0  501  502  0.00000000000E+00  0.00000000000E+00  0.26555856499E+02  0.26555856499E+02  0.00000000000E+00 0.  1.
          1   -1    0    0  502    0 -0.00000000000E+00 -0.00000000000E+00 -0.11360223118E+04  0.11360223118E+04  0.00000000000E+00 0. -1.
        -24    2    1    2    0    0 -0.35897688844E+02 -0.70834003274E+02 -0.27356983598E+03  0.29586516339E+03  0.79935221662E+02 0.  0.
         23    2    1    2    0    0 -0.47253927656E+00 -0.39393486943E+02 -0.23808078438E+03  0.25773298422E+03  0.90508348562E+02 0.  0.
         11    1    3    3    0    0 -0.37683133387E+02 -0.42093261312E+01 -0.51132173347E+02  0.63657176497E+02  0.00000000000E+00 0. -1.
        -12    1    3    3    0    0  0.17854445435E+01 -0.66624677143E+02 -0.22243766264E+03  0.23220798689E+03  0.00000000000E+00 0.  1.
        -11    1    4    4    0    0 -0.39284801640E+02 -0.43927863329E+02 -0.12777773830E+03  0.14071283958E+03  0.00000000000E+00 0.  1.
         11    1    4    4    0    0  0.38812262364E+02  0.45343763859E+01 -0.11030304607E+03  0.11702014464E+03  0.00000000000E+00 0. -1.
          2    1    1    2  501    0  0.36370228120E+02  0.11022749022E+03 -0.59781583491E+03  0.60898002066E+03  0.00000000000E+00 0. -1.
<scales pt_clust_5="13000.00000" pt_clust_6="13000.00000" pt_clust_7="13000.00000" pt_clust_8="13000.00000" pt_clust_9="116.07285"></scales>
<clustering>
<clus scale="   79.935">  5  6 -1 -1</clus>
<clus scale="   90.508">  7  8 -1 -1</clus>
<clus scale="   92.845">  5  7 -1 -1</clus>
<clus scale="  116.073">  1  9  2 -1</clus>
<clus scale="  116.073">  1  5  2 -1</clus>
</clustering>
</event>
<event>
 9    1  0.6675710E-005  0.1928105E+03  0.7546771E-02  0.1156985E+00
         21   -1    0    0  501  502  0.00000000000E+00  0.00000000000E+00  0.26247683322E+03  0.26247683322E+03  0.00000000000E+00 0.  1.
         -4   -1    0    0    0  501 -0.00000000000E+00 -0.00000000000E+00 -0.29311415938E+03  0.29311415938E+03  0.00000000000E+00 0.  1.
        -24    2    1    2    0    0  0.10650715674E+03  0.15818791844E+03 -0.16323526859E+03  0.26376403469E+03  0.80984696754E+02 0.  0.
         23    2    1    2    0    0 -0.81851627072E+02 -0.65538254517E+02  0.13793844481E+03  0.19580416721E+03  0.91199263614E+02 0.  0.
         11    1    3    3    0    0  0.33347398923E+02  0.25858431658E+02 -0.13129882803E+01  0.42218851725E+02  0.00000000000E+00 0. -1.
        -12    1    3    3    0    0  0.73159757822E+02  0.13232948678E+03 -0.16192228031E+03  0.22154518297E+03  0.00000000000E+00 0.  1.
        -11    1    4    4    0    0 -0.84694948809E+02 -0.21533814270E+02  0.11941363320E+03  0.14797484687E+03  0.00000000000E+00 0.  1.
         11    1    4    4    0    0  0.28433217375E+01 -0.44004440247E+02  0.18524811603E+02  0.47829320347E+02  0.00000000000E+00 0. -1.
         -3    1    1    2    0  502 -0.24655529673E+02 -0.92649663921E+02 -0.53405023828E+01  0.96022790700E+02  0.00000000000E+00 0.  1.
<scales pt_clust_5="13000.00000" pt_clust_6="13000.00000" pt_clust_7="13000.00000" pt_clust_8="13000.00000" pt_clust_9="95.87421"></scales>
<clustering>
<clus scale="   80.985">  5  6 -1 -1</clus>
<clus scale="   91.199">  7  8 -1 -1</clus>
<clus scale="   95.874">  1  9  2 -1</clus>
<clus scale="  188.194">  2  5  1 -1</clus>
<clus scale="   95.874">  1  5  2 -1</clus>
</clustering>
</event>
<event>
 9    1  0.6675710E-005  0.1453274E+03  0.7546771E-02  0.1228891E+00
         -4   -1    0    0    0  501 -0.00000000000E+00  0.00000000000E+00  0.41922074850E+03  0.41922074850E+03  0.00000000000E+00 0.  1.
         21   -1    0    0  501  502  0.00000000000E+00 -0.00000000000E+00 -0.10619805716E+03  0.10619805716E+03  0.00000000000E+00 0. -1.
        -24    2    1    2    0    0 -0.17789079844E+02  0.44048271405E+02  0.20424824737E+03  0.22333017634E+03  0.76826554893E+02 0.  0.
         23    2    1    2    0    0 -0.35772347928E+02  0.68919719538E+02  0.12796235849E+03  0.17560238664E+03  0.91827252954E+02 0.  0.
         11    1    3    3    0    0 -0.81453802647E+01  0.65232764758E+02  0.16617090616E+03  0.17870207294E+03  0.00000000000E+00 0. -1.
        -12    1    3    3    0    0 -0.96436995792E+01 -0.21184493352E+02  0.38077341210E+02  0.44628103408E+02  0.00000000000E+00 0.  1.
        -13    1    4    4    0    0  0.24561439454E+02  0.42737613615E+02  0.30306870231E+02  0.57864274892E+02  0.00000000000E+00 0. -1.
         13    1    4    4    0    0 -0.60333787382E+02  0.26182105923E+02  0.97655488260E+02  0.11773811175E+03  0.00000000000E+00 0.  1.
         -3    1    1    2    0  502  0.53561427772E+02 -0.11296799094E+03 -0.19187914516E+02  0.12648624268E+03  0.00000000000E+00 0.  1.
<scales pt_clust_5="13000.00000" pt_clust_6="13000.00000" pt_clust_7="13000.00000" pt_clust_8="13000.00000" pt_clust_9="112.64023"></scales>
<clustering>
<clus scale="   76.827">  5  6 -1 -1</clus>
<clus scale="   90.327">  1  5  2 -1</clus>
<clus scale="   91.827">  7  8 -1 -1</clus>
<clus scale="  112.640">  2  9  1 -1</clus>
<clus scale="  112.640">  2  5  1 -1</clus>
</clustering>
</event>
<event>
 9    1  0.6675710E-005  0.1077308E+03  0.7546771E-02  0.1267788E+00
          1   -1    0    0  502    0 -0.00000000000E+00  0.00000000000E+00  0.19556845959E+03  0.19556845959E+03  0.00000000000E+00 0. -1.
         21   -1    0    0  501  502  0.00000000000E+00 -0.00000000000E+00 -0.24216072453E+03  0.24216072453E+03  0.00000000000E+00 0.  1.
         23    2    1    2    0    0  0.64438488468E+02 -0.27637797901E+02  0.14491998520E+03  0.18408575719E+03  0.89272600619E+02 0.  0.
        -24    2    1    2    0    0 -0.93285504417E+01  0.32137158810E+02 -0.49805502891E+02  0.10153112718E+03  0.81903375015E+02 0.  0.
         11    1    4    4    0    0 -0.35972108536E+01  0.55193063588E+02 -0.11556822527E+02  0.56504639996E+02  0.00000000000E+00 0. -1.
        -12    1    4    4    0    0 -0.57313395881E+01 -0.23055904779E+02 -0.38248680364E+02  0.45026487185E+02  0.00000000000E+00 0.  1.
        -13    1    3    3    0    0  0.43594723152E+02  0.29529463204E+02  0.68586696005E+02  0.86467473380E+02  0.00000000000E+00 0.  1.
         13    1    3    3    0    0  0.20843765317E+02 -0.57167261105E+02  0.76333289192E+02  0.97618283808E+02  0.00000000000E+00 0. -1.
          2    1    1    2  501    0 -0.55109938027E+02 -0.44993609093E+01 -0.14170674725E+03  0.15211229975E+03  0.00000000000E+00 0. -1.
<scales pt_clust_5="13000.00000" pt_clust_6="13000.00000" pt_clust_7="13000.00000" pt_clust_8="13000.00000" pt_clust_9="55.29330"></scales>
<clustering>
<clus scale="   55.293">  2  9  1 -1</clus>
<clus scale="   81.903">  5  6 -1 -1</clus>
<clus scale="   89.273">  7  8 -1 -1</clus>
<clus scale="  101.708">  2  5  1 -1</clus>
<clus scale="   55.293">  2  5  1 -1</clus>
</clustering>
</event>
<event>
 9    1  0.6675710E-005  0.1859449E+03  0.7546771E-02  0.1164131E+00
         -2   -1    0    0    0  501 -0.00000000000E+00  0.00000000000E+00  0.27729176611E+03  0.27729176611E+03  0.00000000000E+00 0.  1.
         21   -1    0    0  501  502  0.00000000000E+00 -0.00000000000E+00 -0.24922377742E+03  0.24922377742E+03  0.00000000000E+00 0.  1.
         23    2    1    2    0    0  0.23471042374E+02 -0.15906331165E+03  0.19448941099E+03  0.27067388857E+03  0.97909121237E+02 0.  0.
        -24    2    1    2    0    0 -0.38147661412E+02  0.14186315632E+03 -0.12725852892E+03  0.21062019207E+03  0.81152528799E+02 0.  0.
         11    1    4    4    0    0  0.17803563909E+02  0.87917266372E+02 -0.75443968442E+02  0.11721008911E+03  0.00000000000E+00 0. -1.
        -12    1    4    4    0    0 -0.55951225321E+02  0.53945889949E+02 -0.51814560483E+02  0.93410102962E+02  0.00000000000E+00 0.  1.
        -11    1    3    3    0    0 -0.53511223011E+01 -0.15779878078E+03  0.15090764146E+03  0.21840834685E+03  0.00000000000E+00 0.  1.
         11    1    3    3    0    0  0.28822164675E+02 -0.12645308698E+01  0.43581769532E+02  0.52265541712E+02  0.00000000000E+00 0. -1.
         -1    1    1    2    0  502  0.14676619038E+02  0.17200155326E+02 -0.39162893370E+02  0.45221462899E+02  0.00000000000E+00 0.  1.
<scales pt_clust_5="13000.00000" pt_clust_6="13000.00000" pt_clust_7="13000.00000" pt_clust_8="13000.00000" pt_clust_9="22.61080"></scales>
<clustering>
<clus scale="   22.611">  2  9  1 -1</clus>
<clus scale="   81.153">  5  6 -1 -1</clus>
<clus scale="   97.909">  7  8 -1 -1</clus>
<clus scale="  177.694">  2  5  1 -1</clus>
<clus scale="   22.611">  2  5  1 -1</clus>
</clustering>
</event>
<event>
 9    1  0.6675710E-005  0.9492331E+02  0.7546771E-02  0.1297714E+00
         21   -1    0    0  501  502  0.00000000000E+00  0.00000000000E+00  0.35261864540E+02  0.35261864540E+02  0.00000000000E+00 0. -1.
          1   -1    0    0  502    0 -0.00000000000E+00 -0.00000000000E+00 -0.45885104615E+03  0.45885104615E+03  0.00000000000E+00 0. -1.
         23    2    1    2    0    0 -0.38045232017E+02 -0.22640602216E+02 -0.23976095716E+03  0.26048873136E+03  0.91700741773E+02 0.  0.
        -24    2    1    2    0    0  0.53964306841E+01 -0.26557292275E+02 -0.11048669871E+03  0.13946815748E+03  0.80682371827E+02 0.  0.
         11    1    4    4    0    0  0.29481882758E+02 -0.41646323005E+02 -0.44820832411E+02  0.67915422761E+02  0.00000000000E+00 0. -1.
        -12    1    4    4    0    0 -0.24085452073E+02  0.15089030730E+02 -0.65665866296E+02  0.71552734723E+02  0.00000000000E+00 0.  1.
        -11    1    3    3    0    0  0.24724525448E+02 -0.29269079904E+02 -0.79668353146E+02  0.88402645266E+02  0.00000000000E+00 0.  1.
         11    1    3    3    0    0 -0.62769757465E+02  0.66284776883E+01 -0.16009260401E+03  0.17208608609E+03  0.00000000000E+00 0. -1.
          2    1    1    2  501    0  0.32648801333E+02  0.49197894491E+02 -0.73341525748E+02  0.94156021846E+02  0.00000000000E+00 0. -1.
<scales pt_clust_5="13000.00000" pt_clust_6="13000.00000" pt_clust_7="13000.00000" pt_clust_8="13000.00000" pt_clust_9="59.04555"></scales>
<clustering>
<clus scale="   59.046">  1  9  2 -1</clus>
<clus scale="   80.682">  5  6 -1 -1</clus>
<clus scale="   84.327">  1  5  2 -1</clus>
<clus scale="   91.701">  7  8 -1 -1</clus>
<clus scale="   59.046">  1  5  2 -1</clus>
</clustering>
</event>
<event>
 9    1  0.6675710E-005  0.2159068E+03  0.7546771E-02  0.1136972E+00
         21   -1    0    0  501  502  0.00000000000E+00  0.00000000000E+00  0.54269603998E+03  0.54269603998E+03  0.00000000000E+00 0.  1.
         -4   -1    0    0    0  501 -0.00000000000E+00 -0.00000000000E+00 -0.79839564631E+02  0.79839564631E+02  0.00000000000E+00 0.  1.
        -24    2    1    2    0    0 -0.65114907878E+02 -0.29274129119E+01  0.32807465410E+02  0.11002286017E+03  0.82341842340E+02 0.  0.
         23    2    1    2    0    0 -0.60716388406E+02  0.24107684023E+02  0.67276191444E+02  0.12795294824E+03  0.87052919417E+02 0.  0.
         11    1    3    3    0    0 -0.28062766747E+02  0.18918756934E+02  0.52700786731E+02  0.62632349178E+02  0.00000000000E+00 0. -1.
        -12    1    3    3    0    0 -0.37052141131E+02 -0.21846169846E+02 -0.19893321321E+02  0.47390510997E+02  0.00000000000E+00 0.  1.
        -13    1    4    4    0    0 -0.93469891922E+01  0.50198366505E+02  0.35099877554E+02  0.61961630152E+02  0.00000000000E+00 0. -1.
         13    1    4    4    0    0 -0.51369399214E+02 -0.26090682482E+02  0.32176313890E+02  0.65991318091E+02  0.00000000000E+00 0.  1.
         -3    1    1    2    0  502  0.12583129628E+03 -0.21180271111E+02  0.36277281849E+03  0.38455979619E+03  0.00000000000E+00 0.  1.
<scales pt_clust_5="13000.00000" pt_clust_6="13000.00000" pt_clust_7="13000.00000" pt_clust_8="13000.00000" pt_clust_9="127.60141"></scales>
<clustering>
<clus scale="   82.342">  5  6 -1 -1</clus>
<clus scale="   87.053">  7  8 -1 -1</clus>
<clus scale="   94.344">  5  7 -1 -1</clus>
<clus scale="  127.601">  1  9  2 -1</clus>
<clus scale="  127.601">  1  5  2 -1</clus>
</clustering>
</event>
<event>
 9    1  0.6675710E-005  0.1007012E+03  0.7546771E-02  0.1282877E+00
         -2   -1    0    0    0  501 -0.00000000000E+00  0.00000000000E+00  0.16049852552E+03  0.16049852552E+03  0.00000000000E+00 0.  1.
         21   -1    0    0  501  502  0.00000000000E+00 -0.00000000000E+00 -0.15341602511E+03  0.15341602511E+03  0.00000000000E+00 0.  1.
         23    2    1    2    0    0  0.35197781317E+02  0.42846177042E+02  0.55580137681E+02  0.11954626361E+03  0.90152530417E+02 0.  0.
        -24    2    1    2    0    0 -0.54501401136E+02  0.37689868827E+02 -0.31347797341E+02  0.10979405081E+03  0.81738119974E+02 0.  0.
         13    1    4    4    0    0  0.17370559090E+02  0.24521797173E+02  0.57583242191E+00  0.30056387718E+02  0.00000000000E+00 0. -1.
        -14    1    4    4    0    0 -0.71871960227E+02  0.13168071654E+02 -0.31923629763E+02  0.79737663091E+02  0.00000000000E+00 0.  1.
        -13    1    3    3    0    0  0.32570288352E+02  0.70677994616E+02  0.42695252763E+02  0.88764222606E+02  0.00000000000E+00 0.  1.
         13    1    3    3    0    0  0.26274929651E+01 -0.27831817574E+02  0.12884884917E+02  0.30782040999E+02  0.00000000000E+00 0. -1.
         -1    1    1    2    0  502  0.19303619819E+02 -0.80536045869E+02 -0.17149839933E+02  0.84574236219E+02  0.00000000000E+00 0.  1.
<scales pt_clust_5="13000.00000" pt_clust_6="13000.00000" pt_clust_7="13000.00000" pt_clust_8="13000.00000" pt_clust_9="82.81717"></scales>
<clustering>
<clus scale="   81.738">  5  6 -1 -1</clus>
<clus scale="   82.817">  2  9  1 -1</clus>
<clus scale="   90.153">  7  8 -1 -1</clus>
<clus scale="   93.244">  2  5  1 -1</clus>
<clus scale="   82.817">  2  5  1 -1</clus>
</clustering>
</event>
<event>
 9    1  0.6675710E-005  0.2587957E+03  0.7546771E-02  0.1151635E+00
         21   -1    0    0  501  502  0.00000000000E+00  0.00000000000E+00  0.99186192627E+02  0.99186192627E+02  0.00000000000E+00 0. -1.
          1   -1    0    0  502    0 -0.00000000000E+00 -0.00000000000E+00 -0.97906706722E+03  0.97906706722E+03  0.00000000000E+00 0. -1.
        -24    2    1    2    0    0 -0.31725326548E+02 -0.18274723637E+02 -0.79386317277E+02  0.11871006304E+03  0.80308342201E+02 0.  0.
         23    2    1    2    0    0 -0.21656769131E+03 -0.32479028094E+02 -0.56814481831E+03  0.61572381508E+03  0.91492238497E+02 0.  0.
         11    1    3    3    0    0 -0.33890211722E+02 -0.35916214148E+00  0.33233145235E+01  0.34054659996E+02  0.00000000000E+00 0. -1.
        -12    1    3    3    0    0  0.21648851749E+01 -0.17915561495E+02 -0.82709631801E+02  0.84655403042E+02  0.00000000000E+00 0.  1.
        -13    1    4    4    0    0 -0.55065049581E+02 -0.27704857357E+02 -0.76701317234E+02  0.98401274748E+02  0.00000000000E+00 0.  1.
         13    1    4    4    0    0 -0.16150264173E+03 -0.47741707370E+01 -0.49144350107E+03  0.51732254033E+03  0.00000000000E+00 0. -1.
          2    1    1    2  501    0  0.24829301786E+03  0.50753751731E+02 -0.23234973901E+03  0.34381938173E+03  0.00000000000E+00 0. -1.
<scales pt_clust_5="13000.00000" pt_clust_6="13000.00000" pt_clust_7="13000.00000" pt_clust_8="13000.00000" pt_clust_9="242.08342"></scales>
<clustering>
<clus scale="   80.308">  5  6 -1 -1</clus>
<clus scale="   88.260">  2  5  1 -1</clus>
<clus scale="   91.492">  7  8 -1 -1</clus>
<clus scale="  242.083">  1  9  2 -1</clus>
<clus scale="  242.083">  1  5  2 -1</clus>
</clustering>
</event>
<event>
 9    1  0.6675710E-005  0.1415135E+03  0.7546771E-02  0.1218767E+00
         21   -1    0    0  501  502  0.00000000000E+00  0.00000000000E+00  0.34774517586E+02  0.34774517586E+02  0.00000000000E+00 0. -1.
          1   -1    0    0  502    0 -0.00000000000E+00 -0.00000000000E+00 -0.11466901743E+04  0.11466901743E+04  0.00000000000E+00 0. -1.
         23    2    1    2    0    0 -0.74160114282E+02 -0.23871355974E+02 -0.30308311685E+03  0.32628375176E+03  0.92369620315E+02 0.  0.
        -24    2    1    2    0    0 -0.11703142379E+02  0.11601408859E+03 -0.54327854520E+03  0.56127329119E+03  0.79245803909E+02 0.  0.
         11    1    4    4    0    0  0.25922067304E+02  0.86158889817E+02 -0.40552138926E+03  0.41538284151E+03  0.00000000000E+00 0. -1.
        -12    1    4    4    0    0 -0.37625209684E+02  0.29855198777E+02 -0.13775715594E+03  0.14589044969E+03  0.00000000000E+00 0.  1.
        -11    1    3    3    0    0 -0.26796741499E+02 -0.42591402688E+02 -0.23994994745E+03  0.24516947244E+03  0.00000000000E+00 0.  1.
         11    1    3    3    0    0 -0.47363372783E+02  0.18720046715E+02 -0.63133169401E+02  0.81114279316E+02  0.00000000000E+00 0. -1.
          2    1    1    2  501    0  0.85863256661E+02 -0.92142732620E+02 -0.26555399466E+03  0.29390764893E+03  0.00000000000E+00 0. -1.
<scales pt_clust_5="13000.00000" pt_clust_6="13000.00000" pt_clust_7="13000.00000" pt_clust_8="13000.00000" pt_clust_9="117.24408"></scales>
<clustering>
<clus scale="   79.246">  5  6 -1 -1</clus>
<clus scale="   92.370">  7  8 -1 -1</clus>
<clus scale="  120.838">  2  7  1 -1</clus>
<clus scale="  117.244">  1  9  2 -1</clus>
<clus scale="  117.244">  1  5  2 -1</clus>
</clustering>
</event>
<event>
 9    1  0.6675710E-005  0.3320537E+03  0.7546771E-02  0.1070568E+00
         -4   -1    0    0    0  501 -0.00000000000E+00  0.00000000000E+00  0.12064114717E+04  0.12064114717E+04  0.00000000000E+00 0.  1.
         21   -1    0    0  501  502  0.00000000000E+00 -0.00000000000E+00 -0.10363467913E+03  0.10363467913E+03  0.00000000000E+00 0.  1.
        -24    2    1    2    0    0 -0.15736327518E+03  0.26413195396E+03  0.55444292065E+03  0.63897766760E+03  0.79728401227E+02 0.  0.
         23    2    1    2    0    0  0.19569600269E+03 -0.27227204145E+03  0.48788270846E+03  0.59902681343E+03  0.91512818608E+02 0.  0.
         11    1    3    3    0    0 -0.78752318024E+02  0.10100148839E+03  0.15994368743E+03  0.20490293165E+03  0.00000000000E+00 0. -1.
        -12    1    3    3    0    0 -0.78610957156E+02  0.16313046557E+03  0.39449923322E+03  0.43407473595E+03  0.00000000000E+00 0.  1.
        -13    1    4    4    0    0  0.11427100084E+03 -0.93731321423E+02  0.25252328107E+03  0.29259430912E+03  0.00000000000E+00 0.  1.
         13    1    4    4    0    0  0.81425001848E+02 -0.17854072003E+03  0.23535942739E+03  0.30643250431E+03  0.00000000000E+00 0. -1.
         -3    1    1    2    0  502 -0.38332727505E+02  0.81400874912E+01  0.60451163451E+02  0.72041669782E+02  0.00000000000E+00 0.  1.
<scales pt_clust_5="13000.00000" pt_clust_6="13000.00000" pt_clust_7="13000.00000" pt_clust_8="13000.00000" pt_clust_9="39.18749"></scales>
<clustering>
<clus scale="   39.187">  2  9  1 -1</clus>
<clus scale="   79.728">  5  6 -1 -1</clus>
<clus scale="   91.513">  7  8 -1 -1</clus>
<clus scale="  329.001">  1  5  2 -1</clus>
<clus scale="   39.187">  2  5  1 -1</clus>
</clustering>
</event>
<event>
 9    1  0.6675710E-005  0.9414403E+02  0.7546771E-02  0.1299107E+00
         -4   -1    0    0    0  501 -0.00000000000E+00  0.00000000000E+00  0.27898109926E+03  0.27898109926E+03  0.00000000000E+00 0.  1.
         21   -1    0    0  501  502  0.00000000000E+00 -0.00000000000E+00 -0.16413688972E+03  0.16413688972E+03  0.00000000000E+00 0.  1.
        -24    2    1    2    0    0 -0.29374113635E+02  0.13563593362E+02  0.13314357295E+03  0.15857992578E+03  0.79834655533E+02 0.  0.
         23    2    1    2    0    0  0.21840392555E+02  0.33547682926E+02  0.10991840825E+03  0.14773153456E+03  0.90222503034E+02 0.  0.
         13    1    3    3    0    0 -0.23412709917E+02  0.18564331444E+02  0.51139322173E+01  0.30314051038E+02  0.00000000000E+00 0. -1.
        -14    1    3    3    0    0 -0.59614037175E+01 -0.50007380823E+01  0.12802964074E+03  0.12826587474E+03  0.00000000000E+00 0.  1.
        -11    1    4    4    0    0 -0.91998223925E+01 -0.28129857738E+02  0.30637173998E+02  0.42597676686E+02  0.00000000000E+00 0. -1.
         11    1    4    4    0    0  0.31040214947E+02  0.61677540665E+02  0.79281234253E+02  0.10513385787E+03  0.00000000000E+00 0.  1.
         -3    1    1    2    0  502  0.75337210797E+01 -0.47111276288E+02 -0.12821777167E+03  0.13680652864E+03  0.00000000000E+00 0.  1.
<scales pt_clust_5="13000.00000" pt_clust_6="13000.00000" pt_clust_7="13000.00000" pt_clust_8="13000.00000" pt_clust_9="47.70984"></scales>
<clustering>
<clus scale="   47.710">  2  9  1 -1</clus>
<clus scale="   79.835">  5  6 -1 -1</clus>
<clus scale="   84.241">  1  5  2 -1</clus>
<clus scale="   90.223">  7  8 -1 -1</clus>
<clus scale="   47.710">  2  5  1 -1</clus>
</clustering>
</event>
<event>
 9    1  0.6675710E-005  0.9081201E+02  0.7546771E-02  0.1302286E+00
         21   -1    0    0  501  502  0.00000000000E+00  0.00000000000E+00  0.22414970459E+03  0.22414970459E+03  0.00000000000E+00 0.  1.
         -2   -1    0    0    0  501 -0.00000000000E+00 -0.00000000000E+00 -0.67770161692E+02  0.67770161692E+02  0.00000000000E+00 0.  1.
        -24    2    1    2    0    0  0.28710900627E+00 -0.16725883152E+02 -0.76610240005E+01  0.89236384164E+02  0.87318974863E+02 0.  0.
         23    2    1    2    0    0  0.18231557880E+02  0.54104077062E+01  0.10280814405E+03  0.13771894860E+03  0.89640013974E+02 0.  0.
         11    1    3    3    0    0 -0.43397333570E+02 -0.97157247253E+01 -0.90977030198E+00  0.44480912198E+02  0.00000000000E+00 0. -1.
        -12    1    3    3    0    0  0.43684442577E+02 -0.70101584268E+01 -0.67512536985E+01  0.44755471966E+02  0.00000000000E+00 0.  1.
        -13    1    4    4    0    0  0.44663800475E+02 -0.21464585201E+02  0.36866246914E+02  0.61763287252E+02  0.00000000000E+00 0.  1.
         13    1    4    4    0    0 -0.26432242595E+02  0.26874992907E+02  0.65941897137E+02  0.75955661345E+02  0.00000000000E+00 0. -1.
         -1    1    1    2    0  502 -0.18518666886E+02  0.11315475446E+02  0.61232422849E+02  0.64964533523E+02  0.00000000000E+00 0.  1.
<scales pt_clust_5="13000.00000" pt_clust_6="13000.00000" pt_clust_7="13000.00000" pt_clust_8="13000.00000" pt_clust_9="21.70210"></scales>
<clustering>
<clus scale="   21.702">  1  9  2 -1</clus>
<clus scale="   87.319">  5  6 -1 -1</clus>
<clus scale="   88.522">  2  5  1 -1</clus>
<clus scale="   89.640">  7  8 -1 -1</clus>
<clus scale="   21.702">  1  5  2 -1</clus>
</clustering>
</event>
<event>
 9    1  0.6675710E-005  0.1280021E+03  0.7546771E-02  0.1248340E+00
          1   -1    0    0  502    0 -0.00000000000E+00  0.00000000000E+00  0.95575789094E+02  0.95575789094E+02  0.00000000000E+00 0. -1.
         21   -1    0    0  501  502  0.00000000000E+00 -0.00000000000E+00 -0.45523025360E+03  0.45523025360E+03  0.00000000000E+00 0. -1.
        -24    2    1    2    0    0  0.18383926542E+02 -0.40808227888E+02  0.35531879070E+02  0.95807161869E+02  0.76897448701E+02 0.  0.
         23    2    1    2    0    0  0.60185731934E+02 -0.28801497688E+02 -0.14202981239E+03  0.18094243699E+03  0.90088008624E+02 0.  0.
         11    1    3    3    0    0 -0.14483926369E+02 -0.49658986505E+02  0.33663299692E+02  0.61717232682E+02  0.00000000000E+00 0. -1.
        -12    1    3    3    0    0  0.32867852912E+02  0.88507586171E+01  0.18685793785E+01  0.34089929188E+02  0.00000000000E+00 0.  1.
        -13    1    4    4    0    0  0.73268248521E+02  0.89495394959E+00 -0.67379923356E+02  0.99544418504E+02  0.00000000000E+00 0. -1.
         13    1    4    4    0    0 -0.13082516587E+02 -0.29696451637E+02 -0.74649889037E+02  0.81398018485E+02  0.00000000000E+00 0.  1.
          2    1    1    2  501    0 -0.78569658476E+02  0.69609725575E+02 -0.25315653118E+03  0.27405644384E+03  0.00000000000E+00 0. -1.
<scales pt_clust_5="13000.00000" pt_clust_6="13000.00000" pt_clust_7="13000.00000" pt_clust_8="13000.00000" pt_clust_9="90.93234"></scales>
<clustering>
<clus scale="   76.897">  5  6 -1 -1</clus>
<clus scale="   88.975">  1  5  2 -1</clus>
<clus scale="   90.088">  7  8 -1 -1</clus>
<clus scale="   90.932">  2  9  1 -1</clus>
<clus scale="   90.932">  2  5  1 -1</clus>
</clustering>
</event>
<event>
 9    1  0.6675710E-005  0.1754028E+03  0.7546771E-02  0.1173704E+00
         21   -1    0    0  501  502  0.00000000000E+00  0.00000000000E+00  0.38211997356E+03  0.38211997356E+03  0.00000000000E+00 0.  1.
         -4   -1    0    0    0  501 -0.00000000000E+00 -0.00000000000E+00 -0.17208282135E+03  0.17208282135E+03  0.00000000000E+00 0.  1.
        -24    2    1    2    0    0  0.12616258729E+03  0.56220676863E+02  0.36960675590E+02  0.16439252063E+03  0.81123648578E+02 0.  0.
         23    2    1    2    0    0 -0.19093762481E+03  0.13745496559E+02  0.19897603045E+03  0.29100815995E+03  0.91913944631E+02 0.  0.
         11    1    3    3    0    0  0.72579040026E+02  0.67636955593E+02  0.16690162183E+01  0.99223285715E+02  0.00000000000E+00 0. -1.
        -12    1    3    3    0    0  0.53583547265E+02 -0.11416278730E+02  0.35291659372E+02  0.65169234911E+02  0.00000000000E+00 0.  1.
        -13    1    4    4    0    0 -0.33043570186E+02 -0.33517135877E+01 -0.38121624911E+01  0.33431184505E+02  0.00000000000E+00 0. -1.
         13    1    4    4    0    0 -0.15789405463E+03  0.17097210147E+02  0.20278819294E+03  0.25757697544E+03  0.00000000000E+00 0.  1.
         -3    1    1    2    0  502  0.64775037519E+02 -0.69966173422E+02 -0.25899553836E+02  0.98802114339E+02  0.00000000000E+00 0.  1.
<scales pt_clust_5="13000.00000" pt_clust_6="13000.00000" pt_clust_7="13000.00000" pt_clust_8="13000.00000" pt_clust_9="95.34716"></scales>
<clustering>
<clus scale="   81.124">  5  6 -1 -1</clus>
<clus scale="   91.914">  7  8 -1 -1</clus>
<clus scale="   95.347">  1  9  2 -1</clus>
<clus scale="  169.997">  2  5  1 -1</clus>
<clus scale="   95.347">  1  5  2 -1</clus>
</clustering>
</event>
<event>
 9    1  0.6675710E-005  0.2125774E+03  0.7546771E-02  0.1146277E+00
          3   -1    0    0  502    0 -0.00000000000E+00  0.00000000000E+00  0.92782022911E+02  0.92782022911E+02  0.00000000000E+00 0. -1.
         21   -1    0    0  501  502  0.00000000000E+00 -0.00000000000E+00 -0.13296181220E+04  0.13296181220E+04  0.00000000000E+00 0. -1.
         23    2    1    2    0    0  0.13914536892E+03 -0.72050173726E+02 -0.11218075729E+03  0.21281925984E+03  0.90304229284E+02 0.  0.
        -24    2    1    2    0    0  0.86209224020E+02  0.16344980066E+03 -0.54276028660E+03  0.57891422223E+03  0.80031745870E+02 0.  0.
         13    1    4    4    0    0  0.72283535338E+02  0.13824210142E+03 -0.51785074328E+03  0.54083748058E+03  0.00000000000E+00 0. -1.
        -14    1    4    4    0    0  0.13925688681E+02  0.25207699238E+02 -0.24909543324E+02  0.38076741651E+02  0.00000000000E+00 0.  1.
        -13    1    3    3    0    0  0.12212641221E+03 -0.19866121224E+02 -0.61768728154E+02  0.13829280209E+03  0.00000000000E+00 0. -1.
         13    1    3    3    0    0  0.17018956706E+02 -0.52184052501E+02 -0.50412029137E+02  0.74526457748E+02  0.00000000000E+00 0.  1.
          4    1    1    2  501    0 -0.22535459294E+03 -0.91399626933E+02 -0.58189505519E+03  0.63066666284E+03  0.00000000000E+00 0. -1.
<scales pt_clust_5="13000.00000" pt_clust_6="13000.00000" pt_clust_7="13000.00000" pt_clust_8="13000.00000" pt_clust_9="196.93683"></scales>
<clustering>
<clus scale="   80.032">  5  6 -1 -1</clus>
<clus scale="   90.304">  7  8 -1 -1</clus>
<clus scale="  180.852">  1  7  2 -1</clus>
<clus scale="  196.937">  2  9  1 -1</clus>
<clus scale="  196.937">  2  5  1 -1</clus>
</clustering>
</event>
<event>
 9    1  0.6675710E-005  0.2266792E+03  0.7546771E-02  0.1128999E+00
          3   -1    0    0  502    0 -0.00000000000E+00  0.00000000000E+00  0.25077895422E+03  0.25077895422E+03  0.00000000000E+00 0. -1.
         21   -1    0    0  501  502  0.00000000000E+00 -0.00000000000E+00 -0.17608969239E+03  0.17608969239E+03  0.00000000000E+00 0. -1.
        -24    2    1    2    0    0  0.10500045285E+03 -0.93739707717E+00  0.10346882097E+03  0.16650429290E+03  0.77407421029E+02 0.  0.
         23    2    1    2    0    0  0.23817532820E+02  0.13644001474E+02  0.51466683212E+02  0.10806533651E+03  0.90971774900E+02 0.  0.
         13    1    3    3    0    0  0.23003899264E+02 -0.22938844223E+02  0.66292019615E+02  0.73824127630E+02  0.00000000000E+00 0. -1.
        -14    1    3    3    0    0  0.81996553583E+02  0.22001447146E+02  0.37176801359E+02  0.92680165274E+02  0.00000000000E+00 0.  1.
        -13    1    4    4    0    0  0.56985246068E+02  0.21102417114E+02  0.36793395322E+02  0.71037906901E+02  0.00000000000E+00 0. -1.
         13    1    4    4    0    0 -0.33167713249E+02 -0.74584156399E+01  0.14673287890E+02  0.37027429609E+02  0.00000000000E+00 0.  1.
          4    1    1    2  501    0 -0.12881798567E+03 -0.12706604397E+02 -0.80246242361E+02  0.15229901720E+03  0.00000000000E+00 0. -1.
<scales pt_clust_5="13000.00000" pt_clust_6="13000.00000" pt_clust_7="13000.00000" pt_clust_8="13000.00000" pt_clust_9="129.44316"></scales>
<clustering>
<clus scale="   77.407">  5  6 -1 -1</clus>
<clus scale="   90.972">  7  8 -1 -1</clus>
<clus scale="   92.605">  5  7 -1 -1</clus>
<clus scale="  129.443">  2  9  1 -1</clus>
<clus scale="  129.443">  2  5  1 -1</clus>
</clustering>
</event>
<event>
 9    1  0.6675710E-005  0.3874015E+03  0.7546771E-02  0.1048232E+00
         21   -1    0    0  501  502  0.00000000000E+00  0.00000000000E+00  0.10779913226E+03  0.10779913226E+03  0.00000000000E+00 0. -1.
          1   -1    0    0  502    0 -0.00000000000E+00 -0.00000000000E+00 -0.15754788400E+04  0.15754788400E+04  0.00000000000E+00 0. -1.
        -24    2    1    2    0    0 -0.86232362863E+02 -0.31417678964E+02 -0.44479702359E+03  0.46110166407E+03  0.79669702243E+02 0.  0.
         23    2    1    2    0    0 -0.24608276724E+03  0.22067565827E+02 -0.74079374134E+03  0.78617752151E+03  0.90862656407E+02 0.  0.
         11    1    3    3    0    0 -0.19283255783E+02 -0.41622614847E+02 -0.10440370473E+03  0.11403692202E+03  0.00000000000E+00 0. -1.
        -12    1    3    3    0    0 -0.66949107080E+02  0.10204935883E+02 -0.34039331886E+03  0.34706474205E+03  0.00000000000E+00 0.  1.
        -11    1    4    4    0    0 -0.40355832511E+02 -0.10318398835E+02 -0.52218095572E+02  0.66796647201E+02  0.00000000000E+00 0.  1.
         11    1    4    4    0    0 -0.20572693473E+03  0.32385964662E+02 -0.68857564577E+03  0.71938087431E+03  0.00000000000E+00 0. -1.
          2    1    1    2  501    0  0.33231513010E+03  0.93501131374E+01 -0.28208894277E+03  0.43599878663E+03  0.00000000000E+00 0. -1.
<scales pt_clust_5="13000.00000" pt_clust_6="13000.00000" pt_clust_7="13000.00000" pt_clust_8="13000.00000" pt_clust_9="332.44664"></scales>
<clustering>
<clus scale="   79.670">  5  6 -1 -1</clus>
<clus scale="   90.863">  7  8 -1 -1</clus>
<clus scale="  106.045">  5  7 -1 -1</clus>
<clus scale="  332.447">  1  9  2 -1</clus>
<clus scale="  332.447">  1  5  2 -1</clus>
</clustering>
</event>
<event>
 9    1  0.6675710E-005  0.1233249E+03  0.7546771E-02  0.1237938E+00
          1   -1    0    0  502    0 -0.00000000000E+00  0.00000000000E+00  0.58614621812E+03  0.58614621812E+03  0.00000000000E+00 0. -1.
         21   -1    0    0  501  502  0.00000000000E+00 -0.00000000000E+00 -0.17825497056E+03  0.17825497056E+03  0.00000000000E+00 0. -1.
        -24    2    1    2    0    0 -0.47444135818E+02 -0.77512688011E+02  0.51692817170E+03  0.53303410649E+03  0.93013231070E+02 0.  0.
         23    2    1    2    0    0 -0.30700860676E+02  0.22939195411E+02 -0.22000388570E+02  0.10229243287E+03  0.92254946717E+02 0.  0.
         11    1    3    3    0    0 -0.71178054456E+00 -0.70878526077E+02  0.41097358150E+03  0.41704143293E+03  0.00000000000E+00 0. -1.
        -12    1    3    3    0    0 -0.46732355273E+02 -0.66341619336E+01  0.10595459020E+03  0.11599267356E+03  0.00000000000E+00 0.  1.
        -11    1    4    4    0    0 -0.10294798706E+02 -0.29873237479E+02 -0.31804558981E+02  0.44832166687E+02  0.00000000000E+00 0. -1.
         11    1    4    4    0    0 -0.20406061970E+02  0.52812432890E+02  0.98041704114E+01  0.57460266187E+02  0.00000000000E+00 0.  1.
          2    1    1    2  501    0  0.78144996494E+02  0.54573492599E+02 -0.87036535578E+02  0.12907464932E+03  0.00000000000E+00 0. -1.
<scales pt_clust_5="13000.00000" pt_clust_6="13000.00000" pt_clust_7="13000.00000" pt_clust_8="13000.00000" pt_clust_9="95.31478"></scales>
<clustering>
<clus scale="   92.255">  7  8 -1 -1</clus>
<clus scale="   93.013">  5  6 -1 -1</clus>
<clus scale="   95.315">  2  9  1 -1</clus>
<clus scale="  122.754">  2  7  1 -1</clus>
<clus scale="   95.315">  2  5  1 -1</clus>
</clustering>
</event>
<event>
 9    1  0.6675710E-005  0.9491267E+02  0.7546771E-02  0.1298195E+00
         21   -1    0    0  501  502  0.00000000000E+00  0.00000000000E+00  0.65188805963E+02  0.65188805963E+02  0.00000000000E+00 0.  1.
          1   -1    0    0  502    0 -0.00000000000E+00 -0.00000000000E+00 -0.20360317025E+03  0.20360317025E+03  0.00000000000E+00 0. -1.
        -24    2    1    2    0    0 -0.18729100688E+02  0.75717735676E+01 -0.91839331929E+02  0.12419723212E+03  0.81131859392E+02 0.  0.
         23    2    1    2    0    0  0.50954366853E+01 -0.29597733288E+02 -0.75721604565E+01  0.97773341808E+02  0.92737799540E+02 0.  0.
         11    1    3    3    0    0 -0.11677995351E+02  0.24186805276E+02  0.35708614271E+01  0.27094799801E+02  0.00000000000E+00 0. -1.
        -12    1    3    3    0    0 -0.70511053370E+01 -0.16615031709E+02 -0.95410193356E+02  0.97102432315E+02  0.00000000000E+00 0.  1.
        -13    1    4    4    0    0 -0.23702355650E+02 -0.38312762824E+02  0.26540060543E+02  0.52288089200E+02  0.00000000000E+00 0.  1.
         13    1    4    4    0    0  0.28797792336E+02  0.87150295361E+01 -0.34112221000E+02  0.45485252608E+02  0.00000000000E+00 0. -1.
          2    1    1    2  501    0  0.13633664003E+02  0.22025959720E+02 -0.39002871902E+02  0.46821402289E+02  0.00000000000E+00 0. -1.
<scales pt_clust_5="13000.00000" pt_clust_6="13000.00000" pt_clust_7="13000.00000" pt_clust_8="13000.00000" pt_clust_9="25.90406"></scales>
<clustering>
<clus scale="   25.904">  1  9  2 -1</clus>
<clus scale="   81.132">  5  6 -1 -1</clus>
<clus scale="   83.609">  2  5  1 -1</clus>
<clus scale="   92.738">  7  8 -1 -1</clus>
<clus scale="   25.904">  1  5  2 -1</clus>
</clustering>
</event>
<event>
 9    1  0.6675710E-005  0.9426204E+02  0.7546771E-02  0.1302898E+00
         -2   -1    0    0    0  501 -0.00000000000E+00  0.00000000000E+00  0.34599924816E+03  0.34599924816E+03  0.00000000000E+00 0.  1.
         21   -1    0    0  501  502  0.00000000000E+00 -0.00000000000E+00 -0.54968301542E+02  0.54968301542E+02  0.00000000000E+00 0. -1.
         23    2    1    2    0    0 -0.18182690985E+02 -0.20381832003E+02  0.24716507522E+03  0.26448786634E+03  0.90095658632E+02 0.  0.
        -24    2    1    2    0    0 -0.44935787577E+00  0.34573065616E+02  0.65852486321E+02  0.10435561775E+03  0.73198676301E+02 0.  0.
         13    1    4    4    0    0 -0.26480135751E+02  0.15009819186E+02 -0.50135516157E+00  0.30442464066E+02  0.00000000000E+00 0. -1.
        -14    1    4    4    0    0  0.26030777876E+02  0.19563246430E+02  0.66353841482E+02  0.73913153681E+02  0.00000000000E+00 0.  1.
        -11    1    3    3    0    0 -0.11421705146E+02 -0.56258648950E+02  0.15995958686E+03  0.16994869920E+03  0.00000000000E+00 0.  1.
         11    1    3    3    0    0 -0.67609858388E+01  0.35876816947E+02  0.87205488359E+02  0.94539167141E+02  0.00000000000E+00 0. -1.
         -1    1    1    2    0  502  0.18632048861E+02 -0.14191233612E+02 -0.21986614921E+02  0.32124065619E+02  0.00000000000E+00 0.  1.
<scales pt_clust_5="13000.00000" pt_clust_6="13000.00000" pt_clust_7="13000.00000" pt_clust_8="13000.00000" pt_clust_9="23.42102"></scales>
<clustering>
<clus scale="   23.421">  2  9  1 -1</clus>
<clus scale="   73.199">  5  6 -1 -1</clus>
<clus scale="   78.270">  2  5  1 -1</clus>
<clus scale="   90.096">  7  8 -1 -1</clus>
<clus scale="   23.421">  2  5  1 -1</clus>
</clustering>
</event>
<event>
 9    1  0.6675710E-005  0.1629360E+03  0.7546771E-02  0.1214589E+00
          1   -1    0    0  502    0 -0.00000000000E+00  0.00000000000E+00  0.24129810497E+03  0.24129810497E+03  0.00000000000E+00 0. -1.
         21   -1    0    0  501  502  0.00000000000E+00 -0.00000000000E+00 -0.31082436534E+03  0.31082436534E+03  0.00000000000E+00 0. -1.
        -24    2    1    2    0    0 -0.16473263940E+02  0.22678425982E+02  0.14891169052E+03  0.17219549853E+03  0.81798036091E+02 0.  0.
         23    2    1    2    0    0 -0.22369628462E+02  0.12646161599E+03 -0.13557894010E+03  0.20494943587E+03  0.84437442329E+02 0.  0.
         11    1    3    3    0    0 -0.77912444745E+01  0.25724818307E+02  0.15739916895E+03  0.15967770087E+03  0.00000000000E+00 0. -1.
        -12    1    3    3    0    0 -0.86820194657E+01 -0.30463923256E+01 -0.84874784277E+01  0.12517797660E+02  0.00000000000E+00 0.  1.
        -11    1    4    4    0    0 -0.27529117334E+02  0.72652588677E+02 -0.24581844643E+02  0.81489373716E+02  0.00000000000E+00 0.  1.
         11    1    4    4    0    0  0.51594888727E+01  0.53809027311E+02 -0.11099709546E+03  0.12346006215E+03  0.00000000000E+00 0. -1.
          2    1    1    2  501    0  0.38842892402E+02 -0.14914004197E+03 -0.82859010787E+02  0.17497753592E+03  0.00000000000E+00 0. -1.
<scales pt_clust_5="13000.00000" pt_clust_6="13000.00000" pt_clust_7="13000.00000" pt_clust_8="13000.00000" pt_clust_9="139.35025"></scales>
<clustering>
<clus scale="   81.798">  5  6 -1 -1</clus>
<clus scale="   84.437">  7  8 -1 -1</clus>
<clus scale="   86.467">  1  5  2 -1</clus>
<clus scale="  139.350">  2  9  1 -1</clus>
<clus scale="  139.350">  2  5  1 -1</clus>
</clustering>
</event>
<event>
 9    1  0.6675710E-005  0.9767538E+02  0.7546771E-02  0.1291983E+00
         21   -1    0    0  501  502  0.00000000000E+00  0.00000000000E+00  0.27879312257E+03  0.27879312257E+03  0.00000000000E+00 0.  1.
         -2   -1    0    0    0  501 -0.00000000000E+00 -0.00000000000E+00 -0.92112969321E+02  0.92112969321E+02  0.00000000000E+00 0.  1.
         23    2    1    2    0    0 -0.23124787745E+02  0.32449858151E+02 -0.15164637085E+02  0.10247552006E+03  0.93185389901E+02 0.  0.
        -24    2    1    2    0    0  0.36582350044E+02  0.38567857799E+02  0.75253380254E+02  0.12265675022E+03  0.80968260106E+02 0.  0.
         11    1    4    4    0    0 -0.10638411325E+02 -0.17090949155E+02  0.37489711039E+01  0.20477576099E+02  0.00000000000E+00 0. -1.
        -12    1    4    4    0    0  0.47220761369E+02  0.55658806955E+02  0.71504409150E+02  0.10217917412E+03  0.00000000000E+00 0.  1.
        -11    1    3    3    0    0  0.20522531204E+02 -0.20234338487E+02 -0.18037791151E+02  0.33999480153E+02  0.00000000000E+00 0. -1.
         11    1    3    3    0    0 -0.43647318949E+02  0.52684196638E+02  0.28731540662E+01  0.68476039905E+02  0.00000000000E+00 0.  1.
         -1    1    1    2    0  502 -0.13457562299E+02 -0.71017715950E+02  0.12659141008E+03  0.14577382161E+03  0.00000000000E+00 0.  1.
<scales pt_clust_5="13000.00000" pt_clust_6="13000.00000" pt_clust_7="13000.00000" pt_clust_8="13000.00000" pt_clust_9="72.28155"></scales>
<clustering>
<clus scale="   72.282">  1  9  2 -1</clus>
<clus scale="   80.968">  5  6 -1 -1</clus>
<clus scale="   86.098">  1  5  2 -1</clus>
<clus scale="   93.185">  7  8 -1 -1</clus>
<clus scale="   72.282">  1  5  2 -1</clus>
</clustering>
</event>
<event>
 9    1  0.6675710E-005  0.1355974E+03  0.7546771E-02  0.1240581E+00
         21   -1    0    0  501  502  0.00000000000E+00  0.00000000000E+00  0.28505326269E+03  0.28505326269E+03  0.00000000000E+00 0.  1.
         -4   -1    0    0    0  501 -0.00000000000E+00 -0.00000000000E+00 -0.34028751452E+03  0.34028751452E+03  0.00000000000E+00 0.  1.
        -24    2    1    2    0    0 -0.11329675459E+02 -0.32043296617E+02 -0.28090849212E+03  0.29422602463E+03  0.80648857529E+02 0.  0.
         23    2    1    2    0    0 -0.60169697281E+02 -0.46810282340E+02  0.63547599264E+02  0.13716863906E+03  0.94685496068E+02 0.  0.
         11    1    3    3    0    0  0.58673386073E+01  0.24167083326E+02 -0.12829853418E+03  0.13068660012E+03  0.00000000000E+00 0. -1.
        -12    1    3    3    0    0 -0.17197014066E+02 -0.56210379943E+02 -0.15260995795E+03  0.16353942451E+03  0.00000000000E+00 0.  1.
        -11    1    4    4    0    0  0.24736210603E+02 -0.10209612482E+02  0.26203058934E+02  0.37452858362E+02  0.00000000000E+00 0. -1.
         11    1    4    4    0    0 -0.84905907884E+02 -0.36600669859E+02  0.37344540330E+02  0.99715780698E+02  0.00000000000E+00 0.  1.
         -3    1    1    2    0  502  0.71499372740E+02  0.78853578958E+02  0.16212664103E+03  0.19394611352E+03  0.00000000000E+00 0.  1.
<scales pt_clust_5="13000.00000" pt_clust_6="13000.00000" pt_clust_7="13000.00000" pt_clust_8="13000.00000" pt_clust_9="97.06345"></scales>
<clustering>
<clus scale="   80.649">  5  6 -1 -1</clus>
<clus scale="   87.518">  2  5  1 -1</clus>
<clus scale="   94.685">  7  8 -1 -1</clus>
<clus scale="   97.063">  1  9  2 -1</clus>
<clus scale="   97.063">  1  5  2 -1</clus>
</clustering>
</event>
<event>
 9    1  0.6675710E-005  0.8139484E+02  0.7546771E-02  0.1325222E+00
         21   -1    0    0  501  502  0.00000000000E+00  0.00000000000E+00  0.38391701860E+02  0.38391701860E+02  0.00000000000E+00 0. -1.
          3   -1    0    0  502    0 -0.00000000000E+00 -0.00000000000E+00 -0.32747015559E+03  0.32747015559E+03  0.00000000000E+00 0. -1.
         23    2    1    2    0    0 -0.34363211844E+02  0.22519113561E+02 -0.11207649748E+03  0.14332725140E+03  0.79332332016E+02 0.  0.
        -24    2    1    2    0    0 -0.61815542821E+01  0.38213484278E+01 -0.73522077766E+02  0.10831646717E+03  0.79209512208E+02 0.  0.
         13    1    4    4    0    0 -0.23053115202E+02 -0.89022699578E+01  0.64987562723E+01  0.25552502108E+02  0.00000000000E+00 0. -1.
        -14    1    4    4    0    0  0.16871560920E+02  0.12723618386E+02 -0.80020834038E+02  0.82763965063E+02  0.00000000000E+00 0.  1.
        -13    1    3    3    0    0 -0.43353332354E+02  0.36049633819E+01 -0.11426992692E+03  0.12227069716E+03  0.00000000000E+00 0. -1.
         13    1    3    3    0    0  0.89901205105E+01  0.18914150179E+02  0.21934294339E+01  0.21056554241E+02  0.00000000000E+00 0.  1.
          4    1    1    2  501    0  0.40544766126E+02 -0.26340461989E+02 -0.10347987849E+03  0.11421813888E+03  0.00000000000E+00 0. -1.
<scales pt_clust_5="13000.00000" pt_clust_6="13000.00000" pt_clust_7="13000.00000" pt_clust_8="13000.00000" pt_clust_9="48.34977"></scales>
<clustering>
<clus scale="   48.350">  1  9  2 -1</clus>
<clus scale="   79.210">  5  6 -1 -1</clus>
<clus scale="   79.332">  7  8 -1 -1</clus>
<clus scale="   81.275">  1  5  2 -1</clus>
<clus scale="   48.350">  1  5  2 -1</clus>
</clustering>
</event>
<event>
 9    1  0.6675710E-005  0.2152339E+03  0.7546771E-02  0.1138267E+00
         -2   -1    0    0    0  501 -0.00000000000E+00  0.00000000000E+00  0.30973174647E+03  0.30973174647E+03  0.00000000000E+00 0.  1.
         21   -1    0    0  501  502  0.00000000000E+00 -0.00000000000E+00 -0.46659674218E+03  0.46659674218E+03  0.00000000000E+00 0. -1.
        -24    2    1    2    0    0 -0.11674747399E+03  0.15153866203E+03  0.19551412327E+03  0.28496721440E+03  0.79916219318E+02 0.  0.
         23    2    1    2    0    0  0.14787238752E+03 -0.15619293090E+03 -0.13038180453E+03  0.26714434785E+03  0.90023402411E+02 0.  0.
         11    1    3    3    0    0  0.10459391834E+02  0.27952641010E+02  0.31592156562E+02  0.43460480591E+02  0.00000000000E+00 0. -1.
        -12    1    3    3    0    0 -0.12720686582E+03  0.12358602102E+03  0.16392196671E+03  0.24150673381E+03  0.00000000000E+00 0.  1.
        -13    1    4    4    0    0  0.69088324006E+02 -0.17689463795E+02 -0.22756015804E+02  0.74859534453E+02  0.00000000000E+00 0.  1.
         13    1    4    4    0    0  0.78784063514E+02 -0.13850346711E+03 -0.10762578872E+03  0.19228481340E+03  0.00000000000E+00 0. -1.
         -1    1    1    2    0  502 -0.31124913534E+02  0.46542688682E+01 -0.22199731445E+03  0.22421692640E+03  0.00000000000E+00 0.  1.
<scales pt_clust_5="13000.00000" pt_clust_6="13000.00000" pt_clust_7="13000.00000" pt_clust_8="13000.00000" pt_clust_9="31.47098"></scales>
<clustering>
<clus scale="   31.471">  2  9  1 -1</clus>
<clus scale="   79.916">  5  6 -1 -1</clus>
<clus scale="   90.023">  7  8 -1 -1</clus>
<clus scale="  211.206">  1  5  2 -1</clus>
<clus scale="   31.471">  2  5  1 -1</clus>
</clustering>
</event>
<event>
 9    1  0.6675710E-005  0.1899623E+03  0.7546771E-02  0.1175253E+00
         -4   -1    0    0    0  501 -0.00000000000E+00  0.00000000000E+00  0.74725092716E+03  0.74725092716E+03  0.00000000000E+00 0.  1.
         21   -1    0    0  501  502  0.00000000000E+00 -0.00000000000E+00 -0.22815837434E+03  0.22815837434E+03  0.00000000000E+00 0. -1.
        -24    2    1    2    0    0  0.95443207068E+02 -0.33958357608E+02 -0.12640729327E+03  0.18075600695E+03  0.80195725746E+02 0.  0.
         23    2    1    2    0    0 -0.46999297618E+02  0.17150965419E+03  0.88247619451E+02  0.21863487849E+03  0.91591878996E+02 0.  0.
         13    1    3    3    0    0  0.63463480926E+02 -0.60198721250E+02 -0.79353902848E+02  0.11810394299E+03  0.00000000000E+00 0. -1.
        -14    1    3    3    0    0  0.31979726142E+02  0.26240363642E+02 -0.47053390425E+02  0.62652063962E+02  0.00000000000E+00 0.  1.
        -13    1    4    4    0    0 -0.63677876215E+02  0.61369497116E+02  0.43933823494E+02  0.98748508557E+02  0.00000000000E+00 0.  1.
         13    1    4    4    0    0  0.16678578597E+02  0.11014015707E+03  0.44313795957E+02  0.11988636993E+03  0.00000000000E+00 0. -1.
         -3    1    1    2    0  502 -0.48443909450E+02 -0.13755129658E+03  0.55725222664E+03  0.57601841607E+03  0.00000000000E+00 0.  1.
<scales pt_clust_5="13000.00000" pt_clust_6="13000.00000" pt_clust_7="13000.00000" pt_clust_8="13000.00000" pt_clust_9="166.42302"></scales>
<clustering>
<clus scale="   80.196">  5  6 -1 -1</clus>
<clus scale="   91.592">  7  8 -1 -1</clus>
<clus scale="  129.205">  1  5  2 -1</clus>
<clus scale="  166.423">  2  9  1 -1</clus>
<clus scale="  166.423">  2  5  1 -1</clus>
</clustering>
</event>
<event>
 9    1  0.6675710E-005  0.9784977E+02  0.7546771E-02  0.1292873E+00
         21   -1    0    0  501  502  0.00000000000E+00  0.00000000000E+00  0.76050023259E+03  0.76050023259E+03  0.00000000000E+00 0.  1.
          3   -1    0    0  502    0 -0.00000000000E+00 -0.00000000000E+00 -0.22822735150E+02  0.22822735150E+02  0.00000000000E+00 0. -1.
         23    2    1    2    0    0 -0.18033501710E+02 -0.21560413534E+02  0.17865889334E+03  0.20409462834E+03  0.94580962837E+02 0.  0.
        -24    2    1    2    0    0 -0.18145570060E+02  0.29420859126E+02  0.51178109681E+03  0.51921089249E+03  0.80406536804E+02 0.  0.
         13    1    4    4    0    0 -0.20921325903E+02  0.26024852228E+02  0.71552698889E+02  0.78960645446E+02  0.00000000000E+00 0. -1.
        -14    1    4    4    0    0  0.27757558432E+01  0.33960068983E+01  0.44022839792E+03  0.44025024704E+03  0.00000000000E+00 0.  1.
        -13    1    3    3    0    0 -0.43271271353E+02  0.14692071985E+02  0.13270803763E+03  0.14035555976E+03  0.00000000000E+00 0.  1.
         13    1    3    3    0    0  0.25237769643E+02 -0.36252485519E+02  0.45950855711E+02  0.63739068579E+02  0.00000000000E+00 0. -1.
          4    1    1    2  501    0  0.36179071770E+02 -0.78604455919E+01  0.47237507289E+02  0.60017446913E+02  0.00000000000E+00 0. -1.
<scales pt_clust_5="13000.00000" pt_clust_6="13000.00000" pt_clust_7="13000.00000" pt_clust_8="13000.00000" pt_clust_9="37.02314"></scales>
<clustering>
<clus scale="   37.023">  1  9  2 -1</clus>
<clus scale="   80.407">  5  6 -1 -1</clus>
<clus scale="   84.227">  1  5  2 -1</clus>
<clus scale="   94.581">  7  8 -1 -1</clus>
<clus scale="   37.023">  1  5  2 -1</clus>
</clustering>
</event>
<event>
 9    1  0.6675710E-005  0.1061561E+03  0.7546771E-02  0.1270995E+00
          3   -1    0    0  502    0 -0.00000000000E+00  0.00000000000E+00  0.41158198313E+03  0.41158198313E+03  0.00000000000E+00 0. -1.
         21   -1    0    0  501  502  0.00000000000E+00 -0.00000000000E+00 -0.10158567048E+03  0.10158567048E+03  0.00000000000E+00 0. -1.
        -24    2    1    2    0    0 -0.66216670802E+01  0.48050282519E+02  0.27272772198E+03  0.28922765992E+03  0.83183849419E+02 0.  0.
         23    2    1    2    0    0  0.24369405659E+01 -0.79222908996E+02  0.98213295681E+02  0.15535791407E+03  0.90598134777E+02 0.  0.
         13    1    3    3    0    0 -0.27872270785E+02  0.61559883645E+02  0.15933569721E+03  0.17307324218E+03  0.00000000000E+00 0. -1.
        -14    1    3    3    0    0  0.21250603705E+02 -0.13509601126E+02  0.11339202477E+03  0.11615441774E+03  0.00000000000E+00 0.  1.
        -11    1    4    4    0    0 -0.30932656634E+02 -0.81103608485E+02  0.74337073061E+02  0.11428309143E+03  0.00000000000E+00 0. -1.
         11    1    4    4    0    0  0.33369597200E+02  0.18806994889E+01  0.23876222621E+02  0.41074822635E+02  0.00000000000E+00 0.  1.
          4    1    1    2  501    0  0.41847265144E+01  0.31172626477E+02 -0.60944705003E+02  0.68582079623E+02  0.00000000000E+00 0. -1.
<scales pt_clust_5="13000.00000" pt_clust_6="13000.00000" pt_clust_7="13000.00000" pt_clust_8="13000.00000" pt_clust_9="31.45226"></scales>
<clustering>
<clus scale="   31.452">  2  9  1 -1</clus>
<clus scale="   83.184">  5  6 -1 -1</clus>
<clus scale="   90.598">  7  8 -1 -1</clus>
<clus scale="   99.903">  1  5  2 -1</clus>
<clus scale="   31.452">  2  5  1 -1</clus>
</clustering>
</event>
<event>
 9    1  0.6675710E-005  0.9318935E+02  0.7546771E-02  0.1301196E+00
         21   -1    0    0  501  502  0.00000000000E+00  0.00000000000E+00  0.13631583233E+03  0.13631583233E+03  0.00000000000E+00 0.  1.
         -2   -1    0    0    0  501 -0.00000000000E+00 -0.00000000000E+00 -0.17722150463E+03  0.17722150463E+03  0.00000000000E+00 0.  1.
        -24    2    1    2    0    0 -0.30121978540E+02  0.31941430699E+02 -0.76137579511E+02  0.11943057170E+03  0.80864960625E+02 0.  0.
         23    2    1    2    0    0 -0.36694865696E+02  0.13442839924E+01 -0.21624944442E+02  0.10027110543E+03  0.90765280221E+02 0.  0.
         13    1    3    3    0    0 -0.18288832857E+02  0.40084414218E+02 -0.89534774293E+02  0.99788363441E+02  0.00000000000E+00 0. -1.
        -14    1    3    3    0    0 -0.11833145683E+02 -0.81429835186E+01  0.13397194782E+02  0.19642208261E+02  0.00000000000E+00 0.  1.
        -11    1    4    4    0    0  0.46708103826E+01 -0.36428801124E+02 -0.24551564785E+02  0.44177520917E+02  0.00000000000E+00 0. -1.
         11    1    4    4    0    0 -0.41365676078E+02  0.37773085116E+02  0.29266203437E+01  0.56093584510E+02  0.00000000000E+00 0.  1.
         -1    1    1    2    0  502  0.66816844236E+02 -0.33285714692E+02  0.56856851657E+02  0.93835659834E+02  0.00000000000E+00 0.  1.
<scales pt_clust_5="13000.00000" pt_clust_6="13000.00000" pt_clust_7="13000.00000" pt_clust_8="13000.00000" pt_clust_9="74.64871"></scales>
<clustering>
<clus scale="   74.649">  1  9  2 -1</clus>
<clus scale="   80.865">  5  6 -1 -1</clus>
<clus scale="   83.577">  2  5  1 -1</clus>
<clus scale="   90.765">  7  8 -1 -1</clus>
<clus scale="   74.649">  1  5  2 -1</clus>
</clustering>
</event>
<event>
 9    1  0.6675710E-005  0.1668523E+03  0.7546771E-02  0.1210272E+00
         21   -1    0    0  501  502  0.00000000000E+00  0.00000000000E+00  0.44072577918E+03  0.44072577918E+03  0.00000000000E+00 0. -1.
         -2   -1    0    0    0  501 -0.00000000000E+00 -0.00000000000E+00 -0.55400829785E+03  0.55400829785E+03  0.00000000000E+00 0.  1.
         23    2    1    2    0    0  0.49421924111E+01 -0.17190822932E+02  0.10578872873E+03  0.13777412272E+03  0.86432077991E+02 0.  0.
        -24    2    1    2    0    0  0.21034888770E+02 -0.14434306864E+03  0.28339139047E+03  0.32853142620E+03  0.79654439942E+02 0.  0.
         13    1    4    4    0    0  0.25687983250E+02 -0.11698888594E+03  0.14834180034E+03  0.19066085504E+03  0.00000000000E+00 0. -1.
        -14    1    4    4    0    0 -0.46530944798E+01 -0.27354182702E+02  0.13504959013E+03  0.13787057117E+03  0.00000000000E+00 0.  1.
        -13    1    3    3    0    0  0.23963880789E+02 -0.25825952197E+02  0.58969974070E+01  0.35721449687E+02  0.00000000000E+00 0.  1.
         13    1    3    3    0    0 -0.19021688378E+02  0.86351292645E+01  0.99891731323E+02  0.10205267303E+03  0.00000000000E+00 0. -1.
         -1    1    1    2    0  502 -0.25977081181E+02  0.16153389157E+03 -0.50246263787E+03  0.52842852811E+03  0.00000000000E+00 0.  1.
<scales pt_clust_5="13000.00000" pt_clust_6="13000.00000" pt_clust_7="13000.00000" pt_clust_8="13000.00000" pt_clust_9="146.61134"></scales>
<clustering>
<clus scale="   79.654">  5  6 -1 -1</clus>
<clus scale="   86.432">  7  8 -1 -1</clus>
<clus scale="   88.264">  2  7  1 -1</clus>
<clus scale="  146.611">  1  9  2 -1</clus>
<clus scale="  146.611">  1  5  2 -1</clus>
</clustering>
</event>
<event>
 9    1  0.6675710E-005  0.1170159E+03  0.7546771E-02  0.1252332E+00
          1   -1    0    0  502    0 -0.00000000000E+00  0.00000000000E+00  0.13429607477E+03  0.13429607477E+03  0.00000000000E+00 0. -1.
         21   -1    0    0  501  502  0.00000000000E+00 -0.00000000000E+00 -0.21723372481E+03  0.21723372481E+03  0.00000000000E+00 0.  1.
        -24    2    1    2    0    0  0.53351001740E+02 -0.53263564705E+02  0.78952143760E+02  0.13549287645E+03  0.80259216629E+02 0.  0.
         23    2    1    2    0    0 -0.28126606042E+02  0.40435692674E+02 -0.15461159195E+03  0.18681712398E+03  0.92572902294E+02 0.  0.
         13    1    3    3    0    0  0.64275183012E+01 -0.47088768220E+02  0.73945071973E+02  0.87900732381E+02  0.00000000000E+00 0. -1.
        -14    1    3    3    0    0  0.46923483439E+02 -0.61747964856E+01  0.50070717868E+01  0.47592144074E+02  0.00000000000E+00 0.  1.
        -13    1    4    4    0    0 -0.11648904568E+02  0.69056526139E+02 -0.87977192891E+02  0.11244770895E+03  0.00000000000E+00 0.  1.
         13    1    4    4    0    0 -0.16477701474E+02 -0.28620833465E+02 -0.66634399059E+02  0.74369415031E+02  0.00000000000E+00 0. -1.
          2    1    1    2  501    0 -0.25224395698E+02  0.12827872031E+02 -0.72782018500E+01  0.29219799132E+02  0.00000000000E+00 0. -1.
<scales pt_clust_5="13000.00000" pt_clust_6="13000.00000" pt_clust_7="13000.00000" pt_clust_8="13000.00000" pt_clust_9="28.29884"></scales>
<clustering>
<clus scale="   28.299">  2  9  1 -1</clus>
<clus scale="   80.259">  5  6 -1 -1</clus>
<clus scale="   92.573">  7  8 -1 -1</clus>
<clus scale="  107.538">  1  5  2 -1</clus>
<clus scale="   28.299">  2  5  1 -1</clus>
</clustering>
</event>
<event>
 9    1  0.6675710E-005  0.3303930E+03  0.7546771E-02  0.1071384E+00
         -2   -1    0    0    0  501 -0.00000000000E+00  0.00000000000E+00  0.14305047248E+04  0.14305047248E+04  0.00000000000E+00 0.  1.
         21   -1    0    0  501  502  0.00000000000E+00 -0.00000000000E+00 -0.15460732327E+03  0.15460732327E+03  0.00000000000E+00 0.  1.
         23    2    1    2    0    0 -0.28805701419E+03  0.15341135527E+03  0.73641240671E+03  0.81092180806E+03  0.93696631086E+02 0.  0.
        -24    2    1    2    0    0  0.25544708627E+03 -0.17166374015E+03  0.61369083216E+03  0.69110556491E+03  0.79302022722E+02 0.  0.
         11    1    4    4    0    0  0.72390980758E+02 -0.94173022644E+02  0.24314011238E+03  0.27060326410E+03  0.00000000000E+00 0. -1.
        -12    1    4    4    0    0  0.18305610551E+03 -0.77490717506E+02  0.37055071977E+03  0.42050230081E+03  0.00000000000E+00 0.  1.
        -11    1    3    3    0    0 -0.82458811903E+02  0.42749780399E+02  0.11983615616E+03  0.15161696378E+03  0.00000000000E+00 0.  1.
         11    1    3    3    0    0 -0.20559820229E+03  0.11066157487E+03  0.61657625055E+03  0.65930484427E+03  0.00000000000E+00 0. -1.
         -1    1    1    2    0  502  0.32609927925E+02  0.18252384879E+02 -0.74205837306E+02  0.83084675141E+02  0.00000000000E+00 0.  1.
<scales pt_clust_5="13000.00000" pt_clust_6="13000.00000" pt_clust_7="13000.00000" pt_clust_8="13000.00000" pt_clust_9="37.37054"></scales>
<clustering>
<clus scale="   37.371">  2  9  1 -1</clus>
<clus scale="   79.302">  5  6 -1 -1</clus>
<clus scale="   93.697">  7  8 -1 -1</clus>
<clus scale="  326.603">  2  5  1 -1</clus>
<clus scale="   37.371">  2  5  1 -1</clus>
</clustering>
</event>
<event>
 9    1  0.6675710E-005  0.2264266E+03  0.7546771E-02  0.1129760E+00
         21   -1    0    0  501  502  0.00000000000E+00  0.00000000000E+00  0.17133402505E+03  0.17133402505E+03  0.00000000000E+00 0. -1.
          1   -1    0    0  502    0 -0.00000000000E+00 -0.00000000000E+00 -0.13519098870E+04  0.13519098870E+04  0.00000000000E+00 0. -1.
        -24    2    1    2    0    0  0.17656138026E+03  0.11400893447E+03 -0.11831280240E+04  0.12045419670E+04  0.83411456598E+02 0.  0.
         23    2    1    2    0    0 -0.16220103313E+03 -0.93232767707E+02 -0.86923996408E+02  0.22572962872E+03  0.91632745286E+02 0.  0.
         11    1    3    3    0    0  0.32035654714E+02 -0.11832907109E+02 -0.15674235207E+03  0.16041965526E+03  0.00000000000E+00 0. -1.
        -12    1    3    3    0    0  0.14452572554E+03  0.12584184158E+03 -0.10263856719E+04  0.10441223118E+04  0.00000000000E+00 0.  1.
        -11    1    4    4    0    0 -0.83919993260E+02  0.18352766655E+01 -0.47369008664E+02  0.96383382857E+02  0.00000000000E+00 0. -1.
         11    1    4    4    0    0 -0.78281039874E+02 -0.95068044373E+02 -0.39554987744E+02  0.12934624587E+03  0.00000000000E+00 0.  1.
          2    1    1    2  501    0 -0.14360347125E+02 -0.20776166759E+02  0.89476158415E+02  0.92972316307E+02  0.00000000000E+00 0. -1.
<scales pt_clust_5="13000.00000" pt_clust_6="13000.00000" pt_clust_7="13000.00000" pt_clust_8="13000.00000" pt_clust_9="25.25606"></scales>
<clustering>
<clus scale="   25.256">  1  9  2 -1</clus>
<clus scale="   83.411">  5  6 -1 -1</clus>
<clus scale="   91.633">  7  8 -1 -1</clus>
<clus scale="  223.226">  2  5  1 -1</clus>
<clus scale="   25.256">  1  5  2 -1</clus>
</clustering>
</event>
<event>
 9    1  0.6675710E-005  0.1061690E+03  0.7546771E-02  0.1274032E+00
         21   -1    0    0  501  502  0.00000000000E+00  0.00000000000E+00  0.58717936969E+03  0.58717936969E+03  0.00000000000E+00 0.  1.
          1   -1    0    0  502    0 -0.00000000000E+00 -0.00000000000E+00 -0.34865455174E+02  0.34865455174E+02  0.00000000000E+00 0. -1.
         23    2    1    2    0    0 -0.57579042135E+02  0.10614810544E+02  0.85091435785E+02  0.13826667528E+03  0.91918990161E+02 0.  0.
        -24    2    1    2    0    0  0.30692497269E+02 -0.32650442296E+02  0.30852030235E+03  0.32131327292E+03  0.77777642183E+02 0.  0.
         11    1    4    4    0    0  0.28964241509E+02  0.17303038239E+02  0.71238916033E+02  0.78824523951E+02  0.00000000000E+00 0. -1.
        -12    1    4    4    0    0  0.17282557600E+01 -0.49953480536E+02  0.23728138631E+03  0.24248874897E+03  0.00000000000E+00 0.  1.
        -13    1    3    3    0    0 -0.29654964014E+02  0.43675092959E+02  0.13299999876E+02  0.54440983021E+02  0.00000000000E+00 0. -1.
         13    1    3    3    0    0 -0.27924078121E+02 -0.33060282415E+02  0.71791435909E+02  0.83825692256E+02  0.00000000000E+00 0.  1.
          2    1    1    2  501    0  0.26886544866E+02  0.22035631753E+02  0.15870217639E+03  0.16246487667E+03  0.00000000000E+00 0. -1.
<scales pt_clust_5="13000.00000" pt_clust_6="13000.00000" pt_clust_7="13000.00000" pt_clust_8="13000.00000" pt_clust_9="34.76284"></scales>
<clustering>
<clus scale="   34.763">  1  9  2 -1</clus>
<clus scale="   77.778">  5  6 -1 -1</clus>
<clus scale="   91.919">  7  8 -1 -1</clus>
<clus scale="   94.192">  1  5  2 -1</clus>
<clus scale="   34.763">  1  5  2 -1</clus>
</clustering>
</event>
<event>
 9    1  0.6675710E-005  0.1018967E+03  0.7546771E-02  0.1282121E+00
          1   -1    0    0  502    0 -0.00000000000E+00  0.00000000000E+00  0.78967574230E+03  0.78967574230E+03  0.00000000000E+00 0. -1.
         21   -1    0    0  501  502  0.00000000000E+00 -0.00000000000E+00 -0.21250235681E+02  0.21250235681E+02  0.00000000000E+00 0. -1.
         23    2    1    2    0    0  0.23361923966E+02 -0.42651400849E+02  0.30601061644E+03  0.32304207869E+03  0.91371580625E+02 0.  0.
        -24    2    1    2    0    0  0.18529904010E+02  0.47609677664E+02  0.18931383982E+03  0.21154408409E+03  0.79379662470E+02 0.  0.
         11    1    4    4    0    0  0.99085909227E+01  0.69719793385E+02  0.14799810508E+03  0.16389773906E+03  0.00000000000E+00 0. -1.
        -12    1    4    4    0    0  0.86213130868E+01 -0.22110115721E+02  0.41315734746E+02  0.47646345024E+02  0.00000000000E+00 0.  1.
        -11    1    3    3    0    0  0.48948525725E+02 -0.38162516158E+02  0.27798075600E+03  0.28482562476E+03  0.00000000000E+00 0. -1.
         11    1    3    3    0    0 -0.25586601759E+02 -0.44888846914E+01  0.28029860441E+02  0.38216453939E+02  0.00000000000E+00 0.  1.
          2    1    1    2  501    0 -0.41891827975E+02 -0.49582768147E+01  0.27310105036E+03  0.27633981520E+03  0.00000000000E+00 0. -1.
<scales pt_clust_5="13000.00000" pt_clust_6="13000.00000" pt_clust_7="13000.00000" pt_clust_8="13000.00000" pt_clust_9="42.18426"></scales>
<clustering>
<clus scale="   42.184">  2  9  1 -1</clus>
<clus scale="   79.380">  5  6 -1 -1</clus>
<clus scale="   91.298">  2  5  1 -1</clus>
<clus scale="   91.372">  7  8 -1 -1</clus>
<clus scale="   42.184">  2  5  1 -1</clus>
</clustering>
</event>
<event>
 9    1  0.6675710E-005  0.2300577E+03  0.7546771E-02  0.1153096E+00
          1   -1    0    0  502    0 -0.00000000000E+00  0.00000000000E+00  0.76107244789E+03  0.76107244789E+03  0.00000000000E+00 0. -1.
         21   -1    0    0  501  502  0.00000000000E+00 -0.00000000000E+00 -0.17317084610E+03  0.17317084610E+03  0.00000000000E+00 0. -1.
        -24    2    1    2    0    0  0.27322279559E+01  0.91404665404E+02  0.34061239495E+03  0.36159398337E+03  0.79819341571E+02 0.  0.
         23    2    1    2    0    0  0.11778731696E+03 -0.24418973229E+03  0.24757760327E+03  0.37805146751E+03  0.90143025526E+02 0.  0.
         11    1    3    3    0    0 -0.36052888712E+02  0.64573598358E+02  0.19620880806E+03  0.20968418336E+03  0.00000000000E+00 0. -1.
        -12    1    3    3    0    0  0.38785116668E+02  0.26831067047E+02  0.14440358689E+03  0.15190980001E+03  0.00000000000E+00 0.  1.
        -13    1    4    4    0    0  0.10692040568E+03 -0.11894000977E+03  0.14222051490E+03  0.21402190059E+03  0.00000000000E+00 0.  1.
         13    1    4    4    0    0  0.10866911282E+02 -0.12524972253E+03  0.10535708838E+03  0.16402956692E+03  0.00000000000E+00 0. -1.
          2    1    1    2  501    0 -0.12051954492E+03  0.15278506689E+03 -0.28839643062E+00  0.19459784311E+03  0.00000000000E+00 0. -1.
<scales pt_clust_5="13000.00000" pt_clust_6="13000.00000" pt_clust_7="13000.00000" pt_clust_8="13000.00000" pt_clust_9="211.66196"></scales>
<clustering>
<clus scale="   79.819">  5  6 -1 -1</clus>
<clus scale="   90.143">  7  8 -1 -1</clus>
<clus scale="  121.381">  1  5  2 -1</clus>
<clus scale="  211.662">  2  9  1 -1</clus>
<clus scale="  211.662">  2  5  1 -1</clus>
</clustering>
</event>
<event>
 9    1  0.6675710E-005  0.9447378E+02  0.7546771E-02  0.1297675E+00
          1   -1    0    0  502    0 -0.00000000000E+00  0.00000000000E+00  0.44310717874E+03  0.44310717874E+03  0.00000000000E+00 0. -1.
         21   -1    0    0  501  502  0.00000000000E+00 -0.00000000000E+00 -0.30664449166E+02  0.30664449166E+02  0.00000000000E+00 0. -1.
         23    2    1    2    0    0 -0.15825180613E+02 -0.41752105384E+01  0.23439895165E+03  0.25220653287E+03  0.91637317531E+02 0.  0.
        -24    2    1    2    0    0  0.16294785229E+02  0.31752611775E+02  0.17089033083E+03  0.19307114141E+03  0.82457335000E+02 0.  0.
         13    1    4    4    0    0  0.47952962749E+02  0.12127776687E+02  0.71595461368E+02  0.87019995934E+02  0.00000000000E+00 0. -1.
        -14    1    4    4    0    0 -0.31658177520E+02  0.19624835088E+02  0.99294869460E+02  0.10605114548E+03  0.00000000000E+00 0.  1.
        -11    1    3    3    0    0  0.34536366157E+02  0.49013759731E+01  0.14557795117E+03  0.14969877735E+03  0.00000000000E+00 0. -1.
         11    1    3    3    0    0 -0.50361546770E+02 -0.90765865114E+01  0.88821000487E+02  0.10250775553E+03  0.00000000000E+00 0.  1.
          2    1    1    2  501    0 -0.46960461574E+00 -0.27577401237E+02  0.71534470923E+01  0.28493953618E+02  0.00000000000E+00 0. -1.
<scales pt_clust_5="13000.00000" pt_clust_6="13000.00000" pt_clust_7="13000.00000" pt_clust_8="13000.00000" pt_clust_9="27.58140"></scales>
<clustering>
<clus scale="   27.581">  2  9  1 -1</clus>
<clus scale="   82.457">  5  6 -1 -1</clus>
<clus scale="   85.599">  2  5  1 -1</clus>
<clus scale="   91.637">  7  8 -1 -1</clus>
<clus scale="   27.581">  2  5  1 -1</clus>
</clustering>
</event>
<event>
 9    1  0.6675710E-005  0.1212195E+03  0.7546771E-02  0.1244924E+00
         21   -1    0    0  501  502  0.00000000000E+00  0.00000000000E+00  0.17948404582E+03  0.17948404582E+03  0.00000000000E+00 0. -1.
         -2   -1    0    0    0  501 -0.00000000000E+00 -0.00000000000E+00 -0.19401393327E+03  0.19401393327E+03  0.00000000000E+00 0.  1.
         23    2    1    2    0    0 -0.69188072152E+02 -0.10748680915E+02 -0.10460861210E+03  0.15620990487E+03  0.92498914514E+02 0.  0.
        -24    2    1    2    0    0  0.97080680962E+02  0.52450489227E+02  0.31325258271E+02  0.14002871715E+03  0.80318474750E+02 0.  0.
         11    1    4    4    0    0  0.10631570516E+03  0.47645179368E+02  0.43183300979E+02  0.12424930488E+03  0.00000000000E+00 0. -1.
        -12    1    4    4    0    0 -0.92350241981E+01  0.48053098588E+01 -0.11858042707E+02  0.15779412271E+02  0.00000000000E+00 0.  1.
        -11    1    3    3    0    0 -0.88610126307E+02 -0.23413506981E+02 -0.73914693045E+02  0.11774263731E+03  0.00000000000E+00 0.  1.
         11    1    3    3    0    0  0.19422054155E+02  0.12664826066E+02 -0.30693919053E+02  0.38467267562E+02  0.00000000000E+00 0. -1.
         -1    1    1    2    0  502 -0.27892608809E+02 -0.41701808312E+02  0.58753466373E+02  0.77259357061E+02  0.00000000000E+00 0.  1.
<scales pt_clust_5="13000.00000" pt_clust_6="13000.00000" pt_clust_7="13000.00000" pt_clust_8="13000.00000" pt_clust_9="50.17010"></scales>
<clustering>
<clus scale="   50.170">  1  9  2 -1</clus>
<clus scale="   80.318">  5  6 -1 -1</clus>
<clus scale="   92.499">  7  8 -1 -1</clus>
<clus scale="  112.202">  1  5  2 -1</clus>
<clus scale="   50.170">  1  5  2 -1</clus>
</clustering>
</event>
<event>
 9    1  0.6675710E-005  0.1626427E+03  0.7546771E-02  0.1205786E+00
          3   -1    0    0  502    0 -0.00000000000E+00  0.00000000000E+00  0.30179063356E+03  0.30179063356E+03  0.00000000000E+00 0. -1.
         21   -1    0    0  501  502  0.00000000000E+00 -0.00000000000E+00 -0.20693592398E+03  0.20693592398E+03  0.00000000000E+00 0. -1.
        -24    2    1    2    0    0  0.67189083656E+02  0.55175931627E+01 -0.28098452324E+00  0.10490951394E+03  0.80381032381E+02 0.  0.
         23    2    1    2    0    0  0.38204143116E+02  0.12272396790E+03 -0.67320932540E+02  0.17155472255E+03  0.91532431528E+02 0.  0.
         13    1    3    3    0    0  0.38090845757E+02 -0.34878202052E+02  0.13248466469E+02  0.53319071379E+02  0.00000000000E+00 0. -1.
        -14    1    3    3    0    0  0.29098237898E+02  0.40395795215E+02 -0.13529450992E+02  0.51590442564E+02  0.00000000000E+00 0.  1.
        -11    1    4    4    0    0  0.57130247080E+02  0.32984015097E+02 -0.24989240037E+02  0.70542699842E+02  0.00000000000E+00 0.  1.
         11    1    4    4    0    0 -0.18926103964E+02  0.89739952808E+02 -0.42331692503E+02  0.10101202271E+03  0.00000000000E+00 0. -1.
          4    1    1    2  501    0 -0.10539322677E+03 -0.12824156107E+03  0.16245662665E+03  0.23226232104E+03  0.00000000000E+00 0. -1.
<scales pt_clust_5="13000.00000" pt_clust_6="13000.00000" pt_clust_7="13000.00000" pt_clust_8="13000.00000" pt_clust_9="134.44137"></scales>
<clustering>
<clus scale="   80.381">  5  6 -1 -1</clus>
<clus scale="   91.532">  7  8 -1 -1</clus>
<clus scale="  104.909">  1  5  2 -1</clus>
<clus scale="  134.441">  2  9  1 -1</clus>
<clus scale="  134.441">  2  5  1 -1</clus>
</clustering>
</event>
<event>
 9    1  0.6675710E-005  0.9583285E+02  0.7546771E-02  0.1290821E+00
         21   -1    0    0  501  502  0.00000000000E+00  0.00000000000E+00  0.15593503975E+02  0.15593503975E+02  0.00000000000E+00 0. -1.
          1   -1    0    0  502    0 -0.00000000000E+00 -0.00000000000E+00 -0.10035456457E+04  0.10035456457E+04  0.00000000000E+00 0. -1.
        -24    2    1    2    0    0 -0.52105985214E+02 -0.11238370395E+02 -0.46279966005E+03  0.47374236564E+03  0.86063749591E+02 0.  0.
         23    2    1    2    0    0  0.29071333978E+01  0.30845397210E+02 -0.34376447084E+03  0.35643495457E+03  0.88949285975E+02 0.  0.
         13    1    3    3    0    0 -0.76247076988E+02 -0.99180905389E+01 -0.36331157056E+03  0.37135869798E+03  0.00000000000E+00 0. -1.
        -14    1    3    3    0    0  0.24141091774E+02 -0.13202798565E+01 -0.99488089499E+02  0.10238366766E+03  0.00000000000E+00 0.  1.
        -13    1    4    4    0    0 -0.39038428363E+02  0.77133188338E+01 -0.93309447330E+02  0.10144036247E+03  0.00000000000E+00 0. -1.
         13    1    4    4    0    0  0.41945561761E+02  0.23132078376E+02 -0.25045502351E+03  0.25499459211E+03  0.00000000000E+00 0.  1.
          2    1    1    2  501    0  0.49198851816E+02 -0.19607026814E+02 -0.18138801085E+03  0.18896182948E+03  0.00000000000E+00 0. -1.
<scales pt_clust_5="13000.00000" pt_clust_6="13000.00000" pt_clust_7="13000.00000" pt_clust_8="13000.00000" pt_clust_9="52.96190"></scales>
<clustering>
<clus scale="   52.962">  1  9  2 -1</clus>
<clus scale="   86.064">  5  6 -1 -1</clus>
<clus scale="   88.949">  7  8 -1 -1</clus>
<clus scale="   93.161">  2  5  1 -1</clus>
<clus scale="   52.962">  1  5  2 -1</clus>
</clustering>
</event>
<event>
 9    1  0.6675710E-005  0.1138578E+03  0.7546771E-02  0.1266150E+00
         -2   -1    0    0    0  501 -0.00000000000E+00  0.00000000000E+00  0.62656905911E+02  0.62656905911E+02  0.00000000000E+00 0.  1.
         21   -1    0    0  501  502  0.00000000000E+00 -0.00000000000E+00 -0.27805411109E+03  0.27805411109E+03  0.00000000000E+00 0. -1.
         23    2    1    2    0    0  0.11784040736E+02  0.32235823281E+02 -0.35926958689E+02  0.12058077881E+03  0.10986794773E+03 0.  0.
        -24    2    1    2    0    0 -0.31717211611E+02 -0.77013778365E+01 -0.99310805707E+02  0.13396292269E+03  0.83774314630E+02 0.  0.
         13    1    4    4    0    0 -0.48370399386E+02  0.21326739395E+02 -0.78211430128E+02  0.94401023049E+02  0.00000000000E+00 0. -1.
        -14    1    4    4    0    0  0.16653187776E+02 -0.29028117232E+02 -0.21099375579E+02  0.39561899638E+02  0.00000000000E+00 0.  1.
        -11    1    3    3    0    0 -0.21294812826E+02  0.44798204567E+02  0.20748508802E+02  0.53766614207E+02  0.00000000000E+00 0.  1.
         11    1    3    3    0    0  0.33078853562E+02 -0.12562381286E+02 -0.56675467491E+02  0.66814164605E+02  0.00000000000E+00 0. -1.
         -1    1    1    2    0  502  0.19933170875E+02 -0.24534445444E+02 -0.80159440787E+02  0.86167315507E+02  0.00000000000E+00 0.  1.
<scales pt_clust_5="13000.00000" pt_clust_6="13000.00000" pt_clust_7="13000.00000" pt_clust_8="13000.00000" pt_clust_9="31.61124"></scales>
<clustering>
<clus scale="   31.611">  2  9  1 -1</clus>
<clus scale="   83.774">  5  6 -1 -1</clus>
<clus scale="   88.942">  2  5  1 -1</clus>
<clus scale="  109.868">  7  8 -1 -1</clus>
<clus scale="   31.611">  2  5  1 -1</clus>
</clustering>
</event>
<event>
 9    1  0.6675710E-005  0.1035692E+03  0.7546771E-02  0.1277427E+00
         -2   -1    0    0    0  501 -0.00000000000E+00  0.00000000000E+00  0.17640255288E+03  0.17640255288E+03  0.00000000000E+00 0.  1.
         21   -1    0    0  501  502  0.00000000000E+00 -0.00000000000E+00 -0.28583747107E+03  0.28583747107E+03  0.00000000000E+00 0.  1.
         23    2    1    2    0    0  0.48210091554E+02  0.17233327131E+02  0.13808723454E+03  0.17298002891E+03  0.90734809013E+02 0.  0.
        -24    2    1    2    0    0 -0.49675154378E+02  0.28600178213E+02 -0.13294630543E+03  0.16584815846E+03  0.80903030742E+02 0.  0.
         11    1    4    4    0    0 -0.54409413294E+02 -0.13908985631E+02 -0.80895976922E+02  0.98478440374E+02  0.00000000000E+00 0. -1.
        -12    1    4    4    0    0  0.47342589161E+01  0.42509163844E+02 -0.52050328503E+02  0.67369718090E+02  0.00000000000E+00 0.  1.
        -13    1    3    3    0    0 -0.11040729785E+02 -0.27582226125E+02  0.34931195539E+02  0.45857009650E+02  0.00000000000E+00 0. -1.
         13    1    3    3    0    0  0.59250821339E+02  0.44815553257E+02  0.10315603900E+03  0.12712301926E+03  0.00000000000E+00 0.  1.
         -1    1    1    2    0  502  0.14650628240E+01 -0.45833505344E+02 -0.11457584731E+03  0.12341183658E+03  0.00000000000E+00 0.  1.
<scales pt_clust_5="13000.00000" pt_clust_6="13000.00000" pt_clust_7="13000.00000" pt_clust_8="13000.00000" pt_clust_9="45.85691"></scales>
<clustering>
<clus scale="   45.857">  2  9  1 -1</clus>
<clus scale="   80.903">  5  6 -1 -1</clus>
<clus scale="   90.735">  7  8 -1 -1</clus>
<clus scale="   95.074">  2  5  1 -1</clus>
<clus scale="   45.857">  2  5  1 -1</clus>
</clustering>
</event>
<event>
 9    1  0.6675710E-005  0.1448050E+03  0.7546771E-02  0.1209005E+00
          1   -1    0    0  502    0 -0.00000000000E+00  0.00000000000E+00  0.74870445523E+02  0.74870445523E+02  0.00000000000E+00 0. -1.
         21   -1    0    0  501  502  0.00000000000E+00 -0.00000000000E+00 -0.34753064248E+03  0.34753064248E+03  0.00000000000E+00 0.  1.
        -24    2    1    2    0    0  0.10936205397E+03  0.48581651342E+02 -0.82960168539E+02  0.16670824625E+03  0.81172742401E+02 0.  0.
         23    2    1    2    0    0 -0.81156582661E+02 -0.64978006219E+02 -0.16113695296E+03  0.21233112656E+03  0.91163904573E+02 0.  0.
         13    1    3    3    0    0  0.19024479334E+02  0.28170097053E+02  0.10054308571E+02  0.35448191812E+02  0.00000000000E+00 0. -1.
        -14    1    3    3    0    0  0.90337574631E+02  0.20411554289E+02 -0.93014477110E+02  0.13126005444E+03  0.00000000000E+00 0.  1.
        -11    1    4    4    0    0 -0.67647403044E+02 -0.45693694726E+02 -0.43773971483E+02  0.92629614356E+02  0.00000000000E+00 0. -1.
         11    1    4    4    0    0 -0.13509179616E+02 -0.19284311493E+02 -0.11736298147E+03  0.11970151221E+03  0.00000000000E+00 0.  1.
          2    1    1    2  501    0 -0.28205471305E+02  0.16396354877E+02 -0.28563075465E+02  0.43361715197E+02  0.00000000000E+00 0. -1.
<scales pt_clust_5="13000.00000" pt_clust_6="13000.00000" pt_clust_7="13000.00000" pt_clust_8="13000.00000" pt_clust_9="32.62498"></scales>
<clustering>
<clus scale="   32.625">  2  9  1 -1</clus>
<clus scale="   81.173">  5  6 -1 -1</clus>
<clus scale="   91.164">  7  8 -1 -1</clus>
<clus scale="  138.732">  1  5  2 -1</clus>
<clus scale="   32.625">  2  5  1 -1</clus>
</clustering>
</event>
<event>
 9    1  0.6675710E-005  0.1621447E+03  0.7546771E-02  0.1218127E+00
         21   -1    0    0  501  502  0.00000000000E+00  0.00000000000E+00  0.53688991632E+03  0.53688991632E+03  0.00000000000E+00 0.  1.
          1   -1    0    0  502    0 -0.00000000000E+00 -0.00000000000E+00 -0.12555430904E+03  0.12555430904E+03  0.00000000000E+00 0. -1.
        -24    2    1    2    0    0  0.45778812704E+02 -0.65073090092E+01  0.94463898995E-01  0.81420474318E+02  0.67016713972E+02 0.  0.
         23    2    1    2    0    0  0.12315275510E+03 -0.21714779668E+02  0.37510184624E+03  0.40597972889E+03  0.92086983183E+02 0.  0.
         13    1    3    3    0    0  0.31187672094E+00 -0.29877890074E+02  0.40179320066E+01  0.30148455350E+02  0.00000000000E+00 0. -1.
        -14    1    3    3    0    0  0.45466935983E+02  0.23370581065E+02 -0.39234681076E+01  0.51272018968E+02  0.00000000000E+00 0.  1.
        -13    1    4    4    0    0  0.93427684712E+02 -0.40749725297E+02  0.17280143343E+03  0.20062304897E+03  0.00000000000E+00 0.  1.
         13    1    4    4    0    0  0.29725070391E+02  0.19034945629E+02  0.20230041281E+03  0.20535667992E+03  0.00000000000E+00 0. -1.
          2    1    1    2  501    0 -0.16893156781E+03  0.28222088677E+02  0.36139297141E+02  0.17504402215E+03  0.00000000000E+00 0. -1.
<scales pt_clust_5="13000.00000" pt_clust_6="13000.00000" pt_clust_7="13000.00000" pt_clust_8="13000.00000" pt_clust_9="133.45757"></scales>
<clustering>
<clus scale="   67.017">  5  6 -1 -1</clus>
<clus scale="   81.420">  2  5  1 -1</clus>
<clus scale="   92.087">  7  8 -1 -1</clus>
<clus scale="  133.458">  1  9  2 -1</clus>
<clus scale="  133.458">  1  5  2 -1</clus>
</clustering>
</event>
<event>
 9    1  0.6675710E-005  0.1936565E+03  0.7546771E-02  0.1181601E+00
         21   -1    0    0  501  502  0.00000000000E+00  0.00000000000E+00  0.40031184022E+03  0.40031184022E+03  0.00000000000E+00 0. -1.
          1   -1    0    0  502    0 -0.00000000000E+00 -0.00000000000E+00 -0.39037320313E+03  0.39037320313E+03  0.00000000000E+00 0. -1.
        -24    2    1    2    0    0  0.26497316767E+02  0.63686795086E+02 -0.25103974042E+03  0.27238173769E+03  0.80079610969E+02 0.  0.
         23    2    1    2    0    0  0.12008156168E+03 -0.13009114502E+03  0.29295249878E+03  0.35423853270E+03  0.91216687277E+02 0.  0.
         11    1    3    3    0    0  0.45399053294E+01  0.75957436024E+02 -0.14922542781E+03  0.16750633162E+03  0.00000000000E+00 0. -1.
        -12    1    3    3    0    0  0.21957411438E+02 -0.12270640938E+02 -0.10181431262E+03  0.10487540608E+03  0.00000000000E+00 0.  1.
        -13    1    4    4    0    0  0.16897813031E+02 -0.58459093009E+02  0.43040800092E+02  0.74535307829E+02  0.00000000000E+00 0.  1.
         13    1    4    4    0    0  0.10318374865E+03 -0.71632052015E+02  0.24991169869E+03  0.27970322487E+03  0.00000000000E+00 0. -1.
          2    1    1    2  501    0 -0.14657887844E+03  0.66404349938E+02 -0.31974121272E+02  0.16406477296E+03  0.00000000000E+00 0. -1.
<scales pt_clust_5="13000.00000" pt_clust_6="13000.00000" pt_clust_7="13000.00000" pt_clust_8="13000.00000" pt_clust_9="170.82848"></scales>
<clustering>
<clus scale="   80.080">  5  6 -1 -1</clus>
<clus scale="   91.217">  7  8 -1 -1</clus>
<clus scale="  105.692">  2  5  1 -1</clus>
<clus scale="  170.828">  1  9  2 -1</clus>
<clus scale="  170.828">  1  5  2 -1</clus>
</clustering>
</event>
<event>
 9    1  0.6675710E-005  0.1381040E+03  0.7546771E-02  0.1236772E+00
         21   -1    0    0  501  502  0.00000000000E+00  0.00000000000E+00  0.43003956843E+03  0.43003956843E+03  0.00000000000E+00 0.  1.
         -2   -1    0    0    0  501 -0.00000000000E+00 -0.00000000000E+00 -0.12202297174E+03  0.12202297174E+03  0.00000000000E+00 0.  1.
         23    2    1    2    0    0  0.86129383082E+01 -0.31580240789E+01  0.16556245636E+03  0.18821288974E+03  0.89044983502E+02 0.  0.
        -24    2    1    2    0    0 -0.72868842387E+02  0.87085624831E+02  0.19978694388E+03  0.24360110059E+03  0.80826351006E+02 0.  0.
         11    1    4    4    0    0 -0.24337798000E+02 -0.68066096097E+01  0.11692820981E+02  0.27845653312E+02  0.00000000000E+00 0. -1.
        -12    1    4    4    0    0 -0.48531044387E+02  0.93892234441E+02  0.18809412290E+03  0.21575544727E+03  0.00000000000E+00 0.  1.
        -11    1    3    3    0    0 -0.34700601669E+02  0.18205189528E+02  0.54702441026E+02  0.67289804102E+02  0.00000000000E+00 0.  1.
         11    1    3    3    0    0  0.43313539977E+02 -0.21363213607E+02  0.11086001533E+03  0.12092308564E+03  0.00000000000E+00 0. -1.
         -1    1    1    2    0  502  0.64255904079E+02 -0.83927600752E+02 -0.57332803553E+02  0.12024854985E+03  0.00000000000E+00 0.  1.
<scales pt_clust_5="13000.00000" pt_clust_6="13000.00000" pt_clust_7="13000.00000" pt_clust_8="13000.00000" pt_clust_9="111.98134"></scales>
<clustering>
<clus scale="   80.826">  5  6 -1 -1</clus>
<clus scale="   89.045">  7  8 -1 -1</clus>
<clus scale="   89.516">  2  7  1 -1</clus>
<clus scale="  111.981">  1  9  2 -1</clus>
<clus scale="  111.981">  1  5  2 -1</clus>
</clustering>
</event>
<event>
 9    1  0.6675710E-005  0.1139040E+03  0.7546771E-02  0.1257228E+00
         21   -1    0    0  501  502  0.00000000000E+00  0.00000000000E+00  0.12043457893E+03  0.12043457893E+03  0.00000000000E+00 0. -1.
          1   -1    0    0  502    0 -0.00000000000E+00 -0.00000000000E+00 -0.25145304937E+03  0.25145304937E+03  0.00000000000E+00 0. -1.
        -24    2    1    2    0    0  0.73046523146E+02  0.15597937257E+02 -0.54091097232E+02  0.12272555747E+03  0.80972992196E+02 0.  0.
         23    2    1    2    0    0 -0.53029106021E+02  0.16347727578E+01  0.51898823983E+02  0.11765597833E+03  0.91294483616E+02 0.  0.
         13    1    3    3    0    0  0.80767694908E+02 -0.90431743002E+01 -0.52704842845E+02  0.96865886676E+02  0.00000000000E+00 0. -1.
        -14    1    3    3    0    0 -0.77211717619E+01  0.24641111557E+02 -0.13862543863E+01  0.25859670790E+02  0.00000000000E+00 0.  1.
        -11    1    4    4    0    0 -0.72425410208E+02 -0.19127959855E+02  0.26239692728E+02  0.79371533729E+02  0.00000000000E+00 0. -1.
         11    1    4    4    0    0  0.19396304188E+02  0.20762732613E+02  0.25659131255E+02  0.38284444602E+02  0.00000000000E+00 0.  1.
          2    1    1    2  501    0 -0.20017417125E+02 -0.17232710014E+02 -0.12882619719E+03  0.13150609250E+03  0.00000000000E+00 0. -1.
<scales pt_clust_5="13000.00000" pt_clust_6="13000.00000" pt_clust_7="13000.00000" pt_clust_8="13000.00000" pt_clust_9="26.41333"></scales>
<clustering>
<clus scale="   26.413">  1  9  2 -1</clus>
<clus scale="   80.973">  5  6 -1 -1</clus>
<clus scale="   91.294">  7  8 -1 -1</clus>
<clus scale="  105.811">  2  5  1 -1</clus>
<clus scale="   26.413">  1  5  2 -1</clus>
</clustering>
</event>
<event>
 9    1  0.6675710E-005  0.1248444E+03  0.7546771E-02  0.1254330E+00
         21   -1    0    0  501  502  0.00000000000E+00  0.00000000000E+00  0.95192193774E+02  0.95192193774E+02  0.00000000000E+00 0. -1.
          1   -1    0    0  502    0 -0.00000000000E+00 -0.00000000000E+00 -0.32077650759E+03  0.32077650759E+03  0.00000000000E+00 0. -1.
        -24    2    1    2    0    0  0.53064240182E+01 -0.27497618952E+02 -0.15605996952E+03  0.17775651432E+03  0.80364090955E+02 0.  0.
         23    2    1    2    0    0 -0.67992052188E+02 -0.38625014942E+02  0.23314623546E+01  0.12217362603E+03  0.93841079704E+02 0.  0.
         11    1    3    3    0    0 -0.33776358280E+02 -0.27810359640E+02 -0.61846814655E+02  0.75758081846E+02  0.00000000000E+00 0. -1.
        -12    1    3    3    0    0  0.39082782298E+02  0.31274068824E+00 -0.94213154862E+02  0.10199843248E+03  0.00000000000E+00 0.  1.
        -11    1    4    4    0    0 -0.10582418380E+02 -0.41676150276E+02 -0.33432446239E+02  0.54466664504E+02  0.00000000000E+00 0.  1.
         11    1    4    4    0    0 -0.57409633809E+02  0.30511353343E+01  0.35763908594E+02  0.67706961524E+02  0.00000000000E+00 0. -1.
          2    1    1    2  501    0  0.62685628170E+02  0.66122633894E+02 -0.71855806656E+02  0.11603856101E+03  0.00000000000E+00 0. -1.
<scales pt_clust_5="13000.00000" pt_clust_6="13000.00000" pt_clust_7="13000.00000" pt_clust_8="13000.00000" pt_clust_9="82.34061"></scales>
<clustering>
<clus scale="   80.364">  5  6 -1 -1</clus>
<clus scale="   85.104">  2  5  1 -1</clus>
<clus scale="   82.341">  1  9  2 -1</clus>
<clus scale="   93.841">  7  8 -1 -1</clus>
<clus scale="   82.341">  1  5  2 -1</clus>
</clustering>
</event>
<event>
 9    1  0.6675710E-005  0.1023341E+03  0.7546771E-02  0.1280664E+00
          1   -1    0    0  502    0 -0.00000000000E+00  0.00000000000E+00  0.36237185922E+03  0.36237185922E+03  0.00000000000E+00 0. -1.
         21   -1    0    0  501  502  0.00000000000E+00 -0.00000000000E+00 -0.89742749355E+02  0.89742749355E+02  0.00000000000E+00 0. -1.
        -24    2    1    2    0    0  0.35827982996E+02 -0.60437979184E+02  0.20290646106E+03  0.22910987088E+03  0.79899357335E+02 0.  0.
         23    2    1    2    0    0 -0.37748214087E+02 -0.35951572450E+02  0.70972865746E+02  0.12658795495E+03  0.90939097411E+02 0.  0.
         13    1    3    3    0    0 -0.74019092072E+01 -0.59426740819E+02  0.89004329783E+02  0.10727579645E+03  0.00000000000E+00 0. -1.
        -14    1    3    3    0    0  0.43229892203E+02 -0.10112383647E+01  0.11390213128E+03  0.12183407443E+03  0.00000000000E+00 0.  1.
        -11    1    4    4    0    0  0.73224464917E+01 -0.42274189565E+02  0.75457524028E+00  0.42910310064E+02  0.00000000000E+00 0. -1.
         11    1    4    4    0    0 -0.45070660579E+02  0.63226171147E+01  0.70218290505E+02  0.83677644886E+02  0.00000000000E+00 0.  1.
          2    1    1    2  501    0  0.19202310918E+01  0.96389551634E+02 -0.12502169422E+01  0.96416782740E+02  0.00000000000E+00 0. -1.
<scales pt_clust_5="13000.00000" pt_clust_6="13000.00000" pt_clust_7="13000.00000" pt_clust_8="13000.00000" pt_clust_9="96.40868"></scales>
<clustering>
<clus scale="   79.899">  5  6 -1 -1</clus>
<clus scale="   90.939">  7  8 -1 -1</clus>
<clus scale="   96.409">  2  9  1 -1</clus>
<clus scale="   92.662">  1  5  2 -1</clus>
<clus scale="   96.409">  2  5  1 -1</clus>
</clustering>
</event>
<event>
 9    1  0.6675710E-005  0.1126317E+03  0.7546771E-02  0.1260213E+00
         -2   -1    0    0    0  501 -0.00000000000E+00  0.00000000000E+00  0.23228656823E+03  0.23228656823E+03  0.00000000000E+00 0.  1.
         21   -1    0    0  501  502  0.00000000000E+00 -0.00000000000E+00 -0.64377740134E+02  0.64377740134E+02  0.00000000000E+00 0. -1.
         23    2    1    2    0    0  0.13690393892E+02 -0.58639349642E+02  0.77867326405E+02  0.13444747929E+03  0.91579495270E+02 0.  0.
        -24    2    1    2    0    0  0.59580234518E+01  0.73012425613E+02  0.60715924278E+02  0.12410337859E+03  0.79680065138E+02 0.  0.
         11    1    4    4    0    0  0.31297774857E+02  0.19061777647E+02 -0.31051516274E+01  0.36776949910E+02  0.00000000000E+00 0. -1.
        -12    1    4    4    0    0 -0.25339751405E+02  0.53950647965E+02  0.63821075905E+02  0.87326428685E+02  0.00000000000E+00 0.  1.
        -13    1    3    3    0    0 -0.27916009581E+02 -0.31384277923E+02 -0.55643945036E-01  0.42003328296E+02  0.00000000000E+00 0. -1.
         13    1    3    3    0    0  0.41606403473E+02 -0.27255071719E+02  0.77922970350E+02  0.92444150992E+02  0.00000000000E+00 0.  1.
         -1    1    1    2    0  502 -0.19648417343E+02 -0.14373075971E+02  0.29325577411E+02  0.38113450480E+02  0.00000000000E+00 0.  1.
<scales pt_clust_5="13000.00000" pt_clust_6="13000.00000" pt_clust_7="13000.00000" pt_clust_8="13000.00000" pt_clust_9="24.34433"></scales>
<clustering>
<clus scale="   24.344">  2  9  1 -1</clus>
<clus scale="   79.680">  5  6 -1 -1</clus>
<clus scale="   91.579">  7  8 -1 -1</clus>
<clus scale="  103.189">  2  5  1 -1</clus>
<clus scale="   24.344">  2  5  1 -1</clus>
</clustering>
</event>
<event>
 9    1  0.6675710E-005  0.2351337E+03  0.7546771E-02  0.1164462E+00
         21   -1    0    0  501  502  0.00000000000E+00  0.00000000000E+00  0.84832326998E+03  0.84832326998E+03  0.00000000000E+00 0. -1.
          3   -1    0    0  502    0 -0.00000000000E+00 -0.00000000000E+00 -0.16343843065E+03  0.16343843065E+03  0.00000000000E+00 0. -1.
        -24    2    1    2    0    0 -0.26370333087E+02  0.29067593162E+02  0.94334902419E+01  0.87716644825E+02  0.77877465302E+02 0.  0.
         23    2    1    2    0    0  0.20607846185E+02  0.21066257960E+03  0.64147093892E+03  0.68185003054E+03  0.92903675431E+02 0.  0.
         11    1    3    3    0    0 -0.38034128813E+02  0.41885335192E+02 -0.14274253680E+02  0.58350069210E+02  0.00000000000E+00 0. -1.
        -12    1    3    3    0    0  0.11663795726E+02 -0.12817742030E+02  0.23707743922E+02  0.29366575615E+02  0.00000000000E+00 0.  1.
        -13    1    4    4    0    0 -0.35377479889E+02  0.11451573162E+03  0.33932125561E+03  0.35986710516E+03  0.00000000000E+00 0.  1.
         13    1    4    4    0    0  0.55985326073E+02  0.96146847979E+02  0.30214968331E+03  0.32198292538E+03  0.00000000000E+00 0. -1.
          4    1    1    2  501    0  0.57624869023E+01 -0.23973017276E+03  0.33980410171E+02  0.24219502526E+03  0.00000000000E+00 0. -1.
<scales pt_clust_5="13000.00000" pt_clust_6="13000.00000" pt_clust_7="13000.00000" pt_clust_8="13000.00000" pt_clust_9="216.00189"></scales>
<clustering>
<clus scale="   77.877">  5  6 -1 -1</clus>
<clus scale="   87.208">  2  5  1 -1</clus>
<clus scale="   92.904">  7  8 -1 -1</clus>
<clus scale="  216.002">  1  9  2 -1</clus>
<clus scale="  216.002">  1  5  2 -1</clus>
</clustering>
</event>
<event>
 9    1  0.6675710E-005  0.1487930E+03  0.7546771E-02  0.1215500E+00
         21   -1    0    0  501  502  0.00000000000E+00  0.00000000000E+00  0.56421184782E+02  0.56421184782E+02  0.00000000000E+00 0. -1.
          1   -1    0    0  502    0 -0.00000000000E+00 -0.00000000000E+00 -0.81745917370E+03  0.81745917370E+03  0.00000000000E+00 0. -1.
        -24    2    1    2    0    0 -0.46743156527E+02  0.61497712051E+02 -0.27990744099E+03  0.30125055380E+03  0.80229853388E+02 0.  0.
         23    2    1    2    0    0 -0.90044642355E+02  0.28633171081E+02 -0.13634531328E+03  0.19090826213E+03  0.94488221450E+02 0.  0.
         13    1    3    3    0    0  0.14027757318E+02  0.45920897730E+02 -0.13730191385E+03  0.14545556837E+03  0.00000000000E+00 0. -1.
        -14    1    3    3    0    0 -0.60770913845E+02  0.15576814321E+02 -0.14260552714E+03  0.15579498543E+03  0.00000000000E+00 0.  1.
        -11    1    4    4    0    0 -0.71523703408E+02 -0.71874039162E+01 -0.13205880443E+03  0.15035566750E+03  0.00000000000E+00 0. -1.
         11    1    4    4    0    0 -0.18520938947E+02  0.35820574997E+02 -0.42865088527E+01  0.40552594624E+02  0.00000000000E+00 0.  1.
          2    1    1    2  501    0  0.13678779888E+03 -0.90130883132E+02 -0.34478523466E+03  0.38172154256E+03  0.00000000000E+00 0. -1.
<scales pt_clust_5="13000.00000" pt_clust_6="13000.00000" pt_clust_7="13000.00000" pt_clust_8="13000.00000" pt_clust_9="114.94067"></scales>
<clustering>
<clus scale="   80.230">  5  6 -1 -1</clus>
<clus scale="   94.488">  7  8 -1 -1</clus>
<clus scale="  111.372">  2  5  1 -1</clus>
<clus scale="  114.941">  1  9  2 -1</clus>
<clus scale="  114.941">  1  5  2 -1</clus>
</clustering>
</event>
<event>
 9    1  0.6675710E-005  0.9472766E+02  0.7546771E-02  0.1296694E+00
         -2   -1    0    0    0  501 -0.00000000000E+00  0.00000000000E+00  0.39490209805E+03  0.39490209805E+03  0.00000000000E+00 0.  1.
         21   -1    0    0  501  502  0.00000000000E+00 -0.00000000000E+00 -0.59598338769E+02  0.59598338769E+02  0.00000000000E+00 0. -1.
        -24    2    1    2    0    0 -0.10307945562E+02 -0.26824905520E+02  0.20129126013E+03  0.21856715957E+03  0.80172330263E+02 0.  0.
         23    2    1    2    0    0  0.32627442646E+02  0.44031056410E+02  0.58381344270E+01  0.10469730904E+03  0.89017744104E+02 0.  0.
         13    1    3    3    0    0 -0.30352945541E+02  0.13264191803E+02  0.13161672047E+03  0.13572104182E+03  0.00000000000E+00 0. -1.
        -14    1    3    3    0    0  0.20044999979E+02 -0.40089097323E+02  0.69674539660E+02  0.82846117743E+02  0.00000000000E+00 0.  1.
        -13    1    4    4    0    0 -0.10329369314E+02  0.22284809775E+02  0.39102036007E+02  0.46176594039E+02  0.00000000000E+00 0.  1.
         13    1    4    4    0    0  0.42956811960E+02  0.21746246634E+02 -0.33263901580E+02  0.58520715005E+02  0.00000000000E+00 0. -1.
         -1    1    1    2    0  502 -0.22319497083E+02 -0.17206150889E+02  0.12817436473E+03  0.13123596821E+03  0.00000000000E+00 0.  1.
<scales pt_clust_5="13000.00000" pt_clust_6="13000.00000" pt_clust_7="13000.00000" pt_clust_8="13000.00000" pt_clust_9="28.18177"></scales>
<clustering>
<clus scale="   28.182">  2  9  1 -1</clus>
<clus scale="   80.172">  5  6 -1 -1</clus>
<clus scale="   86.468">  1  5  2 -1</clus>
<clus scale="   89.018">  7  8 -1 -1</clus>
<clus scale="   28.182">  2  5  1 -1</clus>
</clustering>
</event>
<event>
 9    1  0.6675710E-005  0.1267166E+03  0.7546771E-02  0.1235219E+00
          1   -1    0    0  502    0 -0.00000000000E+00  0.00000000000E+00  0.36529533662E+03  0.36529533662E+03  0.00000000000E+00 0. -1.
         21   -1    0    0  501  502  0.00000000000E+00 -0.00000000000E+00 -0.10588300112E+03  0.10588300112E+03  0.00000000000E+00 0. -1.
        -24    2    1    2    0    0 -0.30094456887E+01 -0.81694407142E+02  0.26683958317E+03  0.29115686816E+03  0.82981478685E+02 0.  0.
         23    2    1    2    0    0  0.14600895693E+02  0.11047209552E+03  0.81248658328E+01  0.14531721486E+03  0.92918294467E+02 0.  0.
         13    1    3    3    0    0 -0.10829189260E+02 -0.86650400610E+02  0.26796128501E+03  0.28183117913E+03  0.00000000000E+00 0. -1.
        -14    1    3    3    0    0  0.78197435714E+01  0.49559934674E+01 -0.11217018378E+01  0.93256890247E+01  0.00000000000E+00 0.  1.
        -13    1    4    4    0    0  0.37482359084E+02  0.68512694861E+01  0.91851690464E+01  0.39194827037E+02  0.00000000000E+00 0. -1.
         13    1    4    4    0    0 -0.22881463391E+02  0.10362082603E+03 -0.10603032136E+01  0.10612238782E+03  0.00000000000E+00 0.  1.
          2    1    1    2  501    0 -0.11591450004E+02 -0.28777688375E+02 -0.15552113501E+02  0.34704254721E+02  0.00000000000E+00 0. -1.
<scales pt_clust_5="13000.00000" pt_clust_6="13000.00000" pt_clust_7="13000.00000" pt_clust_8="13000.00000" pt_clust_9="31.02446"></scales>
<clustering>
<clus scale="   31.024">  2  9  1 -1</clus>
<clus scale="   82.981">  5  6 -1 -1</clus>
<clus scale="   92.918">  7  8 -1 -1</clus>
<clus scale="  119.621">  1  5  2 -1</clus>
<clus scale="   31.024">  2  5  1 -1</clus>
</clustering>
</event>
<event>
 9    1  0.6675710E-005  0.9542461E+02  0.7546771E-02  0.1298016E+00
         -2   -1    0    0    0  501 -0.00000000000E+00  0.00000000000E+00  0.66662172638E+02  0.66662172638E+02  0.00000000000E+00 0.  1.
         21   -1    0    0  501  502  0.00000000000E+00 -0.00000000000E+00 -0.18577842379E+03  0.18577842379E+03  0.00000000000E+00 0.  1.
        -24    2    1    2    0    0 -0.14298948000E+02 -0.31479945250E+02 -0.41574629819E+02  0.94515526342E+02  0.77519597575E+02 0.  0.
         23    2    1    2    0    0  0.25279007232E+02  0.55805979517E+01 -0.86630711198E+02  0.12836243410E+03  0.91114560232E+02 0.  0.
         11    1    3    3    0    0 -0.21662627840E+02 -0.11565911627E+02 -0.60987966965E+02  0.65746268877E+02  0.00000000000E+00 0. -1.
        -12    1    3    3    0    0  0.73636798399E+01 -0.19914033623E+02  0.19413337146E+02  0.28769257465E+02  0.00000000000E+00 0.  1.
        -13    1    4    4    0    0  0.54727610355E+02 -0.46720683264E+01 -0.79071562995E+02  0.96276952757E+02  0.00000000000E+00 0.  1.
         13    1    4    4    0    0 -0.29448603123E+02  0.10252666278E+02 -0.75591482031E+01  0.32085481347E+02  0.00000000000E+00 0. -1.
         -1    1    1    2    0  502 -0.10980059232E+02  0.25899347299E+02  0.90890898700E+01  0.29562635977E+02  0.00000000000E+00 0.  1.
<scales pt_clust_5="13000.00000" pt_clust_6="13000.00000" pt_clust_7="13000.00000" pt_clust_8="13000.00000" pt_clust_9="28.13074"></scales>
<clustering>
<clus scale="   28.131">  2  9  1 -1</clus>
<clus scale="   77.520">  5  6 -1 -1</clus>
<clus scale="   82.543">  1  5  2 -1</clus>
<clus scale="   91.115">  7  8 -1 -1</clus>
<clus scale="   28.131">  2  5  1 -1</clus>
</clustering>
</event>
<event>
 9    1  0.6675710E-005  0.9691094E+02  0.7546771E-02  0.1292701E+00
         21   -1    0    0  501  502  0.00000000000E+00  0.00000000000E+00  0.15111308337E+02  0.15111308337E+02  0.00000000000E+00 0. -1.
          1   -1    0    0  502    0 -0.00000000000E+00 -0.00000000000E+00 -0.15160174678E+04  0.15160174678E+04  0.00000000000E+00 0. -1.
        -24    2    1    2    0    0  0.58731318526E+01  0.18738390201E+02 -0.57404320844E+03  0.58000017833E+03  0.80554210061E+02 0.  0.
         23    2    1    2    0    0 -0.72720136556E+02 -0.44514800282E+02 -0.38968649171E+03  0.40919548958E+03  0.91189918123E+02 0.  0.
         13    1    3    3    0    0  0.32395052704E+02 -0.16636452660E+02 -0.19349297010E+03  0.19689017364E+03  0.00000000000E+00 0. -1.
        -14    1    3    3    0    0 -0.26521920851E+02  0.35374842861E+02 -0.38055023834E+03  0.38311000469E+03  0.00000000000E+00 0.  1.
        -11    1    4    4    0    0 -0.46082959985E+02 -0.72596191863E+02 -0.27778682568E+03  0.29079093314E+03  0.00000000000E+00 0. -1.
         11    1    4    4    0    0 -0.26637176571E+02  0.28081391581E+02 -0.11189966603E+03  0.11840455644E+03  0.00000000000E+00 0.  1.
          2    1    1    2  501    0  0.66847004703E+02  0.25776410081E+02 -0.53717645936E+03  0.54193310827E+03  0.00000000000E+00 0. -1.
<scales pt_clust_5="13000.00000" pt_clust_6="13000.00000" pt_clust_7="13000.00000" pt_clust_8="13000.00000" pt_clust_9="71.64461"></scales>
<clustering>
<clus scale="   71.645">  1  9  2 -1</clus>
<clus scale="   80.554">  5  6 -1 -1</clus>
<clus scale="   86.978">  2  5  1 -1</clus>
<clus scale="   91.190">  7  8 -1 -1</clus>
<clus scale="   71.645">  1  5  2 -1</clus>
</clustering>
</event>
<event>
 9    1  0.6675710E-005  0.3221505E+03  0.7546771E-02  0.1090966E+00
          1   -1    0    0  502    0 -0.00000000000E+00  0.00000000000E+00  0.36189179128E+04  0.36189179128E+04  0.00000000000E+00 0. -1.
         21   -1    0    0  501  502  0.00000000000E+00 -0.00000000000E+00 -0.73607029240E+02  0.73607029240E+02  0.00000000000E+00 0. -1.
         23    2    1    2    0    0 -0.23972506935E+02 -0.18494101670E+03  0.38904364033E+03  0.44121816749E+03  0.92415672347E+02 0.  0.
        -24    2    1    2    0    0 -0.43386416903E+01  0.45528324556E+03  0.24751326461E+04  0.25179373033E+04  0.80156038054E+02 0.  0.
         11    1    4    4    0    0 -0.31484388363E+02  0.34797679556E+03  0.17679628036E+04  0.18021574825E+04  0.00000000000E+00 0. -1.
        -12    1    4    4    0    0  0.27145746673E+02  0.10730645001E+03  0.70716984250E+03  0.71577982084E+03  0.00000000000E+00 0.  1.
        -11    1    3    3    0    0  0.10199871570E+02 -0.97065405552E+02  0.11194307286E+03  0.14851593146E+03  0.00000000000E+00 0.  1.
         11    1    3    3    0    0 -0.34172378505E+02 -0.87875611148E+02  0.27710056747E+03  0.29270223603E+03  0.00000000000E+00 0. -1.
          2    1    1    2  501    0  0.28311148625E+02 -0.27034222886E+03  0.68113459713E+03  0.73336947118E+03  0.00000000000E+00 0. -1.
<scales pt_clust_5="13000.00000" pt_clust_6="13000.00000" pt_clust_7="13000.00000" pt_clust_8="13000.00000" pt_clust_9="312.01916"></scales>
<clustering>
<clus scale="   80.156">  5  6 -1 -1</clus>
<clus scale="   92.416">  7  8 -1 -1</clus>
<clus scale="  208.131">  1  7  2 -1</clus>
<clus scale="  312.019">  2  9  1 -1</clus>
<clus scale="  312.019">  2  5  1 -1</clus>
</clustering>
</event>
<event>
 9    1  0.7884027E-005  0.1043890E+03  0.7546771E-02  0.1275994E+00
          3   -1    0    0  502    0 -0.00000000000E+00  0.00000000000E+00  0.30218610675E+03  0.30218610675E+03  0.00000000000E+00 0. -1.
         21   -1    0    0  501  502  0.00000000000E+00 -0.00000000000E+00 -0.13014958489E+03  0.13014958489E+03  0.00000000000E+00 0.  1.
         23    2    1    2    0    0 -0.41282573812E+02 -0.24620128014E+02  0.22513121820E+03  0.24778810057E+03  0.91675927990E+02 0.  0.
        -24    2    1    2    0    0  0.57508360001E+02  0.11937625218E+02  0.25324559361E+02  0.10346922356E+03  0.81331596271E+02 0.  0.
         11    1    4    4    0    0  0.50684925748E+02 -0.29524007542E+00  0.52451244656E+02  0.72939577259E+02  0.00000000000E+00 0. -1.
        -12    1    4    4    0    0  0.68234342527E+01  0.12232865294E+02 -0.27126685295E+02  0.30529646303E+02  0.00000000000E+00 0.  1.
        -11    1    3    3    0    0 -0.68163155397E+02 -0.70258617255E+01  0.12396894858E+03  0.14164702149E+03  0.00000000000E+00 0. -1.
         11    1    3    3    0    0  0.26880581586E+02 -0.17594266288E+02  0.10116226962E+03  0.10614107907E+03  0.00000000000E+00 0.  1.
          4    1    1    2  501    0 -0.16225786189E+02  0.12682502795E+02 -0.78419255700E+02  0.81078367516E+02  0.00000000000E+00 0. -1.
<scales pt_clust_5="13000.00000" pt_clust_6="13000.00000" pt_clust_7="13000.00000" pt_clust_8="13000.00000" pt_clust_9="20.59422"></scales>
<clustering>
<clus scale="   20.594">  2  9  1 -1</clus>
<clus scale="   81.332">  5  6 -1 -1</clus>
<clus scale="   91.676">  7  8 -1 -1</clus>
<clus scale="   95.433">  2  5  1 -1</clus>
<clus scale="   20.594">  2  5  1 -1</clus>
</clustering>
</event>
<event>
 9    1  0.6675710E-005  0.1117742E+03  0.7546771E-02  0.1262175E+00
         -2   -1    0    0    0  501 -0.00000000000E+00  0.00000000000E+00  0.53908235347E+03  0.53908235347E+03  0.00000000000E+00 0.  1.
         21   -1    0    0  501  502  0.00000000000E+00 -0.00000000000E+00 -0.74128252679E+02  0.74128252679E+02  0.00000000000E+00 0. -1.
        -24    2    1    2    0    0 -0.56722639543E+02 -0.19305855047E+02  0.42159991150E+03  0.43337345334E+03  0.80472919707E+02 0.  0.
         23    2    1    2    0    0  0.61871043551E+02  0.46833793984E+02  0.71076160570E+02  0.14043155452E+03  0.92993390160E+02 0.  0.
         11    1    3    3    0    0  0.17619100899E+02  0.98250093430E+01  0.72109073815E+02  0.74877780760E+02  0.00000000000E+00 0. -1.
        -12    1    3    3    0    0 -0.74341740442E+02 -0.29130864390E+02  0.34949083768E+03  0.35849567258E+03  0.00000000000E+00 0.  1.
        -13    1    4    4    0    0  0.34282596366E+02  0.32085225045E+02  0.91657779624E+02  0.10298498262E+03  0.00000000000E+00 0.  1.
         13    1    4    4    0    0  0.27588447184E+02  0.14748568938E+02 -0.20581619054E+02  0.37446571895E+02  0.00000000000E+00 0. -1.
         -1    1    1    2    0  502 -0.51484040076E+01 -0.27527938937E+02 -0.27721971275E+02  0.39405598299E+02  0.00000000000E+00 0.  1.
<scales pt_clust_5="13000.00000" pt_clust_6="13000.00000" pt_clust_7="13000.00000" pt_clust_8="13000.00000" pt_clust_9="28.00524"></scales>
<clustering>
<clus scale="   28.005">  2  9  1 -1</clus>
<clus scale="   80.473">  5  6 -1 -1</clus>
<clus scale="   92.993">  7  8 -1 -1</clus>
<clus scale="  101.595">  1  5  2 -1</clus>
<clus scale="   28.005">  2  5  1 -1</clus>
</clustering>
</event>
<event>
 9    1  0.6675710E-005  0.2357888E+03  0.7546771E-02  0.1124129E+00
         21   -1    0    0  501  502  0.00000000000E+00  0.00000000000E+00  0.82020685137E+03  0.82020685137E+03  0.00000000000E+00 0.  1.
          1   -1    0    0  502    0 -0.00000000000E+00 -0.00000000000E+00 -0.22168270197E+03  0.22168270197E+03  0.00000000000E+00 0. -1.
         23    2    1    2    0    0 -0.44568432469E+02  0.21693567313E+03 -0.12301596348E+03  0.27286297913E+03  0.10135998550E+03 0.  0.
        -24    2    1    2    0    0  0.58110484320E+02 -0.15721655261E+03  0.38937144501E+03  0.43126070199E+03  0.79257795136E+02 0.  0.
         11    1    4    4    0    0  0.65334550890E+02 -0.62857696295E+02  0.18311701689E+03  0.20433192457E+03  0.00000000000E+00 0. -1.
        -12    1    4    4    0    0 -0.72240665701E+01 -0.94358856312E+02  0.20625442812E+03  0.22692877742E+03  0.00000000000E+00 0.  1.
        -11    1    3    3    0    0  0.32084806548E+02  0.71686452625E+02 -0.29686189169E+02  0.83962206549E+02  0.00000000000E+00 0.  1.
         11    1    3    3    0    0 -0.76653239017E+02  0.14524922050E+03 -0.93329774312E+02  0.18890077258E+03  0.00000000000E+00 0. -1.
          2    1    1    2  501    0 -0.13542051851E+02 -0.59719120521E+02  0.33216866787E+03  0.33776587222E+03  0.00000000000E+00 0. -1.
<scales pt_clust_5="13000.00000" pt_clust_6="13000.00000" pt_clust_7="13000.00000" pt_clust_8="13000.00000" pt_clust_9="61.23529"></scales>
<clustering>
<clus scale="   61.235">  1  9  2 -1</clus>
<clus scale="   79.258">  5  6 -1 -1</clus>
<clus scale="  101.360">  7  8 -1 -1</clus>
<clus scale="  227.166">  1  5  2 -1</clus>
<clus scale="   61.235">  1  5  2 -1</clus>
</clustering>
</event>
<event>
 9    1  0.6675710E-005  0.2094380E+03  0.7546771E-02  0.1142012E+00
         -2   -1    0    0    0  501 -0.00000000000E+00  0.00000000000E+00  0.36739915133E+03  0.36739915133E+03  0.00000000000E+00 0.  1.
         21   -1    0    0  501  502  0.00000000000E+00 -0.00000000000E+00 -0.88811644189E+02  0.88811644189E+02  0.00000000000E+00 0. -1.
        -24    2    1    2    0    0 -0.79108815490E+02  0.16726684044E+02  0.53367588787E+02  0.12442391612E+03  0.78071920195E+02 0.  0.
         23    2    1    2    0    0 -0.44666002879E+02  0.15946599098E+01  0.32330254775E+02  0.10186885135E+03  0.85641244430E+02 0.  0.
         11    1    3    3    0    0 -0.16374168030E+02  0.36556301559E+02  0.56186452807E+00  0.40059858389E+02  0.00000000000E+00 0. -1.
        -12    1    3    3    0    0 -0.62734647460E+02 -0.19829617516E+02  0.52805724258E+02  0.84364057733E+02  0.00000000000E+00 0.  1.
        -13    1    4    4    0    0  0.22709718816E+02  0.36610615543E+01  0.25145274305E+02  0.34079605636E+02  0.00000000000E+00 0.  1.
         13    1    4    4    0    0 -0.67375721696E+02 -0.20664016444E+01  0.71849804699E+01  0.67789245711E+02  0.00000000000E+00 0. -1.
         -1    1    1    2    0  502  0.12377481837E+03 -0.18321343954E+02  0.19288966358E+03  0.22991802805E+03  0.00000000000E+00 0.  1.
<scales pt_clust_5="13000.00000" pt_clust_6="13000.00000" pt_clust_7="13000.00000" pt_clust_8="13000.00000" pt_clust_9="125.12351"></scales>
<clustering>
<clus scale="   78.072">  5  6 -1 -1</clus>
<clus scale="   85.641">  7  8 -1 -1</clus>
<clus scale="   88.048">  5  7 -1 -1</clus>
<clus scale="  125.124">  2  9  1 -1</clus>
<clus scale="  125.124">  2  5  1 -1</clus>
</clustering>
</event>
<event>
 9    1  0.6675710E-005  0.1201804E+03  0.7546771E-02  0.1246526E+00
         -2   -1    0    0    0  501 -0.00000000000E+00  0.00000000000E+00  0.10480612627E+03  0.10480612627E+03  0.00000000000E+00 0.  1.
         21   -1    0    0  501  502  0.00000000000E+00 -0.00000000000E+00 -0.40739649948E+03  0.40739649948E+03  0.00000000000E+00 0.  1.
         23    2    1    2    0    0 -0.31289995678E+02  0.59849931168E+02  0.15371796015E+02  0.11379848619E+03  0.90292442967E+02 0.  0.
        -24    2    1    2    0    0  0.53449830680E+02 -0.91983001454E+02 -0.74188857861E+02  0.15152558678E+03  0.78347047561E+02 0.  0.
         11    1    4    4    0    0  0.52630072406E+02 -0.36647067770E+02 -0.71601124737E+02  0.96123114604E+02  0.00000000000E+00 0. -1.
        -12    1    4    4    0    0  0.81975827388E+00 -0.55335933684E+02 -0.25877331248E+01  0.55402472174E+02  0.00000000000E+00 0.  1.
        -13    1    3    3    0    0 -0.24660740440E+02  0.28056204154E+02  0.52523944397E+02  0.64452055403E+02  0.00000000000E+00 0.  1.
         13    1    3    3    0    0 -0.66292552383E+01  0.31793727014E+02 -0.37152148382E+02  0.49346430792E+02  0.00000000000E+00 0. -1.
         -1    1    1    2    0  502 -0.22159835001E+02  0.32133070286E+02 -0.24377331136E+03  0.24687855278E+03  0.00000000000E+00 0.  1.
<scales pt_clust_5="13000.00000" pt_clust_6="13000.00000" pt_clust_7="13000.00000" pt_clust_8="13000.00000" pt_clust_9="39.03322"></scales>
<clustering>
<clus scale="   39.033">  2  9  1 -1</clus>
<clus scale="   78.347">  5  6 -1 -1</clus>
<clus scale="   90.292">  7  8 -1 -1</clus>
<clus scale="  111.485">  2  5  1 -1</clus>
<clus scale="   39.033">  2  5  1 -1</clus>
</clustering>
</event>
<event>
 9    1  0.6675710E-005  0.1539519E+03  0.7546771E-02  0.1199805E+00
         21   -1    0    0  501  502  0.00000000000E+00  0.00000000000E+00  0.24515089980E+03  0.24515089980E+03  0.00000000000E+00 0.  1.
          3   -1    0    0  502    0 -0.00000000000E+00 -0.00000000000E+00 -0.37277943334E+03  0.37277943334E+03  0.00000000000E+00 0. -1.
        -24    2    1    2    0    0  0.54420391222E+02 -0.96619331070E+02 -0.26662064507E+03  0.30022572926E+03  0.82170834346E+02 0.  0.
         23    2    1    2    0    0 -0.13954081637E+03  0.90979878622E+02  0.12175166608E+03  0.23067286736E+03  0.10313838177E+03 0.  0.
         11    1    3    3    0    0  0.69034124675E+02 -0.52667946221E+02 -0.20884321237E+03  0.22617495503E+03  0.00000000000E+00 0. -1.
        -12    1    3    3    0    0 -0.14613733453E+02 -0.43951384849E+02 -0.57777432703E+02  0.74050774238E+02  0.00000000000E+00 0.  1.
        -13    1    4    4    0    0 -0.37985611656E+02 -0.21838662705E+02  0.32831561139E+02  0.54751669276E+02  0.00000000000E+00 0. -1.
         13    1    4    4    0    0 -0.10155520471E+03  0.11281854133E+03  0.88920104945E+02  0.17592119808E+03  0.00000000000E+00 0.  1.
          4    1    1    2  501    0  0.85120425146E+02  0.56394524478E+01  0.17240445450E+02  0.87031736512E+02  0.00000000000E+00 0. -1.
<scales pt_clust_5="13000.00000" pt_clust_6="13000.00000" pt_clust_7="13000.00000" pt_clust_8="13000.00000" pt_clust_9="85.30703"></scales>
<clustering>
<clus scale="   82.171">  5  6 -1 -1</clus>
<clus scale="   85.307">  1  9  2 -1</clus>
<clus scale="  103.138">  7  8 -1 -1</clus>
<clus scale="  140.768">  2  5  1 -1</clus>
<clus scale="   85.307">  1  5  2 -1</clus>
</clustering>
</event>
<event>
 9    1  0.6675710E-005  0.1193415E+03  0.7546771E-02  0.1250251E+00
         21   -1    0    0  501  502  0.00000000000E+00  0.00000000000E+00  0.25659396766E+02  0.25659396766E+02  0.00000000000E+00 0. -1.
          1   -1    0    0  502    0 -0.00000000000E+00 -0.00000000000E+00 -0.68749433273E+03  0.68749433273E+03  0.00000000000E+00 0. -1.
         23    2    1    2    0    0 -0.63555438070E+02 -0.23600088989E+02 -0.35682054161E+03  0.37447361503E+03  0.91177472716E+02 0.  0.
        -24    2    1    2    0    0  0.78981413683E+02  0.48300780308E+02 -0.23168956969E+03  0.25978388650E+03  0.72364230777E+02 0.  0.
         13    1    4    4    0    0  0.83404121306E+02  0.59011742948E+02 -0.22302812717E+03  0.24531648694E+03  0.00000000000E+00 0. -1.
        -14    1    4    4    0    0 -0.44227076238E+01 -0.10710962640E+02 -0.86614425173E+01  0.14467399555E+02  0.00000000000E+00 0.  1.
        -11    1    3    3    0    0 -0.61521903560E+02  0.22387662515E+02 -0.24382169113E+03  0.25245825223E+03  0.00000000000E+00 0. -1.
         11    1    3    3    0    0 -0.20335345101E+01 -0.45987751505E+02 -0.11299885048E+03  0.12201536281E+03  0.00000000000E+00 0.  1.
          2    1    1    2  501    0 -0.15425975612E+02 -0.24700691318E+02 -0.73324824668E+02  0.78896227970E+02  0.00000000000E+00 0. -1.
<scales pt_clust_5="13000.00000" pt_clust_6="13000.00000" pt_clust_7="13000.00000" pt_clust_8="13000.00000" pt_clust_9="29.12191"></scales>
<clustering>
<clus scale="   29.122">  1  9  2 -1</clus>
<clus scale="   72.364">  5  6 -1 -1</clus>
<clus scale="   91.177">  7  8 -1 -1</clus>
<clus scale="  105.668">  1  5  2 -1</clus>
<clus scale="   29.122">  1  5  2 -1</clus>
</clustering>
</event>
<event>
 9    1  0.6675710E-005  0.1360290E+03  0.7546771E-02  0.1241818E+00
         21   -1    0    0  501  502  0.00000000000E+00  0.00000000000E+00  0.85974564880E+02  0.85974564880E+02  0.00000000000E+00 0.  1.
         -2   -1    0    0    0  501 -0.00000000000E+00 -0.00000000000E+00 -0.34944552912E+03  0.34944552912E+03  0.00000000000E+00 0.  1.
        -24    2    1    2    0    0 -0.26076727006E+02 -0.12974529441E+02 -0.14539704676E+03  0.16818912819E+03  0.79365909115E+02 0.  0.
         23    2    1    2    0    0  0.80655159131E+02  0.85667041612E+02 -0.64097673208E+02  0.16151227529E+03  0.90186510331E+02 0.  0.
         13    1    3    3    0    0 -0.23255731034E+01 -0.27964326320E+02 -0.98137860715E+01  0.29727465984E+02  0.00000000000E+00 0. -1.
        -14    1    3    3    0    0 -0.23751153902E+02  0.14989796879E+02 -0.13558326069E+03  0.13846166221E+03  0.00000000000E+00 0.  1.
        -11    1    4    4    0    0  0.38131399756E+02 -0.82521525140E+01  0.19672309560E+01  0.39063687308E+02  0.00000000000E+00 0.  1.
         11    1    4    4    0    0  0.42523759375E+02  0.93919194126E+02 -0.66064904164E+02  0.12244858798E+03  0.00000000000E+00 0. -1.
         -1    1    1    2    0  502 -0.54578432125E+02 -0.72692512171E+02 -0.53976244268E+02  0.10571869052E+03  0.00000000000E+00 0.  1.
<scales pt_clust_5="13000.00000" pt_clust_6="13000.00000" pt_clust_7="13000.00000" pt_clust_8="13000.00000" pt_clust_9="101.83462"></scales>
<clustering>
<clus scale="   79.366">  5  6 -1 -1</clus>
<clus scale="   84.542">  2  5  1 -1</clus>
<clus scale="   90.187">  7  8 -1 -1</clus>
<clus scale="  101.835">  1  9  2 -1</clus>
<clus scale="  101.835">  1  5  2 -1</clus>
</clustering>
</event>
<event>
 9    1  0.6675710E-005  0.1015501E+03  0.7546771E-02  0.1283719E+00
         21   -1    0    0  501  502  0.00000000000E+00  0.00000000000E+00  0.12142724873E+04  0.12142724873E+04  0.00000000000E+00 0. -1.
          1   -1    0    0  502    0 -0.00000000000E+00 -0.00000000000E+00 -0.19525534929E+02  0.19525534929E+02  0.00000000000E+00 0. -1.
        -24    2    1    2    0    0  0.78349699348E+02 -0.30721305447E+01  0.28259664662E+03  0.30305215115E+03  0.76365098462E+02 0.  0.
         23    2    1    2    0    0 -0.47214297200E+01  0.29157116440E+02  0.33000051101E+03  0.34337892266E+03  0.90201540568E+02 0.  0.
         13    1    3    3    0    0  0.52102932749E+02 -0.65989951531E+01  0.63697408348E+02  0.82556781480E+02  0.00000000000E+00 0. -1.
        -14    1    3    3    0    0  0.26246766599E+02  0.35268646084E+01  0.21889923827E+03  0.22049536967E+03  0.00000000000E+00 0.  1.
        -13    1    4    4    0    0  0.11204455100E+02 -0.23025853178E+02  0.34953459281E+02  0.43329828575E+02  0.00000000000E+00 0.  1.
         13    1    4    4    0    0 -0.15925884820E+02  0.52182969618E+02  0.29504705173E+03  0.30004909409E+03  0.00000000000E+00 0. -1.
          2    1    1    2  501    0 -0.73628269628E+02 -0.26084985895E+02  0.58214979473E+03  0.58736694841E+03  0.00000000000E+00 0. -1.
<scales pt_clust_5="13000.00000" pt_clust_6="13000.00000" pt_clust_7="13000.00000" pt_clust_8="13000.00000" pt_clust_9="78.11241"></scales>
<clustering>
<clus scale="   76.365">  5  6 -1 -1</clus>
<clus scale="   78.112">  1  9  2 -1</clus>
<clus scale="   89.486">  2  5  1 -1</clus>
<clus scale="   90.202">  7  8 -1 -1</clus>
<clus scale="   78.112">  1  5  2 -1</clus>
</clustering>
</event>
<event>
 9    1  0.6675710E-005  0.3367546E+03  0.7546771E-02  0.1090717E+00
          1   -1    0    0  502    0 -0.00000000000E+00  0.00000000000E+00  0.15294776998E+03  0.15294776998E+03  0.00000000000E+00 0. -1.
         21   -1    0    0  501  502  0.00000000000E+00 -0.00000000000E+00 -0.14606828417E+04  0.14606828417E+04  0.00000000000E+00 0.  1.
        -24    2    1    2    0    0 -0.27732657343E+02  0.16211586821E+03 -0.77462140255E+02  0.19910067239E+03  0.81179058645E+02 0.  0.
         23    2    1    2    0    0  0.26571685860E+03 -0.26377375375E+03 -0.98557882817E+03  0.10583754645E+04  0.92795232410E+02 0.  0.
         13    1    3    3    0    0  0.91185004776E+01  0.13852367484E+03 -0.50603525423E+02  0.14775883164E+03  0.00000000000E+00 0. -1.
        -14    1    3    3    0    0 -0.36851157820E+02  0.23592193376E+02 -0.26858614832E+02  0.51341840750E+02  0.00000000000E+00 0.  1.
        -11    1    4    4    0    0  0.18342897797E+03 -0.15661945992E+03 -0.73685135550E+03  0.77532300707E+03  0.00000000000E+00 0.  1.
         11    1    4    4    0    0  0.82287880631E+02 -0.10715429383E+03 -0.24872747267E+03  0.28305245741E+03  0.00000000000E+00 0. -1.
          2    1    1    2  501    0 -0.23798420126E+03  0.10165788554E+03 -0.24469410327E+03  0.35615447480E+03  0.00000000000E+00 0. -1.
<scales pt_clust_5="13000.00000" pt_clust_6="13000.00000" pt_clust_7="13000.00000" pt_clust_8="13000.00000" pt_clust_9="323.71717"></scales>
<clustering>
<clus scale="   81.179">  5  6 -1 -1</clus>
<clus scale="   92.795">  7  8 -1 -1</clus>
<clus scale="  183.414">  1  5  2 -1</clus>
<clus scale="  323.717">  2  9  1 -1</clus>
<clus scale="  323.717">  2  5  1 -1</clus>
</clustering>
</event>
<event>
 9    1  0.6675710E-005  0.9324433E+02  0.7546771E-02  0.1301211E+00
         21   -1    0    0  501  502  0.00000000000E+00  0.00000000000E+00  0.12060291546E+03  0.12060291546E+03  0.00000000000E+00 0.  1.
         -4   -1    0    0    0  501 -0.00000000000E+00 -0.00000000000E+00 -0.19839321927E+03  0.19839321927E+03  0.00000000000E+00 0.  1.
         23    2    1    2    0    0 -0.21766300685E+02  0.30451133131E+02 -0.89671155515E+02  0.13328325937E+03  0.91227560215E+02 0.  0.
        -24    2    1    2    0    0  0.11491408442E+02  0.97106421718E+01 -0.60481315524E+02  0.10231728284E+03  0.81144856903E+02 0.  0.
         11    1    4    4    0    0 -0.41007634627E+01  0.20391829901E+02 -0.75414186543E+02  0.78230061483E+02  0.00000000000E+00 0. -1.
        -12    1    4    4    0    0  0.15592171905E+02 -0.10681187729E+02  0.14932871019E+02  0.24087221361E+02  0.00000000000E+00 0.  1.
        -13    1    3    3    0    0 -0.67577236449E+01  0.62489784848E+02 -0.51711952163E+02  0.81392665737E+02  0.00000000000E+00 0.  1.
         13    1    3    3    0    0 -0.15008577040E+02 -0.32038651717E+02 -0.37959203352E+02  0.51890593635E+02  0.00000000000E+00 0. -1.
         -3    1    1    2    0  502  0.10274892243E+02 -0.40161775302E+02  0.72362167223E+02  0.83395592517E+02  0.00000000000E+00 0.  1.
<scales pt_clust_5="13000.00000" pt_clust_6="13000.00000" pt_clust_7="13000.00000" pt_clust_8="13000.00000" pt_clust_9="41.45530"></scales>
<clustering>
<clus scale="   41.455">  1  9  2 -1</clus>
<clus scale="   81.145">  5  6 -1 -1</clus>
<clus scale="   83.406">  1  5  2 -1</clus>
<clus scale="   91.228">  7  8 -1 -1</clus>
<clus scale="   41.455">  1  5  2 -1</clus>
</clustering>
</event>
<event>
 9    1  0.6675710E-005  0.9906303E+02  0.7546771E-02  0.1288187E+00
         21   -1    0    0  501  502  0.00000000000E+00  0.00000000000E+00  0.43381432728E+02  0.43381432728E+02  0.00000000000E+00 0. -1.
          3   -1    0    0  502    0 -0.00000000000E+00 -0.00000000000E+00 -0.49000529213E+03  0.49000529213E+03  0.00000000000E+00 0. -1.
         23    2    1    2    0    0  0.22039117031E+02  0.41964599296E+02 -0.34353883478E+03  0.35879888612E+03  0.92037815057E+02 0.  0.
        -24    2    1    2    0    0  0.24485448334E+02 -0.13426942593E+02 -0.52855876481E+02  0.10041304278E+03  0.80679709437E+02 0.  0.
         11    1    4    4    0    0  0.16158471051E+02  0.28436516416E+02 -0.30050496244E+00  0.32708132870E+02  0.00000000000E+00 0. -1.
        -12    1    4    4    0    0  0.83269772828E+01 -0.41863459010E+02 -0.52555371518E+02  0.67704909913E+02  0.00000000000E+00 0.  1.
        -13    1    3    3    0    0  0.34179079837E+02  0.66800056749E+02 -0.22940828984E+03  0.24136822601E+03  0.00000000000E+00 0. -1.
         13    1    3    3    0    0 -0.12139962806E+02 -0.24835457453E+02 -0.11413054495E+03  0.11743066011E+03  0.00000000000E+00 0.  1.
          4    1    1    2  501    0 -0.46524565365E+02 -0.28537656702E+02 -0.50229148133E+02  0.74174795953E+02  0.00000000000E+00 0. -1.
<scales pt_clust_5="13000.00000" pt_clust_6="13000.00000" pt_clust_7="13000.00000" pt_clust_8="13000.00000" pt_clust_9="54.57960"></scales>
<clustering>
<clus scale="   54.580">  1  9  2 -1</clus>
<clus scale="   80.680">  5  6 -1 -1</clus>
<clus scale="   88.610">  1  5  2 -1</clus>
<clus scale="   92.038">  7  8 -1 -1</clus>
<clus scale="   54.580">  1  5  2 -1</clus>
</clustering>
</event>
<event>
 9    1  0.6675710E-005  0.9947462E+02  0.7546771E-02  0.1289725E+00
         21   -1    0    0  501  502  0.00000000000E+00  0.00000000000E+00  0.25190757642E+02  0.25190757642E+02  0.00000000000E+00 0.  1.
         -2   -1    0    0    0  501 -0.00000000000E+00 -0.00000000000E+00 -0.48329068541E+03  0.48329068541E+03  0.00000000000E+00 0.  1.
        -24    2    1    2    0    0 -0.11786166876E+02  0.28982622159E+02 -0.23786527824E+03  0.25366238869E+03  0.82376032478E+02 0.  0.
         23    2    1    2    0    0  0.11257610702E+02  0.13000161975E+01 -0.16973244105E+03  0.19593110467E+03  0.97218683352E+02 0.  0.
         11    1    3    3    0    0  0.22872127082E+02 -0.18349210887E+02 -0.85895681804E+02  0.90762855233E+02  0.00000000000E+00 0. -1.
        -12    1    3    3    0    0 -0.34658293958E+02  0.47331833047E+02 -0.15196959643E+03  0.16289953345E+03  0.00000000000E+00 0.  1.
        -13    1    4    4    0    0  0.50472594836E+02  0.15784431958E+02 -0.11880422521E+03  0.13004258937E+03  0.00000000000E+00 0. -1.
         13    1    4    4    0    0 -0.39214984134E+02 -0.14484415760E+02 -0.50928215843E+02  0.65888515308E+02  0.00000000000E+00 0.  1.
         -1    1    1    2    0  502  0.52855617395E+00 -0.30282638357E+02 -0.50502208477E+02  0.58887949688E+02  0.00000000000E+00 0.  1.
<scales pt_clust_5="13000.00000" pt_clust_6="13000.00000" pt_clust_7="13000.00000" pt_clust_8="13000.00000" pt_clust_9="30.28725"></scales>
<clustering>
<clus scale="   30.287">  1  9  2 -1</clus>
<clus scale="   82.376">  5  6 -1 -1</clus>
<clus scale="   85.027">  2  5  1 -1</clus>
<clus scale="   97.219">  7  8 -1 -1</clus>
<clus scale="   30.287">  1  5  2 -1</clus>
</clustering>
</event>
<event>
 9    1  0.6675710E-005  0.1580757E+03  0.7546771E-02  0.1201120E+00
          3   -1    0    0  502    0 -0.00000000000E+00  0.00000000000E+00  0.70725038238E+03  0.70725038238E+03  0.00000000000E+00 0. -1.
         21   -1    0    0  501  502  0.00000000000E+00 -0.00000000000E+00 -0.94623182917E+03  0.94623182917E+03  0.00000000000E+00 0. -1.
        -24    2    1    2    0    0 -0.16985144530E+02  0.95886480470E+02  0.63923739018E+03  0.65161028534E+03  0.80553154409E+02 0.  0.
         23    2    1    2    0    0 -0.10964483675E+03 -0.10315605899E+03 -0.82881888197E+02  0.19648452811E+03  0.95255444265E+02 0.  0.
         13    1    3    3    0    0 -0.15925595943E+02  0.10893515511E+03  0.51208863375E+03  0.52378932926E+03  0.00000000000E+00 0. -1.
        -14    1    3    3    0    0 -0.10595485872E+01 -0.13048674638E+02  0.12714875643E+03  0.12782095609E+03  0.00000000000E+00 0.  1.
        -13    1    4    4    0    0  0.88116107031E+00 -0.58889914284E+02 -0.23182070407E+02  0.63294603543E+02  0.00000000000E+00 0.  1.
         13    1    4    4    0    0 -0.11052599782E+03 -0.44266144708E+02 -0.59699817789E+02  0.13318992457E+03  0.00000000000E+00 0. -1.
          4    1    1    2  501    0  0.12662998128E+03  0.72695785231E+01 -0.79533694877E+03  0.80538739810E+03  0.00000000000E+00 0. -1.
<scales pt_clust_5="13000.00000" pt_clust_6="13000.00000" pt_clust_7="13000.00000" pt_clust_8="13000.00000" pt_clust_9="126.15198"></scales>
<clustering>
<clus scale="   80.553">  5  6 -1 -1</clus>
<clus scale="   95.255">  7  8 -1 -1</clus>
<clus scale="  126.378">  1  5  2 -1</clus>
<clus scale="  126.152">  2  9  1 -1</clus>
<clus scale="  126.152">  2  5  1 -1</clus>
</clustering>
</event>
<event>
 9    1  0.6675710E-005  0.9398289E+02  0.7546771E-02  0.1301821E+00
         21   -1    0    0  501  502  0.00000000000E+00  0.00000000000E+00  0.28567025128E+03  0.28567025128E+03  0.00000000000E+00 0. -1.
         -2   -1    0    0    0  501 -0.00000000000E+00 -0.00000000000E+00 -0.46093287697E+02  0.46093287697E+02  0.00000000000E+00 0.  1.
         23    2    1    2    0    0  0.18450683588E+02  0.17771891834E+02  0.52352309361E+02  0.10991503038E+03  0.93189493737E+02 0.  0.
        -24    2    1    2    0    0  0.24844633255E+01  0.14045906771E+02  0.12469640249E+03  0.14863351731E+03  0.79619530395E+02 0.  0.
         11    1    4    4    0    0  0.35921152211E+02  0.17648811447E+02  0.97459020449E+02  0.10535687158E+03  0.00000000000E+00 0. -1.
        -12    1    4    4    0    0 -0.33436688886E+02 -0.36029046766E+01  0.27237382037E+02  0.43276645734E+02  0.00000000000E+00 0.  1.
        -13    1    3    3    0    0  0.40156979461E+02  0.26554129003E+02 -0.45756473419E+01  0.48359500774E+02  0.00000000000E+00 0.  1.
         13    1    3    3    0    0 -0.21706295873E+02 -0.87822371693E+01  0.56927956702E+02  0.61555529602E+02  0.00000000000E+00 0. -1.
         -1    1    1    2    0  502 -0.20935146914E+02 -0.31817798605E+02  0.62528251733E+02  0.73214991286E+02  0.00000000000E+00 0.  1.
<scales pt_clust_5="13000.00000" pt_clust_6="13000.00000" pt_clust_7="13000.00000" pt_clust_8="13000.00000" pt_clust_9="38.08743"></scales>
<clustering>
<clus scale="   38.087">  1  9  2 -1</clus>
<clus scale="   79.620">  5  6 -1 -1</clus>
<clus scale="   80.547">  1  5  2 -1</clus>
<clus scale="   93.189">  7  8 -1 -1</clus>
<clus scale="   38.087">  1  5  2 -1</clus>
</clustering>
</event>
<event>
 9    1  0.6675710E-005  0.1062600E+03  0.7546771E-02  0.1275179E+00
         -4   -1    0    0    0  501 -0.00000000000E+00  0.00000000000E+00  0.59173470627E+03  0.59173470627E+03  0.00000000000E+00 0.  1.
         21   -1    0    0  501  502  0.00000000000E+00 -0.00000000000E+00 -0.24728628320E+02  0.24728628320E+02  0.00000000000E+00 0.  1.
        -24    2    1    2    0    0  0.53061510937E+01  0.38364693868E+02  0.17152431104E+03  0.19167353750E+03  0.76276803317E+02 0.  0.
         23    2    1    2    0    0  0.18210540017E+02 -0.66277578864E+02  0.26206547035E+03  0.28647106338E+03  0.93075336006E+02 0.  0.
         13    1    3    3    0    0  0.19810916950E+02 -0.51694044783E+01  0.12374752601E+03  0.12542984240E+03  0.00000000000E+00 0. -1.
        -14    1    3    3    0    0 -0.14504765856E+02  0.43534098347E+02  0.47776785034E+02  0.66243695093E+02  0.00000000000E+00 0.  1.
        -13    1    4    4    0    0 -0.55531102960E+01 -0.52548893671E+02  0.25161608435E+03  0.25710479802E+03  0.00000000000E+00 0.  1.
         13    1    4    4    0    0  0.23763650313E+02 -0.13728685194E+02  0.10449386005E+02  0.29366265361E+02  0.00000000000E+00 0. -1.
         -3    1    1    2    0  502 -0.23516691111E+02  0.27912884996E+02  0.13341629656E+03  0.13831873371E+03  0.00000000000E+00 0.  1.
<scales pt_clust_5="13000.00000" pt_clust_6="13000.00000" pt_clust_7="13000.00000" pt_clust_8="13000.00000" pt_clust_9="36.49884"></scales>
<clustering>
<clus scale="   36.499">  2  9  1 -1</clus>
<clus scale="   76.277">  5  6 -1 -1</clus>
<clus scale="   91.904">  1  5  2 -1</clus>
<clus scale="   93.075">  7  8 -1 -1</clus>
<clus scale="   36.499">  2  5  1 -1</clus>
</clustering>
</event>
<event>
 9    1  0.6675710E-005  0.1423649E+03  0.7546771E-02  0.1218123E+00
         21   -1    0    0  501  502  0.00000000000E+00  0.00000000000E+00  0.64650742450E+02  0.64650742450E+02  0.00000000000E+00 0.  1.
         -4   -1    0    0    0  501 -0.00000000000E+00 -0.00000000000E+00 -0.60196996320E+03  0.60196996320E+03  0.00000000000E+00 0.  1.
         23    2    1    2    0    0 -0.34489815948E+02  0.73357610208E+02 -0.12054923542E+03  0.17030824538E+03  0.88892597585E+02 0.  0.
        -24    2    1    2    0    0 -0.87330869281E+02  0.39664377114E+01 -0.23133457613E+03  0.26135378577E+03  0.84544082382E+02 0.  0.
         13    1    4    4    0    0 -0.40754417229E+02 -0.40179472721E+02 -0.10139600399E+03  0.11643222138E+03  0.00000000000E+00 0. -1.
        -14    1    4    4    0    0 -0.46576452051E+02  0.44145910433E+02 -0.12993857214E+03  0.14492156439E+03  0.00000000000E+00 0.  1.
        -11    1    3    3    0    0 -0.72278194418E+01 -0.20905168901E+02 -0.20169481219E+02  0.29934519093E+02  0.00000000000E+00 0. -1.
         11    1    3    3    0    0 -0.27261996506E+02  0.94262779110E+02 -0.10037975420E+03  0.14037372629E+03  0.00000000000E+00 0.  1.
         -3    1    1    2    0  502  0.12182068523E+03 -0.77324047920E+02 -0.18543540919E+03  0.23495867449E+03  0.00000000000E+00 0.  1.
<scales pt_clust_5="13000.00000" pt_clust_6="13000.00000" pt_clust_7="13000.00000" pt_clust_8="13000.00000" pt_clust_9="114.54295"></scales>
<clustering>
<clus scale="   84.544">  5  6 -1 -1</clus>
<clus scale="   88.893">  7  8 -1 -1</clus>
<clus scale="  120.303">  2  7  1 -1</clus>
<clus scale="  114.543">  1  9  2 -1</clus>
<clus scale="  114.543">  1  5  2 -1</clus>
</clustering>
</event>
<event>
 9    1  0.6675710E-005  0.2496280E+03  0.7546771E-02  0.1113540E+00
          3   -1    0    0  502    0 -0.00000000000E+00  0.00000000000E+00  0.20995610710E+03  0.20995610710E+03  0.00000000000E+00 0. -1.
         21   -1    0    0  501  502  0.00000000000E+00 -0.00000000000E+00 -0.29629496804E+03  0.29629496804E+03  0.00000000000E+00 0. -1.
        -24    2    1    2    0    0 -0.18711420874E+02 -0.10620378732E+03  0.52033414914E+02  0.14501153055E+03  0.81801625978E+02 0.  0.
         23    2    1    2    0    0 -0.56351712317E+02 -0.42531509834E+02  0.36365545359E+02  0.11980638874E+03  0.89703250125E+02 0.  0.
         11    1    3    3    0    0  0.21510736005E+02 -0.79516527921E+02  0.50691707141E+02  0.96722485229E+02  0.00000000000E+00 0. -1.
        -12    1    3    3    0    0 -0.40222156880E+02 -0.26687259402E+02  0.13417077733E+01  0.48289045323E+02  0.00000000000E+00 0.  1.
        -13    1    4    4    0    0 -0.74005175161E+02 -0.12049843192E+02  0.38938842843E+02  0.84487858024E+02  0.00000000000E+00 0. -1.
         13    1    4    4    0    0  0.17653462844E+02 -0.30481666643E+02 -0.25732974841E+01  0.35318530712E+02  0.00000000000E+00 0.  1.
          4    1    1    2  501    0  0.75063133191E+02  0.14873529716E+03 -0.17473782121E+03  0.24143315585E+03  0.00000000000E+00 0. -1.
<scales pt_clust_5="13000.00000" pt_clust_6="13000.00000" pt_clust_7="13000.00000" pt_clust_8="13000.00000" pt_clust_9="166.60331"></scales>
<clustering>
<clus scale="   81.802">  5  6 -1 -1</clus>
<clus scale="   89.703">  7  8 -1 -1</clus>
<clus scale="  103.674">  5  7 -1 -1</clus>
<clus scale="  166.603">  2  9  1 -1</clus>
<clus scale="  166.603">  2  5  1 -1</clus>
</clustering>
</event>
<event>
 9    1  0.6675710E-005  0.1136199E+03  0.7546771E-02  0.1259959E+00
          3   -1    0    0  502    0 -0.00000000000E+00  0.00000000000E+00  0.36219209501E+03  0.36219209501E+03  0.00000000000E+00 0. -1.
         21   -1    0    0  501  502  0.00000000000E+00 -0.00000000000E+00 -0.13311429320E+03  0.13311429320E+03  0.00000000000E+00 0. -1.
        -24    2    1    2    0    0  0.63110644721E+02  0.45104560742E+01  0.18170569184E+03  0.20718734704E+03  0.76852720424E+02 0.  0.
         23    2    1    2    0    0 -0.62551763068E+02 -0.42471714532E+02  0.14226125838E+03  0.18591669297E+03  0.92791063627E+02 0.  0.
         11    1    3    3    0    0  0.78432438860E+02 -0.28308432253E+01  0.16774571013E+03  0.18519796005E+03  0.00000000000E+00 0. -1.
        -12    1    3    3    0    0 -0.15321794139E+02  0.73412992996E+01  0.13959981707E+02  0.21989386992E+02  0.00000000000E+00 0.  1.
        -13    1    4    4    0    0 -0.42619851888E+02  0.23821515354E+02  0.74304848809E+02  0.88910780703E+02  0.00000000000E+00 0.  1.
         13    1    4    4    0    0 -0.19931911180E+02 -0.66293229886E+02  0.67956409574E+02  0.97005912264E+02  0.00000000000E+00 0. -1.
          4    1    1    2  501    0 -0.55888165296E+00  0.37961258457E+02 -0.94889148407E+02  0.10220234820E+03  0.00000000000E+00 0. -1.
<scales pt_clust_5="13000.00000" pt_clust_6="13000.00000" pt_clust_7="13000.00000" pt_clust_8="13000.00000" pt_clust_9="37.96537"></scales>
<clustering>
<clus scale="   37.965">  2  9  1 -1</clus>
<clus scale="   76.853">  5  6 -1 -1</clus>
<clus scale="   92.791">  7  8 -1 -1</clus>
<clus scale="  101.023">  1  5  2 -1</clus>
<clus scale="   37.965">  2  5  1 -1</clus>
</clustering>
</event>
<event>
 9    1  0.6675710E-005  0.9717561E+02  0.7546771E-02  0.1293062E+00
         21   -1    0    0  501  502  0.00000000000E+00  0.00000000000E+00  0.63970968143E+02  0.63970968143E+02  0.00000000000E+00 0.  1.
          3   -1    0    0  502    0 -0.00000000000E+00 -0.00000000000E+00 -0.20052764627E+03  0.20052764627E+03  0.00000000000E+00 0. -1.
         23    2    1    2    0    0 -0.88625311421E+01 -0.36545301984E+02 -0.94446464939E+02  0.13685922571E+03  0.91630831964E+02 0.  0.
        -24    2    1    2    0    0 -0.13200971020E+02  0.24648997280E+02 -0.68921539719E+01  0.84411713678E+02  0.79347318271E+02 0.  0.
         11    1    4    4    0    0 -0.74852202114E+01  0.22640299252E+02 -0.42262871673E+02  0.48525889934E+02  0.00000000000E+00 0. -1.
        -12    1    4    4    0    0 -0.57157508084E+01  0.20086980281E+01  0.35370717701E+02  0.35885823744E+02  0.00000000000E+00 0.  1.
        -11    1    3    3    0    0  0.36358547511E+02 -0.12626410395E+02 -0.12896781220E+02  0.40591836401E+02  0.00000000000E+00 0.  1.
         11    1    3    3    0    0 -0.45221078653E+02 -0.23918891590E+02 -0.81549683719E+02  0.96267389307E+02  0.00000000000E+00 0. -1.
          4    1    1    2  501    0  0.22063502162E+02  0.11896304705E+02 -0.35218059215E+02  0.43227675026E+02  0.00000000000E+00 0. -1.
<scales pt_clust_5="13000.00000" pt_clust_6="13000.00000" pt_clust_7="13000.00000" pt_clust_8="13000.00000" pt_clust_9="25.06633"></scales>
<clustering>
<clus scale="   25.066">  1  9  2 -1</clus>
<clus scale="   79.347">  5  6 -1 -1</clus>
<clus scale="   85.691">  1  5  2 -1</clus>
<clus scale="   91.631">  7  8 -1 -1</clus>
<clus scale="   25.066">  1  5  2 -1</clus>
</clustering>
</event>
<event>
 9    1  0.6675710E-005  0.9737398E+02  0.7546771E-02  0.1290364E+00
         21   -1    0    0  501  502  0.00000000000E+00  0.00000000000E+00  0.33287147730E+02  0.33287147730E+02  0.00000000000E+00 0. -1.
          1   -1    0    0  502    0 -0.00000000000E+00 -0.00000000000E+00 -0.69533052606E+03  0.69533052606E+03  0.00000000000E+00 0. -1.
        -24    2    1    2    0    0 -0.29826572664E+02 -0.30963924604E+02 -0.39103161719E+03  0.40241615439E+03  0.84762294711E+02 0.  0.
         23    2    1    2    0    0  0.21797423286E+02 -0.42348149982E+02 -0.18868783070E+03  0.21567388918E+03  0.92971154405E+02 0.  0.
         11    1    3    3    0    0 -0.12994544741E+02 -0.60008807313E+02 -0.24518394127E+03  0.25275498057E+03  0.00000000000E+00 0. -1.
        -12    1    3    3    0    0 -0.16832027923E+02  0.29044882709E+02 -0.14584767592E+03  0.14966117381E+03  0.00000000000E+00 0.  1.
        -11    1    4    4    0    0  0.34734360848E+02 -0.65616402119E+02 -0.16083643857E+03  0.17714499152E+03  0.00000000000E+00 0.  1.
         11    1    4    4    0    0 -0.12936937562E+02  0.23268252137E+02 -0.27851392130E+02  0.38528897656E+02  0.00000000000E+00 0. -1.
          2    1    1    2  501    0  0.80291493781E+01  0.73312074586E+02 -0.82323930443E+02  0.11052763023E+03  0.00000000000E+00 0. -1.
<scales pt_clust_5="13000.00000" pt_clust_6="13000.00000" pt_clust_7="13000.00000" pt_clust_8="13000.00000" pt_clust_9="73.75044"></scales>
<clustering>
<clus scale="   73.750">  1  9  2 -1</clus>
<clus scale="   84.762">  5  6 -1 -1</clus>
<clus scale="   89.570">  2  5  1 -1</clus>
<clus scale="   92.971">  7  8 -1 -1</clus>
<clus scale="   73.750">  1  5  2 -1</clus>
</clustering>
</event>
<event>
 9    1  0.6675710E-005  0.1066495E+03  0.7546771E-02  0.1275911E+00
         21   -1    0    0  501  502  0.00000000000E+00  0.00000000000E+00  0.16182836559E+02  0.16182836559E+02  0.00000000000E+00 0.  1.
          1   -1    0    0  502    0 -0.00000000000E+00 -0.00000000000E+00 -0.90055896387E+03  0.90055896387E+03  0.00000000000E+00 0. -1.
        -24    2    1    2    0    0 -0.83610614210E+01  0.45027257538E+02 -0.55688272847E+03  0.56408779745E+03  0.77325989774E+02 0.  0.
         23    2    1    2    0    0 -0.13514642411E+02 -0.45874649994E+02 -0.25228979734E+03  0.27432874415E+03  0.96534910541E+02 0.  0.
         11    1    3    3    0    0 -0.24783685872E+02  0.61438552084E+02 -0.38770704560E+03  0.39332642929E+03  0.00000000000E+00 0. -1.
        -12    1    3    3    0    0  0.16422624451E+02 -0.16411294546E+02 -0.16917568287E+03  0.17076136816E+03  0.00000000000E+00 0.  1.
        -11    1    4    4    0    0 -0.51204321481E+02 -0.47368368644E+02 -0.17262761523E+03  0.18618791160E+03  0.00000000000E+00 0.  1.
         11    1    4    4    0    0  0.37689679070E+02  0.14937186500E+01 -0.79662182113E+02  0.88140832551E+02  0.00000000000E+00 0. -1.
          2    1    1    2  501    0  0.21875703832E+02  0.84739245652E+00 -0.75203601501E+02  0.78325258830E+02  0.00000000000E+00 0. -1.
<scales pt_clust_5="13000.00000" pt_clust_6="13000.00000" pt_clust_7="13000.00000" pt_clust_8="13000.00000" pt_clust_9="21.89211"></scales>
<clustering>
<clus scale="   21.892">  1  9  2 -1</clus>
<clus scale="   77.326">  5  6 -1 -1</clus>
<clus scale="   89.635">  2  5  1 -1</clus>
<clus scale="   96.535">  7  8 -1 -1</clus>
<clus scale="   21.892">  1  5  2 -1</clus>
</clustering>
</event>
<event>
 9    1  0.6675710E-005  0.1216918E+03  0.7546771E-02  0.1256213E+00
         -2   -1    0    0    0  501 -0.00000000000E+00  0.00000000000E+00  0.22582613598E+03  0.22582613598E+03  0.00000000000E+00 0.  1.
         21   -1    0    0  501  502  0.00000000000E+00 -0.00000000000E+00 -0.87135804214E+02  0.87135804214E+02  0.00000000000E+00 0.  1.
        -24    2    1    2    0    0  0.45148854763E+02  0.21555551071E+02  0.78239707968E+02  0.11853870052E+03  0.73667569186E+02 0.  0.
         23    2    1    2    0    0 -0.31520514545E+02 -0.38397267808E+02 -0.84262040681E+01  0.12221941362E+03  0.11134941014E+03 0.  0.
         13    1    3    3    0    0  0.11037447826E+02 -0.23472835820E+02  0.56298522536E+01  0.26542315504E+02  0.00000000000E+00 0. -1.
        -14    1    3    3    0    0  0.34111406937E+02  0.45028386890E+02  0.72609855714E+02  0.91996385016E+02  0.00000000000E+00 0.  1.
        -11    1    4    4    0    0 -0.49284834141E+02 -0.15304158508E+02 -0.49733870175E+02  0.71670565691E+02  0.00000000000E+00 0.  1.
         11    1    4    4    0    0  0.17764319596E+02 -0.23093109300E+02  0.41307666107E+02  0.50548847930E+02  0.00000000000E+00 0. -1.
         -1    1    1    2    0  502 -0.13628340218E+02  0.16841716737E+02  0.68876827861E+02  0.72203826048E+02  0.00000000000E+00 0.  1.
<scales pt_clust_5="13000.00000" pt_clust_6="13000.00000" pt_clust_7="13000.00000" pt_clust_8="13000.00000" pt_clust_9="21.66508"></scales>
<clustering>
<clus scale="   21.665">  2  9  1 -1</clus>
<clus scale="   73.668">  5  6 -1 -1</clus>
<clus scale="   88.527">  1  5  2 -1</clus>
<clus scale="  111.349">  7  8 -1 -1</clus>
<clus scale="   21.665">  2  5  1 -1</clus>
</clustering>
</event>
<event>
 9    1  0.6675710E-005  0.9728522E+02  0.7546771E-02  0.1291880E+00
          1   -1    0    0  502    0 -0.00000000000E+00  0.00000000000E+00  0.27577673043E+03  0.27577673043E+03  0.00000000000E+00 0. -1.
         21   -1    0    0  501  502  0.00000000000E+00 -0.00000000000E+00 -0.63470589777E+02  0.63470589777E+02  0.00000000000E+00 0. -1.
         23    2    1    2    0    0  0.96375623213E+01  0.42037390502E+02  0.17493314574E+03  0.20212040478E+03  0.91602553133E+02 0.  0.
        -24    2    1    2    0    0  0.12921023166E+02 -0.50639097401E+01  0.35685398481E+01  0.82184497928E+02  0.80925652308E+02 0.  0.
         13    1    4    4    0    0  0.34725924632E+02  0.21132979243E+01  0.30872278192E+02  0.46512938313E+02  0.00000000000E+00 0. -1.
        -14    1    4    4    0    0 -0.21804901466E+02 -0.71772076644E+01 -0.27303738344E+02  0.35671559615E+02  0.00000000000E+00 0.  1.
        -11    1    3    3    0    0  0.39536175440E+02  0.50816378466E+02  0.14613600434E+03  0.15969078011E+03  0.00000000000E+00 0.  1.
         11    1    3    3    0    0 -0.29898613119E+02 -0.87789879646E+01  0.28797141399E+02  0.42429624661E+02  0.00000000000E+00 0. -1.
          2    1    1    2  501    0 -0.22558585487E+02 -0.36973480762E+02  0.33804455064E+02  0.54942417503E+02  0.00000000000E+00 0. -1.
<scales pt_clust_5="13000.00000" pt_clust_6="13000.00000" pt_clust_7="13000.00000" pt_clust_8="13000.00000" pt_clust_9="43.31199"></scales>
<clustering>
<clus scale="   43.312">  2  9  1 -1</clus>
<clus scale="   80.926">  5  6 -1 -1</clus>
<clus scale="   87.306">  2  5  1 -1</clus>
<clus scale="   91.603">  7  8 -1 -1</clus>
<clus scale="   43.312">  2  5  1 -1</clus>
</clustering>
</event>
<event>
 9    1  0.6675710E-005  0.1987558E+03  0.7546771E-02  0.1185201E+00
         21   -1    0    0  501  502  0.00000000000E+00  0.00000000000E+00  0.32868752497E+02  0.32868752497E+02  0.00000000000E+00 0. -1.
          1   -1    0    0  502    0 -0.00000000000E+00 -0.00000000000E+00 -0.16915774203E+04  0.16915774203E+04  0.00000000000E+00 0. -1.
         23    2    1    2    0    0  0.77325063692E+01 -0.21910252172E+01 -0.27828810041E+03  0.29254324812E+03  0.89848166056E+02 0.  0.
        -24    2    1    2    0    0  0.50195381997E+02 -0.17212474232E+03 -0.70033380267E+03  0.72744594614E+03  0.81016455711E+02 0.  0.
         13    1    4    4    0    0  0.31712287210E+02 -0.10207354982E+03 -0.55333045295E+03  0.56355946350E+03  0.00000000000E+00 0. -1.
        -14    1    4    4    0    0  0.18483094787E+02 -0.70051192504E+02 -0.14700334972E+03  0.16388648264E+03  0.00000000000E+00 0.  1.
        -13    1    3    3    0    0 -0.28490346206E+02 -0.32282298764E+02 -0.13822625576E+03  0.14477687806E+03  0.00000000000E+00 0. -1.
         13    1    3    3    0    0  0.36222852575E+02  0.30091273547E+02 -0.14006184465E+03  0.14776637006E+03  0.00000000000E+00 0.  1.
          2    1    1    2  501    0 -0.57927888366E+02  0.17431576754E+03 -0.68008676476E+03  0.70445697857E+03  0.00000000000E+00 0. -1.
<scales pt_clust_5="13000.00000" pt_clust_6="13000.00000" pt_clust_7="13000.00000" pt_clust_8="13000.00000" pt_clust_9="181.49439"></scales>
<clustering>
<clus scale="   81.016">  5  6 -1 -1</clus>
<clus scale="   89.848">  7  8 -1 -1</clus>
<clus scale="   90.207">  2  7  1 -1</clus>
<clus scale="  181.494">  1  9  2 -1</clus>
<clus scale="  181.494">  1  5  2 -1</clus>
</clustering>
</event>
<event>
 9    1  0.6675710E-005  0.1213253E+03  0.7546771E-02  0.1244459E+00
         21   -1    0    0  501  502  0.00000000000E+00  0.00000000000E+00  0.72584907564E+02  0.72584907564E+02  0.00000000000E+00 0. -1.
          1   -1    0    0  502    0 -0.00000000000E+00 -0.00000000000E+00 -0.35052492207E+03  0.35052492207E+03  0.00000000000E+00 0. -1.
         23    2    1    2    0    0  0.46490066314E+02 -0.32127288759E+02 -0.11621117632E+03  0.15859147731E+03  0.91938730817E+02 0.  0.
        -24    2    1    2    0    0 -0.65060361622E+02  0.85690548449E+02 -0.15837226799E+03  0.20772799030E+03  0.80581771740E+02 0.  0.
         11    1    4    4    0    0 -0.32616617290E+02  0.74176421191E+02 -0.52876046486E+02  0.96756712822E+02  0.00000000000E+00 0. -1.
        -12    1    4    4    0    0 -0.32443744333E+02  0.11514127258E+02 -0.10549622150E+03  0.11097127747E+03  0.00000000000E+00 0.  1.
        -13    1    3    3    0    0  0.27024408684E+02 -0.50778769535E+02 -0.23667314498E+02  0.62200835009E+02  0.00000000000E+00 0.  1.
         13    1    3    3    0    0  0.19465657630E+02  0.18651480776E+02 -0.92543861819E+02  0.96390642298E+02  0.00000000000E+00 0. -1.
          2    1    1    2  501    0  0.18570295309E+02 -0.53563259690E+02 -0.33565702023E+01  0.56790362034E+02  0.00000000000E+00 0. -1.
<scales pt_clust_5="13000.00000" pt_clust_6="13000.00000" pt_clust_7="13000.00000" pt_clust_8="13000.00000" pt_clust_9="56.69108"></scales>
<clustering>
<clus scale="   56.691">  1  9  2 -1</clus>
<clus scale="   80.582">  5  6 -1 -1</clus>
<clus scale="   91.939">  7  8 -1 -1</clus>
<clus scale="  112.962">  1  5  2 -1</clus>
<clus scale="   56.691">  1  5  2 -1</clus>
</clustering>
</event>
<event>
 9    1  0.6675710E-005  0.1553408E+03  0.7546771E-02  0.1195864E+00
         21   -1    0    0  501  502  0.00000000000E+00  0.00000000000E+00  0.20774695280E+03  0.20774695280E+03  0.00000000000E+00 0.  1.
          1   -1    0    0  502    0 -0.00000000000E+00 -0.00000000000E+00 -0.19604303714E+03  0.19604303714E+03  0.00000000000E+00 0. -1.
         23    2    1    2    0    0  0.65987958064E+02 -0.96186672226E+02 -0.73061228964E+02  0.16587891278E+03  0.92582849409E+02 0.  0.
        -24    2    1    2    0    0 -0.52139754347E+02  0.13463555633E+03  0.28715049143E+02  0.16854463974E+03  0.82081998791E+02 0.  0.
         13    1    4    4    0    0 -0.33476916282E+02  0.36802494718E+01  0.32257373326E+01  0.33832728848E+02  0.00000000000E+00 0. -1.
        -14    1    4    4    0    0 -0.18662838065E+02  0.13095530686E+03  0.25489311810E+02  0.13471191089E+03  0.00000000000E+00 0.  1.
        -11    1    3    3    0    0  0.27779659853E+01 -0.47952024494E+02 -0.71766207850E+02  0.86356831446E+02  0.00000000000E+00 0. -1.
         11    1    3    3    0    0  0.63209992079E+02 -0.48234647732E+02 -0.12950211141E+01  0.79522081337E+02  0.00000000000E+00 0.  1.
          2    1    1    2  501    0 -0.13848203717E+02 -0.38448884108E+02  0.56050095485E+02  0.69366437412E+02  0.00000000000E+00 0. -1.
<scales pt_clust_5="13000.00000" pt_clust_6="13000.00000" pt_clust_7="13000.00000" pt_clust_8="13000.00000" pt_clust_9="40.86673"></scales>
<clustering>
<clus scale="   40.867">  1  9  2 -1</clus>
<clus scale="   82.082">  5  6 -1 -1</clus>
<clus scale="   92.583">  7  8 -1 -1</clus>
<clus scale="  149.321">  1  5  2 -1</clus>
<clus scale="   40.867">  1  5  2 -1</clus>
</clustering>
</event>
<event>
 9    1  0.6675710E-005  0.9382629E+02  0.7546771E-02  0.1297357E+00
         21   -1    0    0  501  502  0.00000000000E+00  0.00000000000E+00  0.27867527639E+03  0.27867527639E+03  0.00000000000E+00 0. -1.
         -2   -1    0    0    0  501 -0.00000000000E+00 -0.00000000000E+00 -0.51492716785E+02  0.51492716785E+02  0.00000000000E+00 0.  1.
        -24    2    1    2    0    0  0.30586111631E+02 -0.31831432436E+02  0.65486351696E+02  0.11356629144E+03  0.81609374324E+02 0.  0.
         23    2    1    2    0    0 -0.31126982305E+02 -0.13905953778E+02  0.83364586498E+02  0.12589313570E+03  0.87961143451E+02 0.  0.
         13    1    3    3    0    0 -0.23945511268E+02 -0.10257077099E+02  0.53234217062E+00  0.26055297517E+02  0.00000000000E+00 0. -1.
        -14    1    3    3    0    0  0.54531622899E+02 -0.21574355337E+02  0.64954009526E+02  0.87510993924E+02  0.00000000000E+00 0.  1.
        -13    1    4    4    0    0 -0.68028080262E+01 -0.35480369536E+02 -0.30541628539E+00  0.36127940691E+02  0.00000000000E+00 0.  1.
         13    1    4    4    0    0 -0.24324174279E+02  0.21574415758E+02  0.83670002783E+02  0.89765195011E+02  0.00000000000E+00 0. -1.
         -1    1    1    2    0  502  0.54087067449E+00  0.45737386214E+02  0.78331621414E+02  0.90708566036E+02  0.00000000000E+00 0.  1.
<scales pt_clust_5="13000.00000" pt_clust_6="13000.00000" pt_clust_7="13000.00000" pt_clust_8="13000.00000" pt_clust_9="45.74058"></scales>
<clustering>
<clus scale="   45.741">  1  9  2 -1</clus>
<clus scale="   81.609">  5  6 -1 -1</clus>
<clus scale="   87.899">  2  5  1 -1</clus>
<clus scale="   87.961">  7  8 -1 -1</clus>
<clus scale="   45.741">  1  5  2 -1</clus>
</clustering>
</event>
<event>
 9    1  0.6675710E-005  0.8917502E+02  0.7546771E-02  0.1309038E+00
          1   -1    0    0  502    0 -0.00000000000E+00  0.00000000000E+00  0.72997669479E+03  0.72997669479E+03  0.00000000000E+00 0. -1.
         21   -1    0    0  501  502  0.00000000000E+00 -0.00000000000E+00 -0.66114949500E+02  0.66114949500E+02  0.00000000000E+00 0.  1.
        -24    2    1    2    0    0  0.15536841749E+02 -0.10701242416E+02  0.62985394737E+03  0.63517594375E+03  0.79853456206E+02 0.  0.
         23    2    1    2    0    0 -0.28261619709E+02  0.38036274853E+02  0.64588275963E+02  0.11797050745E+03  0.86602066279E+02 0.  0.
         13    1    3    3    0    0  0.41733758977E+02 -0.19802675394E+02  0.24450631316E+03  0.24883164945E+03  0.00000000000E+00 0. -1.
        -14    1    3    3    0    0 -0.26196917227E+02  0.91014329779E+01  0.38534763421E+03  0.38634429431E+03  0.00000000000E+00 0.  1.
        -13    1    4    4    0    0 -0.26485205373E+02  0.61308486560E+02  0.66883863885E+02  0.94517976471E+02  0.00000000000E+00 0. -1.
         13    1    4    4    0    0 -0.17764143360E+01 -0.23272211706E+02 -0.22955879226E+01  0.23452530983E+02  0.00000000000E+00 0.  1.
          2    1    1    2  501    0  0.12724777960E+02 -0.27335032437E+02 -0.30580478035E+02  0.42945193088E+02  0.00000000000E+00 0. -1.
<scales pt_clust_5="13000.00000" pt_clust_6="13000.00000" pt_clust_7="13000.00000" pt_clust_8="13000.00000" pt_clust_9="30.15168"></scales>
<clustering>
<clus scale="   30.152">  2  9  1 -1</clus>
<clus scale="   79.853">  5  6 -1 -1</clus>
<clus scale="   82.637">  1  5  2 -1</clus>
<clus scale="   86.602">  7  8 -1 -1</clus>
<clus scale="   30.152">  2  5  1 -1</clus>
</clustering>
</event>
<event>
 9    1  0.6675710E-005  0.1049687E+03  0.7546771E-02  0.1275126E+00
          1   -1    0    0  502    0 -0.00000000000E+00  0.00000000000E+00  0.71381604063E+03  0.71381604063E+03  0.00000000000E+00 0. -1.
         21   -1    0    0  501  502  0.00000000000E+00 -0.00000000000E+00 -0.32820493112E+02  0.32820493112E+02  0.00000000000E+00 0. -1.
         23    2    1    2    0    0 -0.58164541956E+02  0.51880249313E+02  0.30640614949E+03  0.32913630067E+03  0.91494818244E+02 0.  0.
        -24    2    1    2    0    0  0.11711923515E+02 -0.22067186146E+01  0.75987290838E+02  0.11125111253E+03  0.80378497817E+02 0.  0.
         13    1    4    4    0    0  0.32637888880E+01  0.30723876101E+02  0.33829660137E+01  0.31081398611E+02  0.00000000000E+00 0. -1.
        -14    1    4    4    0    0  0.84481346274E+01 -0.32930594715E+02  0.72604324824E+02  0.80169713921E+02  0.00000000000E+00 0.  1.
        -11    1    3    3    0    0 -0.82893025241E+02  0.40531504331E+02  0.25067902981E+03  0.26712175588E+03  0.00000000000E+00 0. -1.
         11    1    3    3    0    0  0.24728483285E+02  0.11348744981E+02  0.55727119677E+02  0.62014544792E+02  0.00000000000E+00 0.  1.
          2    1    1    2  501    0  0.46452618440E+02 -0.49673530698E+02  0.29860210719E+03  0.30624912054E+03  0.00000000000E+00 0. -1.
<scales pt_clust_5="13000.00000" pt_clust_6="13000.00000" pt_clust_7="13000.00000" pt_clust_8="13000.00000" pt_clust_9="68.00963"></scales>
<clustering>
<clus scale="   68.010">  2  9  1 -1</clus>
<clus scale="   80.378">  5  6 -1 -1</clus>
<clus scale="   91.495">  7  8 -1 -1</clus>
<clus scale="   95.435">  2  5  1 -1</clus>
<clus scale="   68.010">  2  5  1 -1</clus>
</clustering>
</event>
<event>
 9    1  0.6675710E-005  0.9120941E+02  0.7546771E-02  0.1304864E+00
         -2   -1    0    0    0  501 -0.00000000000E+00  0.00000000000E+00  0.34084074120E+03  0.34084074120E+03  0.00000000000E+00 0.  1.
         21   -1    0    0  501  502  0.00000000000E+00 -0.00000000000E+00 -0.42730973978E+02  0.42730973978E+02  0.00000000000E+00 0. -1.
        -24    2    1    2    0    0  0.20991203569E+02  0.15598747405E+02  0.23529673863E+03  0.24988616176E+03  0.79966162089E+02 0.  0.
         23    2    1    2    0    0 -0.94115747040E-01 -0.22090890401E+02  0.64960195947E+02  0.11169813593E+03  0.88139833314E+02 0.  0.
         11    1    3    3    0    0  0.29813695305E+02 -0.69084779334E+01  0.28946288124E+02  0.42124471407E+02  0.00000000000E+00 0. -1.
        -12    1    3    3    0    0 -0.88224917362E+01  0.22507225339E+02  0.20635045051E+03  0.20776169035E+03  0.00000000000E+00 0.  1.
        -11    1    4    4    0    0  0.15892753285E+02  0.29895751230E+02  0.38321023229E+02  0.51135470761E+02  0.00000000000E+00 0.  1.
         11    1    4    4    0    0 -0.15986869032E+02 -0.51986641631E+02  0.26639172718E+02  0.60562665171E+02  0.00000000000E+00 0. -1.
         -1    1    1    2    0  502 -0.20897087822E+02  0.64921429957E+01 -0.21471673588E+01  0.21987417488E+02  0.00000000000E+00 0.  1.
<scales pt_clust_5="13000.00000" pt_clust_6="13000.00000" pt_clust_7="13000.00000" pt_clust_8="13000.00000" pt_clust_9="21.88233"></scales>
<clustering>
<clus scale="   21.882">  2  9  1 -1</clus>
<clus scale="   79.966">  5  6 -1 -1</clus>
<clus scale="   83.337">  1  5  2 -1</clus>
<clus scale="   88.140">  7  8 -1 -1</clus>
<clus scale="   21.882">  2  5  1 -1</clus>
</clustering>
</event>
<event>
 9    1  0.6675710E-005  0.1026014E+03  0.7546771E-02  0.1280939E+00
         -4   -1    0    0    0  501 -0.00000000000E+00  0.00000000000E+00  0.47613346959E+02  0.47613346959E+02  0.00000000000E+00 0.  1.
         21   -1    0    0  501  502  0.00000000000E+00 -0.00000000000E+00 -0.30600816801E+03  0.30600816801E+03  0.00000000000E+00 0. -1.
        -24    2    1    2    0    0 -0.57393736442E+02  0.53860555104E+01 -0.69242489406E+02  0.11957200926E+03  0.78612292180E+02 0.  0.
         23    2    1    2    0    0  0.23580134013E+02 -0.21659694538E+02 -0.15796048694E+03  0.18525276184E+03  0.91334031160E+02 0.  0.
         13    1    3    3    0    0 -0.57381610215E+02  0.23764077010E+02 -0.17297176423E+02  0.64471488731E+02  0.00000000000E+00 0. -1.
        -14    1    3    3    0    0 -0.12126227299E-01 -0.18378021500E+02 -0.51945312983E+02  0.55100520526E+02  0.00000000000E+00 0.  1.
        -13    1    4    4    0    0 -0.16044858395E+02  0.27691166037E+02 -0.69161849843E+02  0.76207608748E+02  0.00000000000E+00 0.  1.
         13    1    4    4    0    0  0.39624992408E+02 -0.49350860575E+02 -0.88798637093E+02  0.10904515309E+03  0.00000000000E+00 0. -1.
         -3    1    1    2    0  502  0.33813602430E+02  0.16273639027E+02 -0.31191844708E+02  0.48796743875E+02  0.00000000000E+00 0.  1.
<scales pt_clust_5="13000.00000" pt_clust_6="13000.00000" pt_clust_7="13000.00000" pt_clust_8="13000.00000" pt_clust_9="37.52589"></scales>
<clustering>
<clus scale="   37.526">  2  9  1 -1</clus>
<clus scale="   78.612">  5  6 -1 -1</clus>
<clus scale="   91.334">  7  8 -1 -1</clus>
<clus scale="   91.461">  1  5  2 -1</clus>
<clus scale="   37.526">  2  5  1 -1</clus>
</clustering>
</event>
<event>
 9    1  0.6675710E-005  0.1349516E+03  0.7546771E-02  0.1230097E+00
          1   -1    0    0  502    0 -0.00000000000E+00  0.00000000000E+00  0.23862396324E+03  0.23862396324E+03  0.00000000000E+00 0. -1.
         21   -1    0    0  501  502  0.00000000000E+00 -0.00000000000E+00 -0.13557371540E+03  0.13557371540E+03  0.00000000000E+00 0. -1.
        -24    2    1    2    0    0 -0.25403268728E+02  0.69634321833E+02  0.57532507105E+02  0.12416112739E+03  0.81312553413E+02 0.  0.
         23    2    1    2    0    0 -0.66447141496E+02  0.19883748948E+02  0.39783262989E+02  0.12165093254E+03  0.91682360841E+02 0.  0.
         11    1    3    3    0    0  0.79816260753E+01  0.27712306860E+02 -0.16148191527E+02  0.33052116360E+02  0.00000000000E+00 0. -1.
        -12    1    3    3    0    0 -0.33384894803E+02  0.41922014974E+02  0.73680698633E+02  0.91109011033E+02  0.00000000000E+00 0.  1.
        -13    1    4    4    0    0 -0.56214279392E+01  0.20515384827E+02  0.54980739475E+02  0.58952210984E+02  0.00000000000E+00 0.  1.
         13    1    4    4    0    0 -0.60825713557E+02 -0.63163587860E+00 -0.15197476487E+02  0.62698721559E+02  0.00000000000E+00 0. -1.
          2    1    1    2  501    0  0.91850410224E+02 -0.89518070782E+02  0.57344777455E+01  0.12838561870E+03  0.00000000000E+00 0. -1.
<scales pt_clust_5="13000.00000" pt_clust_6="13000.00000" pt_clust_7="13000.00000" pt_clust_8="13000.00000" pt_clust_9="99.02674"></scales>
<clustering>
<clus scale="   81.313">  5  6 -1 -1</clus>
<clus scale="   91.682">  7  8 -1 -1</clus>
<clus scale="  110.027">  1  5  2 -1</clus>
<clus scale="   99.027">  2  9  1 -1</clus>
<clus scale="   99.027">  2  5  1 -1</clus>
</clustering>
</event>
<event>
 9    1  0.6675710E-005  0.9359797E+02  0.7546771E-02  0.1300480E+00
         21   -1    0    0  501  502  0.00000000000E+00  0.00000000000E+00  0.17340666873E+02  0.17340666873E+02  0.00000000000E+00 0. -1.
          1   -1    0    0  502    0 -0.00000000000E+00 -0.00000000000E+00 -0.78765320516E+03  0.78765320516E+03  0.00000000000E+00 0. -1.
         23    2    1    2    0    0 -0.37755381140E+02 -0.37093488271E+01 -0.31969510090E+03  0.33454161636E+03  0.90961021681E+02 0.  0.
        -24    2    1    2    0    0 -0.45763648115E+01  0.25684645111E+02 -0.24052632122E+03  0.25501510136E+03  0.80617284845E+02 0.  0.
         13    1    4    4    0    0 -0.17558381656E+02 -0.23414421577E+02 -0.50984967594E+02  0.58787743831E+02  0.00000000000E+00 0. -1.
        -14    1    4    4    0    0  0.12982016845E+02  0.49099066687E+02 -0.18954135362E+03  0.19622735753E+03  0.00000000000E+00 0.  1.
        -11    1    3    3    0    0 -0.25147925454E+02  0.40817969567E+02 -0.11337521618E+03  0.12309534694E+03  0.00000000000E+00 0.  1.
         11    1    3    3    0    0 -0.12607455686E+02 -0.44527318394E+02 -0.20631988472E+03  0.21144626942E+03  0.00000000000E+00 0. -1.
          2    1    1    2  501    0  0.42331745952E+02 -0.21975296283E+02 -0.21009111617E+03  0.21543715431E+03  0.00000000000E+00 0. -1.
<scales pt_clust_5="13000.00000" pt_clust_6="13000.00000" pt_clust_7="13000.00000" pt_clust_8="13000.00000" pt_clust_9="47.69583"></scales>
<clustering>
<clus scale="   47.696">  1  9  2 -1</clus>
<clus scale="   80.617">  5  6 -1 -1</clus>
<clus scale="   83.581">  1  5  2 -1</clus>
<clus scale="   90.961">  7  8 -1 -1</clus>
<clus scale="   47.696">  1  5  2 -1</clus>
</clustering>
</event>
<event>
 9    1  0.6675710E-005  0.1729528E+03  0.7546771E-02  0.1176300E+00
         -2   -1    0    0    0  501 -0.00000000000E+00  0.00000000000E+00  0.36871370125E+03  0.36871370125E+03  0.00000000000E+00 0.  1.
         21   -1    0    0  501  502  0.00000000000E+00 -0.00000000000E+00 -0.17196947276E+03  0.17196947276E+03  0.00000000000E+00 0.  1.
         23    2    1    2    0    0  0.59660301369E+02 -0.13169327149E+03  0.22165985822E+03  0.28003639885E+03  0.91568677059E+02 0.  0.
        -24    2    1    2    0    0 -0.13126727497E+02  0.16330979259E+03 -0.62713817939E+02  0.19287007611E+03  0.80146390853E+02 0.  0.
         11    1    4    4    0    0  0.18740162770E+02  0.20298144794E+02  0.98974795858E+01  0.29345672336E+02  0.00000000000E+00 0. -1.
        -12    1    4    4    0    0 -0.31866890267E+02  0.14301164779E+03 -0.72611297525E+02  0.16352440377E+03  0.00000000000E+00 0.  1.
        -11    1    3    3    0    0 -0.19158645612E+02 -0.63453078611E+02  0.97725161228E+02  0.11808282696E+03  0.00000000000E+00 0. -1.
         11    1    3    3    0    0  0.78818946981E+02 -0.68240192878E+02  0.12393469700E+03  0.16195357189E+03  0.00000000000E+00 0.  1.
         -1    1    1    2    0  502 -0.46533573872E+02 -0.31616521099E+02  0.37798188208E+02  0.67776699060E+02  0.00000000000E+00 0.  1.
<scales pt_clust_5="13000.00000" pt_clust_6="13000.00000" pt_clust_7="13000.00000" pt_clust_8="13000.00000" pt_clust_9="56.25816"></scales>
<clustering>
<clus scale="   56.258">  2  9  1 -1</clus>
<clus scale="   80.146">  5  6 -1 -1</clus>
<clus scale="   91.569">  7  8 -1 -1</clus>
<clus scale="  167.186">  2  5  1 -1</clus>
<clus scale="   56.258">  2  5  1 -1</clus>
</clustering>
</event>
<event>
 9    1  0.6675710E-005  0.9510044E+02  0.7546771E-02  0.1295347E+00
         21   -1    0    0  501  502  0.00000000000E+00  0.00000000000E+00  0.43329011160E+03  0.43329011160E+03  0.00000000000E+00 0.  1.
         -2   -1    0    0    0  501 -0.00000000000E+00 -0.00000000000E+00 -0.44394795561E+02  0.44394795561E+02  0.00000000000E+00 0.  1.
         23    2    1    2    0    0 -0.19704665254E+02  0.16117918353E+02  0.38293720693E+02  0.10147628586E+03  0.90459750292E+02 0.  0.
        -24    2    1    2    0    0  0.53024007136E+02  0.26943241248E+01  0.25361376070E+03  0.27194588069E+03  0.82557965646E+02 0.  0.
         11    1    4    4    0    0 -0.14105400751E+02  0.23799850081E+02  0.65622309766E+02  0.71215747789E+02  0.00000000000E+00 0. -1.
        -12    1    4    4    0    0  0.67129407887E+02 -0.21105525956E+02  0.18799145093E+03  0.20073013290E+03  0.00000000000E+00 0.  1.
        -13    1    3    3    0    0 -0.54204790190E+02  0.26500017911E+01  0.34359849047E+02  0.64232242804E+02  0.00000000000E+00 0. -1.
         13    1    3    3    0    0  0.34500124936E+02  0.13467916562E+02  0.39338716455E+01  0.37244043057E+02  0.00000000000E+00 0.  1.
         -1    1    1    2    0  502 -0.33319341881E+02 -0.18812242478E+02  0.96987834653E+02  0.10426274062E+03  0.00000000000E+00 0.  1.
<scales pt_clust_5="13000.00000" pt_clust_6="13000.00000" pt_clust_7="13000.00000" pt_clust_8="13000.00000" pt_clust_9="38.26329"></scales>
<clustering>
<clus scale="   38.263">  1  9  2 -1</clus>
<clus scale="   82.558">  5  6 -1 -1</clus>
<clus scale="   87.618">  1  5  2 -1</clus>
<clus scale="   90.460">  7  8 -1 -1</clus>
<clus scale="   38.263">  1  5  2 -1</clus>
</clustering>
</event>
<event>
 9    1  0.6675710E-005  0.1921899E+03  0.7546771E-02  0.1157594E+00
         21   -1    0    0  501  502  0.00000000000E+00  0.00000000000E+00  0.28992081014E+03  0.28992081014E+03  0.00000000000E+00 0. -1.
          1   -1    0    0  502    0 -0.00000000000E+00 -0.00000000000E+00 -0.40604145504E+03  0.40604145504E+03  0.00000000000E+00 0. -1.
         23    2    1    2    0    0 -0.76183100972E+02  0.16906684698E+03  0.14991906555E+02  0.20731872819E+03  0.91481332376E+02 0.  0.
        -24    2    1    2    0    0  0.15647689391E+03 -0.71226657999E+02  0.10769841341E+03  0.21836502748E+03  0.80784168237E+02 0.  0.
         11    1    4    4    0    0  0.48774958293E+02 -0.33460925498E+02  0.82453328423E+02  0.10147502875E+03  0.00000000000E+00 0. -1.
        -12    1    4    4    0    0  0.10770193562E+03 -0.37765732501E+02  0.25245084984E+02  0.11688999873E+03  0.00000000000E+00 0.  1.
        -13    1    3    3    0    0 -0.29702030237E+02  0.15233666819E+03  0.24161382093E+02  0.15707464296E+03  0.00000000000E+00 0. -1.
         13    1    3    3    0    0 -0.46481070734E+02  0.16730178791E+02 -0.91694755377E+01  0.50244085230E+02  0.00000000000E+00 0.  1.
          2    1    1    2  501    0 -0.80293792939E+02 -0.97840188982E+02 -0.23881096487E+03  0.27027850952E+03  0.00000000000E+00 0. -1.
<scales pt_clust_5="13000.00000" pt_clust_6="13000.00000" pt_clust_7="13000.00000" pt_clust_8="13000.00000" pt_clust_9="126.56940"></scales>
<clustering>
<clus scale="   80.784">  5  6 -1 -1</clus>
<clus scale="   91.481">  7  8 -1 -1</clus>
<clus scale="  126.569">  1  9  2 -1</clus>
<clus scale="  187.334">  1  5  2 -1</clus>
<clus scale="  126.569">  1  5  2 -1</clus>
</clustering>
</event>
<event>
 9    1  0.6675710E-005  0.1025218E+03  0.7546771E-02  0.1275705E+00
         -2   -1    0    0    0  501 -0.00000000000E+00  0.00000000000E+00  0.15139331548E+03  0.15139331548E+03  0.00000000000E+00 0.  1.
         21   -1    0    0  501  502  0.00000000000E+00 -0.00000000000E+00 -0.14577932621E+03  0.14577932621E+03  0.00000000000E+00 0.  1.
        -24    2    1    2    0    0  0.34005608634E+02 -0.57875195522E+02  0.53608688299E+02  0.12140220286E+03  0.85782770542E+02 0.  0.
         23    2    1    2    0    0 -0.27057545474E+02  0.29145497202E+02  0.23250013081E+02  0.98637565494E+02  0.87219467116E+02 0.  0.
         11    1    3    3    0    0 -0.12217827412E+01 -0.31332340302E+02 -0.18841584614E+02  0.36581602106E+02  0.00000000000E+00 0. -1.
        -12    1    3    3    0    0  0.35227391375E+02 -0.26542855220E+02  0.72450272913E+02  0.84820600750E+02  0.00000000000E+00 0.  1.
        -11    1    4    4    0    0 -0.10686998495E+01 -0.25219186487E+02  0.28596850445E+02  0.38143536042E+02  0.00000000000E+00 0.  1.
         11    1    4    4    0    0 -0.25988845625E+02  0.54364683689E+02 -0.53468373638E+01  0.60494029452E+02  0.00000000000E+00 0. -1.
         -1    1    1    2    0  502 -0.69480631593E+01  0.28729698320E+02 -0.71244712111E+02  0.77132873349E+02  0.00000000000E+00 0.  1.
<scales pt_clust_5="13000.00000" pt_clust_6="13000.00000" pt_clust_7="13000.00000" pt_clust_8="13000.00000" pt_clust_9="29.55793"></scales>
<clustering>
<clus scale="   29.558">  2  9  1 -1</clus>
<clus scale="   85.783">  5  6 -1 -1</clus>
<clus scale="   87.219">  7  8 -1 -1</clus>
<clus scale="  101.302">  1  5  2 -1</clus>
<clus scale="   29.558">  2  5  1 -1</clus>
</clustering>
</event>
<event>
 9    1  0.6675710E-005  0.1116981E+03  0.7546771E-02  0.1261248E+00
          3   -1    0    0  502    0 -0.00000000000E+00  0.00000000000E+00  0.64888240873E+03  0.64888240873E+03  0.00000000000E+00 0. -1.
         21   -1    0    0  501  502  0.00000000000E+00 -0.00000000000E+00 -0.85228400634E+02  0.85228400634E+02  0.00000000000E+00 0. -1.
        -24    2    1    2    0    0  0.36293995295E+02  0.64090551552E+02  0.51280294670E+03  0.52407954619E+03  0.79168527179E+02 0.  0.
         23    2    1    2    0    0 -0.20791653912E+02 -0.38377316801E+02  0.10714877462E+03  0.14622745808E+03  0.89423141734E+02 0.  0.
         13    1    3    3    0    0  0.23173723840E+02 -0.14716707341E+02  0.16057957283E+03  0.16290918379E+03  0.00000000000E+00 0. -1.
        -14    1    3    3    0    0  0.13120271455E+02  0.78807258892E+02  0.35222337387E+03  0.36117036240E+03  0.00000000000E+00 0.  1.
        -13    1    4    4    0    0 -0.23010791491E+02  0.71863320173E+01  0.96389262596E+02  0.99358088935E+02  0.00000000000E+00 0. -1.
         13    1    4    4    0    0  0.22191375797E+01 -0.45563648818E+02  0.10759512022E+02  0.46869369147E+02  0.00000000000E+00 0.  1.
          4    1    1    2  501    0 -0.15502341384E+02 -0.25713234751E+02 -0.56297713225E+02  0.63803805091E+02  0.00000000000E+00 0. -1.
<scales pt_clust_5="13000.00000" pt_clust_6="13000.00000" pt_clust_7="13000.00000" pt_clust_8="13000.00000" pt_clust_9="30.02487"></scales>
<clustering>
<clus scale="   30.025">  2  9  1 -1</clus>
<clus scale="   79.169">  5  6 -1 -1</clus>
<clus scale="   89.423">  7  8 -1 -1</clus>
<clus scale="  103.671">  1  5  2 -1</clus>
<clus scale="   30.025">  2  5  1 -1</clus>
</clustering>
</event>
<event>
 9    1  0.6675710E-005  0.9583995E+02  0.7546771E-02  0.1291790E+00
         21   -1    0    0  501  502  0.00000000000E+00  0.00000000000E+00  0.21087874446E+02  0.21087874446E+02  0.00000000000E+00 0. -1.
         -4   -1    0    0    0  501 -0.00000000000E+00 -0.00000000000E+00 -0.73186232057E+03  0.73186232057E+03  0.00000000000E+00 0.  1.
        -24    2    1    2    0    0 -0.27466809110E+02  0.23759244325E+02 -0.27649003317E+03  0.29183072451E+03  0.86020381496E+02 0.  0.
         23    2    1    2    0    0  0.34080611428E+02  0.16375563643E+02 -0.19434264340E+03  0.21775431695E+03  0.90654466759E+02 0.  0.
         13    1    3    3    0    0 -0.37702093271E+02 -0.21546150067E+02 -0.94377159889E+02  0.10388807789E+03  0.00000000000E+00 0. -1.
        -14    1    3    3    0    0  0.10235284161E+02  0.45305394392E+02 -0.18211287328E+03  0.18794264662E+03  0.00000000000E+00 0.  1.
        -11    1    4    4    0    0 -0.19454722270E+02  0.15579189339E+02 -0.13720825474E+03  0.13945358557E+03  0.00000000000E+00 0.  1.
         11    1    4    4    0    0  0.53535333698E+02  0.79637430382E+00 -0.57134388662E+02  0.78300731376E+02  0.00000000000E+00 0. -1.
         -3    1    1    2    0  502 -0.66138023176E+01 -0.40134807968E+02 -0.23994176956E+03  0.24336515357E+03  0.00000000000E+00 0.  1.
<scales pt_clust_5="13000.00000" pt_clust_6="13000.00000" pt_clust_7="13000.00000" pt_clust_8="13000.00000" pt_clust_9="40.67612"></scales>
<clustering>
<clus scale="   40.676">  1  9  2 -1</clus>
<clus scale="   86.020">  5  6 -1 -1</clus>
<clus scale="   90.654">  7  8 -1 -1</clus>
<clus scale="   91.469">  2  5  1 -1</clus>
<clus scale="   40.676">  1  5  2 -1</clus>
</clustering>
</event>
<event>
 9    1  0.6675710E-005  0.9717331E+02  0.7546771E-02  0.1291391E+00
         -2   -1    0    0    0  501 -0.00000000000E+00  0.00000000000E+00  0.42814251553E+02  0.42814251553E+02  0.00000000000E+00 0.  1.
         21   -1    0    0  501  502  0.00000000000E+00 -0.00000000000E+00 -0.54954387735E+03  0.54954387735E+03  0.00000000000E+00 0. -1.
        -24    2    1    2    0    0  0.28434209681E+00 -0.23966226168E+02 -0.24244701473E+02  0.90557486401E+02  0.83895124689E+02 0.  0.
         23    2    1    2    0    0 -0.52268093636E+01  0.53781299313E+02 -0.37210089798E+03  0.38735414915E+03  0.93082817387E+02 0.  0.
         11    1    3    3    0    0 -0.14261386542E+02  0.27481597537E+02 -0.20139841793E+02  0.36935600397E+02  0.00000000000E+00 0. -1.
        -12    1    3    3    0    0  0.14545728639E+02 -0.51447823704E+02 -0.41048596802E+01  0.53621886003E+02  0.00000000000E+00 0.  1.
        -11    1    4    4    0    0  0.29165495757E+02 -0.60896719164E+01 -0.52363272509E+02  0.60246348891E+02  0.00000000000E+00 0.  1.
         11    1    4    4    0    0 -0.34392305121E+02  0.59870971229E+02 -0.31973762547E+03  0.32710780026E+03  0.00000000000E+00 0. -1.
         -1    1    1    2    0  502  0.49424672668E+01 -0.29815073145E+02 -0.11038402634E+03  0.11444649335E+03  0.00000000000E+00 0.  1.
<scales pt_clust_5="13000.00000" pt_clust_6="13000.00000" pt_clust_7="13000.00000" pt_clust_8="13000.00000" pt_clust_9="30.22196"></scales>
<clustering>
<clus scale="   30.222">  2  9  1 -1</clus>
<clus scale="   83.895">  5  6 -1 -1</clus>
<clus scale="   88.412">  1  5  2 -1</clus>
<clus scale="   93.083">  7  8 -1 -1</clus>
<clus scale="   30.222">  2  5  1 -1</clus>
</clustering>
</event>
<event>
 9    1  0.6675710E-005  0.9544458E+02  0.7546771E-02  0.1295790E+00
         21   -1    0    0  501  502  0.00000000000E+00  0.00000000000E+00  0.21846514502E+03  0.21846514502E+03  0.00000000000E+00 0.  1.
         -2   -1    0    0    0  501 -0.00000000000E+00 -0.00000000000E+00 -0.16381989685E+03  0.16381989685E+03  0.00000000000E+00 0.  1.
         23    2    1    2    0    0 -0.22716157877E+02 -0.35251043032E+02 -0.12530587015E+03  0.15820730769E+03  0.87001903705E+02 0.  0.
        -24    2    1    2    0    0  0.61881733460E+01  0.71234815844E+01  0.17482142761E+03  0.19105277828E+03  0.76482645470E+02 0.  0.
         11    1    4    4    0    0 -0.32019086196E+02  0.50421776627E+00  0.42795580385E+02  0.53450330372E+02  0.00000000000E+00 0. -1.
        -12    1    4    4    0    0  0.38207259542E+02  0.66192638181E+01  0.13202584723E+03  0.13760244791E+03  0.00000000000E+00 0.  1.
        -13    1    3    3    0    0 -0.42193159766E+02 -0.29641468352E+02 -0.12777641714E+03  0.13778857773E+03  0.00000000000E+00 0.  1.
         13    1    3    3    0    0  0.19477001888E+02 -0.56095746806E+01  0.24705469852E+01  0.20418729957E+02  0.00000000000E+00 0. -1.
         -1    1    1    2    0  502  0.16527984531E+02  0.28127561448E+02  0.51296907098E+01  0.33024955904E+02  0.00000000000E+00 0.  1.
<scales pt_clust_5="13000.00000" pt_clust_6="13000.00000" pt_clust_7="13000.00000" pt_clust_8="13000.00000" pt_clust_9="32.62413"></scales>
<clustering>
<clus scale="   32.624">  1  9  2 -1</clus>
<clus scale="   76.483">  5  6 -1 -1</clus>
<clus scale="   85.965">  1  5  2 -1</clus>
<clus scale="   87.002">  7  8 -1 -1</clus>
<clus scale="   32.624">  1  5  2 -1</clus>
</clustering>
</event>
<event>
 9    1  0.6675710E-005  0.1023976E+03  0.7546771E-02  0.1284022E+00
         21   -1    0    0  501  502  0.00000000000E+00  0.00000000000E+00  0.14341866017E+03  0.14341866017E+03  0.00000000000E+00 0.  1.
         -4   -1    0    0    0  501 -0.00000000000E+00 -0.00000000000E+00 -0.10029506498E+03  0.10029506498E+03  0.00000000000E+00 0.  1.
        -24    2    1    2    0    0 -0.27921174148E+02  0.23292184344E+02 -0.33605063014E+02  0.95342508323E+02  0.81478683199E+02 0.  0.
         23    2    1    2    0    0  0.54864147075E+01 -0.14202048089E+02  0.46049875617E+02  0.10929262026E+03  0.97941241991E+02 0.  0.
         11    1    3    3    0    0 -0.37578972705E+02  0.54629449838E+01  0.16414106473E+02  0.41369624712E+02  0.00000000000E+00 0. -1.
        -12    1    3    3    0    0  0.96577985576E+01  0.17829239360E+02 -0.50019169487E+02  0.53972883612E+02  0.00000000000E+00 0.  1.
        -11    1    4    4    0    0 -0.38475151228E+02  0.43392636634E+01  0.47842521836E+02  0.61547326236E+02  0.00000000000E+00 0.  1.
         11    1    4    4    0    0  0.43961565936E+02 -0.18541311752E+02 -0.17926462193E+01  0.47745294024E+02  0.00000000000E+00 0. -1.
         -3    1    1    2    0  502  0.22434759440E+02 -0.90901362555E+01  0.30678782591E+02  0.39078596566E+02  0.00000000000E+00 0.  1.
<scales pt_clust_5="13000.00000" pt_clust_6="13000.00000" pt_clust_7="13000.00000" pt_clust_8="13000.00000" pt_clust_9="24.20638"></scales>
<clustering>
<clus scale="   24.206">  1  9  2 -1</clus>
<clus scale="   81.479">  5  6 -1 -1</clus>
<clus scale="   86.785">  2  5  1 -1</clus>
<clus scale="   97.941">  7  8 -1 -1</clus>
<clus scale="   24.206">  1  5  2 -1</clus>
</clustering>
</event>
<event>
 9    1  0.6675710E-005  0.1354493E+03  0.7546771E-02  0.1222637E+00
         -4   -1    0    0    0  501 -0.00000000000E+00  0.00000000000E+00  0.67118371359E+03  0.67118371359E+03  0.00000000000E+00 0.  1.
         21   -1    0    0  501  502  0.00000000000E+00 -0.00000000000E+00 -0.47414905730E+02  0.47414905730E+02  0.00000000000E+00 0.  1.
         23    2    1    2    0    0  0.92480843439E+02  0.76897612223E+02  0.46048803174E+03  0.48490640803E+03  0.92838828124E+02 0.  0.
        -24    2    1    2    0    0 -0.45419148108E+02 -0.50661099385E+02  0.13984002075E+03  0.17493315424E+03  0.80105749118E+02 0.  0.
         13    1    4    4    0    0 -0.47841438090E+02 -0.10380958161E+02  0.12074239442E+03  0.13028926779E+03  0.00000000000E+00 0. -1.
        -14    1    4    4    0    0  0.24222899817E+01 -0.40280141224E+02  0.19097626334E+02  0.44643886450E+02  0.00000000000E+00 0.  1.
        -13    1    3    3    0    0 -0.14716583131E+02  0.32320890146E+02  0.94905686633E+02  0.10133265571E+03  0.00000000000E+00 0. -1.
         13    1    3    3    0    0  0.10719742657E+03  0.44576722078E+02  0.36558234510E+03  0.38357375232E+03  0.00000000000E+00 0.  1.
         -3    1    1    2    0  502 -0.47061695331E+02 -0.26236512839E+02  0.23440755374E+02  0.58759057054E+02  0.00000000000E+00 0.  1.
<scales pt_clust_5="13000.00000" pt_clust_6="13000.00000" pt_clust_7="13000.00000" pt_clust_8="13000.00000" pt_clust_9="53.88096"></scales>
<clustering>
<clus scale="   53.881">  2  9  1 -1</clus>
<clus scale="   80.106">  5  6 -1 -1</clus>
<clus scale="   92.839">  7  8 -1 -1</clus>
<clus scale="  127.061">  2  5  1 -1</clus>
<clus scale="   53.881">  2  5  1 -1</clus>
</clustering>
</event>
<event>
 9    1  0.6675710E-005  0.1477317E+03  0.7546771E-02  0.1225977E+00
          3   -1    0    0  502    0 -0.00000000000E+00  0.00000000000E+00  0.61960835549E+03  0.61960835549E+03  0.00000000000E+00 0. -1.
         21   -1    0    0  501  502  0.00000000000E+00 -0.00000000000E+00 -0.55898510053E+02  0.55898510053E+02  0.00000000000E+00 0. -1.
        -24    2    1    2    0    0 -0.46073586243E+02  0.15314300841E+02  0.15794000544E+03  0.18245260628E+03  0.77373154645E+02 0.  0.
         23    2    1    2    0    0 -0.53196680956E+02  0.83761203387E+02  0.15719736958E+03  0.20764435310E+03  0.92516692082E+02 0.  0.
         13    1    3    3    0    0 -0.32569966021E+02 -0.29376346193E+02  0.64522624349E+02  0.78018853203E+02  0.00000000000E+00 0. -1.
        -14    1    3    3    0    0 -0.13503620222E+02  0.44690647034E+02  0.93417381095E+02  0.10443375308E+03  0.00000000000E+00 0.  1.
        -13    1    4    4    0    0 -0.46947539310E+02  0.32675702739E+02  0.19157530451E+02  0.60322333922E+02  0.00000000000E+00 0. -1.
         13    1    4    4    0    0 -0.62491416454E+01  0.51085500648E+02  0.13803983913E+03  0.14732201918E+03  0.00000000000E+00 0.  1.
          4    1    1    2  501    0  0.99270267198E+02 -0.99075504228E+02  0.24857247041E+03  0.28540990616E+03  0.00000000000E+00 0. -1.
<scales pt_clust_5="13000.00000" pt_clust_6="13000.00000" pt_clust_7="13000.00000" pt_clust_8="13000.00000" pt_clust_9="115.17523"></scales>
<clustering>
<clus scale="   77.373">  5  6 -1 -1</clus>
<clus scale="   91.345">  1  5  2 -1</clus>
<clus scale="   92.517">  7  8 -1 -1</clus>
<clus scale="  115.175">  2  9  1 -1</clus>
<clus scale="  115.175">  2  5  1 -1</clus>
</clustering>
</event>
<event>
 9    1  0.6675710E-005  0.1745619E+03  0.7546771E-02  0.1193481E+00
         21   -1    0    0  501  502  0.00000000000E+00  0.00000000000E+00  0.56405836682E+03  0.56405836682E+03  0.00000000000E+00 0. -1.
          3   -1    0    0  502    0 -0.00000000000E+00 -0.00000000000E+00 -0.19116727191E+03  0.19116727191E+03  0.00000000000E+00 0. -1.
         23    2    1    2    0    0  0.90404932413E+01 -0.64137854682E+02  0.20834577541E+03  0.23600775960E+03  0.89979472875E+02 0.  0.
        -24    2    1    2    0    0 -0.52121502820E+02 -0.91792037988E+02 -0.12828565798E+03  0.18467328391E+03  0.80650991653E+02 0.  0.
         13    1    4    4    0    0 -0.35486199139E+02 -0.85751175124E+02 -0.13658144540E+03  0.16512730117E+03  0.00000000000E+00 0. -1.
        -14    1    4    4    0    0 -0.16635303681E+02 -0.60408628631E+01  0.82957874164E+01  0.19545982747E+02  0.00000000000E+00 0.  1.
        -11    1    3    3    0    0  0.89864721185E+01 -0.86345290607E+02  0.14642336082E+03  0.17022357793E+03  0.00000000000E+00 0. -1.
         11    1    3    3    0    0  0.54021122849E-01  0.22207435925E+02  0.61922414593E+02  0.65784181667E+02  0.00000000000E+00 0.  1.
          4    1    1    2  501    0  0.43081009579E+02  0.15592989267E+03  0.29283097748E+03  0.33454459521E+03  0.00000000000E+00 0. -1.
<scales pt_clust_5="13000.00000" pt_clust_6="13000.00000" pt_clust_7="13000.00000" pt_clust_8="13000.00000" pt_clust_9="154.81370"></scales>
<clustering>
<clus scale="   80.651">  5  6 -1 -1</clus>
<clus scale="   89.979">  7  8 -1 -1</clus>
<clus scale="  110.868">  2  7  1 -1</clus>
<clus scale="  154.814">  1  9  2 -1</clus>
<clus scale="  154.814">  1  5  2 -1</clus>
</clustering>
</event>
<event>
 9    1  0.6675710E-005  0.9316722E+02  0.7546771E-02  0.1303244E+00
         21   -1    0    0  501  502  0.00000000000E+00  0.00000000000E+00  0.20100193412E+02  0.20100193412E+02  0.00000000000E+00 0.  1.
          1   -1    0    0  502    0 -0.00000000000E+00 -0.00000000000E+00 -0.62846390579E+03  0.62846390579E+03  0.00000000000E+00 0. -1.
        -24    2    1    2    0    0  0.13015466641E+01  0.82327444370E+01 -0.34054441021E+03  0.34969515427E+03  0.79036279567E+02 0.  0.
         23    2    1    2    0    0 -0.24785423503E+01 -0.36788774846E+02 -0.16754861227E+03  0.19460464882E+03  0.91863348200E+02 0.  0.
         13    1    3    3    0    0 -0.26820702209E+02 -0.24292005574E+02 -0.14082877444E+03  0.14540356018E+03  0.00000000000E+00 0. -1.
        -14    1    3    3    0    0  0.28122248873E+02  0.32524750011E+02 -0.19971563577E+03  0.20429159409E+03  0.00000000000E+00 0.  1.
        -11    1    4    4    0    0 -0.13362570382E+02  0.26721484004E+02 -0.28218270696E+02  0.41095824553E+02  0.00000000000E+00 0.  1.
         11    1    4    4    0    0  0.10884028031E+02 -0.63510258850E+02 -0.13933034158E+03  0.15350882427E+03  0.00000000000E+00 0. -1.
          2    1    1    2  501    0  0.11769956862E+01  0.28556030409E+02 -0.10027068989E+03  0.10426429610E+03  0.00000000000E+00 0. -1.
<scales pt_clust_5="13000.00000" pt_clust_6="13000.00000" pt_clust_7="13000.00000" pt_clust_8="13000.00000" pt_clust_9="28.58029"></scales>
<clustering>
<clus scale="   28.580">  1  9  2 -1</clus>
<clus scale="   79.036">  5  6 -1 -1</clus>
<clus scale="   80.548">  2  5  1 -1</clus>
<clus scale="   91.863">  7  8 -1 -1</clus>
<clus scale="   28.580">  1  5  2 -1</clus>
</clustering>
</event>
<event>
 9    1  0.6675710E-005  0.1005605E+03  0.7546771E-02  0.1284874E+00
         21   -1    0    0  501  502  0.00000000000E+00  0.00000000000E+00  0.37951919796E+03  0.37951919796E+03  0.00000000000E+00 0. -1.
         -2   -1    0    0    0  501 -0.00000000000E+00 -0.00000000000E+00 -0.45080598245E+02  0.45080598245E+02  0.00000000000E+00 0.  1.
        -24    2    1    2    0    0 -0.27236797193E+02 -0.28994892442E+02  0.49766936706E+02  0.10228367392E+03  0.80016592361E+02 0.  0.
         23    2    1    2    0    0  0.47051343825E+02  0.14346868866E+02  0.13373475912E+03  0.16938107133E+03  0.91571283312E+02 0.  0.
         13    1    3    3    0    0 -0.90768908140E+01  0.20349987450E+02  0.44086029705E+02  0.49397266637E+02  0.00000000000E+00 0. -1.
        -14    1    3    3    0    0 -0.18159906379E+02 -0.49344879892E+02  0.56809070012E+01  0.52886407286E+02  0.00000000000E+00 0.  1.
        -13    1    4    4    0    0  0.27508623935E+02 -0.32740353513E+02  0.25623099814E+02  0.49851764091E+02  0.00000000000E+00 0.  1.
         13    1    4    4    0    0  0.19542719890E+02  0.47087222379E+02  0.10811165930E+03  0.11952930724E+03  0.00000000000E+00 0. -1.
         -1    1    1    2    0  502 -0.19814546632E+02  0.14648023576E+02  0.15093690389E+03  0.15293505095E+03  0.00000000000E+00 0.  1.
<scales pt_clust_5="13000.00000" pt_clust_6="13000.00000" pt_clust_7="13000.00000" pt_clust_8="13000.00000" pt_clust_9="24.64104"></scales>
<clustering>
<clus scale="   24.641">  1  9  2 -1</clus>
<clus scale="   80.017">  5  6 -1 -1</clus>
<clus scale="   90.165">  2  5  1 -1</clus>
<clus scale="   91.571">  7  8 -1 -1</clus>
<clus scale="   24.641">  1  5  2 -1</clus>
</clustering>
</event>
<event>
 9    1  0.6675710E-005  0.1145971E+03  0.7546771E-02  0.1256167E+00
         21   -1    0    0  501  502  0.00000000000E+00  0.00000000000E+00  0.11876411419E+03  0.11876411419E+03  0.00000000000E+00 0. -1.
          1   -1    0    0  502    0 -0.00000000000E+00 -0.00000000000E+00 -0.17883901432E+03  0.17883901432E+03  0.00000000000E+00 0. -1.
         23    2    1    2    0    0 -0.74841060064E+02 -0.63424124440E+02 -0.57640672294E+02  0.14556148987E+03  0.90784890807E+02 0.  0.
        -24    2    1    2    0    0  0.19323019980E+02  0.41059607024E+02 -0.66627344870E+01  0.92039099669E+02  0.79796825795E+02 0.  0.
         11    1    4    4    0    0  0.23575771194E+02 -0.30082931108E+01  0.27332253282E+02  0.36220420819E+02  0.00000000000E+00 0. -1.
        -12    1    4    4    0    0 -0.42527512145E+01  0.44067900135E+02 -0.33994987769E+02  0.55818678850E+02  0.00000000000E+00 0.  1.
        -11    1    3    3    0    0 -0.58866304985E+02  0.72504441020E+01 -0.38175520241E+02  0.70534964011E+02  0.00000000000E+00 0. -1.
         11    1    3    3    0    0 -0.15974755079E+02 -0.70674568542E+02 -0.19465152053E+02  0.75026525862E+02  0.00000000000E+00 0.  1.
          2    1    1    2  501    0  0.55518040084E+02  0.22364517416E+02  0.42285066545E+01  0.60002538968E+02  0.00000000000E+00 0. -1.
<scales pt_clust_5="13000.00000" pt_clust_6="13000.00000" pt_clust_7="13000.00000" pt_clust_8="13000.00000" pt_clust_9="59.85336"></scales>
<clustering>
<clus scale="   59.853">  1  9  2 -1</clus>
<clus scale="   79.797">  5  6 -1 -1</clus>
<clus scale="   90.785">  7  8 -1 -1</clus>
<clus scale="  106.104">  1  5  2 -1</clus>
<clus scale="   59.853">  1  5  2 -1</clus>
</clustering>
</event>
<event>
 9    1  0.6675710E-005  0.1617714E+03  0.7546771E-02  0.1188647E+00
         21   -1    0    0  501  502  0.00000000000E+00  0.00000000000E+00  0.10428764774E+03  0.10428764774E+03  0.00000000000E+00 0.  1.
          1   -1    0    0  502    0 -0.00000000000E+00 -0.00000000000E+00 -0.55527028410E+03  0.55527028410E+03  0.00000000000E+00 0. -1.
         23    2    1    2    0    0 -0.17723899825E+02  0.11889013245E+03 -0.22904392695E+03  0.27462008816E+03  0.92228369435E+02 0.  0.
        -24    2    1    2    0    0  0.36351019467E+02 -0.14154925036E+03 -0.27664371213E+03  0.32286496287E+03  0.79702282886E+02 0.  0.
         13    1    4    4    0    0 -0.19438692704E+02 -0.17549740128E+02 -0.76867282088E+02  0.81206127898E+02  0.00000000000E+00 0. -1.
        -14    1    4    4    0    0  0.55789712171E+02 -0.12399951023E+03 -0.19977643004E+03  0.24165883497E+03  0.00000000000E+00 0.  1.
        -11    1    3    3    0    0 -0.42379541785E+02  0.11676684288E+03 -0.20734440070E+03  0.24170689204E+03  0.00000000000E+00 0. -1.
         11    1    3    3    0    0  0.24655641960E+02  0.21232895649E+01 -0.21699526245E+02  0.32913196112E+02  0.00000000000E+00 0.  1.
          2    1    1    2  501    0 -0.18627119642E+02  0.22659117908E+02  0.54705002711E+02  0.62072880811E+02  0.00000000000E+00 0. -1.
<scales pt_clust_5="13000.00000" pt_clust_6="13000.00000" pt_clust_7="13000.00000" pt_clust_8="13000.00000" pt_clust_9="29.33266"></scales>
<clustering>
<clus scale="   29.333">  1  9  2 -1</clus>
<clus scale="   79.702">  5  6 -1 -1</clus>
<clus scale="   92.228">  7  8 -1 -1</clus>
<clus scale="  154.972">  1  5  2 -1</clus>
<clus scale="   29.333">  1  5  2 -1</clus>
</clustering>
</event>
<event>
 9    1  0.6675710E-005  0.1692236E+03  0.7546771E-02  0.1180808E+00
          1   -1    0    0  502    0 -0.00000000000E+00  0.00000000000E+00  0.34278618783E+03  0.34278618783E+03  0.00000000000E+00 0. -1.
         21   -1    0    0  501  502  0.00000000000E+00 -0.00000000000E+00 -0.25837008438E+03  0.25837008438E+03  0.00000000000E+00 0. -1.
        -24    2    1    2    0    0  0.13410203976E+03 -0.18176644349E+02  0.22623011374E+03  0.27674391208E+03  0.84222212285E+02 0.  0.
         23    2    1    2    0    0 -0.15752593356E+03 -0.71301036030E+02 -0.91032099388E+02  0.21889583744E+03  0.98642217358E+02 0.  0.
         13    1    3    3    0    0  0.10367397280E+03 -0.64212000073E+01  0.92487562519E+02  0.13908081703E+03  0.00000000000E+00 0. -1.
        -14    1    3    3    0    0  0.30428066959E+02 -0.11755444342E+02  0.13374255122E+03  0.13766309505E+03  0.00000000000E+00 0.  1.
        -13    1    4    4    0    0 -0.77217406309E+01 -0.39173664671E+02  0.14189577457E+01  0.39952656022E+02  0.00000000000E+00 0.  1.
         13    1    4    4    0    0 -0.14980419293E+03 -0.32127371359E+02 -0.92451057134E+02  0.17894318141E+03  0.00000000000E+00 0. -1.
          2    1    1    2  501    0  0.23423893802E+02  0.89477680379E+02 -0.50781910901E+02  0.10551652270E+03  0.00000000000E+00 0. -1.
<scales pt_clust_5="13000.00000" pt_clust_6="13000.00000" pt_clust_7="13000.00000" pt_clust_8="13000.00000" pt_clust_9="92.49289"></scales>
<clustering>
<clus scale="   84.222">  5  6 -1 -1</clus>
<clus scale="   92.493">  2  9  1 -1</clus>
<clus scale="   98.642">  7  8 -1 -1</clus>
<clus scale="  161.244">  1  5  2 -1</clus>
<clus scale="   92.493">  2  5  1 -1</clus>
</clustering>
</event>
<event>
 9    1  0.6675710E-005  0.1077481E+03  0.7546771E-02  0.1271957E+00
         21   -1    0    0  501  502  0.00000000000E+00  0.00000000000E+00  0.57332943176E+02  0.57332943176E+02  0.00000000000E+00 0. -1.
          1   -1    0    0  502    0 -0.00000000000E+00 -0.00000000000E+00 -0.55031876624E+03  0.55031876624E+03  0.00000000000E+00 0. -1.
        -24    2    1    2    0    0 -0.31936328642E+02  0.59957932766E+02 -0.38299711230E+03  0.39690193811E+03  0.78927040090E+02 0.  0.
         23    2    1    2    0    0 -0.13665282483E+02 -0.11146084262E+02 -0.10649232751E+03  0.14385935206E+03  0.95099538465E+02 0.  0.
         11    1    3    3    0    0 -0.23177084050E+02  0.74755105972E+02 -0.35867805233E+03  0.36711775811E+03  0.00000000000E+00 0. -1.
        -12    1    3    3    0    0 -0.87592445923E+01 -0.14797173206E+02 -0.24319059970E+02  0.29784180004E+02  0.00000000000E+00 0.  1.
        -13    1    4    4    0    0  0.26437366040E+02 -0.38424668851E+02 -0.39298478488E+02  0.60989834489E+02  0.00000000000E+00 0.  1.
         13    1    4    4    0    0 -0.40102648523E+02  0.27278584589E+02 -0.67193849023E+02  0.82869517570E+02  0.00000000000E+00 0. -1.
          2    1    1    2  501    0  0.45601611126E+02 -0.48811848504E+02 -0.34963832560E+01  0.66890419251E+02  0.00000000000E+00 0. -1.
<scales pt_clust_5="13000.00000" pt_clust_6="13000.00000" pt_clust_7="13000.00000" pt_clust_8="13000.00000" pt_clust_9="66.79898"></scales>
<clustering>
<clus scale="   66.799">  1  9  2 -1</clus>
<clus scale="   78.927">  5  6 -1 -1</clus>
<clus scale="   93.783">  2  5  1 -1</clus>
<clus scale="   95.100">  7  8 -1 -1</clus>
<clus scale="   66.799">  1  5  2 -1</clus>
</clustering>
</event>
<event>
 9    1  0.6675710E-005  0.1083489E+03  0.7546771E-02  0.1266843E+00
         -4   -1    0    0    0  501 -0.00000000000E+00  0.00000000000E+00  0.41066261117E+03  0.41066261117E+03  0.00000000000E+00 0.  1.
         21   -1    0    0  501  502  0.00000000000E+00 -0.00000000000E+00 -0.37788329325E+02  0.37788329325E+02  0.00000000000E+00 0. -1.
        -24    2    1    2    0    0  0.33158131192E+02 -0.54981183553E+02  0.20893818348E+03  0.23361848180E+03  0.82462344820E+02 0.  0.
         23    2    1    2    0    0 -0.44488595374E+02  0.31607696547E+02  0.98374090043E+02  0.14431241723E+03  0.90389880935E+02 0.  0.
         11    1    3    3    0    0 -0.11554037645E+02 -0.45958634828E+02  0.15932745267E+03  0.16622553678E+03  0.00000000000E+00 0. -1.
        -12    1    3    3    0    0  0.44712168837E+02 -0.90225487249E+01  0.49610730803E+02  0.67392945020E+02  0.00000000000E+00 0.  1.
        -11    1    4    4    0    0 -0.11486559260E+02  0.60471531701E+02  0.61694738611E+02  0.87149228122E+02  0.00000000000E+00 0.  1.
         11    1    4    4    0    0 -0.33002036114E+02 -0.28863835154E+02  0.36679351432E+02  0.57163189107E+02  0.00000000000E+00 0. -1.
         -3    1    1    2    0  502  0.11330464182E+02  0.23373487006E+02  0.65562008327E+02  0.70520041473E+02  0.00000000000E+00 0.  1.
<scales pt_clust_5="13000.00000" pt_clust_6="13000.00000" pt_clust_7="13000.00000" pt_clust_8="13000.00000" pt_clust_9="25.97499"></scales>
<clustering>
<clus scale="   25.975">  2  9  1 -1</clus>
<clus scale="   82.462">  5  6 -1 -1</clus>
<clus scale="   90.390">  7  8 -1 -1</clus>
<clus scale="  101.829">  1  5  2 -1</clus>
<clus scale="   25.975">  2  5  1 -1</clus>
</clustering>
</event>
<event>
 9    1  0.6675710E-005  0.9597071E+02  0.7546771E-02  0.1297663E+00
         -4   -1    0    0    0  501 -0.00000000000E+00  0.00000000000E+00  0.20398839688E+03  0.20398839688E+03  0.00000000000E+00 0.  1.
         21   -1    0    0  501  502  0.00000000000E+00 -0.00000000000E+00 -0.12300467140E+03  0.12300467140E+03  0.00000000000E+00 0.  1.
        -24    2    1    2    0    0  0.63594828279E+01 -0.30755048064E+02  0.99146985055E+02  0.13124450285E+03  0.80054224621E+02 0.  0.
         23    2    1    2    0    0 -0.69864087260E+01 -0.12733429532E+02  0.55184684663E+02  0.11047511327E+03  0.94596253073E+02 0.  0.
         13    1    3    3    0    0  0.36477990504E+02  0.48475064648E+01  0.28278064540E+02  0.46408954355E+02  0.00000000000E+00 0. -1.
        -14    1    3    3    0    0 -0.30118507677E+02 -0.35602554528E+02  0.70868920515E+02  0.84835548495E+02  0.00000000000E+00 0.  1.
        -11    1    4    4    0    0 -0.79436973649E+01 -0.53921093593E+02  0.31852674987E+02  0.63128278654E+02  0.00000000000E+00 0.  1.
         11    1    4    4    0    0  0.95728863890E+00  0.41187664061E+02  0.23332009677E+02  0.47346834613E+02  0.00000000000E+00 0. -1.
         -3    1    1    2    0  502  0.62692589817E+00  0.43488477596E+02 -0.73347944237E+02  0.85273452161E+02  0.00000000000E+00 0.  1.
<scales pt_clust_5="13000.00000" pt_clust_6="13000.00000" pt_clust_7="13000.00000" pt_clust_8="13000.00000" pt_clust_9="43.49300"></scales>
<clustering>
<clus scale="   43.493">  2  9  1 -1</clus>
<clus scale="   80.054">  5  6 -1 -1</clus>
<clus scale="   81.674">  1  5  2 -1</clus>
<clus scale="   94.596">  7  8 -1 -1</clus>
<clus scale="   43.493">  2  5  1 -1</clus>
</clustering>
</event>
<event>
 9    1  0.6675710E-005  0.1421304E+03  0.7546771E-02  0.1213182E+00
          1   -1    0    0  502    0 -0.00000000000E+00  0.00000000000E+00  0.62795814146E+03  0.62795814146E+03  0.00000000000E+00 0. -1.
         21   -1    0    0  501  502  0.00000000000E+00 -0.00000000000E+00 -0.10110054536E+03  0.10110054536E+03  0.00000000000E+00 0.  1.
        -24    2    1    2    0    0  0.93447638107E+02  0.23989699618E+02  0.38990032215E+03  0.40951913794E+03  0.79847957798E+02 0.  0.
         23    2    1    2    0    0 -0.16913707229E+03 -0.63351957810E+02  0.10447952126E+03  0.22825383129E+03  0.92536594679E+02 0.  0.
         13    1    3    3    0    0  0.99226251906E+02  0.12074552898E+02  0.38015597519E+03  0.39307786680E+03  0.00000000000E+00 0. -1.
        -14    1    3    3    0    0 -0.57786137996E+01  0.11915146720E+02  0.97443469617E+01  0.16441271134E+02  0.00000000000E+00 0.  1.
        -11    1    4    4    0    0 -0.15371485808E+03 -0.29508181929E+02  0.54045950387E+02  0.16558971933E+03  0.00000000000E+00 0.  1.
         11    1    4    4    0    0 -0.15422214216E+02 -0.33843775881E+02  0.50433570871E+02  0.62664111962E+02  0.00000000000E+00 0. -1.
          2    1    1    2  501    0  0.75689434186E+02  0.39362258193E+02  0.32477752690E+02  0.91285717597E+02  0.00000000000E+00 0. -1.
<scales pt_clust_5="13000.00000" pt_clust_6="13000.00000" pt_clust_7="13000.00000" pt_clust_8="13000.00000" pt_clust_9="85.31282"></scales>
<clustering>
<clus scale="   79.848">  5  6 -1 -1</clus>
<clus scale="   85.313">  2  9  1 -1</clus>
<clus scale="   92.537">  7  8 -1 -1</clus>
<clus scale="  134.215">  1  5  2 -1</clus>
<clus scale="   85.313">  2  5  1 -1</clus>
</clustering>
</event>
<event>
 9    1  0.6675710E-005  0.1288812E+03  0.7546771E-02  0.1246417E+00
         21   -1    0    0  501  502  0.00000000000E+00  0.00000000000E+00  0.12071789504E+03  0.12071789504E+03  0.00000000000E+00 0.  1.
          1   -1    0    0  502    0 -0.00000000000E+00 -0.00000000000E+00 -0.35809610480E+03  0.35809610480E+03  0.00000000000E+00 0. -1.
        -24    2    1    2    0    0  0.82579335738E+01  0.44066205104E+02 -0.11695638950E+02  0.91347041802E+02  0.78724012705E+02 0.  0.
         23    2    1    2    0    0 -0.84481688427E+02  0.29830616444E+02  0.10916307726E+02  0.12814123552E+03  0.90961470460E+02 0.  0.
         11    1    3    3    0    0  0.31275268822E+02  0.43962606449E+02 -0.30185758469E+02  0.61822594737E+02  0.00000000000E+00 0. -1.
        -12    1    3    3    0    0 -0.23017335248E+02  0.10359865457E+00  0.18490119519E+02  0.29524447064E+02  0.00000000000E+00 0.  1.
        -11    1    4    4    0    0 -0.58527009932E+02  0.41923937854E+02  0.44009994276E+02  0.84379541673E+02  0.00000000000E+00 0.  1.
         11    1    4    4    0    0 -0.25954678495E+02 -0.12093321411E+02 -0.33093686550E+02  0.43761693843E+02  0.00000000000E+00 0. -1.
          2    1    1    2  501    0  0.76223754853E+02 -0.73896821547E+02 -0.23659887854E+03  0.25932572252E+03  0.00000000000E+00 0. -1.
<scales pt_clust_5="13000.00000" pt_clust_6="13000.00000" pt_clust_7="13000.00000" pt_clust_8="13000.00000" pt_clust_9="91.30375"></scales>
<clustering>
<clus scale="   78.724">  5  6 -1 -1</clus>
<clus scale="   90.595">  2  5  1 -1</clus>
<clus scale="   90.961">  7  8 -1 -1</clus>
<clus scale="   91.304">  1  9  2 -1</clus>
<clus scale="   91.304">  1  5  2 -1</clus>
</clustering>
</event>
<event>
 9    1  0.6675710E-005  0.1398786E+03  0.7546771E-02  0.1214187E+00
         21   -1    0    0  501  502  0.00000000000E+00  0.00000000000E+00  0.30700540862E+02  0.30700540862E+02  0.00000000000E+00 0. -1.
          1   -1    0    0  502    0 -0.00000000000E+00 -0.00000000000E+00 -0.10285965388E+04  0.10285965388E+04  0.00000000000E+00 0. -1.
         23    2    1    2    0    0 -0.51857401259E+02 -0.11268548081E+03 -0.74079075077E+03  0.75575219017E+03  0.83685296543E+02 0.  0.
        -24    2    1    2    0    0  0.29684763137E+02  0.83438279707E+02 -0.22509900696E+03  0.25484761992E+03  0.80216050515E+02 0.  0.
         11    1    4    4    0    0 -0.18995598966E+02  0.56006808269E+02 -0.80987476485E+02  0.10028243465E+03  0.00000000000E+00 0. -1.
        -12    1    4    4    0    0  0.48680362103E+02  0.27431471437E+02 -0.14411153048E+03  0.15456518527E+03  0.00000000000E+00 0.  1.
        -11    1    3    3    0    0 -0.23112098148E+02  0.14729750955E+01 -0.51318599485E+02  0.56302197022E+02  0.00000000000E+00 0.  1.
         11    1    3    3    0    0 -0.28745303112E+02 -0.11415845591E+03 -0.68947215129E+03  0.69944999314E+03  0.00000000000E+00 0. -1.
          2    1    1    2  501    0  0.22172638122E+02  0.29247201105E+02 -0.32006240243E+02  0.48697269618E+02  0.00000000000E+00 0. -1.
<scales pt_clust_5="13000.00000" pt_clust_6="13000.00000" pt_clust_7="13000.00000" pt_clust_8="13000.00000" pt_clust_9="36.70183"></scales>
<clustering>
<clus scale="   36.702">  1  9  2 -1</clus>
<clus scale="   80.216">  5  6 -1 -1</clus>
<clus scale="   83.685">  7  8 -1 -1</clus>
<clus scale="  137.831">  1  5  2 -1</clus>
<clus scale="   36.702">  1  5  2 -1</clus>
</clustering>
</event>
<event>
 9    1  0.6675710E-005  0.1104101E+03  0.7546771E-02  0.1264488E+00
         21   -1    0    0  501  502  0.00000000000E+00  0.00000000000E+00  0.35153691285E+03  0.35153691285E+03  0.00000000000E+00 0. -1.
          1   -1    0    0  502    0 -0.00000000000E+00 -0.00000000000E+00 -0.49853194905E+02  0.49853194905E+02  0.00000000000E+00 0. -1.
        -24    2    1    2    0    0  0.56042871975E+02  0.28123870693E+02  0.76672305042E+02  0.12771172033E+03  0.80621867680E+02 0.  0.
         23    2    1    2    0    0 -0.30608148214E+02 -0.55359274359E+02  0.19861262388E+03  0.22801014411E+03  0.92412896585E+02 0.  0.
         13    1    3    3    0    0  0.73688324951E+02  0.80900468554E+01  0.46892452767E+02  0.87717274346E+02  0.00000000000E+00 0. -1.
        -14    1    3    3    0    0 -0.17645452976E+02  0.20033823838E+02  0.29779852276E+02  0.39994445988E+02  0.00000000000E+00 0.  1.
        -13    1    4    4    0    0 -0.78657265541E+01  0.24099575101E+02  0.24395310858E+02  0.35182245041E+02  0.00000000000E+00 0.  1.
         13    1    4    4    0    0 -0.22742421660E+02 -0.79458849460E+02  0.17421731302E+03  0.19282789907E+03  0.00000000000E+00 0. -1.
          2    1    1    2  501    0 -0.25434723761E+02  0.27235403665E+02  0.26398789019E+02  0.45668243313E+02  0.00000000000E+00 0. -1.
<scales pt_clust_5="13000.00000" pt_clust_6="13000.00000" pt_clust_7="13000.00000" pt_clust_8="13000.00000" pt_clust_9="37.26518"></scales>
<clustering>
<clus scale="   37.265">  1  9  2 -1</clus>
<clus scale="   80.622">  5  6 -1 -1</clus>
<clus scale="   92.413">  7  8 -1 -1</clus>
<clus scale="  100.748">  2  5  1 -1</clus>
<clus scale="   37.265">  1  5  2 -1</clus>
</clustering>
</event>
<event>
 9    1  0.6675710E-005  0.2677251E+03  0.7546771E-02  0.1126400E+00
         21   -1    0    0  501  502  0.00000000000E+00  0.00000000000E+00  0.28951842848E+03  0.28951842848E+03  0.00000000000E+00 0.  1.
         -2   -1    0    0    0  501 -0.00000000000E+00 -0.00000000000E+00 -0.43609468799E+03  0.43609468799E+03  0.00000000000E+00 0.  1.
         23    2    1    2    0    0 -0.11581362199E+03 -0.73658504803E+01  0.35679578510E+02  0.15097075899E+03  0.89733421618E+02 0.  0.
        -24    2    1    2    0    0 -0.12829259079E+03  0.18621267726E+03 -0.63238416932E+02  0.24946674787E+03  0.84263935890E+02 0.  0.
         13    1    4    4    0    0 -0.24849980843E+02  0.84335305790E+01  0.14019239859E+02  0.29752059965E+02  0.00000000000E+00 0. -1.
        -14    1    4    4    0    0 -0.10344260995E+03  0.17777914668E+03 -0.77257656791E+02  0.21971468790E+03  0.00000000000E+00 0.  1.
        -13    1    3    3    0    0 -0.17068668852E+02  0.31624177019E+02  0.26021657920E+02  0.44368397643E+02  0.00000000000E+00 0. -1.
         13    1    3    3    0    0 -0.98744953134E+02 -0.38990027499E+02  0.96579205905E+01  0.10660236134E+03  0.00000000000E+00 0.  1.
         -1    1    1    2    0  502  0.24410621277E+03 -0.17884682678E+03 -0.11901742109E+03  0.32517560962E+03  0.00000000000E+00 0.  1.
<scales pt_clust_5="13000.00000" pt_clust_6="13000.00000" pt_clust_7="13000.00000" pt_clust_8="13000.00000" pt_clust_9="254.11887"></scales>
<clustering>
<clus scale="   84.264">  5  6 -1 -1</clus>
<clus scale="   89.733">  7  8 -1 -1</clus>
<clus scale="  146.694">  2  7  1 -1</clus>
<clus scale="  254.119">  1  9  2 -1</clus>
<clus scale="  254.119">  1  5  2 -1</clus>
</clustering>
</event>
<event>
 9    1  0.6675710E-005  0.2246591E+03  0.7546771E-02  0.1157799E+00
         21   -1    0    0  501  502  0.00000000000E+00  0.00000000000E+00  0.18788320233E+03  0.18788320233E+03  0.00000000000E+00 0.  1.
         -2   -1    0    0    0  501 -0.00000000000E+00 -0.00000000000E+00 -0.42545737161E+03  0.42545737161E+03  0.00000000000E+00 0.  1.
        -24    2    1    2    0    0 -0.57335945257E+02 -0.61807363314E+02 -0.50345894293E+02  0.12711827151E+03  0.80726607152E+02 0.  0.
         23    2    1    2    0    0 -0.13206108929E+03  0.15891149341E+03 -0.14984562333E+03  0.27012530703E+03  0.88436285661E+02 0.  0.
         11    1    3    3    0    0 -0.39569288761E+02 -0.73619368853E+02 -0.60805006037E+02  0.10335757758E+03  0.00000000000E+00 0. -1.
        -12    1    3    3    0    0 -0.17766656497E+02  0.11812005539E+02  0.10459111744E+02  0.23760693938E+02  0.00000000000E+00 0.  1.
        -13    1    4    4    0    0 -0.13021118018E+03  0.13863595953E+03 -0.15890397157E+03  0.24784138658E+03  0.00000000000E+00 0.  1.
         13    1    4    4    0    0 -0.18499091068E+01  0.20275533880E+02  0.90583482363E+01  0.22283920450E+02  0.00000000000E+00 0. -1.
         -1    1    1    2    0  502  0.18939703455E+03 -0.97104130097E+02 -0.37382651644E+02  0.21609699540E+03  0.00000000000E+00 0.  1.
<scales pt_clust_5="13000.00000" pt_clust_6="13000.00000" pt_clust_7="13000.00000" pt_clust_8="13000.00000" pt_clust_9="206.52056"></scales>
<clustering>
<clus scale="   80.727">  5  6 -1 -1</clus>
<clus scale="   88.436">  7  8 -1 -1</clus>
<clus scale="  116.723">  2  5  1 -1</clus>
<clus scale="  206.521">  1  9  2 -1</clus>
<clus scale="  206.521">  1  5  2 -1</clus>
</clustering>
</event>
<event>
 9    1  0.6675710E-005  0.1116324E+03  0.7546771E-02  0.1261232E+00
         21   -1    0    0  501  502  0.00000000000E+00  0.00000000000E+00  0.11156434769E+03  0.11156434769E+03  0.00000000000E+00 0.  1.
         -2   -1    0    0    0  501 -0.00000000000E+00 -0.00000000000E+00 -0.27513742787E+03  0.27513742787E+03  0.00000000000E+00 0.  1.
        -24    2    1    2    0    0 -0.19954219201E+02 -0.66015752564E+02 -0.16664744231E+03  0.19798945596E+03  0.81683561333E+02 0.  0.
         23    2    1    2    0    0 -0.43804364724E+02  0.52018607516E+02  0.30535922695E+02  0.11789414113E+03  0.91333608493E+02 0.  0.
         13    1    3    3    0    0  0.28539842909E+02 -0.46030951356E+02 -0.77332803772E+02  0.94412571490E+02  0.00000000000E+00 0. -1.
        -14    1    3    3    0    0 -0.48494062110E+02 -0.19984801208E+02 -0.89314638536E+02  0.10357688447E+03  0.00000000000E+00 0.  1.
        -11    1    4    4    0    0 -0.31028768023E+02  0.36015820925E+02 -0.28486693232E+02  0.55420352698E+02  0.00000000000E+00 0. -1.
         11    1    4    4    0    0 -0.12775596701E+02  0.16002786592E+02  0.59022615927E+02  0.62473788428E+02  0.00000000000E+00 0.  1.
         -1    1    1    2    0  502  0.63758583925E+02  0.13997145048E+02 -0.27461560563E+02  0.70818178472E+02  0.00000000000E+00 0.  1.
<scales pt_clust_5="13000.00000" pt_clust_6="13000.00000" pt_clust_7="13000.00000" pt_clust_8="13000.00000" pt_clust_9="65.27693"></scales>
<clustering>
<clus scale="   65.277">  1  9  2 -1</clus>
<clus scale="   81.684">  5  6 -1 -1</clus>
<clus scale="   91.334">  7  8 -1 -1</clus>
<clus scale="  103.885">  2  5  1 -1</clus>
<clus scale="   65.277">  1  5  2 -1</clus>
</clustering>
</event>
<event>
 9    1  0.6675710E-005  0.9441680E+02  0.7546771E-02  0.1296184E+00
          3   -1    0    0  502    0 -0.00000000000E+00  0.00000000000E+00  0.68949228605E+02  0.68949228605E+02  0.00000000000E+00 0. -1.
         21   -1    0    0  501  502  0.00000000000E+00 -0.00000000000E+00 -0.18539324216E+03  0.18539324216E+03  0.00000000000E+00 0. -1.
        -24    2    1    2    0    0 -0.21927987223E+02  0.32490691745E+00 -0.26752262401E+02  0.90509892591E+02  0.83638597102E+02 0.  0.
         23    2    1    2    0    0  0.29329419887E+02  0.26851589414E+02 -0.39360520264E+02  0.10615610150E+03  0.90214436792E+02 0.  0.
         13    1    3    3    0    0 -0.40449543720E+01  0.28059371592E+02 -0.44709914033E+02  0.52940215365E+02  0.00000000000E+00 0. -1.
        -14    1    3    3    0    0 -0.17883032851E+02 -0.27734464675E+02  0.17957651632E+02  0.37569677226E+02  0.00000000000E+00 0.  1.
        -13    1    4    4    0    0  0.59530339988E+02  0.19120443521E+02 -0.41278467004E+02  0.74922390364E+02  0.00000000000E+00 0. -1.
         13    1    4    4    0    0 -0.30200920101E+02  0.77311458924E+01  0.19179467398E+01  0.31233711138E+02  0.00000000000E+00 0.  1.
          4    1    1    2  501    0 -0.74014326644E+01 -0.27176496331E+02 -0.50331230895E+02  0.57676476675E+02  0.00000000000E+00 0. -1.
<scales pt_clust_5="13000.00000" pt_clust_6="13000.00000" pt_clust_7="13000.00000" pt_clust_8="13000.00000" pt_clust_9="28.16635"></scales>
<clustering>
<clus scale="   28.166">  2  9  1 -1</clus>
<clus scale="   83.639">  5  6 -1 -1</clus>
<clus scale="   88.155">  1  5  2 -1</clus>
<clus scale="   90.214">  7  8 -1 -1</clus>
<clus scale="   28.166">  2  5  1 -1</clus>
</clustering>
</event>
<event>
 9    1  0.6675710E-005  0.8089376E+02  0.7546771E-02  0.1327889E+00
         -4   -1    0    0    0  501 -0.00000000000E+00  0.00000000000E+00  0.48298034280E+02  0.48298034280E+02  0.00000000000E+00 0.  1.
         21   -1    0    0  501  502  0.00000000000E+00 -0.00000000000E+00 -0.42174171443E+03  0.42174171443E+03  0.00000000000E+00 0. -1.
        -24    2    1    2    0    0 -0.56597042315E+01 -0.11434554606E+02  0.14677751841E+01  0.80806741879E+02  0.79779658298E+02 0.  0.
         23    2    1    2    0    0 -0.12153965036E+02  0.23472735182E+02 -0.27445689965E+03  0.28650344749E+03  0.77839241360E+02 0.  0.
         11    1    3    3    0    0  0.10752874382E+02  0.26145521415E+02  0.21163472422E+02  0.35314376145E+02  0.00000000000E+00 0. -1.
        -12    1    3    3    0    0 -0.16412578614E+02 -0.37580076021E+02 -0.19695697238E+02  0.45492365735E+02  0.00000000000E+00 0.  1.
        -13    1    4    4    0    0  0.31920174325E+02  0.51476133493E+01 -0.14409163575E+03  0.14767462526E+03  0.00000000000E+00 0. -1.
         13    1    4    4    0    0 -0.44074139361E+02  0.18325121833E+02 -0.13036526390E+03  0.13882882223E+03  0.00000000000E+00 0.  1.
         -3    1    1    2    0  502  0.17813669267E+02 -0.12038180577E+02 -0.10045455568E+03  0.10272955934E+03  0.00000000000E+00 0.  1.
<scales pt_clust_5="13000.00000" pt_clust_6="13000.00000" pt_clust_7="13000.00000" pt_clust_8="13000.00000" pt_clust_9="21.49987"></scales>
<clustering>
<clus scale="   21.500">  2  9  1 -1</clus>
<clus scale="   77.839">  7  8 -1 -1</clus>
<clus scale="   78.981">  2  7  1 -1</clus>
<clus scale="   79.780">  5  6 -1 -1</clus>
<clus scale="   21.500">  2  5  1 -1</clus>
</clustering>
</event>
<event>
 9    1  0.6675710E-005  0.9089464E+02  0.7546771E-02  0.1307222E+00
          1   -1    0    0  502    0 -0.00000000000E+00  0.00000000000E+00  0.29511532364E+03  0.29511532364E+03  0.00000000000E+00 0. -1.
         21   -1    0    0  501  502  0.00000000000E+00 -0.00000000000E+00 -0.63964547904E+02  0.63964547904E+02  0.00000000000E+00 0.  1.
         23    2    1    2    0    0 -0.50960589691E+01  0.90385462618E+01  0.19803130961E+03  0.21782081983E+03  0.90121278462E+02 0.  0.
        -24    2    1    2    0    0 -0.39167753639E+02 -0.19510483624E+02  0.14655763586E+02  0.92168778841E+02  0.79784212038E+02 0.  0.
         13    1    4    4    0    0 -0.26184700952E+02  0.29772822940E+02  0.22340132787E+01  0.39712093437E+02  0.00000000000E+00 0. -1.
        -14    1    4    4    0    0 -0.12983052686E+02 -0.49283306564E+02  0.12421750307E+02  0.52456685405E+02  0.00000000000E+00 0.  1.
        -13    1    3    3    0    0  0.73037323195E+01 -0.21246620309E+02  0.63234810455E+01  0.23339875597E+02  0.00000000000E+00 0.  1.
         13    1    3    3    0    0 -0.12399791289E+02  0.30285166571E+02  0.19170782856E+03  0.19448094423E+03  0.00000000000E+00 0. -1.
          2    1    1    2  501    0  0.44263812608E+02  0.10471937362E+02  0.18463702538E+02  0.49090272866E+02  0.00000000000E+00 0. -1.
<scales pt_clust_5="13000.00000" pt_clust_6="13000.00000" pt_clust_7="13000.00000" pt_clust_8="13000.00000" pt_clust_9="45.48567"></scales>
<clustering>
<clus scale="   45.486">  2  9  1 -1</clus>
<clus scale="   79.784">  5  6 -1 -1</clus>
<clus scale="   80.657">  2  5  1 -1</clus>
<clus scale="   90.121">  7  8 -1 -1</clus>
<clus scale="   45.486">  2  5  1 -1</clus>
</clustering>
</event>
<event>
 9    1  0.6675710E-005  0.1560741E+03  0.7546771E-02  0.1194847E+00
          1   -1    0    0  502    0 -0.00000000000E+00  0.00000000000E+00  0.20086392567E+03  0.20086392567E+03  0.00000000000E+00 0. -1.
         21   -1    0    0  501  502  0.00000000000E+00 -0.00000000000E+00 -0.21562446121E+03  0.21562446121E+03  0.00000000000E+00 0.  1.
         23    2    1    2    0    0 -0.35067237913E+02  0.11581179239E+03  0.87669640071E+02  0.17469255232E+03  0.90495522612E+02 0.  0.
        -24    2    1    2    0    0  0.33149864304E+02 -0.13703606743E+03 -0.28521168203E+02  0.16487582710E+03  0.80577813616E+02 0.  0.
         11    1    4    4    0    0  0.27501633801E+02 -0.24739521154E+02  0.20413413586E+02  0.42250339915E+02  0.00000000000E+00 0. -1.
        -12    1    4    4    0    0  0.56482305032E+01 -0.11229654627E+03 -0.48934581789E+02  0.12262548719E+03  0.00000000000E+00 0.  1.
        -11    1    3    3    0    0  0.31835283088E+01  0.71405190470E+02  0.91323831206E+02  0.11596929863E+03  0.00000000000E+00 0. -1.
         11    1    3    3    0    0 -0.38250766221E+02  0.44406601920E+02 -0.36541911346E+01  0.58723253686E+02  0.00000000000E+00 0.  1.
          2    1    1    2  501    0  0.19173736086E+01  0.21224275039E+02 -0.73909007408E+02  0.76920007465E+02  0.00000000000E+00 0. -1.
<scales pt_clust_5="13000.00000" pt_clust_6="13000.00000" pt_clust_7="13000.00000" pt_clust_8="13000.00000" pt_clust_9="21.31071"></scales>
<clustering>
<clus scale="   21.311">  2  9  1 -1</clus>
<clus scale="   80.578">  5  6 -1 -1</clus>
<clus scale="   90.496">  7  8 -1 -1</clus>
<clus scale="  150.541">  2  5  1 -1</clus>
<clus scale="   21.311">  2  5  1 -1</clus>
</clustering>
</event>
<event>
 9    1  0.6675710E-005  0.1001910E+03  0.7546771E-02  0.1283786E+00
          1   -1    0    0  502    0 -0.00000000000E+00  0.00000000000E+00  0.63844734530E+03  0.63844734530E+03  0.00000000000E+00 0. -1.
         21   -1    0    0  501  502  0.00000000000E+00 -0.00000000000E+00 -0.31173073524E+02  0.31173073524E+02  0.00000000000E+00 0.  1.
         23    2    1    2    0    0 -0.10299660690E+02 -0.71461445222E+02  0.30062197236E+03  0.32177893648E+03  0.89192446610E+02 0.  0.
        -24    2    1    2    0    0  0.89281740927E+01  0.50170952321E+01  0.91677166401E+02  0.12282805955E+03  0.81099604421E+02 0.  0.
         13    1    4    4    0    0  0.21030763993E+02 -0.22668924459E+02  0.86899246561E+02  0.92236935243E+02  0.00000000000E+00 0. -1.
        -14    1    4    4    0    0 -0.12102589900E+02  0.27686019691E+02  0.47779198400E+01  0.30591124311E+02  0.00000000000E+00 0.  1.
        -13    1    3    3    0    0 -0.27657145096E+02 -0.17181546234E+02  0.27036764571E+02  0.42321505696E+02  0.00000000000E+00 0. -1.
         13    1    3    3    0    0  0.17357484407E+02 -0.54279898988E+02  0.27358520779E+03  0.27945743078E+03  0.00000000000E+00 0.  1.
          2    1    1    2  501    0  0.13714865968E+01  0.66444349990E+02  0.21497513301E+03  0.22501342279E+03  0.00000000000E+00 0. -1.
<scales pt_clust_5="13000.00000" pt_clust_6="13000.00000" pt_clust_7="13000.00000" pt_clust_8="13000.00000" pt_clust_9="66.45854"></scales>
<clustering>
<clus scale="   66.459">  2  9  1 -1</clus>
<clus scale="   81.100">  5  6 -1 -1</clus>
<clus scale="   89.192">  7  8 -1 -1</clus>
<clus scale="   93.060">  2  5  1 -1</clus>
<clus scale="   66.459">  2  5  1 -1</clus>
</clustering>
</event>
<event>
 9    1  0.6675710E-005  0.9941136E+02  0.7546771E-02  0.1284480E+00
         21   -1    0    0  501  502  0.00000000000E+00  0.00000000000E+00  0.18249977134E+03  0.18249977134E+03  0.00000000000E+00 0. -1.
         -2   -1    0    0    0  501 -0.00000000000E+00 -0.00000000000E+00 -0.15019152625E+03  0.15019152625E+03  0.00000000000E+00 0.  1.
         23    2    1    2    0    0 -0.16959366809E+02  0.49105024010E+02 -0.28403197225E+02  0.10860326874E+03  0.91043972133E+02 0.  0.
        -24    2    1    2    0    0  0.38810372838E+02  0.16249854155E+02  0.10546744855E+03  0.14191852929E+03  0.85130390891E+02 0.  0.
         11    1    4    4    0    0  0.16713013745E+02 -0.34384089603E+02  0.55726106464E+02  0.67579504200E+02  0.00000000000E+00 0. -1.
        -12    1    4    4    0    0  0.22097359093E+02  0.50633943758E+02  0.49741342087E+02  0.74339025094E+02  0.00000000000E+00 0.  1.
        -11    1    3    3    0    0 -0.13496088183E+02 -0.25552466149E+02 -0.73041691054E+00  0.28906857862E+02  0.00000000000E+00 0.  1.
         11    1    3    3    0    0 -0.34632786260E+01  0.74657490160E+02 -0.27672780314E+02  0.79696410873E+02  0.00000000000E+00 0. -1.
         -1    1    1    2    0  502 -0.21851006029E+02 -0.65354878165E+02 -0.44756006232E+02  0.82169499562E+02  0.00000000000E+00 0.  1.
<scales pt_clust_5="13000.00000" pt_clust_6="13000.00000" pt_clust_7="13000.00000" pt_clust_8="13000.00000" pt_clust_9="68.91104"></scales>
<clustering>
<clus scale="   68.911">  1  9  2 -1</clus>
<clus scale="   85.130">  5  6 -1 -1</clus>
<clus scale="   91.044">  7  8 -1 -1</clus>
<clus scale="   94.026">  1  5  2 -1</clus>
<clus scale="   68.911">  1  5  2 -1</clus>
</clustering>
</event>
<event>
 9    1  0.6675710E-005  0.1307395E+03  0.7546771E-02  0.1237075E+00
          1   -1    0    0  502    0 -0.00000000000E+00  0.00000000000E+00  0.66213933520E+03  0.66213933520E+03  0.00000000000E+00 0. -1.
         21   -1    0    0  501  502  0.00000000000E+00 -0.00000000000E+00 -0.63893119388E+02  0.63893119388E+02  0.00000000000E+00 0. -1.
        -24    2    1    2    0    0  0.65451341989E+02  0.33355500957E+02  0.46807204864E+03  0.47959609291E+03  0.74326993809E+02 0.  0.
         23    2    1    2    0    0 -0.49498568218E+02 -0.67102122803E+02  0.15122976451E+03  0.20358004759E+03  0.10780348308E+03 0.  0.
         11    1    3    3    0    0  0.55841424901E+02 -0.11375714553E+02  0.21516557193E+03  0.22258457934E+03  0.00000000000E+00 0. -1.
        -12    1    3    3    0    0  0.96099170882E+01  0.44731215511E+02  0.25290647670E+03  0.25701151357E+03  0.00000000000E+00 0.  1.
        -11    1    4    4    0    0 -0.67176989747E+02 -0.17399078117E+02  0.39076623844E+02  0.79639552999E+02  0.00000000000E+00 0.  1.
         11    1    4    4    0    0  0.17678421529E+02 -0.49703044686E+02  0.11215314067E+03  0.12394049459E+03  0.00000000000E+00 0. -1.
          2    1    1    2  501    0 -0.15952773770E+02  0.33746621846E+02 -0.21055597342E+02  0.42856314078E+02  0.00000000000E+00 0. -1.
<scales pt_clust_5="13000.00000" pt_clust_6="13000.00000" pt_clust_7="13000.00000" pt_clust_8="13000.00000" pt_clust_9="37.32728"></scales>
<clustering>
<clus scale="   37.327">  2  9  1 -1</clus>
<clus scale="   74.327">  5  6 -1 -1</clus>
<clus scale="  104.861">  1  5  2 -1</clus>
<clus scale="  107.803">  7  8 -1 -1</clus>
<clus scale="   37.327">  2  5  1 -1</clus>
</clustering>
</event>
<event>
 9    1  0.6675710E-005  0.9796142E+02  0.7546771E-02  0.1289883E+00
         21   -1    0    0  501  502  0.00000000000E+00  0.00000000000E+00  0.18999035871E+03  0.18999035871E+03  0.00000000000E+00 0. -1.
          3   -1    0    0  502    0 -0.00000000000E+00 -0.00000000000E+00 -0.83447519904E+02  0.83447519904E+02  0.00000000000E+00 0. -1.
        -24    2    1    2    0    0  0.34884444199E+02 -0.70173984885E+01 -0.50194081753E+01  0.87546276032E+02  0.79830994357E+02 0.  0.
         23    2    1    2    0    0 -0.43557445831E+02  0.29697236586E+02  0.12110761236E+03  0.15980118263E+03  0.89945468201E+02 0.  0.
         13    1    3    3    0    0  0.51633571878E+02  0.71276142988E+01 -0.25068326108E+02  0.57838132788E+02  0.00000000000E+00 0. -1.
        -14    1    3    3    0    0 -0.16749127680E+02 -0.14145012787E+02  0.20048917933E+02  0.29708143245E+02  0.00000000000E+00 0.  1.
        -13    1    4    4    0    0 -0.57641828237E+00  0.35561218063E+02  0.10915839827E+03  0.11480630819E+03  0.00000000000E+00 0.  1.
         13    1    4    4    0    0 -0.42981027549E+02 -0.58639814770E+01  0.11949214087E+02  0.44994874433E+02  0.00000000000E+00 0. -1.
          4    1    1    2  501    0  0.86730016324E+01 -0.22679838098E+02 -0.95453653737E+01  0.26090419958E+02  0.00000000000E+00 0. -1.
<scales pt_clust_5="13000.00000" pt_clust_6="13000.00000" pt_clust_7="13000.00000" pt_clust_8="13000.00000" pt_clust_9="24.28161"></scales>
<clustering>
<clus scale="   24.282">  1  9  2 -1</clus>
<clus scale="   79.831">  5  6 -1 -1</clus>
<clus scale="   88.765">  2  5  1 -1</clus>
<clus scale="   89.945">  7  8 -1 -1</clus>
<clus scale="   24.282">  1  5  2 -1</clus>
</clustering>
</event>
<event>
 9    1  0.6675710E-005  0.1380978E+03  0.7546771E-02  0.1221687E+00
          1   -1    0    0  502    0 -0.00000000000E+00  0.00000000000E+00  0.72356037522E+02  0.72356037522E+02  0.00000000000E+00 0. -1.
         21   -1    0    0  501  502  0.00000000000E+00 -0.00000000000E+00 -0.41838876094E+03  0.41838876094E+03  0.00000000000E+00 0. -1.
        -24    2    1    2    0    0  0.69641234692E+02  0.39225940404E+02 -0.60718655151E+02  0.12911374415E+03  0.81209776970E+02 0.  0.
         23    2    1    2    0    0 -0.12460656550E+03 -0.22387884423E+02 -0.22683368912E+03  0.27962701498E+03  0.10348783240E+03 0.  0.
         13    1    3    3    0    0  0.83218628418E+02  0.47228764784E+02 -0.60770556424E+02  0.11335323933E+03  0.00000000000E+00 0. -1.
        -14    1    3    3    0    0 -0.13577393726E+02 -0.80028243800E+01  0.51901272621E-01  0.15760504820E+02  0.00000000000E+00 0.  1.
        -11    1    4    4    0    0 -0.71147035359E+02  0.18921479565E+02 -0.46555559440E+02  0.87105356575E+02  0.00000000000E+00 0.  1.
         11    1    4    4    0    0 -0.53459530145E+02 -0.41309363988E+02 -0.18027812968E+03  0.19252165841E+03  0.00000000000E+00 0. -1.
          2    1    1    2  501    0  0.54965330812E+02 -0.16838055981E+02 -0.58480379154E+02  0.82004039330E+02  0.00000000000E+00 0. -1.
<scales pt_clust_5="13000.00000" pt_clust_6="13000.00000" pt_clust_7="13000.00000" pt_clust_8="13000.00000" pt_clust_9="57.48659"></scales>
<clustering>
<clus scale="   57.487">  2  9  1 -1</clus>
<clus scale="   81.210">  5  6 -1 -1</clus>
<clus scale="  103.488">  7  8 -1 -1</clus>
<clus scale="  122.296">  1  5  2 -1</clus>
<clus scale="   57.487">  2  5  1 -1</clus>
</clustering>
</event>
<event>
 9    1  0.6675710E-005  0.1065212E+03  0.7546771E-02  0.1278669E+00
          1   -1    0    0  502    0 -0.00000000000E+00  0.00000000000E+00  0.53922032815E+03  0.53922032815E+03  0.00000000000E+00 0. -1.
         21   -1    0    0  501  502  0.00000000000E+00 -0.00000000000E+00 -0.41596516997E+02  0.41596516997E+02  0.00000000000E+00 0. -1.
        -24    2    1    2    0    0 -0.32022473429E+02 -0.42542255142E+01  0.90692203983E+02  0.12423589875E+03  0.78523534273E+02 0.  0.
         23    2    1    2    0    0  0.18287205830E+02  0.43479259402E+02  0.10980807077E+03  0.15656485227E+03  0.10114283298E+03 0.  0.
         11    1    3    3    0    0 -0.56758441676E+02  0.79586025698E+01  0.62036975689E+02  0.84459732471E+02  0.00000000000E+00 0. -1.
        -12    1    3    3    0    0  0.24735968248E+02 -0.12212828084E+02  0.28655228294E+02  0.39776166275E+02  0.00000000000E+00 0.  1.
        -13    1    4    4    0    0  0.27925923568E+01 -0.22872186467E+02  0.78069311682E+02  0.81398727953E+02  0.00000000000E+00 0.  1.
         13    1    4    4    0    0  0.15494613473E+02  0.66351445869E+02  0.31738759093E+02  0.75166124314E+02  0.00000000000E+00 0. -1.
          2    1    1    2  501    0  0.13735267599E+02 -0.39225033888E+02  0.29712353640E+03  0.30001609414E+03  0.00000000000E+00 0. -1.
<scales pt_clust_5="13000.00000" pt_clust_6="13000.00000" pt_clust_7="13000.00000" pt_clust_8="13000.00000" pt_clust_9="41.56035"></scales>
<clustering>
<clus scale="   41.560">  2  9  1 -1</clus>
<clus scale="   78.524">  5  6 -1 -1</clus>
<clus scale="   85.340">  1  5  2 -1</clus>
<clus scale="  101.143">  7  8 -1 -1</clus>
<clus scale="   41.560">  2  5  1 -1</clus>
</clustering>
</event>
<event>
 9    1  0.6675710E-005  0.1102306E+03  0.7546771E-02  0.1261640E+00
         -2   -1    0    0    0  501 -0.00000000000E+00  0.00000000000E+00  0.22894062826E+03  0.22894062826E+03  0.00000000000E+00 0.  1.
         21   -1    0    0  501  502  0.00000000000E+00 -0.00000000000E+00 -0.15193259023E+03  0.15193259023E+03  0.00000000000E+00 0.  1.
        -24    2    1    2    0    0  0.30323730557E+02  0.62628249006E+02  0.22835710738E+02  0.11263336844E+03  0.85574410847E+02 0.  0.
         23    2    1    2    0    0 -0.78591899487E+02 -0.80125221247E+01 -0.59344272204E+02  0.13333724773E+03  0.89533188329E+02 0.  0.
         13    1    3    3    0    0  0.12208314162E+02  0.16020634551E+02 -0.32384259725E+02  0.38137172732E+02  0.00000000000E+00 0. -1.
        -14    1    3    3    0    0  0.18115416394E+02  0.46607614455E+02  0.55219970463E+02  0.74496195703E+02  0.00000000000E+00 0.  1.
        -13    1    4    4    0    0 -0.53939993319E+02 -0.36041517810E+02 -0.69075108562E+02  0.94762252549E+02  0.00000000000E+00 0.  1.
         13    1    4    4    0    0 -0.24651906168E+02  0.28028995685E+02  0.97308363572E+01  0.38574995179E+02  0.00000000000E+00 0. -1.
         -1    1    1    2    0  502  0.48268168930E+02 -0.54615726881E+02  0.11351659949E+03  0.13490260233E+03  0.00000000000E+00 0.  1.
<scales pt_clust_5="13000.00000" pt_clust_6="13000.00000" pt_clust_7="13000.00000" pt_clust_8="13000.00000" pt_clust_9="72.88826"></scales>
<clustering>
<clus scale="   72.888">  2  9  1 -1</clus>
<clus scale="   85.574">  5  6 -1 -1</clus>
<clus scale="   89.533">  7  8 -1 -1</clus>
<clus scale="  107.040">  1  5  2 -1</clus>
<clus scale="   72.888">  2  5  1 -1</clus>
</clustering>
</event>
<event>
 9    1  0.6675710E-005  0.1063038E+03  0.7546771E-02  0.1268100E+00
          3   -1    0    0  502    0 -0.00000000000E+00  0.00000000000E+00  0.62016053188E+02  0.62016053188E+02  0.00000000000E+00 0. -1.
         21   -1    0    0  501  502  0.00000000000E+00 -0.00000000000E+00 -0.57233961578E+03  0.57233961578E+03  0.00000000000E+00 0.  1.
        -24    2    1    2    0    0  0.20482646940E+01 -0.42020951353E+02 -0.22390465633E+02  0.10430077590E+03  0.92775875965E+02 0.  0.
         23    2    1    2    0    0  0.35695148882E+02  0.93188704534E+02 -0.25653393728E+03  0.29007932070E+03  0.91531814218E+02 0.  0.
         11    1    3    3    0    0 -0.40800505567E+02 -0.41288880269E+02 -0.57601481755E+01  0.58332085471E+02  0.00000000000E+00 0. -1.
        -12    1    3    3    0    0  0.42848770261E+02 -0.73207108418E+00 -0.16630317457E+02  0.45968690428E+02  0.00000000000E+00 0.  1.
        -11    1    4    4    0    0  0.35432271953E+02 -0.53909223984E+01 -0.84800441005E+02  0.92063145366E+02  0.00000000000E+00 0.  1.
         11    1    4    4    0    0  0.26287692901E+00  0.98579626932E+02 -0.17173349628E+03  0.19801617533E+03  0.00000000000E+00 0. -1.
          4    1    1    2  501    0 -0.37743413576E+02 -0.51167753181E+02 -0.23139915967E+03  0.23997557236E+03  0.00000000000E+00 0. -1.
<scales pt_clust_5="13000.00000" pt_clust_6="13000.00000" pt_clust_7="13000.00000" pt_clust_8="13000.00000" pt_clust_9="63.58226"></scales>
<clustering>
<clus scale="   63.582">  2  9  1 -1</clus>
<clus scale="   91.532">  7  8 -1 -1</clus>
<clus scale="   92.776">  5  6 -1 -1</clus>
<clus scale="  105.220">  2  7  1 -1</clus>
<clus scale="   63.582">  2  5  1 -1</clus>
</clustering>
</event>
<event>
 9    1  0.6675710E-005  0.1192852E+03  0.7546771E-02  0.1245549E+00
         21   -1    0    0  501  502  0.00000000000E+00  0.00000000000E+00  0.28657162127E+03  0.28657162127E+03  0.00000000000E+00 0. -1.
         -4   -1    0    0    0  501 -0.00000000000E+00 -0.00000000000E+00 -0.12561586340E+03  0.12561586340E+03  0.00000000000E+00 0.  1.
         23    2    1    2    0    0 -0.76881282485E+02  0.77021660444E+02  0.29069512550E+02  0.14322661730E+03  0.88463323302E+02 0.  0.
        -24    2    1    2    0    0  0.74404183579E+02  0.39227553161E+02  0.77311457299E+02  0.14051467953E+03  0.81807886372E+02 0.  0.
         11    1    4    4    0    0  0.23154516086E+02  0.58107691611E+02  0.44997772074E+02  0.77054752814E+02  0.00000000000E+00 0. -1.
        -12    1    4    4    0    0  0.51249667493E+02 -0.18880138450E+02  0.32313685225E+02  0.63459926716E+02  0.00000000000E+00 0.  1.
        -11    1    3    3    0    0  0.19209550212E+02  0.17520503768E+02 -0.18108137928E+01  0.26062500230E+02  0.00000000000E+00 0.  1.
         11    1    3    3    0    0 -0.96090832697E+02  0.59501156676E+02  0.30880326343E+02  0.11716411707E+03  0.00000000000E+00 0. -1.
         -3    1    1    2    0  502  0.24770989065E+01 -0.11624921361E+03  0.54574788015E+02  0.12844618784E+03  0.00000000000E+00 0.  1.
<scales pt_clust_5="13000.00000" pt_clust_6="13000.00000" pt_clust_7="13000.00000" pt_clust_8="13000.00000" pt_clust_9="116.27560"></scales>
<clustering>
<clus scale="   81.808">  5  6 -1 -1</clus>
<clus scale="   88.463">  7  8 -1 -1</clus>
<clus scale="  116.276">  1  9  2 -1</clus>
<clus scale="  116.276">  1  5  2 -1</clus>
<clus scale="  116.276">  1  5  2 -1</clus>
</clustering>
</event>
<event>
 9    1  0.6675710E-005  0.1255992E+03  0.7546771E-02  0.1237962E+00
          1   -1    0    0  502    0 -0.00000000000E+00  0.00000000000E+00  0.70244488191E+03  0.70244488191E+03  0.00000000000E+00 0. -1.
         21   -1    0    0  501  502  0.00000000000E+00 -0.00000000000E+00 -0.43609508446E+02  0.43609508446E+02  0.00000000000E+00 0.  1.
        -24    2    1    2    0    0 -0.11297629161E+02  0.88152511415E+02  0.53111894781E+03  0.54447417595E+03  0.80413244258E+02 0.  0.
         23    2    1    2    0    0 -0.35945687466E+00 -0.68033796665E+02  0.13446337017E+03  0.17736923346E+03  0.93545285097E+02 0.  0.
         11    1    3    3    0    0 -0.45172623464E+02  0.62659552100E+02  0.35813879555E+03  0.36637437445E+03  0.00000000000E+00 0. -1.
        -12    1    3    3    0    0  0.33874994303E+02  0.25492959315E+02  0.17298015227E+03  0.17809980149E+03  0.00000000000E+00 0.  1.
        -11    1    4    4    0    0 -0.54155235499E+01  0.21513435516E+02  0.10986550631E+02  0.24756011346E+02  0.00000000000E+00 0.  1.
         11    1    4    4    0    0  0.50560666752E+01 -0.89547232181E+02  0.12347681954E+03  0.15261322212E+03  0.00000000000E+00 0. -1.
          2    1    1    2  501    0  0.11657086035E+02 -0.20118714750E+02 -0.67469445207E+01  0.24210980946E+02  0.00000000000E+00 0. -1.
<scales pt_clust_5="13000.00000" pt_clust_6="13000.00000" pt_clust_7="13000.00000" pt_clust_8="13000.00000" pt_clust_9="23.25189"></scales>
<clustering>
<clus scale="   23.252">  2  9  1 -1</clus>
<clus scale="   80.413">  5  6 -1 -1</clus>
<clus scale="   93.545">  7  8 -1 -1</clus>
<clus scale="  116.150">  1  5  2 -1</clus>
<clus scale="   23.252">  2  5  1 -1</clus>
</clustering>
</event>
<event>
 9    1  0.6675710E-005  0.1242372E+03  0.7546771E-02  0.1239423E+00
         21   -1    0    0  501  502  0.00000000000E+00  0.00000000000E+00  0.49625849025E+02  0.49625849025E+02  0.00000000000E+00 0.  1.
         -4   -1    0    0    0  501 -0.00000000000E+00 -0.00000000000E+00 -0.94213557582E+03  0.94213557582E+03  0.00000000000E+00 0.  1.
        -24    2    1    2    0    0 -0.87847505037E+02 -0.63562693394E+02 -0.71670719356E+03  0.72922165769E+03  0.79609199285E+02 0.  0.
         23    2    1    2    0    0  0.33573645751E+02  0.96968588277E+01 -0.15568959197E+03  0.18347200924E+03  0.90562190604E+02 0.  0.
         13    1    3    3    0    0 -0.20346174427E+02 -0.61272150145E+02 -0.28179106523E+03  0.28909245517E+03  0.00000000000E+00 0. -1.
        -14    1    3    3    0    0 -0.67501330610E+02 -0.22905432489E+01 -0.43491612834E+03  0.44012920252E+03  0.00000000000E+00 0.  1.
        -13    1    4    4    0    0  0.29006864029E+02 -0.18531790845E+02 -0.15052902372E+03  0.15441441777E+03  0.00000000000E+00 0. -1.
         13    1    4    4    0    0  0.45667817217E+01  0.28228649672E+02 -0.51605682528E+01  0.29057591475E+02  0.00000000000E+00 0.  1.
         -3    1    1    2    0  502  0.54273859286E+02  0.53865834566E+02 -0.20112941264E+02  0.79067757914E+02  0.00000000000E+00 0.  1.
<scales pt_clust_5="13000.00000" pt_clust_6="13000.00000" pt_clust_7="13000.00000" pt_clust_8="13000.00000" pt_clust_9="76.46686"></scales>
<clustering>
<clus scale="   76.467">  1  9  2 -1</clus>
<clus scale="   79.609">  5  6 -1 -1</clus>
<clus scale="   90.562">  7  8 -1 -1</clus>
<clus scale="  116.495">  2  5  1 -1</clus>
<clus scale="   76.467">  1  5  2 -1</clus>
</clustering>
</event>
<event>
 9    1  0.6675710E-005  0.1339897E+03  0.7546771E-02  0.1224291E+00
          3   -1    0    0  502    0 -0.00000000000E+00  0.00000000000E+00  0.11745308042E+03  0.11745308042E+03  0.00000000000E+00 0. -1.
         21   -1    0    0  501  502  0.00000000000E+00 -0.00000000000E+00 -0.29306038581E+03  0.29306038581E+03  0.00000000000E+00 0.  1.
        -24    2    1    2    0    0  0.10262599785E+03  0.30245361887E+02 -0.98536854785E+02  0.16404638260E+03  0.75860573046E+02 0.  0.
         23    2    1    2    0    0 -0.73449619775E+02 -0.70428006496E+02 -0.12065731519E+03  0.18039348278E+03  0.87342258821E+02 0.  0.
         11    1    3    3    0    0  0.40200224825E+02 -0.22999747682E+02 -0.52327195940E+02  0.69879767489E+02  0.00000000000E+00 0. -1.
        -12    1    3    3    0    0  0.62425773025E+02  0.53245109569E+02 -0.46209658845E+02  0.94166615110E+02  0.00000000000E+00 0.  1.
        -13    1    4    4    0    0 -0.81012346347E+02 -0.20779743812E+02 -0.70031882762E+02  0.10908374130E+03  0.00000000000E+00 0. -1.
         13    1    4    4    0    0  0.75627265716E+01 -0.49648262685E+02 -0.50625432425E+02  0.71309741473E+02  0.00000000000E+00 0.  1.
          4    1    1    2  501    0 -0.29176378074E+02  0.40182644609E+02  0.43586864582E+02  0.66073600851E+02  0.00000000000E+00 0. -1.
<scales pt_clust_5="13000.00000" pt_clust_6="13000.00000" pt_clust_7="13000.00000" pt_clust_8="13000.00000" pt_clust_9="49.65791"></scales>
<clustering>
<clus scale="   49.658">  2  9  1 -1</clus>
<clus scale="   75.861">  5  6 -1 -1</clus>
<clus scale="   87.342">  7  8 -1 -1</clus>
<clus scale="  126.805">  1  5  2 -1</clus>
<clus scale="   49.658">  2  5  1 -1</clus>
</clustering>
</event>
<event>
 9    1  0.6675710E-005  0.8441055E+02  0.7546771E-02  0.1319690E+00
         21   -1    0    0  501  502  0.00000000000E+00  0.00000000000E+00  0.10196945895E+03  0.10196945895E+03  0.00000000000E+00 0. -1.
          3   -1    0    0  502    0 -0.00000000000E+00 -0.00000000000E+00 -0.10405678425E+03  0.10405678425E+03  0.00000000000E+00 0. -1.
         23    2    1    2    0    0 -0.27647917079E+01 -0.68257611762E+01 -0.27513324371E+02  0.89053682468E+02  0.84376182981E+02 0.  0.
        -24    2    1    2    0    0 -0.41774815752E+01 -0.20220196128E+02  0.30838669111E+02  0.88530057992E+02  0.80375618018E+02 0.  0.
         11    1    4    4    0    0 -0.30094653698E+02 -0.31834898052E+02  0.39345075029E+02  0.58882797524E+02  0.00000000000E+00 0. -1.
        -12    1    4    4    0    0  0.25917172123E+02  0.11614701924E+02 -0.85064059174E+01  0.29647260468E+02  0.00000000000E+00 0.  1.
        -11    1    3    3    0    0 -0.42119133197E+02 -0.60406788310E+00 -0.25325699289E+02  0.49150557716E+02  0.00000000000E+00 0.  1.
         11    1    3    3    0    0  0.39354341489E+02 -0.62216932931E+01 -0.21876250820E+01  0.39903124752E+02  0.00000000000E+00 0. -1.
          4    1    1    2  501    0  0.69422732832E+01  0.27045957304E+02 -0.54126700366E+01  0.28442502733E+02  0.00000000000E+00 0. -1.
<scales pt_clust_5="13000.00000" pt_clust_6="13000.00000" pt_clust_7="13000.00000" pt_clust_8="13000.00000" pt_clust_9="27.92275"></scales>
<clustering>
<clus scale="   27.923">  1  9  2 -1</clus>
<clus scale="   80.376">  5  6 -1 -1</clus>
<clus scale="   80.412">  1  5  2 -1</clus>
<clus scale="   84.376">  7  8 -1 -1</clus>
<clus scale="   27.923">  1  5  2 -1</clus>
</clustering>
</event>
<event>
 9    1  0.6675710E-005  0.1001617E+03  0.7546771E-02  0.1286384E+00
         21   -1    0    0  501  502  0.00000000000E+00  0.00000000000E+00  0.15181097519E+03  0.15181097519E+03  0.00000000000E+00 0.  1.
         -2   -1    0    0    0  501 -0.00000000000E+00 -0.00000000000E+00 -0.37060517023E+03  0.37060517023E+03  0.00000000000E+00 0.  1.
        -24    2    1    2    0    0  0.38376257627E+02  0.84797177519E+00 -0.33533193480E+03  0.34704071665E+03  0.80723579643E+02 0.  0.
         23    2    1    2    0    0 -0.84005308831E+01  0.17717436093E+02  0.77563797579E+02  0.12281891889E+03  0.93187272095E+02 0.  0.
         11    1    3    3    0    0  0.25739240707E+02 -0.15520719816E+02 -0.35579247173E+02  0.46575573911E+02  0.00000000000E+00 0. -1.
        -12    1    3    3    0    0  0.12637016920E+02  0.16368691591E+02 -0.29975268763E+03  0.30046514274E+03  0.00000000000E+00 0.  1.
        -13    1    4    4    0    0  0.17132488743E+02 -0.27785142317E+02  0.59018701927E+02  0.67444373236E+02  0.00000000000E+00 0.  1.
         13    1    4    4    0    0 -0.25533019626E+02  0.45502578410E+02  0.18545095653E+02  0.55374545650E+02  0.00000000000E+00 0. -1.
         -1    1    1    2    0  502 -0.29975726744E+02 -0.18565407868E+02  0.38973942179E+02  0.52556509893E+02  0.00000000000E+00 0.  1.
<scales pt_clust_5="13000.00000" pt_clust_6="13000.00000" pt_clust_7="13000.00000" pt_clust_8="13000.00000" pt_clust_9="35.25930"></scales>
<clustering>
<clus scale="   35.259">  1  9  2 -1</clus>
<clus scale="   80.724">  5  6 -1 -1</clus>
<clus scale="   88.684">  2  5  1 -1</clus>
<clus scale="   93.187">  7  8 -1 -1</clus>
<clus scale="   35.259">  1  5  2 -1</clus>
</clustering>
</event>
<event>
 9    1  0.6675710E-005  0.1584018E+03  0.7546771E-02  0.1193088E+00
         -4   -1    0    0    0  501 -0.00000000000E+00  0.00000000000E+00  0.19057888134E+03  0.19057888134E+03  0.00000000000E+00 0.  1.
         21   -1    0    0  501  502  0.00000000000E+00 -0.00000000000E+00 -0.17593410007E+03  0.17593410007E+03  0.00000000000E+00 0.  1.
        -24    2    1    2    0    0 -0.10219556230E+03 -0.90331337675E+02  0.11088850984E+02  0.15857018065E+03  0.80111522604E+02 0.  0.
         23    2    1    2    0    0  0.11405745639E+03  0.39138099381E+02 -0.85312377542E+01  0.15402108149E+03  0.95440124385E+02 0.  0.
         11    1    3    3    0    0 -0.24385082275E+02 -0.40505120363E+02 -0.31519667190E+02  0.56822411362E+02  0.00000000000E+00 0. -1.
        -12    1    3    3    0    0 -0.77810480024E+02 -0.49826217312E+02  0.42608518174E+02  0.10174776928E+03  0.00000000000E+00 0.  1.
        -13    1    4    4    0    0  0.81246436730E+02  0.62087333833E+02 -0.32574121533E+02  0.10731679224E+03  0.00000000000E+00 0.  1.
         13    1    4    4    0    0  0.32811019664E+02 -0.22949234452E+02  0.24042883778E+02  0.46704289243E+02  0.00000000000E+00 0. -1.
         -3    1    1    2    0  502 -0.11861894095E+02  0.51193238294E+02  0.12087168040E+02  0.53921719277E+02  0.00000000000E+00 0.  1.
<scales pt_clust_5="13000.00000" pt_clust_6="13000.00000" pt_clust_7="13000.00000" pt_clust_8="13000.00000" pt_clust_9="52.54955"></scales>
<clustering>
<clus scale="   52.550">  2  9  1 -1</clus>
<clus scale="   80.112">  5  6 -1 -1</clus>
<clus scale="   95.440">  7  8 -1 -1</clus>
<clus scale="  149.667">  1  5  2 -1</clus>
<clus scale="   52.550">  2  5  1 -1</clus>
</clustering>
</event>
<event>
 9    1  0.6675710E-005  0.9890990E+02  0.7546771E-02  0.1289493E+00
          1   -1    0    0  502    0 -0.00000000000E+00  0.00000000000E+00  0.35236150259E+03  0.35236150259E+03  0.00000000000E+00 0. -1.
         21   -1    0    0  501  502  0.00000000000E+00 -0.00000000000E+00 -0.72689609221E+02  0.72689609221E+02  0.00000000000E+00 0.  1.
        -24    2    1    2    0    0 -0.22738339217E+02 -0.37821200984E+02  0.13833280267E+03  0.16618176722E+03  0.80826605444E+02 0.  0.
         23    2    1    2    0    0  0.24807089811E+02 -0.35313111494E+02  0.39217273299E+01  0.10318877693E+03  0.93649005287E+02 0.  0.
         13    1    3    3    0    0  0.27451378448E+02  0.77590264541E+00  0.29748029667E+02  0.40486114567E+02  0.00000000000E+00 0. -1.
        -14    1    3    3    0    0 -0.50189717666E+02 -0.38597103630E+02  0.10858477300E+03  0.12569565265E+03  0.00000000000E+00 0.  1.
        -11    1    4    4    0    0  0.54060628322E+02 -0.20741549274E+02 -0.21518809601E+02  0.61772344682E+02  0.00000000000E+00 0.  1.
         11    1    4    4    0    0 -0.29253538511E+02 -0.14571562221E+02  0.25440536931E+02  0.41416432250E+02  0.00000000000E+00 0. -1.
          2    1    1    2  501    0 -0.20687505937E+01  0.73134312479E+02  0.13741736337E+03  0.15568056766E+03  0.00000000000E+00 0. -1.
<scales pt_clust_5="13000.00000" pt_clust_6="13000.00000" pt_clust_7="13000.00000" pt_clust_8="13000.00000" pt_clust_9="73.16360"></scales>
<clustering>
<clus scale="   73.164">  2  9  1 -1</clus>
<clus scale="   80.827">  5  6 -1 -1</clus>
<clus scale="   86.868">  1  5  2 -1</clus>
<clus scale="   93.649">  7  8 -1 -1</clus>
<clus scale="   73.164">  2  5  1 -1</clus>
</clustering>
</event>
<event>
 9    1  0.6675710E-005  0.9187511E+02  0.7546771E-02  0.1309628E+00
         21   -1    0    0  501  502  0.00000000000E+00  0.00000000000E+00  0.47731834701E+02  0.47731834701E+02  0.00000000000E+00 0.  1.
         -2   -1    0    0    0  501 -0.00000000000E+00 -0.00000000000E+00 -0.44071257963E+03  0.44071257963E+03  0.00000000000E+00 0.  1.
        -24    2    1    2    0    0  0.13177931808E+02 -0.11811559176E+02 -0.30444138221E+03  0.31320905343E+03  0.71429581660E+02 0.  0.
         23    2    1    2    0    0 -0.40992758334E+02  0.40597675661E+02 -0.42978107624E+02  0.11458774724E+03  0.89188881464E+02 0.  0.
         11    1    3    3    0    0 -0.28155250640E+02 -0.16776097755E+01 -0.81512331768E+02  0.86254233191E+02  0.00000000000E+00 0. -1.
        -12    1    3    3    0    0  0.41333182449E+02 -0.10133949401E+02 -0.22292905044E+03  0.22695482024E+03  0.00000000000E+00 0.  1.
        -13    1    4    4    0    0 -0.27085356854E+02  0.69247950566E+02 -0.31071678858E+02  0.80587495560E+02  0.00000000000E+00 0.  1.
         13    1    4    4    0    0 -0.13907401479E+02 -0.28650274906E+02 -0.11906428766E+02  0.34000251676E+02  0.00000000000E+00 0. -1.
         -1    1    1    2    0  502  0.27814826525E+02 -0.28786116484E+02 -0.45561255104E+02  0.60647613668E+02  0.00000000000E+00 0.  1.
<scales pt_clust_5="13000.00000" pt_clust_6="13000.00000" pt_clust_7="13000.00000" pt_clust_8="13000.00000" pt_clust_9="40.02880"></scales>
<clustering>
<clus scale="   40.029">  1  9  2 -1</clus>
<clus scale="   71.430">  5  6 -1 -1</clus>
<clus scale="   74.757">  2  5  1 -1</clus>
<clus scale="   89.189">  7  8 -1 -1</clus>
<clus scale="   40.029">  1  5  2 -1</clus>
</clustering>
</event>
<event>
 9    1  0.6675710E-005  0.3159465E+03  0.7546771E-02  0.1117963E+00
         21   -1    0    0  501  502  0.00000000000E+00  0.00000000000E+00  0.46347130244E+03  0.46347130244E+03  0.00000000000E+00 0. -1.
          1   -1    0    0  502    0 -0.00000000000E+00 -0.00000000000E+00 -0.38816992626E+03  0.38816992626E+03  0.00000000000E+00 0. -1.
        -24    2    1    2    0    0  0.36154786628E+02  0.66353192068E+02 -0.14417217482E+03  0.18142505997E+03  0.80121917721E+02 0.  0.
         23    2    1    2    0    0  0.12697630494E+03  0.22442951976E+03  0.34659942787E+01  0.27294346251E+03  0.89412131464E+02 0.  0.
         13    1    3    3    0    0 -0.57774372728E+01  0.60696053306E+02 -0.11457875965E+03  0.12979091582E+03  0.00000000000E+00 0. -1.
        -14    1    3    3    0    0  0.41932223900E+02  0.56571387620E+01 -0.29593415178E+02  0.51634144150E+02  0.00000000000E+00 0.  1.
        -13    1    4    4    0    0  0.85176768829E+02  0.63684273067E+02 -0.65259677663E+01  0.10655213203E+03  0.00000000000E+00 0. -1.
         13    1    4    4    0    0  0.41799536115E+02  0.16074524670E+03  0.99919620450E+01  0.16639133048E+03  0.00000000000E+00 0.  1.
          2    1    1    2  501    0 -0.16313109157E+03 -0.29078271183E+03  0.21600755673E+03  0.39727270621E+03  0.00000000000E+00 0. -1.
<scales pt_clust_5="13000.00000" pt_clust_6="13000.00000" pt_clust_7="13000.00000" pt_clust_8="13000.00000" pt_clust_9="303.03083"></scales>
<clustering>
<clus scale="   80.122">  5  6 -1 -1</clus>
<clus scale="   89.412">  7  8 -1 -1</clus>
<clus scale="  110.134">  2  5  1 -1</clus>
<clus scale="  303.031">  1  9  2 -1</clus>
<clus scale="  303.031">  1  5  2 -1</clus>
</clustering>
</event>
<event>
 9    1  0.6675710E-005  0.1663762E+03  0.7546771E-02  0.1186233E+00
         21   -1    0    0  501  502  0.00000000000E+00  0.00000000000E+00  0.66725864109E+02  0.66725864109E+02  0.00000000000E+00 0.  1.
          1   -1    0    0  502    0 -0.00000000000E+00 -0.00000000000E+00 -0.56799611544E+03  0.56799611544E+03  0.00000000000E+00 0. -1.
        -24    2    1    2    0    0  0.14267089126E+03  0.73622726294E+02 -0.34082223998E+03  0.38935467797E+03  0.98295355702E+02 0.  0.
         23    2    1    2    0    0 -0.83278454639E+02 -0.64752812284E+02 -0.11484995713E+03  0.16996624421E+03  0.67600176132E+02 0.  0.
         13    1    3    3    0    0  0.63436015878E+02 -0.19041771781E+02 -0.11414771451E+03  0.13197127684E+03  0.00000000000E+00 0. -1.
        -14    1    3    3    0    0  0.79234875385E+02  0.92664498074E+02 -0.22667452547E+03  0.25738340113E+03  0.00000000000E+00 0.  1.
        -11    1    4    4    0    0 -0.41140955632E+02 -0.55177381784E+02 -0.30686155987E+02  0.75357560073E+02  0.00000000000E+00 0. -1.
         11    1    4    4    0    0 -0.42137499007E+02 -0.95754304997E+01 -0.84163801141E+02  0.94608684138E+02  0.00000000000E+00 0.  1.
          2    1    1    2  501    0 -0.59392436624E+02 -0.88699140096E+01 -0.45598054216E+02  0.75401057360E+02  0.00000000000E+00 0. -1.
<scales pt_clust_5="13000.00000" pt_clust_6="13000.00000" pt_clust_7="13000.00000" pt_clust_8="13000.00000" pt_clust_9="60.05112"></scales>
<clustering>
<clus scale="   60.051">  1  9  2 -1</clus>
<clus scale="   67.600">  7  8 -1 -1</clus>
<clus scale="   98.295">  5  6 -1 -1</clus>
<clus scale="  150.296">  1  7  2 -1</clus>
<clus scale="   60.051">  1  5  2 -1</clus>
</clustering>
</event>
<event>
 9    1  0.6675710E-005  0.1036597E+03  0.7546771E-02  0.1282593E+00
          1   -1    0    0  502    0 -0.00000000000E+00  0.00000000000E+00  0.13608915777E+03  0.13608915777E+03  0.00000000000E+00 0. -1.
         21   -1    0    0  501  502  0.00000000000E+00 -0.00000000000E+00 -0.38059622152E+03  0.38059622152E+03  0.00000000000E+00 0.  1.
        -24    2    1    2    0    0  0.15626855440E+02  0.20756441592E+02  0.10805127034E+03  0.13817419811E+03  0.82109704197E+02 0.  0.
         23    2    1    2    0    0 -0.28553073844E+02  0.19562302057E+01 -0.22201423036E+03  0.24537697971E+03  0.10050093943E+03 0.  0.
         13    1    3    3    0    0  0.28021199118E+02 -0.55804619782E-02  0.11038086067E+03  0.11388205317E+03  0.00000000000E+00 0. -1.
        -14    1    3    3    0    0 -0.12394343678E+02  0.20762022054E+02 -0.23295903292E+01  0.24292144946E+02  0.00000000000E+00 0.  1.
        -13    1    4    4    0    0 -0.50250711371E+02  0.18366740915E+02 -0.20800802637E+03  0.21477851429E+03  0.00000000000E+00 0.  1.
         13    1    4    4    0    0  0.21697637527E+02 -0.16410510709E+02 -0.14006203987E+02  0.30598465421E+02  0.00000000000E+00 0. -1.
          2    1    1    2  501    0  0.12926218404E+02 -0.22712671798E+02 -0.13054410374E+03  0.13313420148E+03  0.00000000000E+00 0. -1.
<scales pt_clust_5="13000.00000" pt_clust_6="13000.00000" pt_clust_7="13000.00000" pt_clust_8="13000.00000" pt_clust_9="26.13336"></scales>
<clustering>
<clus scale="   26.133">  2  9  1 -1</clus>
<clus scale="   82.110">  5  6 -1 -1</clus>
<clus scale="   85.947">  1  5  2 -1</clus>
<clus scale="  100.501">  7  8 -1 -1</clus>
<clus scale="   26.133">  2  5  1 -1</clus>
</clustering>
</event>
<event>
 9    1  0.6675710E-005  0.9216538E+02  0.7546771E-02  0.1300268E+00
         21   -1    0    0  501  502  0.00000000000E+00  0.00000000000E+00  0.96744715791E+02  0.96744715791E+02  0.00000000000E+00 0.  1.
         -4   -1    0    0    0  501 -0.00000000000E+00 -0.00000000000E+00 -0.27085980570E+03  0.27085980570E+03  0.00000000000E+00 0.  1.
        -24    2    1    2    0    0  0.21581136173E+02  0.22735385113E+02 -0.91192590540E+02  0.13019578896E+03  0.87476921067E+02 0.  0.
         23    2    1    2    0    0  0.39158825107E+02  0.33171123099E+02 -0.10839278736E+03  0.15101650992E+03  0.91778281345E+02 0.  0.
         11    1    3    3    0    0  0.17135839537E+02 -0.29584973075E+02 -0.14242256136E+02  0.37037136611E+02  0.00000000000E+00 0. -1.
        -12    1    3    3    0    0  0.44452966358E+01  0.52320358188E+02 -0.76950334404E+02  0.93158652352E+02  0.00000000000E+00 0.  1.
        -13    1    4    4    0    0  0.21687035353E+02  0.67844605930E+01 -0.11621632014E+03  0.11841701514E+03  0.00000000000E+00 0. -1.
         13    1    4    4    0    0  0.17471789754E+02  0.26386662506E+02  0.78235327747E+01  0.32599494789E+02  0.00000000000E+00 0.  1.
         -3    1    1    2    0  502 -0.60739961280E+02 -0.55906508212E+02  0.25470287988E+02  0.86392222607E+02  0.00000000000E+00 0.  1.
<scales pt_clust_5="13000.00000" pt_clust_6="13000.00000" pt_clust_7="13000.00000" pt_clust_8="13000.00000" pt_clust_9="82.55229"></scales>
<clustering>
<clus scale="   82.552">  1  9  2 -1</clus>
<clus scale="   87.477">  5  6 -1 -1</clus>
<clus scale="   87.883">  2  5  1 -1</clus>
<clus scale="   91.778">  7  8 -1 -1</clus>
<clus scale="   82.552">  1  5  2 -1</clus>
</clustering>
</event>
<event>
 9    1  0.6675710E-005  0.1130946E+03  0.7546771E-02  0.1259761E+00
         -2   -1    0    0    0  501 -0.00000000000E+00  0.00000000000E+00  0.23484184314E+03  0.23484184314E+03  0.00000000000E+00 0.  1.
         21   -1    0    0  501  502  0.00000000000E+00 -0.00000000000E+00 -0.12384857274E+03  0.12384857274E+03  0.00000000000E+00 0.  1.
        -24    2    1    2    0    0 -0.68249461823E+02 -0.36291134027E+02  0.15829010920E+03  0.19301054310E+03  0.78881402310E+02 0.  0.
         23    2    1    2    0    0  0.36178612901E+02 -0.10715811100E+02 -0.15536378912E+02  0.10051148280E+03  0.91855639270E+02 0.  0.
         11    1    3    3    0    0 -0.73042472770E+02 -0.52977167699E+02  0.11365476685E+03  0.14511784574E+03  0.00000000000E+00 0. -1.
        -12    1    3    3    0    0  0.47930109471E+01  0.16686033671E+02  0.44635342350E+02  0.47892697359E+02  0.00000000000E+00 0.  1.
        -11    1    4    4    0    0 -0.17938512560E+02 -0.22733334329E+02  0.19518591469E+02  0.34922344359E+02  0.00000000000E+00 0.  1.
         11    1    4    4    0    0  0.54117125462E+02  0.12017523229E+02 -0.35054970381E+02  0.65589138439E+02  0.00000000000E+00 0. -1.
         -1    1    1    2    0  502  0.32070848921E+02  0.47006945128E+02 -0.31760459878E+02  0.65168389979E+02  0.00000000000E+00 0.  1.
<scales pt_clust_5="13000.00000" pt_clust_6="13000.00000" pt_clust_7="13000.00000" pt_clust_8="13000.00000" pt_clust_9="56.90512"></scales>
<clustering>
<clus scale="   56.905">  2  9  1 -1</clus>
<clus scale="   78.881">  5  6 -1 -1</clus>
<clus scale="   91.856">  7  8 -1 -1</clus>
<clus scale="  102.836">  1  5  2 -1</clus>
<clus scale="   56.905">  2  5  1 -1</clus>
</clustering>
</event>
<event>
 9    1  0.6675710E-005  0.1048650E+03  0.7546771E-02  0.1275991E+00
         21   -1    0    0  501  502  0.00000000000E+00  0.00000000000E+00  0.28575205656E+02  0.28575205656E+02  0.00000000000E+00 0. -1.
         -2   -1    0    0    0  501 -0.00000000000E+00 -0.00000000000E+00 -0.52854168208E+03  0.52854168208E+03  0.00000000000E+00 0.  1.
         23    2    1    2    0    0 -0.82519384205E+01  0.41050964110E+02 -0.24365157855E+03  0.26354771981E+03  0.91312829042E+02 0.  0.
        -24    2    1    2    0    0  0.41906620753E+00 -0.61255028063E+02 -0.25258586666E+03  0.27158135855E+03  0.78768395934E+02 0.  0.
         11    1    4    4    0    0  0.27881088856E+02 -0.77436297819E+01 -0.32919192971E+02  0.43829124835E+02  0.00000000000E+00 0. -1.
        -12    1    4    4    0    0 -0.27462022649E+02 -0.53511398281E+02 -0.21966667369E+03  0.22775223372E+03  0.00000000000E+00 0.  1.
        -13    1    3    3    0    0 -0.38378369829E+02 -0.10872595605E+01 -0.49726504810E+02  0.62823615661E+02  0.00000000000E+00 0. -1.
         13    1    3    3    0    0  0.30126431408E+02  0.42138223670E+02 -0.19392507374E+03  0.20072410415E+03  0.00000000000E+00 0.  1.
         -1    1    1    2    0  502  0.78328722129E+01  0.20204063953E+02 -0.37290312229E+01  0.21987809376E+02  0.00000000000E+00 0.  1.
<scales pt_clust_5="13000.00000" pt_clust_6="13000.00000" pt_clust_7="13000.00000" pt_clust_8="13000.00000" pt_clust_9="21.66929"></scales>
<clustering>
<clus scale="   21.669">  1  9  2 -1</clus>
<clus scale="   78.768">  5  6 -1 -1</clus>
<clus scale="   91.313">  7  8 -1 -1</clus>
<clus scale="   94.144">  1  5  2 -1</clus>
<clus scale="   21.669">  1  5  2 -1</clus>
</clustering>
</event>
<event>
 9    1  0.6675710E-005  0.9263085E+02  0.7546771E-02  0.1302791E+00
         -4   -1    0    0    0  501 -0.00000000000E+00  0.00000000000E+00  0.15461740969E+03  0.15461740969E+03  0.00000000000E+00 0.  1.
         21   -1    0    0  501  502  0.00000000000E+00 -0.00000000000E+00 -0.20914660371E+03  0.20914660371E+03  0.00000000000E+00 0.  1.
        -24    2    1    2    0    0 -0.15128285858E+02  0.13400703569E+01 -0.18360849249E+02  0.83811338106E+02  0.80352714879E+02 0.  0.
         23    2    1    2    0    0  0.66874356127E+01 -0.52639454825E+02 -0.13335986793E+03  0.16972986925E+03  0.90596579082E+02 0.  0.
         13    1    3    3    0    0  0.26067429581E+02 -0.57694112910E+01 -0.30252109093E+02  0.40348322098E+02  0.00000000000E+00 0. -1.
        -14    1    3    3    0    0 -0.41195715439E+02  0.71094816478E+01  0.11891259844E+02  0.43463016008E+02  0.00000000000E+00 0.  1.
        -13    1    4    4    0    0  0.31572208164E+02 -0.41515580876E+02 -0.13256942585E+03  0.14246052244E+03  0.00000000000E+00 0.  1.
         13    1    4    4    0    0 -0.24884772551E+02 -0.11123873949E+02 -0.79044207890E+00  0.27269346806E+02  0.00000000000E+00 0. -1.
         -3    1    1    2    0  502  0.84408502453E+01  0.51299384468E+02  0.97191523155E+02  0.11022280605E+03  0.00000000000E+00 0.  1.
<scales pt_clust_5="13000.00000" pt_clust_6="13000.00000" pt_clust_7="13000.00000" pt_clust_8="13000.00000" pt_clust_9="51.98921"></scales>
<clustering>
<clus scale="   51.989">  2  9  1 -1</clus>
<clus scale="   80.353">  5  6 -1 -1</clus>
<clus scale="   82.640">  1  5  2 -1</clus>
<clus scale="   90.597">  7  8 -1 -1</clus>
<clus scale="   51.989">  2  5  1 -1</clus>
</clustering>
</event>
<event>
 9    1  0.6675710E-005  0.9346036E+02  0.7546771E-02  0.1302613E+00
          1   -1    0    0  502    0 -0.00000000000E+00  0.00000000000E+00  0.39624079907E+03  0.39624079907E+03  0.00000000000E+00 0. -1.
         21   -1    0    0  501  502  0.00000000000E+00 -0.00000000000E+00 -0.95943529764E+02  0.95943529764E+02  0.00000000000E+00 0. -1.
         23    2    1    2    0    0 -0.66522859092E+01 -0.51160418457E+01  0.26208672020E+03  0.27822638843E+03  0.93005631678E+02 0.  0.
        -24    2    1    2    0    0 -0.14678663453E+02  0.16051661587E+02  0.11023825524E+03  0.13804623096E+03  0.80194575651E+02 0.  0.
         11    1    4    4    0    0 -0.85477490202E+01  0.34757822716E+02  0.11266302871E+03  0.11821221719E+03  0.00000000000E+00 0. -1.
        -12    1    4    4    0    0 -0.61309144324E+01 -0.18706161129E+02 -0.24247734751E+01  0.19834013774E+02  0.00000000000E+00 0.  1.
        -13    1    3    3    0    0 -0.31265380178E+02  0.31768380330E+02  0.88836495722E+02  0.99391533636E+02  0.00000000000E+00 0.  1.
         13    1    3    3    0    0  0.24613094269E+02 -0.36884422176E+02  0.17325022447E+03  0.17883485479E+03  0.00000000000E+00 0. -1.
          2    1    1    2  501    0  0.21330949362E+02 -0.10935619741E+02 -0.72027706131E+02  0.75911709441E+02  0.00000000000E+00 0. -1.
<scales pt_clust_5="13000.00000" pt_clust_6="13000.00000" pt_clust_7="13000.00000" pt_clust_8="13000.00000" pt_clust_9="23.97076"></scales>
<clustering>
<clus scale="   23.971">  2  9  1 -1</clus>
<clus scale="   80.195">  5  6 -1 -1</clus>
<clus scale="   80.722">  2  5  1 -1</clus>
<clus scale="   93.006">  7  8 -1 -1</clus>
<clus scale="   23.971">  2  5  1 -1</clus>
</clustering>
</event>
<event>
 9    1  0.6675710E-005  0.1511113E+03  0.7546771E-02  0.1201090E+00
         -2   -1    0    0    0  501 -0.00000000000E+00  0.00000000000E+00  0.48643154880E+03  0.48643154880E+03  0.00000000000E+00 0.  1.
         21   -1    0    0  501  502  0.00000000000E+00 -0.00000000000E+00 -0.23175701652E+03  0.23175701652E+03  0.00000000000E+00 0.  1.
        -24    2    1    2    0    0 -0.12004765229E+03  0.27692909058E+02  0.41366198610E+03  0.43898577188E+03  0.80087034748E+02 0.  0.
         23    2    1    2    0    0  0.69010148516E+02 -0.54177452998E+02 -0.17826455261E+03  0.21855739462E+03  0.91057602736E+02 0.  0.
         13    1    3    3    0    0 -0.58391642334E+02  0.65164943549E+00  0.82659391712E+02  0.10120564994E+03  0.00000000000E+00 0. -1.
        -14    1    3    3    0    0 -0.61656009961E+02  0.27041259623E+02  0.33100259439E+03  0.33778012194E+03  0.00000000000E+00 0.  1.
        -13    1    4    4    0    0  0.21601321876E+02 -0.67327594793E+02 -0.13769615795E+03  0.15478970909E+03  0.00000000000E+00 0.  1.
         13    1    4    4    0    0  0.47408826640E+02  0.13150141795E+02 -0.40568394664E+02  0.63767685532E+02  0.00000000000E+00 0. -1.
         -1    1    1    2    0  502  0.51037503779E+02  0.26484543940E+02  0.19277098785E+02  0.60645398813E+02  0.00000000000E+00 0.  1.
<scales pt_clust_5="13000.00000" pt_clust_6="13000.00000" pt_clust_7="13000.00000" pt_clust_8="13000.00000" pt_clust_9="57.50007"></scales>
<clustering>
<clus scale="   57.500">  2  9  1 -1</clus>
<clus scale="   80.087">  5  6 -1 -1</clus>
<clus scale="   91.058">  7  8 -1 -1</clus>
<clus scale="  144.766">  1  5  2 -1</clus>
<clus scale="   57.500">  2  5  1 -1</clus>
</clustering>
</event>
<event>
 9    1  0.6675710E-005  0.1291794E+03  0.7546771E-02  0.1246178E+00
         21   -1    0    0  501  502  0.00000000000E+00  0.00000000000E+00  0.48949952482E+02  0.48949952482E+02  0.00000000000E+00 0. -1.
          1   -1    0    0  502    0 -0.00000000000E+00 -0.00000000000E+00 -0.85212699253E+03  0.85212699253E+03  0.00000000000E+00 0. -1.
        -24    2    1    2    0    0 -0.13660418004E+02 -0.33616589913E+02 -0.40926658313E+03  0.41913199225E+03  0.82799811116E+02 0.  0.
         23    2    1    2    0    0  0.46232147063E+02 -0.71513591037E+02 -0.78316125183E+02  0.14770992362E+03  0.91832461300E+02 0.  0.
         11    1    3    3    0    0 -0.21700252686E+02  0.23059805044E+02 -0.11130603166E+03  0.11572246221E+03  0.00000000000E+00 0. -1.
        -12    1    3    3    0    0  0.80398346824E+01 -0.56676394957E+02 -0.29796055147E+03  0.30340953004E+03  0.00000000000E+00 0.  1.
        -13    1    4    4    0    0  0.41434236387E+02 -0.46360987790E+02  0.32060638524E+01  0.62260870370E+02  0.00000000000E+00 0. -1.
         13    1    4    4    0    0  0.47979106759E+01 -0.25152603248E+02 -0.81522189035E+02  0.85449053254E+02  0.00000000000E+00 0.  1.
          2    1    1    2  501    0 -0.32571729059E+02  0.10513018095E+03 -0.31559433173E+03  0.33423502913E+03  0.00000000000E+00 0. -1.
<scales pt_clust_5="13000.00000" pt_clust_6="13000.00000" pt_clust_7="13000.00000" pt_clust_8="13000.00000" pt_clust_9="90.85224"></scales>
<clustering>
<clus scale="   82.800">  5  6 -1 -1</clus>
<clus scale="   90.402">  2  5  1 -1</clus>
<clus scale="   90.852">  1  9  2 -1</clus>
<clus scale="   91.832">  7  8 -1 -1</clus>
<clus scale="   90.852">  1  5  2 -1</clus>
</clustering>
</event>
<event>
 9    1  0.6675710E-005  0.1170024E+03  0.7546771E-02  0.1255408E+00
         21   -1    0    0  501  502  0.00000000000E+00  0.00000000000E+00  0.17125188198E+03  0.17125188198E+03  0.00000000000E+00 0. -1.
         -2   -1    0    0    0  501 -0.00000000000E+00 -0.00000000000E+00 -0.21457567266E+03  0.21457567266E+03  0.00000000000E+00 0.  1.
        -24    2    1    2    0    0 -0.35983411456E+02  0.52938915010E+02 -0.15953782180E+03  0.18883045453E+03  0.78149148115E+02 0.  0.
         23    2    1    2    0    0  0.64900419597E+02 -0.35804624031E+02  0.10526578736E+03  0.16164683380E+03  0.97748541276E+02 0.  0.
         11    1    3    3    0    0 -0.22389063475E+02 -0.12322329971E+02 -0.14931090238E+02  0.29598098501E+02  0.00000000000E+00 0. -1.
        -12    1    3    3    0    0 -0.13594347981E+02  0.65261244982E+02 -0.14460673156E+03  0.15923235603E+03  0.00000000000E+00 0.  1.
        -13    1    4    4    0    0  0.31166890821E+02 -0.64751053915E+02  0.88823615263E+02  0.11425282795E+03  0.00000000000E+00 0. -1.
         13    1    4    4    0    0  0.33733528776E+02  0.28946429883E+02  0.16442172098E+02  0.47394005845E+02  0.00000000000E+00 0.  1.
         -1    1    1    2    0  502 -0.28917008141E+02 -0.17134290979E+02  0.10948243754E+02  0.35350266315E+02  0.00000000000E+00 0.  1.
<scales pt_clust_5="13000.00000" pt_clust_6="13000.00000" pt_clust_7="13000.00000" pt_clust_8="13000.00000" pt_clust_9="33.61216"></scales>
<clustering>
<clus scale="   33.612">  1  9  2 -1</clus>
<clus scale="   78.149">  5  6 -1 -1</clus>
<clus scale="   97.749">  7  8 -1 -1</clus>
<clus scale="  101.203">  2  5  1 -1</clus>
<clus scale="   33.612">  1  5  2 -1</clus>
</clustering>
</event>
<event>
 9    1  0.6675710E-005  0.1200712E+03  0.7546771E-02  0.1246953E+00
         -2   -1    0    0    0  501 -0.00000000000E+00  0.00000000000E+00  0.36231738548E+03  0.36231738548E+03  0.00000000000E+00 0.  1.
         21   -1    0    0  501  502  0.00000000000E+00 -0.00000000000E+00 -0.77533069251E+02  0.77533069251E+02  0.00000000000E+00 0. -1.
         23    2    1    2    0    0  0.76488207441E+02  0.22569946981E+02  0.26679568859E+03  0.29309334102E+03  0.91454462517E+02 0.  0.
        -24    2    1    2    0    0 -0.57727508360E+02 -0.46078494271E+02 -0.60193297101E+01  0.10827338154E+03  0.78937950094E+02 0.  0.
         13    1    4    4    0    0 -0.68897591703E+02 -0.53413450002E+02 -0.19457147672E+02  0.89322199811E+02  0.00000000000E+00 0. -1.
        -14    1    4    4    0    0  0.11170083343E+02  0.73349557307E+01  0.13437817962E+02  0.18951181732E+02  0.00000000000E+00 0.  1.
        -11    1    3    3    0    0  0.85216557241E+02  0.42330456632E+02  0.17944839531E+03  0.20311439084E+03  0.00000000000E+00 0.  1.
         11    1    3    3    0    0 -0.87283497994E+01 -0.19760509651E+02  0.87347293278E+02  0.89978950177E+02  0.00000000000E+00 0. -1.
         -1    1    1    2    0  502 -0.18760699082E+02  0.23508547290E+02  0.24007957349E+02  0.38483732171E+02  0.00000000000E+00 0.  1.
<scales pt_clust_5="13000.00000" pt_clust_6="13000.00000" pt_clust_7="13000.00000" pt_clust_8="13000.00000" pt_clust_9="30.07683"></scales>
<clustering>
<clus scale="   30.077">  2  9  1 -1</clus>
<clus scale="   78.938">  5  6 -1 -1</clus>
<clus scale="   91.454">  7  8 -1 -1</clus>
<clus scale="  110.835">  2  5  1 -1</clus>
<clus scale="   30.077">  2  5  1 -1</clus>
</clustering>
</event>
<event>
 9    1  0.6675710E-005  0.1159462E+03  0.7546771E-02  0.1254955E+00
         -2   -1    0    0    0  501 -0.00000000000E+00  0.00000000000E+00  0.18527589662E+03  0.18527589662E+03  0.00000000000E+00 0.  1.
         21   -1    0    0  501  502  0.00000000000E+00 -0.00000000000E+00 -0.24907066035E+03  0.24907066035E+03  0.00000000000E+00 0.  1.
        -24    2    1    2    0    0  0.28690949849E+02  0.45434412454E+02  0.13570242411E+03  0.17892181241E+03  0.10349111367E+03 0.  0.
         23    2    1    2    0    0 -0.67455123418E+01 -0.48830608739E+02 -0.72127280379E+02  0.12613348536E+03  0.90980114679E+02 0.  0.
         13    1    3    3    0    0  0.21855458340E+02  0.53501022346E+02  0.17694283566E+02  0.60440947397E+02  0.00000000000E+00 0. -1.
        -14    1    3    3    0    0  0.68354915088E+01 -0.80666098918E+01  0.11800814055E+03  0.11848086501E+03  0.00000000000E+00 0.  1.
        -11    1    4    4    0    0  0.26297240626E+02  0.66378143342E+00  0.69090965978E+01  0.27197813996E+02  0.00000000000E+00 0.  1.
         11    1    4    4    0    0 -0.33042752968E+02 -0.49494390173E+02 -0.79036376976E+02  0.98935671362E+02  0.00000000000E+00 0. -1.
         -1    1    1    2    0  502 -0.21945437507E+02  0.33961962850E+01 -0.12736990747E+03  0.12929125920E+03  0.00000000000E+00 0.  1.
<scales pt_clust_5="13000.00000" pt_clust_6="13000.00000" pt_clust_7="13000.00000" pt_clust_8="13000.00000" pt_clust_9="22.20667"></scales>
<clustering>
<clus scale="   22.207">  2  9  1 -1</clus>
<clus scale="   90.980">  7  8 -1 -1</clus>
<clus scale="  103.491">  5  6 -1 -1</clus>
<clus scale="  104.931">  2  7  1 -1</clus>
<clus scale="   22.207">  2  5  1 -1</clus>
</clustering>
</event>
<event>
 9    1  0.6675710E-005  0.9669925E+02  0.7546771E-02  0.1293943E+00
          1   -1    0    0  502    0 -0.00000000000E+00  0.00000000000E+00  0.35760917384E+03  0.35760917384E+03  0.00000000000E+00 0. -1.
         21   -1    0    0  501  502  0.00000000000E+00 -0.00000000000E+00 -0.11274172158E+03  0.11274172158E+03  0.00000000000E+00 0.  1.
        -24    2    1    2    0    0 -0.18772162046E+01 -0.30110645140E+02  0.32023747018E+03  0.33158356538E+03  0.80532283140E+02 0.  0.
         23    2    1    2    0    0  0.72450457993E+01  0.10788923400E+02 -0.47996495746E+02  0.10483427474E+03  0.92291223851E+02 0.  0.
         13    1    3    3    0    0  0.67592210230E+01 -0.49830035095E+02  0.29079137267E+03  0.29510733960E+03  0.00000000000E+00 0. -1.
        -14    1    3    3    0    0 -0.86364372276E+01  0.19719389955E+02  0.29446097510E+02  0.36476225774E+02  0.00000000000E+00 0.  1.
        -13    1    4    4    0    0  0.47111198588E+02  0.55720065177E+00 -0.86647474184E+01  0.47904627676E+02  0.00000000000E+00 0. -1.
         13    1    4    4    0    0 -0.39866152788E+02  0.10231722748E+02 -0.39331748328E+02  0.56929647066E+02  0.00000000000E+00 0.  1.
          2    1    1    2  501    0 -0.53678295947E+01  0.19321721741E+02 -0.27373522182E+02  0.33933055303E+02  0.00000000000E+00 0. -1.
<scales pt_clust_5="13000.00000" pt_clust_6="13000.00000" pt_clust_7="13000.00000" pt_clust_8="13000.00000" pt_clust_9="20.05349"></scales>
<clustering>
<clus scale="   20.053">  2  9  1 -1</clus>
<clus scale="   80.532">  5  6 -1 -1</clus>
<clus scale="   85.548">  1  5  2 -1</clus>
<clus scale="   92.291">  7  8 -1 -1</clus>
<clus scale="   20.053">  2  5  1 -1</clus>
</clustering>
</event>
<event>
 9    1  0.6675710E-005  0.1218608E+03  0.7546771E-02  0.1251762E+00
          1   -1    0    0  502    0 -0.00000000000E+00  0.00000000000E+00  0.11555659678E+03  0.11555659678E+03  0.00000000000E+00 0. -1.
         21   -1    0    0  501  502  0.00000000000E+00 -0.00000000000E+00 -0.29115867134E+03  0.29115867134E+03  0.00000000000E+00 0.  1.
        -24    2    1    2    0    0 -0.10371649972E+02  0.47497159599E+02 -0.37205543165E+02  0.10323902814E+03  0.83129376257E+02 0.  0.
         23    2    1    2    0    0  0.27444106194E+02  0.64631052922E+02 -0.15003437555E+03  0.18946025767E+03  0.91948482435E+02 0.  0.
         13    1    3    3    0    0  0.10275645952E+02  0.44644785542E+02  0.14041276819E+02  0.47915584423E+02  0.00000000000E+00 0. -1.
        -14    1    3    3    0    0 -0.20647295925E+02  0.28523740568E+01 -0.51246819984E+02  0.55323443721E+02  0.00000000000E+00 0.  1.
        -11    1    4    4    0    0 -0.16870430058E+02  0.66541675555E+02 -0.11025923276E+03  0.12988265629E+03  0.00000000000E+00 0.  1.
         11    1    4    4    0    0  0.44314536252E+02 -0.19106226324E+01 -0.39775142793E+02  0.59577601380E+02  0.00000000000E+00 0. -1.
          2    1    1    2  501    0 -0.17072456221E+02 -0.11212821252E+03  0.11637844154E+02  0.11401598231E+03  0.00000000000E+00 0. -1.
<scales pt_clust_5="13000.00000" pt_clust_6="13000.00000" pt_clust_7="13000.00000" pt_clust_8="13000.00000" pt_clust_9="79.97203"></scales>
<clustering>
<clus scale="   83.129">  5  6 -1 -1</clus>
<clus scale="   91.948">  7  8 -1 -1</clus>
<clus scale="   96.302">  1  5  2 -1</clus>
<clus scale="   79.972">  2  9  1 -1</clus>
<clus scale="   79.972">  2  5  1 -1</clus>
</clustering>
</event>
<event>
 9    1  0.6675710E-005  0.1031783E+03  0.7546771E-02  0.1278498E+00
          1   -1    0    0  502    0 -0.00000000000E+00  0.00000000000E+00  0.25684838915E+03  0.25684838915E+03  0.00000000000E+00 0. -1.
         21   -1    0    0  501  502  0.00000000000E+00 -0.00000000000E+00 -0.84060608956E+02  0.84060608956E+02  0.00000000000E+00 0. -1.
        -24    2    1    2    0    0 -0.35716070389E+02 -0.28428946831E+02  0.35090322201E+02  0.99717827934E+02  0.81415427246E+02 0.  0.
         23    2    1    2    0    0  0.62060934107E+02 -0.35418620505E+02  0.42843304432E+02  0.12385458531E+03  0.91642628439E+02 0.  0.
         13    1    3    3    0    0 -0.60045935681E+02 -0.25501687146E+02  0.12571626309E+02  0.66437159987E+02  0.00000000000E+00 0. -1.
        -14    1    3    3    0    0  0.24329865291E+02 -0.29272596853E+01  0.22518695891E+02  0.33280667947E+02  0.00000000000E+00 0.  1.
        -13    1    4    4    0    0  0.81238263606E+02 -0.13170298267E+02  0.15542761362E+02  0.83753744160E+02  0.00000000000E+00 0. -1.
         13    1    4    4    0    0 -0.19177329499E+02 -0.22248322238E+02  0.27300543070E+02  0.40100841151E+02  0.00000000000E+00 0.  1.
          2    1    1    2  501    0 -0.26344863718E+02  0.63847567336E+02  0.94854153562E+02  0.11733658486E+03  0.00000000000E+00 0. -1.
<scales pt_clust_5="13000.00000" pt_clust_6="13000.00000" pt_clust_7="13000.00000" pt_clust_8="13000.00000" pt_clust_9="69.06930"></scales>
<clustering>
<clus scale="   69.069">  2  9  1 -1</clus>
<clus scale="   81.415">  5  6 -1 -1</clus>
<clus scale="   91.643">  7  8 -1 -1</clus>
<clus scale="   94.212">  1  5  2 -1</clus>
<clus scale="   69.069">  2  5  1 -1</clus>
</clustering>
</event>
