<event>
 9    2  0.1592151E-004  0.1344030E+03  0.7546771E-02  0.1223500E+00
         21   -1    0    0  501  502  0.00000000000E+00  0.00000000000E+00  0.12987321840E+03  0.12987321840E+03  0.00000000000E+00 0. -1.
          2   -1    0    0  502    0 -0.00000000000E+00 -0.00000000000E+00 -0.16127925742E+03  0.16127925742E+03  0.00000000000E+00 0. -1.
         23    2    1    2    0    0  0.92260738712E+02  0.37073972634E+02 -0.19965805877E+02  0.13587787098E+03  0.90430299480E+02 0.  0.
         24    2    1    2    0    0 -0.99842001218E+02 -0.14225429329E+02 -0.18566622523E+02  0.13016849207E+03  0.80176859556E+02 0.  0.
        -13    1    4    4    0    0 -0.60824468138E+02 -0.39527475104E+02 -0.35394141059E+02  0.80714202181E+02  0.00000000000E+00 0.  1.
         14    1    4    4    0    0 -0.39017533079E+02  0.25302045776E+02  0.16827518536E+02  0.49454289886E+02  0.00000000000E+00 0. -1.
        -13    1    3    3    0    0 -0.14004046127E+02  0.15190132409E+02  0.10515656069E+02  0.23182589439E+02  0.00000000000E+00 0.  1.
         13    1    3    3    0    0  0.10626478484E+03  0.21883840225E+02 -0.30481461946E+02  0.11269528154E+03  0.00000000000E+00 0. -1.
          1    1    1    2  501    0  0.75812625053E+01 -0.22848543306E+02  0.71263893802E+01  0.25106112761E+02  0.00000000000E+00 0. -1.
<scales pt_clust_5="13000.00000" pt_clust_6="13000.00000" pt_clust_7="13000.00000" pt_clust_8="13000.00000" pt_clust_9="24.07346"></scales>
<clustering>
<clus scale="   24.073">  1  9  2 -1</clus>
<clus scale="   80.177">  5  6 -1 -1</clus>
<clus scale="   90.430">  7  8 -1 -1</clus>
<clus scale="  127.730">  1  5  2 -1</clus>
<clus scale="   24.073">  1  5  2 -1</clus>
</clustering>
</event>
<event>
 9    2  0.1592151E-004  0.1262878E+03  0.7546771E-02  0.1235526E+00
          2   -1    0    0  502    0 -0.00000000000E+00  0.00000000000E+00  0.12687342377E+04  0.12687342377E+04  0.00000000000E+00 0. -1.
         21   -1    0    0  501  502  0.00000000000E+00 -0.00000000000E+00 -0.34593165455E+02  0.34593165455E+02  0.00000000000E+00 0. -1.
         23    2    1    2    0    0  0.52508494585E+02 -0.55574088211E+02  0.52207877024E+03  0.53540663629E+03  0.90820716598E+02 0.  0.
         24    2    1    2    0    0 -0.99814380910E+00  0.14837609529E+03  0.32480255209E+03  0.36637918414E+03  0.81978941092E+02 0.  0.
        -11    1    4    4    0    0 -0.28052087674E+02  0.46052262769E+02  0.57219297465E+02  0.78624287160E+02  0.00000000000E+00 0.  1.
         12    1    4    4    0    0  0.27053943865E+02  0.10232383252E+03  0.26758325462E+03  0.28775489698E+03  0.00000000000E+00 0. -1.
        -13    1    3    3    0    0 -0.20700286176E+02  0.74259827242E+01  0.10740163769E+03  0.10963010009E+03  0.00000000000E+00 0.  1.
         13    1    3    3    0    0  0.73208780761E+02 -0.63000070935E+02  0.41467713255E+03  0.42577653620E+03  0.00000000000E+00 0. -1.
          1    1    1    2  501    0 -0.51510350776E+02 -0.92802007075E+02  0.38725974988E+03  0.40154158270E+03  0.00000000000E+00 0. -1.
<scales pt_clust_5="13000.00000" pt_clust_6="13000.00000" pt_clust_7="13000.00000" pt_clust_8="13000.00000" pt_clust_9="106.13925"></scales>
<clustering>
<clus scale="   81.979">  5  6 -1 -1</clus>
<clus scale="   90.821">  7  8 -1 -1</clus>
<clus scale="  106.139">  2  9  1 -1</clus>
<clus scale="  120.086">  2  5  1 -1</clus>
<clus scale="  106.139">  2  5  1 -1</clus>
</clustering>
</event>
<event>
 9    2  0.1592151E-004  0.1232549E+03  0.7546771E-02  0.1245038E+00
         21   -1    0    0  501  502  0.00000000000E+00  0.00000000000E+00  0.57717506427E+02  0.57717506427E+02  0.00000000000E+00 0.  1.
          2   -1    0    0  502    0 -0.00000000000E+00 -0.00000000000E+00 -0.76035401601E+03  0.76035401601E+03  0.00000000000E+00 0. -1.
         24    2    1    2    0    0  0.51082000125E+02 -0.43574184295E+02 -0.45119603132E+02  0.11565364718E+03  0.82655352187E+02 0.  0.
         23    2    1    2    0    0  0.66362086915E+02  0.57004180023E+01 -0.20985743482E+03  0.23806182835E+03  0.90536566237E+02 0.  0.
        -11    1    3    3    0    0  0.40964883228E+02 -0.56868860126E+02 -0.27855210384E+01  0.70142341259E+02  0.00000000000E+00 0.  1.
         12    1    3    3    0    0  0.10117116897E+02  0.13294675831E+02 -0.42334082093E+02  0.45511305919E+02  0.00000000000E+00 0. -1.
        -13    1    4    4    0    0 -0.18658470824E+02 -0.79072393509E+01 -0.15588274247E+02  0.25566721761E+02  0.00000000000E+00 0. -1.
         13    1    4    4    0    0  0.85020557739E+02  0.13607657353E+02 -0.19426916057E+03  0.21249510659E+03  0.00000000000E+00 0.  1.
          1    1    1    2  501    0 -0.11744408704E+03  0.37873766292E+02 -0.44765947164E+03  0.46435604691E+03  0.00000000000E+00 0. -1.
<scales pt_clust_5="13000.00000" pt_clust_6="13000.00000" pt_clust_7="13000.00000" pt_clust_8="13000.00000" pt_clust_9="83.63559"></scales>
<clustering>
<clus scale="   82.655">  5  6 -1 -1</clus>
<clus scale="   90.537">  7  8 -1 -1</clus>
<clus scale="  106.489">  2  5  1 -1</clus>
<clus scale="   83.636">  1  9  2 -1</clus>
<clus scale="   83.636">  1  5  2 -1</clus>
</clustering>
</event>
<event>
 9    2  0.1592151E-004  0.1069944E+03  0.7546771E-02  0.1270199E+00
         21   -1    0    0  501  502  0.00000000000E+00  0.00000000000E+00  0.67337873784E+02  0.67337873784E+02  0.00000000000E+00 0.  1.
          2   -1    0    0  502    0 -0.00000000000E+00 -0.00000000000E+00 -0.45085606736E+03  0.45085606736E+03  0.00000000000E+00 0. -1.
         23    2    1    2    0    0 -0.40554814119E+02  0.38387324529E+02 -0.30607900377E+03  0.32374824111E+03  0.89500209169E+02 0.  0.
         24    2    1    2    0    0  0.68160567364E+02 -0.19742580327E+02 -0.10604474156E+03  0.15053691174E+03  0.79876418075E+02 0.  0.
        -11    1    4    4    0    0  0.68251665367E+02 -0.11094376935E+02 -0.32357479797E+02  0.76343837497E+02  0.00000000000E+00 0.  1.
         12    1    4    4    0    0 -0.91098002606E-01 -0.86482033917E+01 -0.73687261759E+02  0.74193074248E+02  0.00000000000E+00 0. -1.
        -11    1    3    3    0    0 -0.11564781856E+02  0.56154762906E+02 -0.10335004817E+03  0.11818770677E+03  0.00000000000E+00 0.  1.
         11    1    3    3    0    0 -0.28990032263E+02 -0.17767438377E+02 -0.20272895560E+03  0.20556053433E+03  0.00000000000E+00 0. -1.
          1    1    1    2  501    0 -0.27605753245E+02 -0.18644744202E+02  0.28605551746E+02  0.43908788292E+02  0.00000000000E+00 0. -1.
<scales pt_clust_5="13000.00000" pt_clust_6="13000.00000" pt_clust_7="13000.00000" pt_clust_8="13000.00000" pt_clust_9="33.31222"></scales>
<clustering>
<clus scale="   33.312">  1  9  2 -1</clus>
<clus scale="   79.876">  5  6 -1 -1</clus>
<clus scale="   89.500">  7  8 -1 -1</clus>
<clus scale="   99.085">  1  5  2 -1</clus>
<clus scale="   33.312">  1  5  2 -1</clus>
</clustering>
</event>
<event>
 9    2  0.1960649E-004  0.9378768E+02  0.7546771E-02  0.1303235E+00
         21   -1    0    0  501  502  0.00000000000E+00  0.00000000000E+00  0.34247736053E+03  0.34247736053E+03  0.00000000000E+00 0. -1.
          2   -1    0    0  502    0 -0.00000000000E+00 -0.00000000000E+00 -0.31997638519E+03  0.31997638519E+03  0.00000000000E+00 0. -1.
         24    2    1    2    0    0  0.11541973438E+02 -0.24570012633E+01 -0.29567083439E+03  0.30603024302E+03  0.78064161617E+02 0.  0.
         23    2    1    2    0    0 -0.75219748911E+01  0.50255338520E+02  0.26156544834E+03  0.28222699615E+03  0.93023730492E+02 0.  0.
        -11    1    3    3    0    0  0.15199463772E+02 -0.32443891761E+02 -0.72984110632E+02  0.81303814279E+02  0.00000000000E+00 0.  1.
         12    1    3    3    0    0 -0.36574903346E+01  0.29986890498E+02 -0.22268672376E+03  0.22472642874E+03  0.00000000000E+00 0. -1.
        -11    1    4    4    0    0 -0.42408392318E+02  0.55638683592E+02  0.18898399847E+03  0.20151696338E+03  0.00000000000E+00 0. -1.
         11    1    4    4    0    0  0.34886417427E+02 -0.53833450716E+01  0.72581449867E+02  0.80710032770E+02  0.00000000000E+00 0.  1.
          1    1    1    2  501    0 -0.40199985467E+01 -0.47798337257E+02  0.56606361401E+02  0.74196506547E+02  0.00000000000E+00 0. -1.
<scales pt_clust_5="13000.00000" pt_clust_6="13000.00000" pt_clust_7="13000.00000" pt_clust_8="13000.00000" pt_clust_9="47.96709"></scales>
<clustering>
<clus scale="   47.967">  1  9  2 -1</clus>
<clus scale="   78.064">  5  6 -1 -1</clus>
<clus scale="   78.973">  2  5  1 -1</clus>
<clus scale="   93.024">  7  8 -1 -1</clus>
<clus scale="   47.967">  1  5  2 -1</clus>
</clustering>
</event>
<event>
 9    2  0.1592151E-004  0.1049009E+03  0.7546771E-02  0.1275682E+00
          2   -1    0    0  502    0 -0.00000000000E+00  0.00000000000E+00  0.32601156943E+03  0.32601156943E+03  0.00000000000E+00 0. -1.
         21   -1    0    0  501  502  0.00000000000E+00 -0.00000000000E+00 -0.44246638447E+02  0.44246638447E+02  0.00000000000E+00 0. -1.
         23    2    1    2    0    0 -0.45978395670E+02 -0.43216462184E+02  0.17254217185E+03  0.20499642732E+03  0.90945360936E+02 0.  0.
         24    2    1    2    0    0  0.26500813957E+02  0.32642960627E+02  0.11160514807E+03  0.14297162798E+03  0.78849992472E+02 0.  0.
        -13    1    4    4    0    0  0.31980616899E+02  0.17914261642E+02  0.71576709189E+01  0.37348532507E+02  0.00000000000E+00 0.  1.
         14    1    4    4    0    0 -0.54798029426E+01  0.14728698986E+02  0.10444747715E+03  0.10562309548E+03  0.00000000000E+00 0. -1.
        -11    1    3    3    0    0 -0.50581733236E+02 -0.12930055492E+02  0.32177512149E+02  0.61327729131E+02  0.00000000000E+00 0.  1.
         11    1    3    3    0    0  0.46033375660E+01 -0.30286406693E+02  0.14036465970E+03  0.14366869819E+03  0.00000000000E+00 0. -1.
          1    1    1    2  501    0  0.19477581714E+02  0.10573501557E+02 -0.23823889408E+01  0.22290152571E+02  0.00000000000E+00 0. -1.
<scales pt_clust_5="13000.00000" pt_clust_6="13000.00000" pt_clust_7="13000.00000" pt_clust_8="13000.00000" pt_clust_9="22.16247"></scales>
<clustering>
<clus scale="   22.162">  2  9  1 -1</clus>
<clus scale="   78.850">  5  6 -1 -1</clus>
<clus scale="   90.945">  7  8 -1 -1</clus>
<clus scale="   94.607">  2  5  1 -1</clus>
<clus scale="   22.162">  2  5  1 -1</clus>
</clustering>
</event>
<event>
 9    2  0.1592151E-004  0.1248045E+03  0.7546771E-02  0.1238084E+00
         21   -1    0    0  501  502  0.00000000000E+00  0.00000000000E+00  0.33632898027E+02  0.33632898027E+02  0.00000000000E+00 0.  1.
          4   -1    0    0  502    0 -0.00000000000E+00 -0.00000000000E+00 -0.10277086946E+04  0.10277086946E+04  0.00000000000E+00 0. -1.
         24    2    1    2    0    0  0.58600185982E+02  0.59337904288E+02 -0.73710425774E+03  0.74623848076E+03  0.81204770234E+02 0.  0.
         23    2    1    2    0    0 -0.37865402014E+02 -0.94208159062E+02 -0.22687917269E+03  0.26459156432E+03  0.90694933750E+02 0.  0.
        -11    1    3    3    0    0  0.25355953779E+02  0.70903836850E+02 -0.37897689640E+03  0.38638551536E+03  0.00000000000E+00 0.  1.
         12    1    3    3    0    0  0.33244232203E+02 -0.11565932562E+02 -0.35812736134E+03  0.35985296540E+03  0.00000000000E+00 0. -1.
        -11    1    4    4    0    0 -0.26323021789E+01 -0.97515059641E+02 -0.13863675422E+03  0.16951774388E+03  0.00000000000E+00 0.  1.
         11    1    4    4    0    0 -0.35233099836E+02  0.33069005789E+01 -0.88242418470E+02  0.95073820439E+02  0.00000000000E+00 0. -1.
          3    1    1    2  501    0 -0.20734783968E+02  0.34870254774E+02 -0.30092366129E+02  0.50511547526E+02  0.00000000000E+00 0. -1.
<scales pt_clust_5="13000.00000" pt_clust_6="13000.00000" pt_clust_7="13000.00000" pt_clust_8="13000.00000" pt_clust_9="40.56927"></scales>
<clustering>
<clus scale="   40.569">  1  9  2 -1</clus>
<clus scale="   81.205">  5  6 -1 -1</clus>
<clus scale="   90.695">  7  8 -1 -1</clus>
<clus scale="  118.088">  2  5  1 -1</clus>
<clus scale="   40.569">  1  5  2 -1</clus>
</clustering>
</event>
<event>
 9    2  0.1592151E-004  0.4263545E+03  0.7546771E-02  0.1079080E+00
          2   -1    0    0  502    0 -0.00000000000E+00  0.00000000000E+00  0.64110927439E+03  0.64110927439E+03  0.00000000000E+00 0. -1.
         21   -1    0    0  501  502  0.00000000000E+00 -0.00000000000E+00 -0.43140014827E+03  0.43140014827E+03  0.00000000000E+00 0. -1.
         23    2    1    2    0    0 -0.20788623742E+02 -0.79921404044E+02  0.18452662007E+03  0.22192916085E+03  0.91558075672E+02 0.  0.
         24    2    1    2    0    0 -0.18425874909E+03 -0.32836003689E+03  0.71276942257E+02  0.39138220305E+03  0.79548890143E+02 0.  0.
        -11    1    4    4    0    0 -0.11784786252E+02 -0.20248949772E+02 -0.15096757844E+02  0.27871369742E+02  0.00000000000E+00 0.  1.
         12    1    4    4    0    0 -0.17247396284E+03 -0.30811108712E+03  0.86373700102E+02  0.36351083331E+03  0.00000000000E+00 0. -1.
        -11    1    3    3    0    0 -0.41174162941E+02 -0.87703831727E+02  0.17013930368E+03  0.19579238098E+03  0.00000000000E+00 0. -1.
         11    1    3    3    0    0  0.20385539199E+02  0.77824276832E+01  0.14387316389E+02  0.26136779870E+02  0.00000000000E+00 0.  1.
          1    1    1    2  501    0  0.20504737283E+03  0.40828144093E+03 -0.46094436214E+02  0.45919805876E+03  0.00000000000E+00 0. -1.
<scales pt_clust_5="13000.00000" pt_clust_6="13000.00000" pt_clust_7="13000.00000" pt_clust_8="13000.00000" pt_clust_9="418.86765"></scales>
<clustering>
<clus scale="   79.549">  5  6 -1 -1</clus>
<clus scale="   91.558">  7  8 -1 -1</clus>
<clus scale="  123.298">  1  7  2 -1</clus>
<clus scale="  418.868">  2  9  1 -1</clus>
<clus scale="  418.868">  2  5  1 -1</clus>
</clustering>
</event>
<event>
 9    2  0.1592151E-004  0.9574121E+02  0.7546771E-02  0.1290301E+00
          2   -1    0    0  502    0 -0.00000000000E+00  0.00000000000E+00  0.19384634023E+03  0.19384634023E+03  0.00000000000E+00 0. -1.
         21   -1    0    0  501  502  0.00000000000E+00 -0.00000000000E+00 -0.17466487515E+03  0.17466487515E+03  0.00000000000E+00 0. -1.
         23    2    1    2    0    0 -0.14769888150E+02  0.43752851261E+01  0.10411278375E+03  0.13944882859E+03  0.91483393798E+02 0.  0.
         24    2    1    2    0    0  0.43621343449E+02 -0.65798588850E+02  0.78658881922E+00  0.11973357825E+03  0.90017971201E+02 0.  0.
        -11    1    4    4    0    0 -0.21125605705E+02 -0.31993852874E+02 -0.20736514484E+02  0.43587852334E+02  0.00000000000E+00 0.  1.
         12    1    4    4    0    0  0.64746949154E+02 -0.33804735976E+02  0.21523103303E+02  0.76145725914E+02  0.00000000000E+00 0. -1.
        -11    1    3    3    0    0 -0.47118901135E+02  0.25877605524E+02  0.56237789624E+02  0.77798009574E+02  0.00000000000E+00 0.  1.
         11    1    3    3    0    0  0.32349012986E+02 -0.21502320397E+02  0.47874994122E+02  0.61650819020E+02  0.00000000000E+00 0. -1.
          1    1    1    2  501    0 -0.28851455299E+02  0.61423303724E+02 -0.85717907484E+02  0.10932880854E+03  0.00000000000E+00 0. -1.
<scales pt_clust_5="13000.00000" pt_clust_6="13000.00000" pt_clust_7="13000.00000" pt_clust_8="13000.00000" pt_clust_9="67.86184"></scales>
<clustering>
<clus scale="   67.862">  2  9  1 -1</clus>
<clus scale="   90.018">  5  6 -1 -1</clus>
<clus scale="   91.483">  7  8 -1 -1</clus>
<clus scale="   94.342">  2  5  1 -1</clus>
<clus scale="   67.862">  2  5  1 -1</clus>
</clustering>
</event>
<event>
 9    2  0.1592151E-004  0.1246470E+03  0.7546771E-02  0.1238184E+00
         21   -1    0    0  501  502  0.00000000000E+00  0.00000000000E+00  0.87712135211E+02  0.87712135211E+02  0.00000000000E+00 0. -1.
          2   -1    0    0  502    0 -0.00000000000E+00 -0.00000000000E+00 -0.74865765204E+03  0.74865765204E+03  0.00000000000E+00 0. -1.
         24    2    1    2    0    0  0.82164254443E+02 -0.21297130378E+02 -0.66800390492E+03  0.67847083235E+03  0.82999523366E+02 0.  0.
         23    2    1    2    0    0 -0.70449376095E+02  0.39776330070E+02 -0.19028767031E+02  0.12385106424E+03  0.91824403691E+02 0.  0.
        -13    1    3    3    0    0  0.35293239689E+02 -0.16833799624E+02 -0.84931394624E+02  0.93500435135E+02  0.00000000000E+00 0.  1.
         14    1    3    3    0    0  0.46871014754E+02 -0.44633307535E+01 -0.58307251030E+03  0.58497039721E+03  0.00000000000E+00 0. -1.
        -13    1    4    4    0    0 -0.12184910868E+02 -0.24394773241E+02  0.14538852225E+02  0.30902350046E+02  0.00000000000E+00 0.  1.
         13    1    4    4    0    0 -0.58264465227E+02  0.64171103311E+02 -0.33567619256E+02  0.92948714197E+02  0.00000000000E+00 0. -1.
          1    1    1    2  501    0 -0.11714878348E+02 -0.18479199692E+02  0.26087155126E+02  0.34047890662E+02  0.00000000000E+00 0. -1.
<scales pt_clust_5="13000.00000" pt_clust_6="13000.00000" pt_clust_7="13000.00000" pt_clust_8="13000.00000" pt_clust_9="21.87965"></scales>
<clustering>
<clus scale="   21.880">  1  9  2 -1</clus>
<clus scale="   83.000">  5  6 -1 -1</clus>
<clus scale="   91.824">  7  8 -1 -1</clus>
<clus scale="  118.297">  2  5  1 -1</clus>
<clus scale="   21.880">  1  5  2 -1</clus>
</clustering>
</event>
<event>
 9    2  0.1592151E-004  0.9499492E+02  0.7546771E-02  0.1297522E+00
         21   -1    0    0  501  502  0.00000000000E+00  0.00000000000E+00  0.18458804504E+03  0.18458804504E+03  0.00000000000E+00 0.  1.
          4   -1    0    0  502    0 -0.00000000000E+00 -0.00000000000E+00 -0.17459244575E+03  0.17459244575E+03  0.00000000000E+00 0. -1.
         24    2    1    2    0    0 -0.20365430362E+02 -0.15106724854E+01 -0.47028671816E+02  0.95293531010E+02  0.80325140488E+02 0.  0.
         23    2    1    2    0    0  0.58544156716E+02 -0.41316036682E+02  0.12787252825E+03  0.17272107962E+03  0.91360575149E+02 0.  0.
        -11    1    3    3    0    0 -0.38029327289E+02  0.13514841010E+02  0.26731619564E+01  0.40447823878E+02  0.00000000000E+00 0.  1.
         12    1    3    3    0    0  0.17663896927E+02 -0.15025513495E+02 -0.49701833773E+02  0.54845707132E+02  0.00000000000E+00 0. -1.
        -11    1    4    4    0    0  0.20146174421E+02 -0.65523965676E+02  0.60183762032E+02  0.91221398992E+02  0.00000000000E+00 0.  1.
         11    1    4    4    0    0  0.38397982295E+02  0.24207928994E+02  0.67688766220E+02  0.81499680630E+02  0.00000000000E+00 0. -1.
          3    1    1    2  501    0 -0.38178726354E+02  0.42826709167E+02 -0.70848257146E+02  0.91165880157E+02  0.00000000000E+00 0. -1.
<scales pt_clust_5="13000.00000" pt_clust_6="13000.00000" pt_clust_7="13000.00000" pt_clust_8="13000.00000" pt_clust_9="57.37373"></scales>
<clustering>
<clus scale="   57.374">  1  9  2 -1</clus>
<clus scale="   80.325">  5  6 -1 -1</clus>
<clus scale="   84.436">  2  5  1 -1</clus>
<clus scale="   91.361">  7  8 -1 -1</clus>
<clus scale="   57.374">  1  5  2 -1</clus>
</clustering>
</event>
<event>
 9    2  0.1592151E-004  0.1533988E+03  0.7546771E-02  0.1198496E+00
          2   -1    0    0  502    0 -0.00000000000E+00  0.00000000000E+00  0.65046436330E+03  0.65046436330E+03  0.00000000000E+00 0. -1.
         21   -1    0    0  501  502  0.00000000000E+00 -0.00000000000E+00 -0.50939200015E+02  0.50939200015E+02  0.00000000000E+00 0. -1.
         24    2    1    2    0    0 -0.77865698784E+02  0.11056123940E+03  0.27579460911E+03  0.31754005925E+03  0.80511912852E+02 0.  0.
         23    2    1    2    0    0  0.44724631290E+02 -0.95910168837E+02  0.14692032643E+03  0.20337848845E+03  0.92618432929E+02 0.  0.
        -13    1    3    3    0    0 -0.88272930219E+02  0.66412957335E+02  0.17409693574E+03  0.20618567881E+03  0.00000000000E+00 0.  1.
         14    1    3    3    0    0  0.10407231435E+02  0.44148282060E+02  0.10169767336E+03  0.11135438044E+03  0.00000000000E+00 0. -1.
        -11    1    4    4    0    0  0.16714001181E+01 -0.95968228258E+02  0.11494579347E+03  0.14975055876E+03  0.00000000000E+00 0. -1.
         11    1    4    4    0    0  0.43053231172E+02  0.58059421337E-01  0.31974532960E+02  0.53627929694E+02  0.00000000000E+00 0.  1.
          1    1    1    2  501    0  0.33141067494E+02 -0.14651070559E+02  0.17681022775E+03  0.18048501561E+03  0.00000000000E+00 0. -1.
<scales pt_clust_5="13000.00000" pt_clust_6="13000.00000" pt_clust_7="13000.00000" pt_clust_8="13000.00000" pt_clust_9="36.23514"></scales>
<clustering>
<clus scale="   36.235">  2  9  1 -1</clus>
<clus scale="   80.512">  5  6 -1 -1</clus>
<clus scale="   92.618">  7  8 -1 -1</clus>
<clus scale="  146.408">  1  5  2 -1</clus>
<clus scale="   36.235">  2  5  1 -1</clus>
</clustering>
</event>
<event>
 9    2  0.1592151E-004  0.1438391E+03  0.7546771E-02  0.1209496E+00
         21   -1    0    0  501  502  0.00000000000E+00  0.00000000000E+00  0.66471170196E+02  0.66471170196E+02  0.00000000000E+00 0.  1.
         -1   -1    0    0    0  501 -0.00000000000E+00 -0.00000000000E+00 -0.65240118727E+03  0.65240118727E+03  0.00000000000E+00 0.  1.
         23    2    1    2    0    0  0.11247731832E+03 -0.33915249135E+02 -0.45466621727E+03  0.47812773448E+03  0.89907564155E+02 0.  0.
         24    2    1    2    0    0 -0.89105731408E+02  0.12200527323E+02 -0.19387199194E+02  0.12440832606E+03  0.83742963070E+02 0.  0.
        -13    1    4    4    0    0 -0.97544936830E+02 -0.89693305840E+01 -0.24667583313E+02  0.10101461903E+03  0.00000000000E+00 0.  1.
         14    1    4    4    0    0  0.84392054214E+01  0.21169857907E+02  0.52803841188E+01  0.23393707026E+02  0.00000000000E+00 0. -1.
        -13    1    3    3    0    0  0.91942348885E+02  0.15020460477E+02 -0.25340467518E+03  0.26998692404E+03  0.00000000000E+00 0.  1.
         13    1    3    3    0    0  0.20534969438E+02 -0.48935709612E+02 -0.20126154209E+03  0.20814081044E+03  0.00000000000E+00 0. -1.
         -2    1    1    2    0  502 -0.23371586914E+02  0.21714721812E+02 -0.11187660061E+03  0.11633629693E+03  0.00000000000E+00 0.  1.
<scales pt_clust_5="13000.00000" pt_clust_6="13000.00000" pt_clust_7="13000.00000" pt_clust_8="13000.00000" pt_clust_9="31.90237"></scales>
<clustering>
<clus scale="   31.902">  1  9  2 -1</clus>
<clus scale="   83.743">  5  6 -1 -1</clus>
<clus scale="   89.908">  7  8 -1 -1</clus>
<clus scale="  140.069">  1  5  2 -1</clus>
<clus scale="   31.902">  1  5  2 -1</clus>
</clustering>
</event>
<event>
 9    2  0.1592151E-004  0.9262539E+02  0.7546771E-02  0.1303480E+00
         21   -1    0    0  501  502  0.00000000000E+00  0.00000000000E+00  0.21277570496E+03  0.21277570496E+03  0.00000000000E+00 0. -1.
          2   -1    0    0  502    0 -0.00000000000E+00 -0.00000000000E+00 -0.37290437842E+03  0.37290437842E+03  0.00000000000E+00 0. -1.
         24    2    1    2    0    0  0.29206218590E+01 -0.14283807214E+02 -0.29879201817E+03  0.30989005678E+03  0.80886463538E+02 0.  0.
         23    2    1    2    0    0 -0.14490394138E+02 -0.16602075240E+02 -0.33615922294E+02  0.10038209290E+03  0.91983335005E+02 0.  0.
        -13    1    3    3    0    0 -0.15185928813E+02  0.16991858944E+02 -0.25419697978E+02  0.34139372425E+02  0.00000000000E+00 0.  1.
         14    1    3    3    0    0  0.18106550672E+02 -0.31275666158E+02 -0.27337232020E+03  0.27575068435E+03  0.00000000000E+00 0. -1.
        -13    1    4    4    0    0  0.18694879664E+02 -0.46141222631E+02 -0.13305860380E+02  0.51532095552E+02  0.00000000000E+00 0.  1.
         13    1    4    4    0    0 -0.33185273802E+02  0.29539147391E+02 -0.20310061913E+02  0.48849997347E+02  0.00000000000E+00 0. -1.
          1    1    1    2  501    0  0.11569772279E+02  0.30885882454E+02  0.17227926701E+03  0.17540793370E+03  0.00000000000E+00 0. -1.
<scales pt_clust_5="13000.00000" pt_clust_6="13000.00000" pt_clust_7="13000.00000" pt_clust_8="13000.00000" pt_clust_9="32.98177"></scales>
<clustering>
<clus scale="   32.982">  1  9  2 -1</clus>
<clus scale="   80.886">  5  6 -1 -1</clus>
<clus scale="   81.616">  2  5  1 -1</clus>
<clus scale="   91.983">  7  8 -1 -1</clus>
<clus scale="   32.982">  1  5  2 -1</clus>
</clustering>
</event>
<event>
 9    2  0.1592151E-004  0.1558139E+03  0.7546771E-02  0.1193934E+00
         21   -1    0    0  501  502  0.00000000000E+00  0.00000000000E+00  0.14850843479E+03  0.14850843479E+03  0.00000000000E+00 0.  1.
         -3   -1    0    0    0  501 -0.00000000000E+00 -0.00000000000E+00 -0.36037089679E+03  0.36037089679E+03  0.00000000000E+00 0.  1.
         23    2    1    2    0    0  0.72580474077E+02  0.61053476793E+02 -0.53847972326E+02  0.14116475830E+03  0.89623839549E+02 0.  0.
         24    2    1    2    0    0 -0.17587726500E+03 -0.89011083106E+01 -0.15783298796E+03  0.25199884619E+03  0.87063909408E+02 0.  0.
        -11    1    4    4    0    0 -0.16072891785E+03 -0.40448296862E+01 -0.16845763014E+03  0.23286931707E+03  0.00000000000E+00 0.  1.
         12    1    4    4    0    0 -0.15148347145E+02 -0.48562786244E+01  0.10624642171E+02  0.19129529126E+02  0.00000000000E+00 0. -1.
        -13    1    3    3    0    0  0.80750954257E+02  0.24080335156E+02 -0.12650218238E+02  0.85209196547E+02  0.00000000000E+00 0.  1.
         13    1    3    3    0    0 -0.81704801799E+01  0.36973141637E+02 -0.41197754088E+02  0.55955561750E+02  0.00000000000E+00 0. -1.
         -4    1    1    2    0  502  0.10329679092E+03 -0.52152368482E+02 -0.18150171075E+00  0.11571572709E+03  0.00000000000E+00 0.  1.
<scales pt_clust_5="13000.00000" pt_clust_6="13000.00000" pt_clust_7="13000.00000" pt_clust_8="13000.00000" pt_clust_9="115.71558"></scales>
<clustering>
<clus scale="   87.064">  5  6 -1 -1</clus>
<clus scale="   89.624">  7  8 -1 -1</clus>
<clus scale="  115.716">  1  9  2 -1</clus>
<clus scale="  154.356">  1  5  2 -1</clus>
<clus scale="  115.716">  1  5  2 -1</clus>
</clustering>
</event>
<event>
 9    2  0.1592151E-004  0.1203200E+03  0.7546771E-02  0.1245386E+00
         21   -1    0    0  501  502  0.00000000000E+00  0.00000000000E+00  0.81185599873E+02  0.81185599873E+02  0.00000000000E+00 0. -1.
         -1   -1    0    0    0  501 -0.00000000000E+00 -0.00000000000E+00 -0.27437954342E+03  0.27437954342E+03  0.00000000000E+00 0.  1.
         23    2    1    2    0    0  0.53519804732E+02 -0.52316560175E+02 -0.16987547758E+03  0.20615565128E+03  0.89672084313E+02 0.  0.
         24    2    1    2    0    0 -0.69802492161E+02  0.66639104025E+02 -0.17118733111E+02  0.12685516073E+03  0.80535847192E+02 0.  0.
        -11    1    4    4    0    0 -0.53547463731E+02  0.10881355039E+02 -0.36404059320E+02  0.65658131975E+02  0.00000000000E+00 0.  1.
         12    1    4    4    0    0 -0.16255028430E+02  0.55757748986E+02  0.19285326209E+02  0.61197028753E+02  0.00000000000E+00 0. -1.
        -11    1    3    3    0    0  0.72555993630E+02 -0.29713094128E+02 -0.82031904222E+02  0.11347454994E+03  0.00000000000E+00 0. -1.
         11    1    3    3    0    0 -0.19036188898E+02 -0.22603466047E+02 -0.87843573358E+02  0.92681101339E+02  0.00000000000E+00 0.  1.
         -2    1    1    2    0  502  0.16282687429E+02 -0.14322543850E+02 -0.61997328610E+01  0.22554331287E+02  0.00000000000E+00 0.  1.
<scales pt_clust_5="13000.00000" pt_clust_6="13000.00000" pt_clust_7="13000.00000" pt_clust_8="13000.00000" pt_clust_9="21.68551"></scales>
<clustering>
<clus scale="   21.686">  1  9  2 -1</clus>
<clus scale="   80.536">  5  6 -1 -1</clus>
<clus scale="   89.672">  7  8 -1 -1</clus>
<clus scale="  113.674">  1  5  2 -1</clus>
<clus scale="   21.686">  1  5  2 -1</clus>
</clustering>
</event>
<event>
 9    2  0.1592151E-004  0.1155740E+03  0.7546771E-02  0.1254686E+00
         21   -1    0    0  501  502  0.00000000000E+00  0.00000000000E+00  0.66031879369E+03  0.66031879369E+03  0.00000000000E+00 0.  1.
          2   -1    0    0  502    0 -0.00000000000E+00 -0.00000000000E+00 -0.13284443314E+03  0.13284443314E+03  0.00000000000E+00 0. -1.
         24    2    1    2    0    0  0.70324642346E+01  0.59703531357E+02 -0.63890243743E+02  0.11873131512E+03  0.80007466742E+02 0.  0.
         23    2    1    2    0    0 -0.23523853920E+02 -0.13220518251E+03  0.13301399265E+03  0.21008964726E+03  0.91724346058E+02 0.  0.
        -13    1    3    3    0    0  0.18159877271E+02  0.58115537979E+02 -0.76343643398E+01  0.61363510460E+02  0.00000000000E+00 0.  1.
         14    1    3    3    0    0 -0.11127413037E+02  0.15879933780E+01 -0.56255879403E+02  0.57367804658E+02  0.00000000000E+00 0. -1.
        -13    1    4    4    0    0 -0.12908164541E+02 -0.10791598543E+03  0.44070910419E+02  0.11728054301E+03  0.00000000000E+00 0.  1.
         13    1    4    4    0    0 -0.10615689379E+02 -0.24289197085E+02  0.88943082235E+02  0.92809104259E+02  0.00000000000E+00 0. -1.
          1    1    1    2  501    0  0.16491389685E+02  0.72501651154E+02  0.45835061165E+03  0.46434226444E+03  0.00000000000E+00 0. -1.
<scales pt_clust_5="13000.00000" pt_clust_6="13000.00000" pt_clust_7="13000.00000" pt_clust_8="13000.00000" pt_clust_9="74.35358"></scales>
<clustering>
<clus scale="   74.354">  1  9  2 -1</clus>
<clus scale="   80.007">  5  6 -1 -1</clus>
<clus scale="   91.724">  7  8 -1 -1</clus>
<clus scale="  106.514">  2  5  1 -1</clus>
<clus scale="   74.354">  1  5  2 -1</clus>
</clustering>
</event>
<event>
 9    2  0.1592151E-004  0.1966842E+03  0.7546771E-02  0.1153729E+00
         -3   -1    0    0    0  501 -0.00000000000E+00  0.00000000000E+00  0.85296199597E+03  0.85296199597E+03  0.00000000000E+00 0.  1.
         21   -1    0    0  501  502  0.00000000000E+00 -0.00000000000E+00 -0.18165985837E+03  0.18165985837E+03  0.00000000000E+00 0.  1.
         23    2    1    2    0    0  0.51352739770E+02 -0.17159243235E+03  0.76123277207E+03  0.78722257272E+03  0.90349205885E+02 0.  0.
         24    2    1    2    0    0 -0.29834426306E+01  0.13079794873E+03 -0.10148095777E+03  0.18307829929E+03  0.78117056783E+02 0.  0.
        -11    1    4    4    0    0  0.18480740912E+02  0.12054493822E+03 -0.61565329926E+02  0.13661226067E+03  0.00000000000E+00 0.  1.
         12    1    4    4    0    0 -0.21464183542E+02  0.10253010508E+02 -0.39915627840E+02  0.46466038625E+02  0.00000000000E+00 0. -1.
        -11    1    3    3    0    0 -0.78512547634E+01 -0.12310466895E+03  0.43654891215E+03  0.45364231991E+03  0.00000000000E+00 0.  1.
         11    1    3    3    0    0  0.59203994533E+02 -0.48487763399E+02  0.32468385992E+03  0.33358025280E+03  0.00000000000E+00 0. -1.
         -4    1    1    2    0  502 -0.48369297139E+02  0.40794483624E+02  0.11550323298E+02  0.64320982332E+02  0.00000000000E+00 0.  1.
<scales pt_clust_5="13000.00000" pt_clust_6="13000.00000" pt_clust_7="13000.00000" pt_clust_8="13000.00000" pt_clust_9="63.27542"></scales>
<clustering>
<clus scale="   63.275">  2  9  1 -1</clus>
<clus scale="   78.117">  5  6 -1 -1</clus>
<clus scale="   90.349">  7  8 -1 -1</clus>
<clus scale="  191.374">  2  5  1 -1</clus>
<clus scale="   63.275">  2  5  1 -1</clus>
</clustering>
</event>
<event>
 9    2  0.1592151E-004  0.2534843E+03  0.7546771E-02  0.1144435E+00
         21   -1    0    0  501  502  0.00000000000E+00  0.00000000000E+00  0.50460291185E+03  0.50460291185E+03  0.00000000000E+00 0.  1.
         -1   -1    0    0    0  501 -0.00000000000E+00 -0.00000000000E+00 -0.64771309634E+03  0.64771309634E+03  0.00000000000E+00 0.  1.
         24    2    1    2    0    0  0.54065933701E+01 -0.77050345675E+02 -0.35569258636E+03  0.37274803127E+03  0.80361009223E+02 0.  0.
         23    2    1    2    0    0  0.17865641652E+03 -0.81344373636E+02 -0.20402228275E+03  0.29735688004E+03  0.90890043255E+02 0.  0.
        -13    1    3    3    0    0  0.24763542937E+02 -0.83878620362E+02 -0.24436551767E+03  0.25954452843E+03  0.00000000000E+00 0.  1.
         14    1    3    3    0    0 -0.19356949567E+02  0.68282746867E+01 -0.11132706869E+03  0.11320350283E+03  0.00000000000E+00 0. -1.
        -13    1    4    4    0    0  0.16435007753E+03 -0.66366493538E+02 -0.12817774147E+03  0.21873498316E+03  0.00000000000E+00 0.  1.
         13    1    4    4    0    0  0.14306338989E+02 -0.14977880099E+02 -0.75844541277E+02  0.78621896880E+02  0.00000000000E+00 0. -1.
         -2    1    1    2    0  502 -0.18406300989E+03  0.15839471931E+03  0.41660468461E+03  0.48221109688E+03  0.00000000000E+00 0.  1.
<scales pt_clust_5="13000.00000" pt_clust_6="13000.00000" pt_clust_7="13000.00000" pt_clust_8="13000.00000" pt_clust_9="236.62904"></scales>
<clustering>
<clus scale="   80.361">  5  6 -1 -1</clus>
<clus scale="   90.890">  7  8 -1 -1</clus>
<clus scale="  111.462">  2  5  1 -1</clus>
<clus scale="  236.629">  1  9  2 -1</clus>
<clus scale="  236.629">  1  5  2 -1</clus>
</clustering>
</event>
<event>
 9    2  0.1592151E-004  0.9505201E+02  0.7546771E-02  0.1295483E+00
          2   -1    0    0  502    0 -0.00000000000E+00  0.00000000000E+00  0.49638762595E+03  0.49638762595E+03  0.00000000000E+00 0. -1.
         21   -1    0    0  501  502  0.00000000000E+00 -0.00000000000E+00 -0.44973120722E+02  0.44973120722E+02  0.00000000000E+00 0.  1.
         24    2    1    2    0    0 -0.28929964824E+02  0.22446058035E+02  0.39794676011E+03  0.40780004394E+03  0.81231050540E+02 0.  0.
         23    2    1    2    0    0  0.84129897596E+01  0.78629993976E+00  0.29600863019E+02  0.94441439136E+02  0.89283692073E+02 0.  0.
        -11    1    3    3    0    0  0.63573285608E+01  0.44964662198E+02  0.16565771933E+03  0.17176936993E+03  0.00000000000E+00 0.  1.
         12    1    3    3    0    0 -0.35287293385E+02 -0.22518604163E+02  0.23228904078E+03  0.23603067401E+03  0.00000000000E+00 0. -1.
        -13    1    4    4    0    0  0.23442632823E+02  0.36459243554E+02 -0.35306228566E+01  0.43489064970E+02  0.00000000000E+00 0.  1.
         13    1    4    4    0    0 -0.15029643064E+02 -0.35672943615E+02  0.33131485876E+02  0.50952374165E+02  0.00000000000E+00 0. -1.
          1    1    1    2  501    0  0.20516975065E+02 -0.23232357975E+02  0.23866882095E+02  0.39119263590E+02  0.00000000000E+00 0. -1.
<scales pt_clust_5="13000.00000" pt_clust_6="13000.00000" pt_clust_7="13000.00000" pt_clust_8="13000.00000" pt_clust_9="30.99498"></scales>
<clustering>
<clus scale="   30.995">  2  9  1 -1</clus>
<clus scale="   81.231">  5  6 -1 -1</clus>
<clus scale="   87.532">  1  5  2 -1</clus>
<clus scale="   89.284">  7  8 -1 -1</clus>
<clus scale="   30.995">  2  5  1 -1</clus>
</clustering>
</event>
<event>
 9    2  0.1592151E-004  0.1435965E+03  0.7546771E-02  0.1210731E+00
          2   -1    0    0  502    0 -0.00000000000E+00  0.00000000000E+00  0.51278605557E+03  0.51278605557E+03  0.00000000000E+00 0. -1.
         21   -1    0    0  501  502  0.00000000000E+00 -0.00000000000E+00 -0.94139868054E+02  0.94139868054E+02  0.00000000000E+00 0. -1.
         24    2    1    2    0    0  0.15282899851E+02 -0.13158883276E+03  0.37427180995E+03  0.40503753421E+03  0.80167502530E+02 0.  0.
         23    2    1    2    0    0  0.25342273455E+02  0.52359649272E+02  0.21565194556E+02  0.10997578390E+03  0.90806672295E+02 0.  0.
        -13    1    3    3    0    0  0.16275812235E+01 -0.68686246823E+02  0.88138037023E+02  0.11175313460E+03  0.00000000000E+00 0.  1.
         14    1    3    3    0    0  0.13655318628E+02 -0.62902585935E+02  0.28613377293E+03  0.29328439961E+03  0.00000000000E+00 0. -1.
        -13    1    4    4    0    0 -0.28600478030E+01  0.69655605027E+02  0.29904302019E+02  0.75857435129E+02  0.00000000000E+00 0.  1.
         13    1    4    4    0    0  0.28202321258E+02 -0.17295955755E+02 -0.83391074630E+01  0.34118348775E+02  0.00000000000E+00 0. -1.
          1    1    1    2  501    0 -0.40625173307E+02  0.79229183487E+02  0.22809183011E+02  0.91912605511E+02  0.00000000000E+00 0. -1.
<scales pt_clust_5="13000.00000" pt_clust_6="13000.00000" pt_clust_7="13000.00000" pt_clust_8="13000.00000" pt_clust_9="89.03745"></scales>
<clustering>
<clus scale="   80.168">  5  6 -1 -1</clus>
<clus scale="   89.037">  2  9  1 -1</clus>
<clus scale="   90.807">  7  8 -1 -1</clus>
<clus scale="  137.117">  1  5  2 -1</clus>
<clus scale="   89.037">  2  5  1 -1</clus>
</clustering>
</event>
<event>
 9    2  0.1592151E-004  0.1625964E+03  0.7546771E-02  0.1186972E+00
         21   -1    0    0  501  502  0.00000000000E+00  0.00000000000E+00  0.92506460040E+03  0.92506460040E+03  0.00000000000E+00 0.  1.
         -1   -1    0    0    0  501 -0.00000000000E+00 -0.00000000000E+00 -0.43372402690E+02  0.43372402690E+02  0.00000000000E+00 0.  1.
         23    2    1    2    0    0 -0.13224994173E+03  0.55066349668E+01  0.29820996572E+03  0.33842808909E+03  0.89911165684E+02 0.  0.
         24    2    1    2    0    0  0.14117475088E+03  0.23852441827E+02  0.57493813970E+03  0.59815598444E+03  0.82082080700E+02 0.  0.
        -13    1    4    4    0    0  0.13910837108E+03  0.15287158088E+02  0.41471873350E+03  0.43769448708E+03  0.00000000000E+00 0.  1.
         14    1    4    4    0    0  0.20663798031E+01  0.85652837392E+01  0.16021940620E+03  0.16046149736E+03  0.00000000000E+00 0. -1.
        -13    1    3    3    0    0 -0.36210938484E+02  0.12226845374E+02  0.18906871754E+03  0.19289299563E+03  0.00000000000E+00 0. -1.
         13    1    3    3    0    0 -0.96039003245E+02 -0.67202104073E+01  0.10914124818E+03  0.14553509345E+03  0.00000000000E+00 0.  1.
         -2    1    1    2    0  502 -0.89248091548E+01 -0.29359076794E+02  0.85440922947E+01  0.31852929563E+02  0.00000000000E+00 0.  1.
<scales pt_clust_5="13000.00000" pt_clust_6="13000.00000" pt_clust_7="13000.00000" pt_clust_8="13000.00000" pt_clust_9="30.68564"></scales>
<clustering>
<clus scale="   30.686">  1  9  2 -1</clus>
<clus scale="   82.082">  5  6 -1 -1</clus>
<clus scale="   89.911">  7  8 -1 -1</clus>
<clus scale="  158.402">  1  5  2 -1</clus>
<clus scale="   30.686">  1  5  2 -1</clus>
</clustering>
</event>
<event>
 9    2  0.1592151E-004  0.1128501E+03  0.7546771E-02  0.1255484E+00
         21   -1    0    0  501  502  0.00000000000E+00  0.00000000000E+00  0.13993949444E+03  0.13993949444E+03  0.00000000000E+00 0.  1.
         -1   -1    0    0    0  501 -0.00000000000E+00 -0.00000000000E+00 -0.18370411471E+03  0.18370411471E+03  0.00000000000E+00 0.  1.
         23    2    1    2    0    0 -0.53687088398E+02  0.53762868903E+02 -0.11199644064E+03  0.16310437158E+03  0.91033421234E+02 0.  0.
         24    2    1    2    0    0  0.12340472810E+02 -0.41144277429E+02  0.38210481624E+02  0.10790795170E+03  0.91317831223E+02 0.  0.
        -11    1    4    4    0    0 -0.16237517506E+02 -0.60138950875E+02  0.91893820713E+01  0.62966619173E+02  0.00000000000E+00 0.  1.
         12    1    4    4    0    0  0.28577990317E+02  0.18994673446E+02  0.29021099552E+02  0.44941332525E+02  0.00000000000E+00 0. -1.
        -11    1    3    3    0    0 -0.75859563732E+02  0.56510976365E+02 -0.10035800439E+03  0.13791262779E+03  0.00000000000E+00 0.  1.
         11    1    3    3    0    0  0.22172475335E+02 -0.27481074625E+01 -0.11638436249E+02  0.25191743795E+02  0.00000000000E+00 0. -1.
         -2    1    1    2    0  502  0.41346615588E+02 -0.12618591474E+02  0.30021338744E+02  0.52631285861E+02  0.00000000000E+00 0.  1.
<scales pt_clust_5="13000.00000" pt_clust_6="13000.00000" pt_clust_7="13000.00000" pt_clust_8="13000.00000" pt_clust_9="43.22929"></scales>
<clustering>
<clus scale="   43.229">  1  9  2 -1</clus>
<clus scale="   91.033">  7  8 -1 -1</clus>
<clus scale="   91.318">  5  6 -1 -1</clus>
<clus scale="  112.620">  2  7  1 -1</clus>
<clus scale="   43.229">  1  5  2 -1</clus>
</clustering>
</event>
<event>
 9    2  0.1592151E-004  0.1816242E+03  0.7546771E-02  0.1189874E+00
         21   -1    0    0  501  502  0.00000000000E+00  0.00000000000E+00  0.13288431853E+03  0.13288431853E+03  0.00000000000E+00 0.  1.
         -3   -1    0    0    0  501 -0.00000000000E+00 -0.00000000000E+00 -0.48623184549E+03  0.48623184549E+03  0.00000000000E+00 0.  1.
         24    2    1    2    0    0  0.66775883478E+02  0.11708338822E+01 -0.22685253612E+03  0.25063897847E+03  0.83050797201E+02 0.  0.
         23    2    1    2    0    0 -0.18986976769E+03 -0.42081401623E+02 -0.65484192971E+02  0.22513111361E+03  0.92598411114E+02 0.  0.
        -13    1    3    3    0    0  0.56068211346E+02 -0.22674334033E+02 -0.74015118007E+02  0.95582464087E+02  0.00000000000E+00 0.  1.
         14    1    3    3    0    0  0.10707672132E+02  0.23845167916E+02 -0.15283741812E+03  0.15505651438E+03  0.00000000000E+00 0. -1.
        -11    1    4    4    0    0 -0.10454433543E+03  0.13453024709E+02 -0.25382024266E+01  0.10543692151E+03  0.00000000000E+00 0.  1.
         11    1    4    4    0    0 -0.85325432259E+02 -0.55534426333E+02 -0.62945990545E+02  0.11969419211E+03  0.00000000000E+00 0. -1.
         -4    1    1    2    0  502  0.12309388421E+03  0.40910567741E+02 -0.61010797871E+02  0.14334607194E+03  0.00000000000E+00 0.  1.
<scales pt_clust_5="13000.00000" pt_clust_6="13000.00000" pt_clust_7="13000.00000" pt_clust_8="13000.00000" pt_clust_9="156.24628"></scales>
<clustering>
<clus scale="   83.051">  5  6 -1 -1</clus>
<clus scale="   92.598">  7  8 -1 -1</clus>
<clus scale="  106.573">  2  5  1 -1</clus>
<clus scale="  156.246">  1  9  2 -1</clus>
<clus scale="  156.246">  1  5  2 -1</clus>
</clustering>
</event>
<event>
 9    2  0.1838035E-004  0.1002196E+03  0.7546771E-02  0.1284740E+00
         21   -1    0    0  501  502  0.00000000000E+00  0.00000000000E+00  0.18448014548E+03  0.18448014548E+03  0.00000000000E+00 0.  1.
          2   -1    0    0  502    0 -0.00000000000E+00 -0.00000000000E+00 -0.53445115419E+03  0.53445115419E+03  0.00000000000E+00 0. -1.
         23    2    1    2    0    0  0.40532043764E+02 -0.61793904064E+01 -0.49444612676E+03  0.50461980919E+03  0.92104007094E+02 0.  0.
         24    2    1    2    0    0 -0.24723658003E+02 -0.73129221069E+01  0.20590109420E+02  0.88695237874E+02  0.82329548285E+02 0.  0.
        -13    1    4    4    0    0 -0.41171521308E+02 -0.12751636041E+02  0.42656841249E+02  0.60640782431E+02  0.00000000000E+00 0.  1.
         14    1    4    4    0    0  0.16447863305E+02  0.54387139342E+01 -0.22066731829E+02  0.28054455443E+02  0.00000000000E+00 0. -1.
        -11    1    3    3    0    0  0.76887418324E+01  0.40411393264E+02 -0.15230158428E+03  0.15775921536E+03  0.00000000000E+00 0.  1.
         11    1    3    3    0    0  0.32843301932E+02 -0.46590783670E+02 -0.34214454248E+03  0.34686059383E+03  0.00000000000E+00 0. -1.
          1    1    1    2  501    0 -0.15808385761E+02  0.13492312513E+02  0.12388500863E+03  0.12561625261E+03  0.00000000000E+00 0. -1.
<scales pt_clust_5="13000.00000" pt_clust_6="13000.00000" pt_clust_7="13000.00000" pt_clust_8="13000.00000" pt_clust_9="20.78335"></scales>
<clustering>
<clus scale="   20.783">  1  9  2 -1</clus>
<clus scale="   82.330">  5  6 -1 -1</clus>
<clus scale="   91.318">  1  5  2 -1</clus>
<clus scale="   92.104">  7  8 -1 -1</clus>
<clus scale="   20.783">  1  5  2 -1</clus>
</clustering>
</event>
<event>
 9    2  0.1592151E-004  0.1252468E+03  0.7546771E-02  0.1248689E+00
         21   -1    0    0  501  502  0.00000000000E+00  0.00000000000E+00  0.10429171677E+03  0.10429171677E+03  0.00000000000E+00 0.  1.
          2   -1    0    0  502    0 -0.00000000000E+00 -0.00000000000E+00 -0.28240234537E+03  0.28240234537E+03  0.00000000000E+00 0. -1.
         23    2    1    2    0    0 -0.15721123920E+02  0.23200573878E+02 -0.12858289538E+03  0.15946460579E+03  0.90055422655E+02 0.  0.
         24    2    1    2    0    0 -0.75901517539E+02 -0.54667329963E+02 -0.22672743559E+02  0.12670057674E+03  0.82397970343E+02 0.  0.
        -13    1    4    4    0    0 -0.76793910671E+02 -0.54676350222E+02  0.92889655885E+01  0.94726410633E+02  0.00000000000E+00 0.  1.
         14    1    4    4    0    0  0.89239313173E+00  0.90202584872E-02 -0.31961709147E+02  0.31974166111E+02  0.00000000000E+00 0. -1.
        -11    1    3    3    0    0  0.60653979211E+01  0.54854165314E+02 -0.85176830359E+02  0.10149315708E+03  0.00000000000E+00 0. -1.
         11    1    3    3    0    0 -0.21786521841E+02 -0.31653591436E+02 -0.43406065019E+02  0.57971448707E+02  0.00000000000E+00 0.  1.
          1    1    1    2  501    0  0.91622641459E+02  0.31466756085E+02 -0.26854989664E+02  0.10052887961E+03  0.00000000000E+00 0. -1.
<scales pt_clust_5="13000.00000" pt_clust_6="13000.00000" pt_clust_7="13000.00000" pt_clust_8="13000.00000" pt_clust_9="94.32573"></scales>
<clustering>
<clus scale="   82.398">  5  6 -1 -1</clus>
<clus scale="   90.055">  7  8 -1 -1</clus>
<clus scale="   94.315">  2  7  1 -1</clus>
<clus scale="   94.326">  1  9  2 -1</clus>
<clus scale="   94.326">  1  5  2 -1</clus>
</clustering>
</event>
<event>
 9    2  0.1592151E-004  0.1404390E+03  0.7546771E-02  0.1237559E+00
          2   -1    0    0  502    0 -0.00000000000E+00  0.00000000000E+00  0.77394231330E+03  0.77394231330E+03  0.00000000000E+00 0. -1.
         21   -1    0    0  501  502  0.00000000000E+00 -0.00000000000E+00 -0.38172782290E+02  0.38172782290E+02  0.00000000000E+00 0. -1.
         24    2    1    2    0    0 -0.94888240577E+00 -0.18596158721E+02  0.21449523573E+03  0.23027245220E+03  0.81672997949E+02 0.  0.
         23    2    1    2    0    0  0.61616980091E+02 -0.81361399460E+02  0.21759809226E+03  0.25643310481E+03  0.89401778129E+02 0.  0.
        -11    1    3    3    0    0 -0.29993215941E+02  0.17384168852E+02  0.63386950233E+02  0.72247545211E+02  0.00000000000E+00 0.  1.
         12    1    3    3    0    0  0.29044333536E+02 -0.35980327573E+02  0.15110828550E+03  0.15802490699E+03  0.00000000000E+00 0. -1.
        -13    1    4    4    0    0  0.25298005668E+02 -0.31416658787E+01  0.36432519870E+01  0.25751358029E+02  0.00000000000E+00 0. -1.
         13    1    4    4    0    0  0.36318974423E+02 -0.78219733581E+02  0.21395484027E+03  0.23068174678E+03  0.00000000000E+00 0.  1.
          1    1    1    2  501    0 -0.60668097686E+02  0.99957558181E+02  0.30367620302E+03  0.32540953857E+03  0.00000000000E+00 0. -1.
<scales pt_clust_5="13000.00000" pt_clust_6="13000.00000" pt_clust_7="13000.00000" pt_clust_8="13000.00000" pt_clust_9="108.30723"></scales>
<clustering>
<clus scale="   81.673">  5  6 -1 -1</clus>
<clus scale="   83.769">  1  5  2 -1</clus>
<clus scale="   89.402">  7  8 -1 -1</clus>
<clus scale="  108.307">  2  9  1 -1</clus>
<clus scale="  108.307">  2  5  1 -1</clus>
</clustering>
</event>
<event>
 9    2  0.1592151E-004  0.9343480E+02  0.7546771E-02  0.1304980E+00
         21   -1    0    0  501  502  0.00000000000E+00  0.00000000000E+00  0.18435692624E+02  0.18435692624E+02  0.00000000000E+00 0. -1.
         -1   -1    0    0    0  501 -0.00000000000E+00 -0.00000000000E+00 -0.59190524508E+03  0.59190524508E+03  0.00000000000E+00 0.  1.
         24    2    1    2    0    0 -0.90200191596E+01  0.10683250619E+02 -0.32913639071E+03  0.33782253886E+03  0.74818523648E+02 0.  0.
         23    2    1    2    0    0  0.14486858809E+02 -0.32564524849E+02 -0.19437080933E+03  0.21770131066E+03  0.91342935079E+02 0.  0.
        -13    1    3    3    0    0 -0.39876645515E+02  0.10820842505E+02 -0.13289842420E+03  0.13917337621E+03  0.00000000000E+00 0.  1.
         14    1    3    3    0    0  0.30856626356E+02 -0.13759188532E+00 -0.19623796651E+03  0.19864916265E+03  0.00000000000E+00 0. -1.
        -13    1    4    4    0    0  0.20918093048E+02  0.26463195161E+02 -0.10597814253E+03  0.11121705809E+03  0.00000000000E+00 0.  1.
         13    1    4    4    0    0 -0.64312342391E+01 -0.59027720011E+02 -0.88392666796E+02  0.10648425258E+03  0.00000000000E+00 0. -1.
         -2    1    1    2    0  502 -0.54668396496E+01  0.21881274230E+02 -0.49962352417E+02  0.54817088182E+02  0.00000000000E+00 0.  1.
<scales pt_clust_5="13000.00000" pt_clust_6="13000.00000" pt_clust_7="13000.00000" pt_clust_8="13000.00000" pt_clust_9="22.55386"></scales>
<clustering>
<clus scale="   22.554">  1  9  2 -1</clus>
<clus scale="   74.819">  5  6 -1 -1</clus>
<clus scale="   77.359">  2  5  1 -1</clus>
<clus scale="   91.343">  7  8 -1 -1</clus>
<clus scale="   22.554">  1  5  2 -1</clus>
</clustering>
</event>
<event>
 9    2  0.1592151E-004  0.1293594E+03  0.7546771E-02  0.1231487E+00
         21   -1    0    0  501  502  0.00000000000E+00  0.00000000000E+00  0.18125214171E+03  0.18125214171E+03  0.00000000000E+00 0.  1.
          2   -1    0    0  502    0 -0.00000000000E+00 -0.00000000000E+00 -0.12574388463E+03  0.12574388463E+03  0.00000000000E+00 0. -1.
         24    2    1    2    0    0 -0.57165437213E+02 -0.59190084473E+02 -0.86167432753E+01  0.11546342681E+03  0.80536956451E+02 0.  0.
         23    2    1    2    0    0  0.90344363356E+02  0.62842611590E+02  0.66297680524E+02  0.15808259754E+03  0.92105523065E+02 0.  0.
        -11    1    3    3    0    0 -0.69903501253E+02 -0.18739112144E+02 -0.98343563078E+01  0.73036760439E+02  0.00000000000E+00 0.  1.
         12    1    3    3    0    0  0.12738064040E+02 -0.40450972329E+02  0.12176130325E+01  0.42426666371E+02  0.00000000000E+00 0. -1.
        -13    1    4    4    0    0  0.10109052931E+03  0.42558565573E+02  0.27622884502E+02  0.11310857778E+03  0.00000000000E+00 0.  1.
         13    1    4    4    0    0 -0.10746165953E+02  0.20284046016E+02  0.38674796022E+02  0.44974019754E+02  0.00000000000E+00 0. -1.
          1    1    1    2  501    0 -0.33178926144E+02 -0.36525271167E+01 -0.21726801621E+01  0.33450001995E+02  0.00000000000E+00 0. -1.
<scales pt_clust_5="13000.00000" pt_clust_6="13000.00000" pt_clust_7="13000.00000" pt_clust_8="13000.00000" pt_clust_9="33.37938"></scales>
<clustering>
<clus scale="   33.379">  1  9  2 -1</clus>
<clus scale="   80.537">  5  6 -1 -1</clus>
<clus scale="   92.106">  7  8 -1 -1</clus>
<clus scale="  121.395">  2  5  1 -1</clus>
<clus scale="   33.379">  1  5  2 -1</clus>
</clustering>
</event>
<event>
 9    2  0.1592151E-004  0.1157140E+03  0.7546771E-02  0.1255273E+00
          2   -1    0    0  502    0 -0.00000000000E+00  0.00000000000E+00  0.47675972223E+03  0.47675972223E+03  0.00000000000E+00 0. -1.
         21   -1    0    0  501  502  0.00000000000E+00 -0.00000000000E+00 -0.61994213164E+02  0.61994213164E+02  0.00000000000E+00 0. -1.
         23    2    1    2    0    0  0.72123195627E+02 -0.63097511470E+02  0.28709364142E+03  0.31675723055E+03  0.93430898866E+02 0.  0.
         24    2    1    2    0    0 -0.14910797585E+02  0.43196745882E+02  0.13252215387E+03  0.16122809258E+03  0.79649769801E+02 0.  0.
        -11    1    4    4    0    0 -0.36251891198E+02  0.42495293414E+02  0.46754766537E+02  0.72842691958E+02  0.00000000000E+00 0.  1.
         12    1    4    4    0    0  0.21341093613E+02  0.70145246848E+00  0.85767387334E+02  0.88385400618E+02  0.00000000000E+00 0. -1.
        -13    1    3    3    0    0  0.10762052398E+02 -0.32744541138E+02  0.17593664061E+02  0.38698368974E+02  0.00000000000E+00 0. -1.
         13    1    3    3    0    0  0.61361143229E+02 -0.30352970332E+02  0.26949997736E+03  0.27805886158E+03  0.00000000000E+00 0.  1.
          1    1    1    2  501    0 -0.57212398042E+02  0.19900765588E+02 -0.48502862199E+01  0.60768612269E+02  0.00000000000E+00 0. -1.
<scales pt_clust_5="13000.00000" pt_clust_6="13000.00000" pt_clust_7="13000.00000" pt_clust_8="13000.00000" pt_clust_9="60.57474"></scales>
<clustering>
<clus scale="   60.575">  2  9  1 -1</clus>
<clus scale="   79.650">  5  6 -1 -1</clus>
<clus scale="   93.431">  7  8 -1 -1</clus>
<clus scale="  104.902">  2  5  1 -1</clus>
<clus scale="   60.575">  2  5  1 -1</clus>
</clustering>
</event>
<event>
 9    2  0.1592151E-004  0.9603598E+02  0.7546771E-02  0.1291472E+00
         21   -1    0    0  501  502  0.00000000000E+00  0.00000000000E+00  0.10911923775E+03  0.10911923775E+03  0.00000000000E+00 0. -1.
          2   -1    0    0  502    0 -0.00000000000E+00 -0.00000000000E+00 -0.21842289356E+03  0.21842289356E+03  0.00000000000E+00 0. -1.
         23    2    1    2    0    0 -0.48550049292E+02  0.45169788081E+02 -0.79837297459E+02  0.13399091365E+03  0.84747588954E+02 0.  0.
         24    2    1    2    0    0 -0.34510971029E+02 -0.26783042252E+02  0.23008767555E+02  0.93597006353E+02  0.79515141578E+02 0.  0.
        -11    1    4    4    0    0  0.15718646938E+02 -0.17889519408E+02  0.33907695133E+02  0.41434798846E+02  0.00000000000E+00 0.  1.
         12    1    4    4    0    0 -0.50229617967E+02 -0.88935228434E+01 -0.10898927578E+02  0.52162207507E+02  0.00000000000E+00 0. -1.
        -11    1    3    3    0    0  0.20859271570E+02 -0.55258324127E+01 -0.14013623592E+02  0.25729859705E+02  0.00000000000E+00 0.  1.
         11    1    3    3    0    0 -0.69409320862E+02  0.50695620493E+02 -0.65823673868E+02  0.10826105394E+03  0.00000000000E+00 0. -1.
          1    1    1    2  501    0  0.83061020321E+02 -0.18386745829E+02 -0.52475125908E+02  0.99954211307E+02  0.00000000000E+00 0. -1.
<scales pt_clust_5="13000.00000" pt_clust_6="13000.00000" pt_clust_7="13000.00000" pt_clust_8="13000.00000" pt_clust_9="85.07181"></scales>
<clustering>
<clus scale="   79.515">  5  6 -1 -1</clus>
<clus scale="   84.748">  7  8 -1 -1</clus>
<clus scale="   85.072">  1  9  2 -1</clus>
<clus scale="   91.452">  1  5  2 -1</clus>
<clus scale="   85.072">  1  5  2 -1</clus>
</clustering>
</event>
<event>
 9    2  0.1592151E-004  0.9445321E+02  0.7546771E-02  0.1300328E+00
          2   -1    0    0  502    0 -0.00000000000E+00  0.00000000000E+00  0.52144296101E+03  0.52144296101E+03  0.00000000000E+00 0. -1.
         21   -1    0    0  501  502  0.00000000000E+00 -0.00000000000E+00 -0.58159702773E+02  0.58159702773E+02  0.00000000000E+00 0.  1.
         23    2    1    2    0    0 -0.39796020977E+02 -0.26461566455E+02  0.60447968534E+02  0.12037695012E+03  0.92480892273E+02 0.  0.
         24    2    1    2    0    0 -0.97625564138E+01  0.27759184626E+01  0.34882281948E+02  0.87195501947E+02  0.79267072198E+02 0.  0.
        -11    1    4    4    0    0 -0.20836889164E+02  0.35280885079E+02  0.33333657209E+02  0.52820919198E+02  0.00000000000E+00 0.  1.
         12    1    4    4    0    0  0.11074332750E+02 -0.32504966616E+02  0.15486247392E+01  0.34374582749E+02  0.00000000000E+00 0. -1.
        -13    1    3    3    0    0 -0.22843892012E+01 -0.33822928573E+02 -0.14008713500E+02  0.36680416917E+02  0.00000000000E+00 0.  1.
         13    1    3    3    0    0 -0.37511631776E+02  0.73613621184E+01  0.74456682034E+02  0.83696533203E+02  0.00000000000E+00 0. -1.
          1    1    1    2  501    0  0.49558577391E+02  0.23685647993E+02  0.36795300775E+03  0.37203021171E+03  0.00000000000E+00 0. -1.
<scales pt_clust_5="13000.00000" pt_clust_6="13000.00000" pt_clust_7="13000.00000" pt_clust_8="13000.00000" pt_clust_9="54.92782"></scales>
<clustering>
<clus scale="   54.928">  2  9  1 -1</clus>
<clus scale="   79.267">  5  6 -1 -1</clus>
<clus scale="   81.560">  2  5  1 -1</clus>
<clus scale="   92.481">  7  8 -1 -1</clus>
<clus scale="   54.928">  2  5  1 -1</clus>
</clustering>
</event>
<event>
 9    2  0.1592151E-004  0.1261245E+03  0.7546771E-02  0.1235666E+00
          2   -1    0    0  502    0 -0.00000000000E+00  0.00000000000E+00  0.54893854456E+03  0.54893854456E+03  0.00000000000E+00 0. -1.
         21   -1    0    0  501  502  0.00000000000E+00 -0.00000000000E+00 -0.89212184195E+02  0.89212184195E+02  0.00000000000E+00 0.  1.
         24    2    1    2    0    0  0.56871375617E+01  0.90711060550E+02  0.47671240614E+03  0.49213315828E+03  0.81728130225E+02 0.  0.
         23    2    1    2    0    0  0.28561669619E+00 -0.62538813976E+02 -0.30905178185E+02  0.11403176867E+03  0.90204930001E+02 0.  0.
        -11    1    3    3    0    0  0.42406305291E+02  0.49988234859E+02  0.30137619837E+03  0.30842297465E+03  0.00000000000E+00 0.  1.
         12    1    3    3    0    0 -0.36719167729E+02  0.40722825691E+02  0.17533620777E+03  0.18371018362E+03  0.00000000000E+00 0. -1.
        -11    1    4    4    0    0  0.12757236463E+02  0.18358726563E+02 -0.22549313792E+02  0.31753133321E+02  0.00000000000E+00 0.  1.
         11    1    4    4    0    0 -0.12471619766E+02 -0.80897540539E+02 -0.83558643924E+01  0.82278635348E+02  0.00000000000E+00 0. -1.
          1    1    1    2  501    0 -0.59727542579E+01 -0.28172246574E+02  0.13919132415E+02  0.31985801813E+02  0.00000000000E+00 0. -1.
<scales pt_clust_5="13000.00000" pt_clust_6="13000.00000" pt_clust_7="13000.00000" pt_clust_8="13000.00000" pt_clust_9="28.79842"></scales>
<clustering>
<clus scale="   28.798">  2  9  1 -1</clus>
<clus scale="   81.728">  5  6 -1 -1</clus>
<clus scale="   90.205">  7  8 -1 -1</clus>
<clus scale="  120.208">  1  5  2 -1</clus>
<clus scale="   28.798">  2  5  1 -1</clus>
</clustering>
</event>
<event>
 9    2  0.1592151E-004  0.9305767E+02  0.7546771E-02  0.1300774E+00
          2   -1    0    0  502    0 -0.00000000000E+00  0.00000000000E+00  0.48290018262E+03  0.48290018262E+03  0.00000000000E+00 0. -1.
         21   -1    0    0  501  502  0.00000000000E+00 -0.00000000000E+00 -0.41994509780E+02  0.41994509780E+02  0.00000000000E+00 0.  1.
         24    2    1    2    0    0 -0.33171794741E+01 -0.24608873223E+02  0.37204385283E+03  0.38164757472E+03  0.81373475651E+02 0.  0.
         23    2    1    2    0    0  0.23104880122E+02  0.10045041934E+02  0.72519452832E+02  0.11840689714E+03  0.90146458048E+02 0.  0.
        -13    1    3    3    0    0 -0.23220238602E+02 -0.48607177289E+02  0.23061794698E+03  0.23682583186E+03  0.00000000000E+00 0.  1.
         14    1    3    3    0    0  0.19903059128E+02  0.23998304066E+02  0.14142590585E+03  0.14482174286E+03  0.00000000000E+00 0. -1.
        -11    1    4    4    0    0  0.26452400350E+02  0.42938513234E+02  0.68554287036E+02  0.85106613574E+02  0.00000000000E+00 0. -1.
         11    1    4    4    0    0 -0.33475202276E+01 -0.32893471300E+02  0.39651657958E+01  0.33300283567E+02  0.00000000000E+00 0.  1.
          1    1    1    2  501    0 -0.19787700648E+02  0.14563831289E+02 -0.36576328198E+01  0.24840220543E+02  0.00000000000E+00 0. -1.
<scales pt_clust_5="13000.00000" pt_clust_6="13000.00000" pt_clust_7="13000.00000" pt_clust_8="13000.00000" pt_clust_9="24.56946"></scales>
<clustering>
<clus scale="   24.569">  2  9  1 -1</clus>
<clus scale="   81.373">  5  6 -1 -1</clus>
<clus scale="   84.587">  1  5  2 -1</clus>
<clus scale="   90.146">  7  8 -1 -1</clus>
<clus scale="   24.569">  2  5  1 -1</clus>
</clustering>
</event>
<event>
 9    2  0.1592151E-004  0.9464750E+02  0.7546771E-02  0.1309321E+00
         21   -1    0    0  501  502  0.00000000000E+00  0.00000000000E+00  0.59313022015E+02  0.59313022015E+02  0.00000000000E+00 0.  1.
         -1   -1    0    0    0  501 -0.00000000000E+00 -0.00000000000E+00 -0.49307289629E+03  0.49307289629E+03  0.00000000000E+00 0.  1.
         24    2    1    2    0    0  0.10244231522E+02  0.13471764651E+02 -0.32841365500E+03  0.33517318967E+03  0.64800505869E+02 0.  0.
         23    2    1    2    0    0 -0.53771679941E+02 -0.35983893871E+02 -0.12164544515E+03  0.16556876004E+03  0.91810488483E+02 0.  0.
        -13    1    3    3    0    0  0.30620997526E+02  0.28161538898E+02 -0.21855701594E+03  0.22248120590E+03  0.00000000000E+00 0.  1.
         14    1    3    3    0    0 -0.20376766004E+02 -0.14689774247E+02 -0.10985663906E+03  0.11269198377E+03  0.00000000000E+00 0. -1.
        -13    1    4    4    0    0  0.24803932263E+02 -0.59789170607E+00 -0.17342725889E+02  0.30271482809E+02  0.00000000000E+00 0. -1.
         13    1    4    4    0    0 -0.78575612204E+02 -0.35386002165E+02 -0.10430271926E+03  0.13529727723E+03  0.00000000000E+00 0.  1.
         -2    1    1    2    0  502  0.43527448419E+02  0.22512129220E+02  0.16299225872E+02  0.51643968592E+02  0.00000000000E+00 0.  1.
<scales pt_clust_5="13000.00000" pt_clust_6="13000.00000" pt_clust_7="13000.00000" pt_clust_8="13000.00000" pt_clust_9="49.00444"></scales>
<clustering>
<clus scale="   49.004">  1  9  2 -1</clus>
<clus scale="   64.801">  5  6 -1 -1</clus>
<clus scale="   68.761">  2  5  1 -1</clus>
<clus scale="   91.810">  7  8 -1 -1</clus>
<clus scale="   49.004">  1  5  2 -1</clus>
</clustering>
</event>
<event>
 9    2  0.1592151E-004  0.1342693E+03  0.7546771E-02  0.1223415E+00
         21   -1    0    0  501  502  0.00000000000E+00  0.00000000000E+00  0.24088960242E+03  0.24088960242E+03  0.00000000000E+00 0.  1.
         -1   -1    0    0    0  501 -0.00000000000E+00 -0.00000000000E+00 -0.16330955434E+03  0.16330955434E+03  0.00000000000E+00 0.  1.
         24    2    1    2    0    0 -0.39074461370E+02 -0.98769862989E+02 -0.99308656889E+02  0.16756511869E+03  0.83268002865E+02 0.  0.
         23    2    1    2    0    0  0.31512513461E+02  0.53161499988E+02  0.12460232722E+03  0.16684026235E+03  0.92145263619E+02 0.  0.
        -11    1    3    3    0    0 -0.31302285036E+02 -0.10567135784E+03 -0.10778320379E+03  0.15415410451E+03  0.00000000000E+00 0.  1.
         12    1    3    3    0    0 -0.77721763338E+01  0.69014948484E+01  0.84745469055E+01  0.13411014181E+02  0.00000000000E+00 0. -1.
        -11    1    4    4    0    0  0.48361572409E+02  0.18834730029E+02  0.20263957979E+02  0.55715498150E+02  0.00000000000E+00 0.  1.
         11    1    4    4    0    0 -0.16849058947E+02  0.34326769959E+02  0.10433836924E+03  0.11112476420E+03  0.00000000000E+00 0. -1.
         -2    1    1    2    0  502  0.75619479087E+01  0.45608363002E+02  0.52286377748E+02  0.69793775724E+02  0.00000000000E+00 0.  1.
<scales pt_clust_5="13000.00000" pt_clust_6="13000.00000" pt_clust_7="13000.00000" pt_clust_8="13000.00000" pt_clust_9="46.23101"></scales>
<clustering>
<clus scale="   46.231">  1  9  2 -1</clus>
<clus scale="   83.268">  5  6 -1 -1</clus>
<clus scale="   92.145">  7  8 -1 -1</clus>
<clus scale="  128.340">  2  5  1 -1</clus>
<clus scale="   46.231">  1  5  2 -1</clus>
</clustering>
</event>
<event>
 9    2  0.1592151E-004  0.1551407E+03  0.7546771E-02  0.1200346E+00
         21   -1    0    0  501  502  0.00000000000E+00  0.00000000000E+00  0.71808942208E+02  0.71808942208E+02  0.00000000000E+00 0. -1.
          2   -1    0    0  502    0 -0.00000000000E+00 -0.00000000000E+00 -0.59680749820E+03  0.59680749820E+03  0.00000000000E+00 0. -1.
         23    2    1    2    0    0 -0.83849045058E+02 -0.26802235336E+02 -0.18843135773E+03  0.23434080908E+03  0.10798248029E+03 0.  0.
         24    2    1    2    0    0  0.15711435595E+03 -0.15175641314E+02 -0.15713277419E+03  0.23596612462E+03  0.77936399110E+02 0.  0.
        -13    1    4    4    0    0  0.33653507753E+02  0.20930662649E+00  0.23008278499E+01  0.33732717088E+02  0.00000000000E+00 0.  1.
         14    1    4    4    0    0  0.12346084820E+03 -0.15384947941E+02 -0.15943360204E+03  0.20223340753E+03  0.00000000000E+00 0. -1.
        -13    1    3    3    0    0 -0.16100232782E+02 -0.61204329401E+02 -0.82583765623E+02  0.10404453747E+03  0.00000000000E+00 0.  1.
         13    1    3    3    0    0 -0.67748812276E+02  0.34402094064E+02 -0.10584759211E+03  0.13029627161E+03  0.00000000000E+00 0. -1.
          1    1    1    2  501    0 -0.73265310897E+02  0.41977876650E+02 -0.17943442407E+03  0.19830950670E+03  0.00000000000E+00 0. -1.
<scales pt_clust_5="13000.00000" pt_clust_6="13000.00000" pt_clust_7="13000.00000" pt_clust_8="13000.00000" pt_clust_9="84.43906"></scales>
<clustering>
<clus scale="   77.936">  5  6 -1 -1</clus>
<clus scale="   84.439">  1  9  2 -1</clus>
<clus scale="  107.982">  7  8 -1 -1</clus>
<clus scale="  135.950">  1  5  2 -1</clus>
<clus scale="   84.439">  1  5  2 -1</clus>
</clustering>
</event>
<event>
 9    2  0.1592151E-004  0.1022502E+03  0.7546771E-02  0.1280304E+00
          2   -1    0    0  502    0 -0.00000000000E+00  0.00000000000E+00  0.45567469304E+03  0.45567469304E+03  0.00000000000E+00 0. -1.
         21   -1    0    0  501  502  0.00000000000E+00 -0.00000000000E+00 -0.48776671383E+02  0.48776671383E+02  0.00000000000E+00 0. -1.
         23    2    1    2    0    0 -0.16606177923E+02  0.46158974213E+02  0.35817505849E+03  0.37312281341E+03  0.92330088894E+02 0.  0.
         24    2    1    2    0    0  0.11499771797E+02 -0.26063183593E+02  0.61636917353E+02  0.10690138588E+03  0.82566715032E+02 0.  0.
        -13    1    4    4    0    0  0.40622259995E+02 -0.37308551597E+02  0.31532747361E+02  0.63532748922E+02  0.00000000000E+00 0.  1.
         14    1    4    4    0    0 -0.29122488198E+02  0.11245368005E+02  0.30104169992E+02  0.43368636955E+02  0.00000000000E+00 0. -1.
        -13    1    3    3    0    0 -0.16955121672E+02  0.72578167128E+02  0.21557570354E+03  0.22809636220E+03  0.00000000000E+00 0.  1.
         13    1    3    3    0    0  0.34894374919E+00 -0.26419192916E+02  0.14259935495E+03  0.14502645120E+03  0.00000000000E+00 0. -1.
          1    1    1    2  501    0  0.51064061259E+01 -0.20095790620E+02 -0.12913954183E+02  0.24427165141E+02  0.00000000000E+00 0. -1.
<scales pt_clust_5="13000.00000" pt_clust_6="13000.00000" pt_clust_7="13000.00000" pt_clust_8="13000.00000" pt_clust_9="20.73442"></scales>
<clustering>
<clus scale="   20.734">  2  9  1 -1</clus>
<clus scale="   82.567">  5  6 -1 -1</clus>
<clus scale="   92.330">  7  8 -1 -1</clus>
<clus scale="   93.528">  2  5  1 -1</clus>
<clus scale="   20.734">  2  5  1 -1</clus>
</clustering>
</event>
<event>
 9    2  0.1592151E-004  0.1216516E+03  0.7546771E-02  0.1243634E+00
         21   -1    0    0  501  502  0.00000000000E+00  0.00000000000E+00  0.22305484681E+03  0.22305484681E+03  0.00000000000E+00 0.  1.
          2   -1    0    0  502    0 -0.00000000000E+00 -0.00000000000E+00 -0.14775824271E+03  0.14775824271E+03  0.00000000000E+00 0. -1.
         24    2    1    2    0    0 -0.62699814703E+02  0.47923610516E+02  0.34398317587E+02  0.11764910480E+03  0.80188081398E+02 0.  0.
         23    2    1    2    0    0  0.50187680163E+02 -0.71523464070E+02  0.11733682714E+03  0.17219264972E+03  0.90818326693E+02 0.  0.
        -11    1    3    3    0    0 -0.56154233325E+02 -0.75339671880E+01  0.18032789889E+02  0.59457885037E+02  0.00000000000E+00 0.  1.
         12    1    3    3    0    0 -0.65455813781E+01  0.55457577704E+02  0.16365527698E+02  0.58191219761E+02  0.00000000000E+00 0. -1.
        -11    1    4    4    0    0 -0.17440621004E+02 -0.33069313509E+02  0.83829121110E+01  0.38314853156E+02  0.00000000000E+00 0. -1.
         11    1    4    4    0    0  0.67628301167E+02 -0.38454150562E+02  0.10895391503E+03  0.13387779657E+03  0.00000000000E+00 0.  1.
          1    1    1    2  501    0  0.12512134540E+02  0.23599853554E+02 -0.76438540630E+02  0.80971335003E+02  0.00000000000E+00 0. -1.
<scales pt_clust_5="13000.00000" pt_clust_6="13000.00000" pt_clust_7="13000.00000" pt_clust_8="13000.00000" pt_clust_9="26.71156"></scales>
<clustering>
<clus scale="   26.712">  1  9  2 -1</clus>
<clus scale="   80.188">  5  6 -1 -1</clus>
<clus scale="   90.818">  7  8 -1 -1</clus>
<clus scale="  113.935">  2  5  1 -1</clus>
<clus scale="   26.712">  1  5  2 -1</clus>
</clustering>
</event>
<event>
 9    2  0.1592151E-004  0.1023056E+03  0.7546771E-02  0.1282673E+00
         -1   -1    0    0    0  501 -0.00000000000E+00  0.00000000000E+00  0.22512659778E+03  0.22512659778E+03  0.00000000000E+00 0.  1.
         21   -1    0    0  501  502  0.00000000000E+00 -0.00000000000E+00 -0.10106602922E+03  0.10106602922E+03  0.00000000000E+00 0. -1.
         24    2    1    2    0    0  0.17042017252E+02  0.44905016728E+02  0.74281042302E+02  0.11381842919E+03  0.71624511851E+02 0.  0.
         23    2    1    2    0    0 -0.74847794879E+02 -0.41874806794E+02 -0.17467070554E+02  0.12364542637E+03  0.87334993365E+02 0.  0.
        -11    1    3    3    0    0  0.35598352212E+02  0.26335000998E+02  0.11470194074E+02  0.45742106531E+02  0.00000000000E+00 0.  1.
         12    1    3    3    0    0 -0.18556334960E+02  0.18570015730E+02  0.62810848228E+02  0.68076322657E+02  0.00000000000E+00 0. -1.
        -11    1    4    4    0    0 -0.30687624133E+02 -0.49344214394E+01  0.34252531563E+02  0.46252726496E+02  0.00000000000E+00 0.  1.
         11    1    4    4    0    0 -0.44160170747E+02 -0.36940385354E+02 -0.51719602117E+02  0.77392699873E+02  0.00000000000E+00 0. -1.
         -2    1    1    2    0  502  0.57805777627E+02 -0.30302099347E+01  0.67246596807E+02  0.88728771441E+02  0.00000000000E+00 0.  1.
<scales pt_clust_5="13000.00000" pt_clust_6="13000.00000" pt_clust_7="13000.00000" pt_clust_8="13000.00000" pt_clust_9="57.88517"></scales>
<clustering>
<clus scale="   57.885">  2  9  1 -1</clus>
<clus scale="   71.625">  5  6 -1 -1</clus>
<clus scale="   87.335">  7  8 -1 -1</clus>
<clus scale="   89.270">  1  5  2 -1</clus>
<clus scale="   57.885">  2  5  1 -1</clus>
</clustering>
</event>
<event>
 9    2  0.1592151E-004  0.1354486E+03  0.7546771E-02  0.1220664E+00
         -1   -1    0    0    0  501 -0.00000000000E+00  0.00000000000E+00  0.22222531579E+03  0.22222531579E+03  0.00000000000E+00 0.  1.
         21   -1    0    0  501  502  0.00000000000E+00 -0.00000000000E+00 -0.18475866401E+03  0.18475866401E+03  0.00000000000E+00 0. -1.
         24    2    1    2    0    0  0.82488748288E+02 -0.61160315694E+02  0.15865655733E+03  0.20678625757E+03  0.83926606769E+02 0.  0.
         23    2    1    2    0    0 -0.67493970444E+02  0.77954773937E+02 -0.96167871877E+02  0.16653766638E+03  0.88623653253E+02 0.  0.
        -11    1    3    3    0    0  0.26501853793E+02  0.84101991660E+01  0.89846063608E+02  0.94049959332E+02  0.00000000000E+00 0.  1.
         12    1    3    3    0    0  0.55986894494E+02 -0.69570514860E+02  0.68810493726E+02  0.11273629824E+03  0.00000000000E+00 0. -1.
        -13    1    4    4    0    0 -0.19405797382E+02  0.18686713841E+02  0.15649345515E+02  0.31155742027E+02  0.00000000000E+00 0.  1.
         13    1    4    4    0    0 -0.48088173062E+02  0.59268060096E+02 -0.11181721739E+03  0.13538192435E+03  0.00000000000E+00 0. -1.
         -2    1    1    2    0  502 -0.14994777843E+02 -0.16794458243E+02 -0.25022033678E+02  0.33660055847E+02  0.00000000000E+00 0.  1.
<scales pt_clust_5="13000.00000" pt_clust_6="13000.00000" pt_clust_7="13000.00000" pt_clust_8="13000.00000" pt_clust_9="22.51438"></scales>
<clustering>
<clus scale="   22.514">  2  9  1 -1</clus>
<clus scale="   83.927">  5  6 -1 -1</clus>
<clus scale="   88.624">  7  8 -1 -1</clus>
<clus scale="  132.423">  1  5  2 -1</clus>
<clus scale="   22.514">  2  5  1 -1</clus>
</clustering>
</event>
<event>
 9    2  0.1592151E-004  0.9938063E+02  0.7546771E-02  0.1288478E+00
         21   -1    0    0  501  502  0.00000000000E+00  0.00000000000E+00  0.54358605028E+02  0.54358605028E+02  0.00000000000E+00 0. -1.
          2   -1    0    0  502    0 -0.00000000000E+00 -0.00000000000E+00 -0.27149381481E+03  0.27149381481E+03  0.00000000000E+00 0. -1.
         24    2    1    2    0    0  0.46642268977E+00  0.25365114815E+02 -0.12209212296E+03  0.14929672115E+03  0.82093957503E+02 0.  0.
         23    2    1    2    0    0 -0.41651968494E+02 -0.28213541226E+02 -0.72012761212E+02  0.12928246509E+03  0.94853716931E+02 0.  0.
        -11    1    3    3    0    0 -0.32851642170E+02  0.13832997598E+02 -0.10344036429E+03  0.10940973988E+03  0.00000000000E+00 0.  1.
         12    1    3    3    0    0  0.33318064860E+02  0.11532117217E+02 -0.18651758663E+02  0.39886981269E+02  0.00000000000E+00 0. -1.
        -13    1    4    4    0    0 -0.68363729633E+02 -0.37509652667E+02 -0.60710042370E+02  0.98824505145E+02  0.00000000000E+00 0. -1.
         13    1    4    4    0    0  0.26711761139E+02  0.92961114411E+01 -0.11302718841E+02  0.30457959950E+02  0.00000000000E+00 0.  1.
          1    1    1    2  501    0  0.41185545804E+02  0.28484264111E+01 -0.23030325611E+02  0.47273233589E+02  0.00000000000E+00 0. -1.
<scales pt_clust_5="13000.00000" pt_clust_6="13000.00000" pt_clust_7="13000.00000" pt_clust_8="13000.00000" pt_clust_9="41.28393"></scales>
<clustering>
<clus scale="   41.284">  1  9  2 -1</clus>
<clus scale="   82.094">  5  6 -1 -1</clus>
<clus scale="   87.285">  2  5  1 -1</clus>
<clus scale="   94.854">  7  8 -1 -1</clus>
<clus scale="   41.284">  1  5  2 -1</clus>
</clustering>
</event>
<event>
 9    2  0.1592151E-004  0.1419633E+03  0.7546771E-02  0.1213154E+00
         21   -1    0    0  501  502  0.00000000000E+00  0.00000000000E+00  0.11736796601E+03  0.11736796601E+03  0.00000000000E+00 0. -1.
          4   -1    0    0  502    0 -0.00000000000E+00 -0.00000000000E+00 -0.46475478260E+03  0.46475478260E+03  0.00000000000E+00 0. -1.
         24    2    1    2    0    0  0.39497905963E+02 -0.10604016425E+03 -0.27686125855E+03  0.30976442845E+03  0.80605481422E+02 0.  0.
         23    2    1    2    0    0 -0.30008785756E+02  0.71190577367E+02  0.61804394278E+02  0.13518779349E+03  0.92126710720E+02 0.  0.
        -11    1    3    3    0    0 -0.13765945688E+02 -0.74779665596E+02 -0.17219414900E+03  0.18823475927E+03  0.00000000000E+00 0.  1.
         12    1    3    3    0    0  0.53263851651E+02 -0.31260498655E+02 -0.10466710955E+03  0.12152966918E+03  0.00000000000E+00 0. -1.
        -11    1    4    4    0    0  0.20476741039E+02  0.65736828866E+02  0.28848175167E+02  0.74651488956E+02  0.00000000000E+00 0.  1.
         11    1    4    4    0    0 -0.50485526795E+02  0.54537485014E+01  0.32956219111E+02  0.60536304533E+02  0.00000000000E+00 0. -1.
          3    1    1    2  501    0 -0.94891202069E+01  0.34849586884E+02 -0.13232995232E+03  0.13717052668E+03  0.00000000000E+00 0. -1.
<scales pt_clust_5="13000.00000" pt_clust_6="13000.00000" pt_clust_7="13000.00000" pt_clust_8="13000.00000" pt_clust_9="36.11839"></scales>
<clustering>
<clus scale="   36.118">  1  9  2 -1</clus>
<clus scale="   80.605">  5  6 -1 -1</clus>
<clus scale="   92.127">  7  8 -1 -1</clus>
<clus scale="  134.772">  2  5  1 -1</clus>
<clus scale="   36.118">  1  5  2 -1</clus>
</clustering>
</event>
<event>
 9    2  0.1592151E-004  0.1064703E+03  0.7546771E-02  0.1276628E+00
          2   -1    0    0  502    0 -0.00000000000E+00  0.00000000000E+00  0.14953846564E+03  0.14953846564E+03  0.00000000000E+00 0. -1.
         21   -1    0    0  501  502  0.00000000000E+00 -0.00000000000E+00 -0.15805072229E+03  0.15805072229E+03  0.00000000000E+00 0. -1.
         24    2    1    2    0    0  0.52264377514E+02  0.36379077800E+01  0.46277892405E+02  0.10612196679E+03  0.79846283448E+02 0.  0.
         23    2    1    2    0    0  0.52023423523E+01  0.49416459739E+02 -0.53908302860E+02  0.12324978409E+03  0.99072464906E+02 0.  0.
        -11    1    3    3    0    0  0.59572757095E+02  0.17693497725E+02  0.59085658702E+02  0.85750150518E+02  0.00000000000E+00 0.  1.
         12    1    3    3    0    0 -0.73083795809E+01 -0.14055589945E+02 -0.12807766297E+02  0.20371816274E+02  0.00000000000E+00 0. -1.
        -11    1    4    4    0    0 -0.32966859189E+02  0.39447779894E+02  0.57477001735E+01  0.51729848256E+02  0.00000000000E+00 0.  1.
         11    1    4    4    0    0  0.38169201541E+02  0.99686798457E+01 -0.59656003034E+02  0.71519935837E+02  0.00000000000E+00 0. -1.
          1    1    1    2  501    0 -0.57466719867E+02 -0.53054367519E+02 -0.88184619990E+00  0.78217437045E+02  0.00000000000E+00 0. -1.
<scales pt_clust_5="13000.00000" pt_clust_6="13000.00000" pt_clust_7="13000.00000" pt_clust_8="13000.00000" pt_clust_9="78.21250"></scales>
<clustering>
<clus scale="   78.213">  2  9  1 -1</clus>
<clus scale="   79.846">  5  6 -1 -1</clus>
<clus scale="   88.859">  1  5  2 -1</clus>
<clus scale="   99.072">  7  8 -1 -1</clus>
<clus scale="   78.213">  2  5  1 -1</clus>
</clustering>
</event>
<event>
 9    2  0.1592151E-004  0.1377158E+03  0.7546771E-02  0.1218722E+00
          2   -1    0    0  502    0 -0.00000000000E+00  0.00000000000E+00  0.10974321737E+04  0.10974321737E+04  0.00000000000E+00 0. -1.
         21   -1    0    0  501  502  0.00000000000E+00 -0.00000000000E+00 -0.28182152984E+02  0.28182152984E+02  0.00000000000E+00 0. -1.
         23    2    1    2    0    0  0.96873774802E+02  0.75402462327E+02  0.65439063051E+03  0.67188120567E+03  0.90150971526E+02 0.  0.
         24    2    1    2    0    0 -0.37144450635E+02 -0.65133596882E+02  0.17614865230E+03  0.20744902052E+03  0.79904022128E+02 0.  0.
        -11    1    4    4    0    0  0.85905963887E+01 -0.24026412191E+02  0.12466325347E+03  0.12724776459E+03  0.00000000000E+00 0.  1.
         12    1    4    4    0    0 -0.45735047024E+02 -0.41107184691E+02  0.51485398837E+02  0.80201255931E+02  0.00000000000E+00 0. -1.
        -11    1    3    3    0    0  0.15721171493E+01  0.23588245305E+02  0.30289915418E+02  0.38423376282E+02  0.00000000000E+00 0.  1.
         11    1    3    3    0    0  0.95301657652E+02  0.51814217022E+02  0.62410071509E+03  0.63345782939E+03  0.00000000000E+00 0. -1.
          1    1    1    2  501    0 -0.59729324167E+02 -0.10268865445E+02  0.23871073793E+03  0.24628410051E+03  0.00000000000E+00 0. -1.
<scales pt_clust_5="13000.00000" pt_clust_6="13000.00000" pt_clust_7="13000.00000" pt_clust_8="13000.00000" pt_clust_9="60.60566"></scales>
<clustering>
<clus scale="   60.606">  2  9  1 -1</clus>
<clus scale="   79.904">  5  6 -1 -1</clus>
<clus scale="   90.151">  7  8 -1 -1</clus>
<clus scale="  131.237">  2  5  1 -1</clus>
<clus scale="   60.606">  2  5  1 -1</clus>
</clustering>
</event>
<event>
 9    2  0.1592151E-004  0.1859727E+03  0.7546771E-02  0.1163268E+00
         21   -1    0    0  501  502  0.00000000000E+00  0.00000000000E+00  0.10466529446E+03  0.10466529446E+03  0.00000000000E+00 0. -1.
          2   -1    0    0  502    0 -0.00000000000E+00 -0.00000000000E+00 -0.45257994468E+03  0.45257994468E+03  0.00000000000E+00 0. -1.
         23    2    1    2    0    0  0.13348922349E+03  0.11012895342E+03 -0.24347896722E+03  0.31231694312E+03  0.91170753580E+02 0.  0.
         24    2    1    2    0    0 -0.83365305651E+02 -0.12355820133E+03 -0.81514334486E+02  0.18819964315E+03  0.80982193428E+02 0.  0.
        -11    1    4    4    0    0  0.31934706859E+01 -0.61202297303E+02 -0.17286036418E+02  0.63676734411E+02  0.00000000000E+00 0.  1.
         12    1    4    4    0    0 -0.86558776336E+02 -0.62355904029E+02 -0.64228298068E+02  0.12452290874E+03  0.00000000000E+00 0. -1.
        -13    1    3    3    0    0  0.98444764379E+02  0.89456826761E+02 -0.23606127592E+03  0.27095907713E+03  0.00000000000E+00 0. -1.
         13    1    3    3    0    0  0.35044459108E+02  0.20672126664E+02 -0.74176913007E+01  0.41357865990E+02  0.00000000000E+00 0.  1.
          1    1    1    2  501    0 -0.50123917837E+02  0.13429247907E+02 -0.22921348510E+02  0.56728652868E+02  0.00000000000E+00 0. -1.
<scales pt_clust_5="13000.00000" pt_clust_6="13000.00000" pt_clust_7="13000.00000" pt_clust_8="13000.00000" pt_clust_9="51.89173"></scales>
<clustering>
<clus scale="   51.892">  1  9  2 -1</clus>
<clus scale="   80.982">  5  6 -1 -1</clus>
<clus scale="   91.171">  7  8 -1 -1</clus>
<clus scale="  181.196">  1  5  2 -1</clus>
<clus scale="   51.892">  1  5  2 -1</clus>
</clustering>
</event>
<event>
 9    2  0.1592151E-004  0.1179602E+03  0.7546771E-02  0.1250384E+00
         -1   -1    0    0    0  501 -0.00000000000E+00  0.00000000000E+00  0.16517914733E+03  0.16517914733E+03  0.00000000000E+00 0.  1.
         21   -1    0    0  501  502  0.00000000000E+00 -0.00000000000E+00 -0.11763631812E+03  0.11763631812E+03  0.00000000000E+00 0. -1.
         23    2    1    2    0    0  0.36767218927E+02  0.74103325028E+02  0.76680125138E+02  0.14455498870E+03  0.90405597163E+02 0.  0.
         24    2    1    2    0    0 -0.49262885393E+02 -0.44137151477E+02 -0.21533076536E+02  0.10491475154E+03  0.78539873233E+02 0.  0.
        -11    1    4    4    0    0 -0.15558010286E+02 -0.53861493338E+02 -0.36369123480E+02  0.66826830625E+02  0.00000000000E+00 0.  1.
         12    1    4    4    0    0 -0.33704875107E+02  0.97243418611E+01  0.14836046943E+02  0.38087920914E+02  0.00000000000E+00 0. -1.
        -13    1    3    3    0    0  0.25314699160E+02 -0.16032862052E+02  0.90958849124E+01  0.31314881151E+02  0.00000000000E+00 0. -1.
         13    1    3    3    0    0  0.11452519767E+02  0.90136187081E+02  0.67584240226E+02  0.11324010755E+03  0.00000000000E+00 0.  1.
         -2    1    1    2    0  502  0.12495666466E+02 -0.29966173551E+02 -0.76042193945E+01  0.33345725218E+02  0.00000000000E+00 0.  1.
<scales pt_clust_5="13000.00000" pt_clust_6="13000.00000" pt_clust_7="13000.00000" pt_clust_8="13000.00000" pt_clust_9="32.46711"></scales>
<clustering>
<clus scale="   32.467">  2  9  1 -1</clus>
<clus scale="   78.540">  5  6 -1 -1</clus>
<clus scale="   90.406">  7  8 -1 -1</clus>
<clus scale="  109.133">  2  5  1 -1</clus>
<clus scale="   32.467">  2  5  1 -1</clus>
</clustering>
</event>
<event>
 9    2  0.1592151E-004  0.1133384E+03  0.7546771E-02  0.1258528E+00
          2   -1    0    0  502    0 -0.00000000000E+00  0.00000000000E+00  0.30148161687E+03  0.30148161687E+03  0.00000000000E+00 0. -1.
         21   -1    0    0  501  502  0.00000000000E+00 -0.00000000000E+00 -0.19599377848E+03  0.19599377848E+03  0.00000000000E+00 0. -1.
         23    2    1    2    0    0  0.65520703080E+02 -0.39453400163E+02  0.25438807695E+03  0.28096176622E+03  0.91524243071E+02 0.  0.
         24    2    1    2    0    0  0.38654118102E+01  0.85981397960E+01 -0.72382504890E+02  0.10871082955E+03  0.80560213694E+02 0.  0.
        -11    1    4    4    0    0 -0.36640658808E+02  0.14919567218E+02 -0.29226929736E+02  0.49186835492E+02  0.00000000000E+00 0.  1.
         12    1    4    4    0    0  0.40506070618E+02 -0.63214274219E+01 -0.43155575153E+02  0.59523994056E+02  0.00000000000E+00 0. -1.
        -11    1    3    3    0    0 -0.19617639137E+02  0.67370786655E+01  0.29120698095E+02  0.35752692931E+02  0.00000000000E+00 0.  1.
         11    1    3    3    0    0  0.85138342217E+02 -0.46190478829E+02  0.22526737885E+03  0.24520907329E+03  0.00000000000E+00 0. -1.
          1    1    1    2  501    0 -0.69386114890E+02  0.30855260367E+02 -0.76517733668E+02  0.10780279958E+03  0.00000000000E+00 0. -1.
<scales pt_clust_5="13000.00000" pt_clust_6="13000.00000" pt_clust_7="13000.00000" pt_clust_8="13000.00000" pt_clust_9="75.93734"></scales>
<clustering>
<clus scale="   75.937">  2  9  1 -1</clus>
<clus scale="   80.560">  5  6 -1 -1</clus>
<clus scale="   91.524">  7  8 -1 -1</clus>
<clus scale="  104.685">  2  5  1 -1</clus>
<clus scale="   75.937">  2  5  1 -1</clus>
</clustering>
</event>
<event>
 9    2  0.1592151E-004  0.1517770E+03  0.7546771E-02  0.1208429E+00
         21   -1    0    0  501  502  0.00000000000E+00  0.00000000000E+00  0.39797264485E+03  0.39797264485E+03  0.00000000000E+00 0. -1.
          2   -1    0    0  502    0 -0.00000000000E+00 -0.00000000000E+00 -0.17926652941E+03  0.17926652941E+03  0.00000000000E+00 0. -1.
         24    2    1    2    0    0 -0.39985858585E+02 -0.74420330499E+02  0.23558304460E+03  0.26528701238E+03  0.87980529419E+02 0.  0.
         23    2    1    2    0    0  0.13033306464E+03 -0.12485083750E+02 -0.72004400131E+02  0.17500616258E+03  0.91103996877E+02 0.  0.
        -13    1    3    3    0    0  0.18983591327E+02 -0.23375149871E+02  0.20312320225E+02  0.36323060500E+02  0.00000000000E+00 0.  1.
         14    1    3    3    0    0 -0.58969449912E+02 -0.51045180628E+02  0.21527072437E+03  0.22896395188E+03  0.00000000000E+00 0. -1.
        -11    1    4    4    0    0  0.54006402191E+01 -0.29714350318E+02 -0.28701945987E+02  0.41664268061E+02  0.00000000000E+00 0.  1.
         11    1    4    4    0    0  0.12493242442E+03  0.17229266568E+02 -0.43302454144E+02  0.13334189452E+03  0.00000000000E+00 0. -1.
          1    1    1    2  501    0 -0.90347206058E+02  0.86905414250E+02  0.55127470973E+02  0.13694599930E+03  0.00000000000E+00 0. -1.
<scales pt_clust_5="13000.00000" pt_clust_6="13000.00000" pt_clust_7="13000.00000" pt_clust_8="13000.00000" pt_clust_9="121.39328"></scales>
<clustering>
<clus scale="   87.981">  5  6 -1 -1</clus>
<clus scale="   91.104">  7  8 -1 -1</clus>
<clus scale="  121.975">  2  5  1 -1</clus>
<clus scale="  121.393">  1  9  2 -1</clus>
<clus scale="  121.393">  1  5  2 -1</clus>
</clustering>
</event>
<event>
 9    2  0.1592151E-004  0.2446569E+03  0.7546771E-02  0.1116729E+00
         21   -1    0    0  501  502  0.00000000000E+00  0.00000000000E+00  0.18080838898E+03  0.18080838898E+03  0.00000000000E+00 0. -1.
          2   -1    0    0  502    0 -0.00000000000E+00 -0.00000000000E+00 -0.23825587694E+03  0.23825587694E+03  0.00000000000E+00 0. -1.
         24    2    1    2    0    0  0.13456219013E+02 -0.44887912399E+02 -0.14599891082E+02  0.94261776913E+02  0.80474413682E+02 0.  0.
         23    2    1    2    0    0  0.50733970793E+02 -0.10876242497E+03  0.87755379341E+01  0.15046444184E+03  0.90329050234E+02 0.  0.
        -13    1    3    3    0    0 -0.15893272171E+02 -0.29697538151E+02  0.25537884494E+02  0.42269651252E+02  0.00000000000E+00 0.  1.
         14    1    3    3    0    0  0.29349491184E+02 -0.15190374248E+02 -0.40137775576E+02  0.51992125661E+02  0.00000000000E+00 0. -1.
        -13    1    4    4    0    0  0.56614322193E+02 -0.19726825502E+02 -0.50714775465E+01  0.60166843081E+02  0.00000000000E+00 0.  1.
         13    1    4    4    0    0 -0.58803513997E+01 -0.89035599466E+02  0.13847015481E+02  0.90297598764E+02  0.00000000000E+00 0. -1.
          1    1    1    2  501    0 -0.64190189806E+02  0.15365033737E+03 -0.51623134808E+02  0.17433804716E+03  0.00000000000E+00 0. -1.
<scales pt_clust_5="13000.00000" pt_clust_6="13000.00000" pt_clust_7="13000.00000" pt_clust_8="13000.00000" pt_clust_9="166.51977"></scales>
<clustering>
<clus scale="   80.474">  5  6 -1 -1</clus>
<clus scale="   90.329">  7  8 -1 -1</clus>
<clus scale="   91.543">  5  7 -1 -1</clus>
<clus scale="  166.520">  1  9  2 -1</clus>
<clus scale="  166.520">  1  5  2 -1</clus>
</clustering>
</event>
<event>
 9    2  0.1592151E-004  0.1208456E+03  0.7546771E-02  0.1246872E+00
         21   -1    0    0  501  502  0.00000000000E+00  0.00000000000E+00  0.38118744583E+02  0.38118744583E+02  0.00000000000E+00 0.  1.
          2   -1    0    0  502    0 -0.00000000000E+00 -0.00000000000E+00 -0.76065797431E+03  0.76065797431E+03  0.00000000000E+00 0. -1.
         24    2    1    2    0    0 -0.40879060065E+02 -0.93417319073E+02 -0.25626526914E+03  0.28631015603E+03  0.76835696282E+02 0.  0.
         23    2    1    2    0    0  0.64793599085E+01  0.43901603611E+02 -0.10845554973E+03  0.14960410877E+03  0.93002420331E+02 0.  0.
        -13    1    3    3    0    0  0.53891986525E+01 -0.47734322117E+02 -0.47115251545E+02  0.67286372307E+02  0.00000000000E+00 0.  1.
         14    1    3    3    0    0 -0.46268258717E+02 -0.45682996956E+02 -0.20915001760E+03  0.21902378372E+03  0.00000000000E+00 0. -1.
        -13    1    4    4    0    0  0.26278696550E+02  0.40065141463E+02 -0.11795205538E+03  0.12731250064E+03  0.00000000000E+00 0. -1.
         13    1    4    4    0    0 -0.19799336642E+02  0.38364621479E+01  0.94965056431E+01  0.22291608122E+02  0.00000000000E+00 0.  1.
          1    1    1    2  501    0  0.34399700156E+02  0.49515715462E+02 -0.35781841085E+03  0.36286245409E+03  0.00000000000E+00 0. -1.
<scales pt_clust_5="13000.00000" pt_clust_6="13000.00000" pt_clust_7="13000.00000" pt_clust_8="13000.00000" pt_clust_9="60.29220"></scales>
<clustering>
<clus scale="   60.292">  1  9  2 -1</clus>
<clus scale="   76.836">  5  6 -1 -1</clus>
<clus scale="   93.002">  7  8 -1 -1</clus>
<clus scale="  108.894">  2  5  1 -1</clus>
<clus scale="   60.292">  1  5  2 -1</clus>
</clustering>
</event>
<event>
 9    2  0.1592151E-004  0.1238704E+03  0.7546771E-02  0.1240444E+00
          4   -1    0    0  502    0 -0.00000000000E+00  0.00000000000E+00  0.69417015467E+03  0.69417015467E+03  0.00000000000E+00 0. -1.
         21   -1    0    0  501  502  0.00000000000E+00 -0.00000000000E+00 -0.34843528591E+03  0.34843528591E+03  0.00000000000E+00 0.  1.
         23    2    1    2    0    0  0.78119993777E+02  0.30077936097E+02  0.61614347718E+03  0.62859947643E+03  0.92179724578E+02 0.  0.
         24    2    1    2    0    0 -0.98488603143E+02  0.77968062170E+02 -0.33268096798E+02  0.15261652244E+03  0.80037572369E+02 0.  0.
        -13    1    4    4    0    0 -0.52633378731E+02  0.71062500007E+02 -0.52018727343E+02  0.10259678094E+03  0.00000000000E+00 0.  1.
         14    1    4    4    0    0 -0.45855224413E+02  0.69055621628E+01  0.18750630546E+02  0.50019741509E+02  0.00000000000E+00 0. -1.
        -13    1    3    3    0    0  0.90976221465E+02  0.47299194713E+02  0.52893155682E+03  0.53877869158E+03  0.00000000000E+00 0. -1.
         13    1    3    3    0    0 -0.12856227688E+02 -0.17221258617E+02  0.87211920357E+02  0.89820784850E+02  0.00000000000E+00 0.  1.
          3    1    1    2  501    0  0.20368609366E+02 -0.10804599827E+03 -0.23714051162E+03  0.26138944172E+03  0.00000000000E+00 0. -1.
<scales pt_clust_5="13000.00000" pt_clust_6="13000.00000" pt_clust_7="13000.00000" pt_clust_8="13000.00000" pt_clust_9="109.94916"></scales>
<clustering>
<clus scale="   80.038">  5  6 -1 -1</clus>
<clus scale="   92.180">  7  8 -1 -1</clus>
<clus scale="  109.949">  2  9  1 -1</clus>
<clus scale="  115.121">  2  5  1 -1</clus>
<clus scale="  109.949">  2  5  1 -1</clus>
</clustering>
</event>
<event>
 9    2  0.1592151E-004  0.9603255E+02  0.7546771E-02  0.1295718E+00
          2   -1    0    0  502    0 -0.00000000000E+00  0.00000000000E+00  0.89128739303E+03  0.89128739303E+03  0.00000000000E+00 0. -1.
         21   -1    0    0  501  502  0.00000000000E+00 -0.00000000000E+00 -0.19449684692E+02  0.19449684692E+02  0.00000000000E+00 0.  1.
         24    2    1    2    0    0  0.26364848092E+02  0.42628701645E+01  0.57119302304E+03  0.57725561110E+03  0.79052474358E+02 0.  0.
         23    2    1    2    0    0 -0.42726360911E+02 -0.20843818325E+02  0.15542648565E+03  0.18640681737E+03  0.91269394874E+02 0.  0.
        -13    1    3    3    0    0 -0.13393346897E+02 -0.27564943560E+02  0.15883834760E+03  0.16176782289E+03  0.00000000000E+00 0.  1.
         14    1    3    3    0    0  0.39758194989E+02  0.31827813724E+02  0.41235467544E+03  0.41548778821E+03  0.00000000000E+00 0. -1.
        -13    1    4    4    0    0 -0.68941854734E+02 -0.69294524608E+01  0.82906035657E+02  0.10804817164E+03  0.00000000000E+00 0.  1.
         13    1    4    4    0    0  0.26215493823E+02 -0.13914365864E+02  0.72520449990E+02  0.78358645729E+02  0.00000000000E+00 0. -1.
          1    1    1    2  501    0  0.16361512819E+02  0.16580948160E+02  0.14521819965E+03  0.14707464925E+03  0.00000000000E+00 0. -1.
<scales pt_clust_5="13000.00000" pt_clust_6="13000.00000" pt_clust_7="13000.00000" pt_clust_8="13000.00000" pt_clust_9="23.29437"></scales>
<clustering>
<clus scale="   23.294">  2  9  1 -1</clus>
<clus scale="   79.052">  5  6 -1 -1</clus>
<clus scale="   84.507">  1  5  2 -1</clus>
<clus scale="   91.269">  7  8 -1 -1</clus>
<clus scale="   23.294">  2  5  1 -1</clus>
</clustering>
</event>
<event>
 9    2  0.1592151E-004  0.1655668E+03  0.7546771E-02  0.1211665E+00
          2   -1    0    0  502    0 -0.00000000000E+00  0.00000000000E+00  0.42985223827E+03  0.42985223827E+03  0.00000000000E+00 0. -1.
         21   -1    0    0  501  502  0.00000000000E+00 -0.00000000000E+00 -0.18761749982E+03  0.18761749982E+03  0.00000000000E+00 0. -1.
         23    2    1    2    0    0  0.86628857378E+01 -0.15108395447E+02 -0.57658947644E+02  0.10494974126E+03  0.85945242707E+02 0.  0.
         24    2    1    2    0    0 -0.13801997882E+03 -0.50725905276E+02  0.32478904385E+03  0.36525427943E+03  0.79373381035E+02 0.  0.
        -13    1    4    4    0    0 -0.37353756170E+02 -0.23286167650E+02  0.31973529800E+02  0.54404552307E+02  0.00000000000E+00 0.  1.
         14    1    4    4    0    0 -0.10066622265E+03 -0.27439737625E+02  0.29281551405E+03  0.31084972713E+03  0.00000000000E+00 0. -1.
        -11    1    3    3    0    0 -0.34474656159E+02  0.56445084853E+01 -0.41900209102E+02  0.54552634365E+02  0.00000000000E+00 0. -1.
         11    1    3    3    0    0  0.43137541897E+02 -0.20752903933E+02 -0.15758738542E+02  0.50397106891E+02  0.00000000000E+00 0.  1.
          1    1    1    2  501    0  0.12935709308E+03  0.65834300723E+02 -0.24895357769E+02  0.14726571740E+03  0.00000000000E+00 0. -1.
<scales pt_clust_5="13000.00000" pt_clust_6="13000.00000" pt_clust_7="13000.00000" pt_clust_8="13000.00000" pt_clust_9="145.30051"></scales>
<clustering>
<clus scale="   79.373">  5  6 -1 -1</clus>
<clus scale="   85.945">  7  8 -1 -1</clus>
<clus scale="   87.692">  1  7  2 -1</clus>
<clus scale="  145.301">  2  9  1 -1</clus>
<clus scale="  145.301">  2  5  1 -1</clus>
</clustering>
</event>
<event>
 9    2  0.1592151E-004  0.1185286E+03  0.7546771E-02  0.1256112E+00
          2   -1    0    0  502    0 -0.00000000000E+00  0.00000000000E+00  0.64010963054E+03  0.64010963054E+03  0.00000000000E+00 0. -1.
         21   -1    0    0  501  502  0.00000000000E+00 -0.00000000000E+00 -0.56723456394E+02  0.56723456394E+02  0.00000000000E+00 0. -1.
         24    2    1    2    0    0  0.20840487301E+02 -0.59477320969E+02  0.48734090650E+03  0.49741438816E+03  0.77123516436E+02 0.  0.
         23    2    1    2    0    0  0.32218514385E+02  0.26852343040E+02  0.54460953451E+02  0.12452609545E+03  0.10383483039E+03 0.  0.
        -11    1    3    3    0    0  0.17900508834E+00 -0.41447893647E+02  0.89523662985E+02  0.98653160947E+02  0.00000000000E+00 0.  1.
         12    1    3    3    0    0  0.20661482213E+02 -0.18029427322E+02  0.39781724351E+03  0.39876122722E+03  0.00000000000E+00 0. -1.
        -13    1    4    4    0    0  0.62875453718E+02  0.19690971790E+02  0.63773077247E+02  0.91695487522E+02  0.00000000000E+00 0.  1.
         13    1    4    4    0    0 -0.30656939333E+02  0.71613712494E+01 -0.93121237964E+01  0.32830607930E+02  0.00000000000E+00 0. -1.
          1    1    1    2  501    0 -0.53059001686E+02  0.32624977929E+02  0.41584314203E+02  0.74892603323E+02  0.00000000000E+00 0. -1.
<scales pt_clust_5="13000.00000" pt_clust_6="13000.00000" pt_clust_7="13000.00000" pt_clust_8="13000.00000" pt_clust_9="62.28681"></scales>
<clustering>
<clus scale="   62.287">  2  9  1 -1</clus>
<clus scale="   77.124">  5  6 -1 -1</clus>
<clus scale="   95.997">  1  5  2 -1</clus>
<clus scale="  103.835">  7  8 -1 -1</clus>
<clus scale="   62.287">  2  5  1 -1</clus>
</clustering>
</event>
<event>
 9    2  0.1592151E-004  0.1326561E+03  0.7546771E-02  0.1236471E+00
         21   -1    0    0  501  502  0.00000000000E+00  0.00000000000E+00  0.67956043278E+03  0.67956043278E+03  0.00000000000E+00 0.  1.
          2   -1    0    0  502    0 -0.00000000000E+00 -0.00000000000E+00 -0.75890827871E+02  0.75890827871E+02  0.00000000000E+00 0. -1.
         23    2    1    2    0    0  0.13952466345E+01  0.42217637769E+02 -0.31315668313E+01  0.10167529368E+03  0.92432586145E+02 0.  0.
         24    2    1    2    0    0 -0.10711874750E+03 -0.34617263431E+02  0.33762046425E+03  0.36447771670E+03  0.78636169144E+02 0.  0.
        -13    1    4    4    0    0 -0.75035287991E+02  0.15080021051E+02  0.21768955523E+03  0.23075190992E+03  0.00000000000E+00 0.  1.
         14    1    4    4    0    0 -0.32083459510E+02 -0.49697284482E+02  0.11993090903E+03  0.13372580678E+03  0.00000000000E+00 0. -1.
        -11    1    3    3    0    0 -0.65391810334E+01 -0.25333649927E+02  0.16439322183E+02  0.30899935616E+02  0.00000000000E+00 0.  1.
         11    1    3    3    0    0  0.79344276679E+01  0.67551287697E+02 -0.19570889014E+02  0.70775358061E+02  0.00000000000E+00 0. -1.
          1    1    1    2  501    0  0.10572350087E+03 -0.76003743385E+01  0.26918070749E+03  0.28929825027E+03  0.00000000000E+00 0. -1.
<scales pt_clust_5="13000.00000" pt_clust_6="13000.00000" pt_clust_7="13000.00000" pt_clust_8="13000.00000" pt_clust_9="106.83627"></scales>
<clustering>
<clus scale="   78.636">  5  6 -1 -1</clus>
<clus scale="   92.433">  7  8 -1 -1</clus>
<clus scale="  101.627">  2  7  1 -1</clus>
<clus scale="  106.836">  1  9  2 -1</clus>
<clus scale="  106.836">  1  5  2 -1</clus>
</clustering>
</event>
<event>
 9    2  0.1592151E-004  0.1817792E+03  0.7546771E-02  0.1201130E+00
          2   -1    0    0  502    0 -0.00000000000E+00  0.00000000000E+00  0.92284322030E+03  0.92284322030E+03  0.00000000000E+00 0. -1.
         21   -1    0    0  501  502  0.00000000000E+00 -0.00000000000E+00 -0.80316811419E+02  0.80316811419E+02  0.00000000000E+00 0. -1.
         24    2    1    2    0    0  0.61161022681E+01  0.18042368590E+02  0.53883156601E+03  0.54520022623E+03  0.80875808359E+02 0.  0.
         23    2    1    2    0    0 -0.10698452775E+03  0.10874769669E+03  0.13108302082E+03  0.22122155124E+03  0.92111159332E+02 0.  0.
        -11    1    3    3    0    0 -0.73446726346E+01 -0.30082789914E+02  0.14939800314E+03  0.15257352918E+03  0.00000000000E+00 0.  1.
         12    1    3    3    0    0  0.13460774903E+02  0.48125158504E+02  0.38943356288E+03  0.39262669705E+03  0.00000000000E+00 0. -1.
        -11    1    4    4    0    0 -0.60791956430E+02  0.30064615614E+02  0.10729364285E+03  0.12693096106E+03  0.00000000000E+00 0.  1.
         11    1    4    4    0    0 -0.46192571317E+02  0.78683081079E+02  0.23789377965E+02  0.94290590182E+02  0.00000000000E+00 0. -1.
          1    1    1    2  501    0  0.10086842548E+03 -0.12679006528E+03  0.17261182205E+03  0.23673825425E+03  0.00000000000E+00 0. -1.
<scales pt_clust_5="13000.00000" pt_clust_6="13000.00000" pt_clust_7="13000.00000" pt_clust_8="13000.00000" pt_clust_9="156.71381"></scales>
<clustering>
<clus scale="   80.876">  5  6 -1 -1</clus>
<clus scale="   83.089">  1  5  2 -1</clus>
<clus scale="   92.111">  7  8 -1 -1</clus>
<clus scale="  156.714">  2  9  1 -1</clus>
<clus scale="  156.714">  2  5  1 -1</clus>
</clustering>
</event>
<event>
 9    2  0.1592151E-004  0.3415466E+03  0.7546771E-02  0.1066139E+00
          2   -1    0    0  502    0 -0.00000000000E+00  0.00000000000E+00  0.17592701714E+03  0.17592701714E+03  0.00000000000E+00 0. -1.
         21   -1    0    0  501  502  0.00000000000E+00 -0.00000000000E+00 -0.54241377541E+03  0.54241377541E+03  0.00000000000E+00 0.  1.
         24    2    1    2    0    0  0.17297911936E+03  0.55029343838E+02 -0.18365642150E+03  0.27083500395E+03  0.81681783694E+02 0.  0.
         23    2    1    2    0    0  0.92424825489E+02  0.18249550270E+02 -0.38871143449E+02  0.13680770427E+03  0.91268766303E+02 0.  0.
        -13    1    3    3    0    0  0.18057889821E+03  0.47262570608E+02 -0.18015291960E+03  0.25941773937E+03  0.00000000000E+00 0.  1.
         14    1    3    3    0    0 -0.75997788491E+01  0.77667732298E+01 -0.35035019065E+01  0.11417264583E+02  0.00000000000E+00 0. -1.
        -11    1    4    4    0    0  0.71867203096E+02  0.51257070915E+02 -0.42079061234E+02  0.97789721311E+02  0.00000000000E+00 0.  1.
         11    1    4    4    0    0  0.20557622393E+02 -0.33007520645E+02  0.32079177852E+01  0.39017982958E+02  0.00000000000E+00 0. -1.
          1    1    1    2  501    0 -0.26540394485E+03 -0.73278894108E+02 -0.14395919332E+03  0.31069808433E+03  0.00000000000E+00 0. -1.
<scales pt_clust_5="13000.00000" pt_clust_6="13000.00000" pt_clust_7="13000.00000" pt_clust_8="13000.00000" pt_clust_9="275.33457"></scales>
<clustering>
<clus scale="   81.682">  5  6 -1 -1</clus>
<clus scale="   91.269">  7  8 -1 -1</clus>
<clus scale="  111.606">  5  7 -1 -1</clus>
<clus scale="  275.335">  2  9  1 -1</clus>
<clus scale="  275.335">  2  5  1 -1</clus>
</clustering>
</event>
<event>
 9    2  0.1592151E-004  0.3149153E+03  0.7546771E-02  0.1104434E+00
          2   -1    0    0  502    0 -0.00000000000E+00  0.00000000000E+00  0.21733062033E+04  0.21733062033E+04  0.00000000000E+00 0. -1.
         21   -1    0    0  501  502  0.00000000000E+00 -0.00000000000E+00 -0.94274324053E+02  0.94274324053E+02  0.00000000000E+00 0. -1.
         23    2    1    2    0    0  0.96951218256E+02  0.82853174530E+02  0.75668253520E+03  0.77277061889E+03  0.91333362464E+02 0.  0.
         24    2    1    2    0    0  0.96354307499E+02 -0.30196867399E+03  0.34787690082E+03  0.47747261385E+03  0.80576213686E+02 0.  0.
        -11    1    4    4    0    0  0.19635246774E+02 -0.18637627064E+03  0.21732528836E+03  0.28697027396E+03  0.00000000000E+00 0.  1.
         12    1    4    4    0    0  0.76719060725E+02 -0.11559240334E+03  0.13055161245E+03  0.19050233989E+03  0.00000000000E+00 0. -1.
        -13    1    3    3    0    0 -0.11672262281E+02  0.32077012398E+02  0.11409374120E+03  0.11909054627E+03  0.00000000000E+00 0. -1.
         13    1    3    3    0    0  0.10862348054E+03  0.50776162131E+02  0.64258879400E+03  0.65368007262E+03  0.00000000000E+00 0.  1.
          1    1    1    2  501    0 -0.19330552575E+03  0.21911549946E+03  0.97447244326E+03  0.10173372946E+04  0.00000000000E+00 0. -1.
<scales pt_clust_5="13000.00000" pt_clust_6="13000.00000" pt_clust_7="13000.00000" pt_clust_8="13000.00000" pt_clust_9="304.43265"></scales>
<clustering>
<clus scale="   80.576">  5  6 -1 -1</clus>
<clus scale="   91.333">  7  8 -1 -1</clus>
<clus scale="  156.863">  1  7  2 -1</clus>
<clus scale="  304.433">  2  9  1 -1</clus>
<clus scale="  304.433">  2  5  1 -1</clus>
</clustering>
</event>
<event>
 9    2  0.1592151E-004  0.1340216E+03  0.7546771E-02  0.1234555E+00
         21   -1    0    0  501  502  0.00000000000E+00  0.00000000000E+00  0.25174288888E+03  0.25174288888E+03  0.00000000000E+00 0.  1.
         -1   -1    0    0    0  501 -0.00000000000E+00 -0.00000000000E+00 -0.31436241267E+03  0.31436241267E+03  0.00000000000E+00 0.  1.
         23    2    1    2    0    0  0.15861808351E+02  0.45675475843E+02 -0.23057467386E+03  0.25232791063E+03  0.90370615801E+02 0.  0.
         24    2    1    2    0    0  0.29641334424E+02  0.64576626762E+02  0.79800793748E-01  0.10784488977E+03  0.81128074373E+02 0.  0.
        -11    1    4    4    0    0  0.52702329516E+02  0.64744147125E+02 -0.68540027420E+01  0.83763461467E+02  0.00000000000E+00 0.  1.
         12    1    4    4    0    0 -0.23060995093E+02 -0.16752036298E+00  0.69338035358E+01  0.24081428305E+02  0.00000000000E+00 0. -1.
        -11    1    3    3    0    0  0.36513195649E+02  0.13686614836E+02 -0.19922952435E+03  0.20300970483E+03  0.00000000000E+00 0. -1.
         11    1    3    3    0    0 -0.20651387299E+02  0.31988861007E+02 -0.31345149516E+02  0.49318205808E+02  0.00000000000E+00 0.  1.
         -2    1    1    2    0  502 -0.45503142774E+02 -0.11025210261E+03  0.16787534928E+03  0.20593250115E+03  0.00000000000E+00 0.  1.
<scales pt_clust_5="13000.00000" pt_clust_6="13000.00000" pt_clust_7="13000.00000" pt_clust_8="13000.00000" pt_clust_9="106.67725"></scales>
<clustering>
<clus scale="   81.128">  5  6 -1 -1</clus>
<clus scale="   90.371">  7  8 -1 -1</clus>
<clus scale="  102.492">  2  7  1 -1</clus>
<clus scale="  106.677">  1  9  2 -1</clus>
<clus scale="  106.677">  1  5  2 -1</clus>
</clustering>
</event>
<event>
 9    2  0.1592151E-004  0.1807822E+03  0.7546771E-02  0.1168833E+00
         -3   -1    0    0    0  501 -0.00000000000E+00  0.00000000000E+00  0.83925490209E+02  0.83925490209E+02  0.00000000000E+00 0.  1.
         21   -1    0    0  501  502  0.00000000000E+00 -0.00000000000E+00 -0.65997547169E+03  0.65997547169E+03  0.00000000000E+00 0.  1.
         24    2    1    2    0    0 -0.19884095107E+03 -0.10729264045E+02 -0.16500627937E+03  0.26895087572E+03  0.73855672686E+02 0.  0.
         23    2    1    2    0    0  0.10842978593E+03  0.28630534855E+02 -0.21767985416E+03  0.26074408259E+03  0.89589238738E+02 0.  0.
        -11    1    3    3    0    0 -0.12102141864E+03 -0.40873814809E+02 -0.11353394240E+03  0.17089999586E+03  0.00000000000E+00 0.  1.
         12    1    3    3    0    0 -0.77819532428E+02  0.30144550764E+02 -0.51472336972E+02  0.98050879861E+02  0.00000000000E+00 0. -1.
        -13    1    4    4    0    0  0.32396840729E+02  0.34022239811E+02 -0.24317051433E+02  0.52899783378E+02  0.00000000000E+00 0.  1.
         13    1    4    4    0    0  0.76032945200E+02 -0.53917049564E+01 -0.19336280273E+03  0.20784429922E+03  0.00000000000E+00 0. -1.
         -4    1    1    2    0  502  0.90411165142E+02 -0.17901270810E+02 -0.19336384795E+03  0.21420600359E+03  0.00000000000E+00 0.  1.
<scales pt_clust_5="13000.00000" pt_clust_6="13000.00000" pt_clust_7="13000.00000" pt_clust_8="13000.00000" pt_clust_9="92.16634"></scales>
<clustering>
<clus scale="   73.856">  5  6 -1 -1</clus>
<clus scale="   89.589">  7  8 -1 -1</clus>
<clus scale="   92.166">  2  9  1 -1</clus>
<clus scale="  173.524">  1  5  2 -1</clus>
<clus scale="   92.166">  2  5  1 -1</clus>
</clustering>
</event>
<event>
 9    2  0.1592151E-004  0.1008967E+03  0.7546771E-02  0.1284268E+00
         21   -1    0    0  501  502  0.00000000000E+00  0.00000000000E+00  0.51513340436E+02  0.51513340436E+02  0.00000000000E+00 0. -1.
         -1   -1    0    0    0  501 -0.00000000000E+00 -0.00000000000E+00 -0.33294881579E+03  0.33294881579E+03  0.00000000000E+00 0.  1.
         24    2    1    2    0    0  0.36577944134E+02  0.27423356065E+02 -0.18037071535E+03  0.20243345445E+03  0.79722782630E+02 0.  0.
         23    2    1    2    0    0 -0.45075086800E+02  0.13293802839E+02 -0.45257322718E+02  0.11242583891E+03  0.91557934397E+02 0.  0.
        -11    1    3    3    0    0  0.60883490737E+02  0.93579369482E+01 -0.11902067490E+03  0.13401601203E+03  0.00000000000E+00 0.  1.
         12    1    3    3    0    0 -0.24305546603E+02  0.18065419117E+02 -0.61350040452E+02  0.68417442418E+02  0.00000000000E+00 0. -1.
        -13    1    4    4    0    0 -0.46327549643E+02 -0.16723473205E+02  0.93183202986E+01  0.50127312965E+02  0.00000000000E+00 0. -1.
         13    1    4    4    0    0  0.12524628426E+01  0.30017276044E+02 -0.54575643016E+02  0.62298525945E+02  0.00000000000E+00 0.  1.
         -2    1    1    2    0  502  0.84971426660E+01 -0.40717158904E+02 -0.55807437293E+02  0.69602862872E+02  0.00000000000E+00 0.  1.
<scales pt_clust_5="13000.00000" pt_clust_6="13000.00000" pt_clust_7="13000.00000" pt_clust_8="13000.00000" pt_clust_9="41.59435"></scales>
<clustering>
<clus scale="   41.594">  1  9  2 -1</clus>
<clus scale="   79.723">  5  6 -1 -1</clus>
<clus scale="   90.294">  2  5  1 -1</clus>
<clus scale="   91.558">  7  8 -1 -1</clus>
<clus scale="   41.594">  1  5  2 -1</clus>
</clustering>
</event>
<event>
 9    2  0.1592151E-004  0.1456793E+03  0.7546771E-02  0.1207805E+00
         21   -1    0    0  501  502  0.00000000000E+00  0.00000000000E+00  0.31308508464E+03  0.31308508464E+03  0.00000000000E+00 0. -1.
          2   -1    0    0  502    0 -0.00000000000E+00 -0.00000000000E+00 -0.14070488113E+03  0.14070488113E+03  0.00000000000E+00 0. -1.
         24    2    1    2    0    0 -0.39494809091E+02 -0.12135664799E+03  0.91136815481E+01  0.15146797006E+03  0.81069172964E+02 0.  0.
         23    2    1    2    0    0 -0.38834170676E+02  0.10551863768E+03  0.31068572386E+02  0.14784685365E+03  0.90835897277E+02 0.  0.
        -11    1    3    3    0    0 -0.44613480574E+01 -0.78133400111E+02 -0.29616284396E+02  0.83677094481E+02  0.00000000000E+00 0.  1.
         12    1    3    3    0    0 -0.35033461034E+02 -0.43223247877E+02  0.38729965944E+02  0.67790875574E+02  0.00000000000E+00 0. -1.
        -11    1    4    4    0    0 -0.16683249654E+02 -0.14167493864E+02 -0.12110345773E+01  0.21920659346E+02  0.00000000000E+00 0.  1.
         11    1    4    4    0    0 -0.22150921022E+02  0.11968613155E+03  0.32279606963E+02  0.12592619430E+03  0.00000000000E+00 0. -1.
          1    1    1    2  501    0  0.78328979767E+02  0.15838010307E+02  0.13219794958E+03  0.15447514206E+03  0.00000000000E+00 0. -1.
<scales pt_clust_5="13000.00000" pt_clust_6="13000.00000" pt_clust_7="13000.00000" pt_clust_8="13000.00000" pt_clust_9="79.91415"></scales>
<clustering>
<clus scale="   79.914">  1  9  2 -1</clus>
<clus scale="   81.069">  5  6 -1 -1</clus>
<clus scale="   90.836">  7  8 -1 -1</clus>
<clus scale="  139.798">  2  5  1 -1</clus>
<clus scale="   79.914">  1  5  2 -1</clus>
</clustering>
</event>
<event>
 9    2  0.1592151E-004  0.2825752E+03  0.7546771E-02  0.1094904E+00
          2   -1    0    0  502    0 -0.00000000000E+00  0.00000000000E+00  0.62252846993E+03  0.62252846993E+03  0.00000000000E+00 0. -1.
         21   -1    0    0  501  502  0.00000000000E+00 -0.00000000000E+00 -0.10319884092E+04  0.10319884092E+04  0.00000000000E+00 0.  1.
         23    2    1    2    0    0 -0.23274627221E+03 -0.13478564149E+03  0.50348375983E+02  0.28949084030E+03  0.94509212640E+02 0.  0.
         24    2    1    2    0    0  0.25750759438E+03  0.42839412366E+02 -0.88662626778E+03  0.92771516908E+03  0.80024495022E+02 0.  0.
        -11    1    4    4    0    0  0.12983541833E+03  0.54866564617E+02 -0.54117770839E+03  0.55923240949E+03  0.00000000000E+00 0.  1.
         12    1    4    4    0    0  0.12767217605E+03 -0.12027152252E+02 -0.34544855939E+03  0.36848275959E+03  0.00000000000E+00 0. -1.
        -11    1    3    3    0    0 -0.86999164344E+02 -0.56421063406E+02 -0.26519374361E+02  0.10703022101E+03  0.00000000000E+00 0.  1.
         11    1    3    3    0    0 -0.14574710787E+03 -0.78364578086E+02  0.76867750344E+02  0.18246061930E+03  0.00000000000E+00 0. -1.
          1    1    1    2  501    0 -0.24761322162E+02  0.91946229126E+02  0.42681795257E+03  0.43731086970E+03  0.00000000000E+00 0. -1.
<scales pt_clust_5="13000.00000" pt_clust_6="13000.00000" pt_clust_7="13000.00000" pt_clust_8="13000.00000" pt_clust_9="95.22206"></scales>
<clustering>
<clus scale="   80.024">  5  6 -1 -1</clus>
<clus scale="   94.509">  7  8 -1 -1</clus>
<clus scale="   95.222">  2  9  1 -1</clus>
<clus scale="  278.066">  2  5  1 -1</clus>
<clus scale="   95.222">  2  5  1 -1</clus>
</clustering>
</event>
<event>
 9    2  0.1592151E-004  0.1539926E+03  0.7546771E-02  0.1197448E+00
         21   -1    0    0  501  502  0.00000000000E+00  0.00000000000E+00  0.44697739109E+02  0.44697739109E+02  0.00000000000E+00 0. -1.
          2   -1    0    0  502    0 -0.00000000000E+00 -0.00000000000E+00 -0.74886596939E+03  0.74886596939E+03  0.00000000000E+00 0. -1.
         23    2    1    2    0    0  0.14991832399E+03  0.66900318746E+01 -0.43439882031E+03  0.46845517428E+03  0.90706421116E+02 0.  0.
         24    2    1    2    0    0 -0.94533949166E+02 -0.16811355394E+02 -0.18417165537E+03  0.22265441884E+03  0.80227815461E+02 0.  0.
        -13    1    4    4    0    0 -0.76349006600E+02 -0.27152527176E+02 -0.71533574070E+02  0.10809016033E+03  0.00000000000E+00 0.  1.
         14    1    4    4    0    0 -0.18184942566E+02  0.10341171782E+02 -0.11263808130E+03  0.11456425851E+03  0.00000000000E+00 0. -1.
        -11    1    3    3    0    0  0.14884070033E+03 -0.18294773232E+02 -0.36079526326E+03  0.39071917638E+03  0.00000000000E+00 0. -1.
         11    1    3    3    0    0  0.10776236555E+01  0.24984805107E+02 -0.73603557052E+02  0.77735997901E+02  0.00000000000E+00 0.  1.
          1    1    1    2  501    0 -0.55384374820E+02  0.10121323519E+02 -0.85597754597E+02  0.10245411537E+03  0.00000000000E+00 0. -1.
<scales pt_clust_5="13000.00000" pt_clust_6="13000.00000" pt_clust_7="13000.00000" pt_clust_8="13000.00000" pt_clust_9="56.30160"></scales>
<clustering>
<clus scale="   56.302">  1  9  2 -1</clus>
<clus scale="   80.228">  5  6 -1 -1</clus>
<clus scale="   90.706">  7  8 -1 -1</clus>
<clus scale="  148.063">  1  5  2 -1</clus>
<clus scale="   56.302">  1  5  2 -1</clus>
</clustering>
</event>
<event>
 9    2  0.1592151E-004  0.1000824E+03  0.7546771E-02  0.1288108E+00
         21   -1    0    0  501  502  0.00000000000E+00  0.00000000000E+00  0.14793473095E+03  0.14793473095E+03  0.00000000000E+00 0. -1.
          4   -1    0    0  502    0 -0.00000000000E+00 -0.00000000000E+00 -0.44684846772E+03  0.44684846772E+03  0.00000000000E+00 0. -1.
         23    2    1    2    0    0 -0.48066389015E+02 -0.76506478206E+01 -0.38843183044E+03  0.40213755220E+03  0.92013117694E+02 0.  0.
         24    2    1    2    0    0 -0.54187310975E+01  0.12190940958E+01 -0.12059086961E+02  0.77667619950E+02  0.76524432525E+02 0.  0.
        -13    1    4    4    0    0 -0.55190587294E+00  0.32503862528E+02  0.15201955779E+02  0.35887395264E+02  0.00000000000E+00 0.  1.
         14    1    4    4    0    0 -0.48668252246E+01 -0.31284768432E+02 -0.27261042739E+02  0.41780224686E+02  0.00000000000E+00 0. -1.
        -13    1    3    3    0    0 -0.35491248201E+02  0.40776916264E+02 -0.20138691428E+03  0.20851636588E+03  0.00000000000E+00 0.  1.
         13    1    3    3    0    0 -0.12575140814E+02 -0.48427564085E+02 -0.18704491616E+03  0.19362118631E+03  0.00000000000E+00 0. -1.
          3    1    1    2  501    0  0.53485120113E+02  0.64315537248E+01  0.10157718063E+03  0.11497802652E+03  0.00000000000E+00 0. -1.
<scales pt_clust_5="13000.00000" pt_clust_6="13000.00000" pt_clust_7="13000.00000" pt_clust_8="13000.00000" pt_clust_9="53.87043"></scales>
<clustering>
<clus scale="   53.870">  1  9  2 -1</clus>
<clus scale="   76.524">  5  6 -1 -1</clus>
<clus scale="   86.058">  1  5  2 -1</clus>
<clus scale="   92.013">  7  8 -1 -1</clus>
<clus scale="   53.870">  1  5  2 -1</clus>
</clustering>
</event>
<event>
 9    2  0.1592151E-004  0.1711147E+03  0.7546771E-02  0.1178530E+00
          2   -1    0    0  502    0 -0.00000000000E+00  0.00000000000E+00  0.16250671599E+04  0.16250671599E+04  0.00000000000E+00 0. -1.
         21   -1    0    0  501  502  0.00000000000E+00 -0.00000000000E+00 -0.67286462961E+02  0.67286462961E+02  0.00000000000E+00 0.  1.
         24    2    1    2    0    0  0.12138919056E+03  0.78656307777E+02  0.14148979632E+04  0.14243088033E+04  0.76139151426E+02 0.  0.
         23    2    1    2    0    0 -0.14678832995E+03 -0.58332010249E+02  0.83057382420E+02  0.19994734528E+03  0.90171918469E+02 0.  0.
        -11    1    3    3    0    0  0.48621092397E+02  0.17164710341E+01  0.25597613340E+03  0.26055851122E+03  0.00000000000E+00 0.  1.
         12    1    3    3    0    0  0.72768098165E+02  0.76939836743E+02  0.11589218298E+04  0.11637502921E+04  0.00000000000E+00 0. -1.
        -11    1    4    4    0    0 -0.12073636634E+03 -0.56525585345E+01  0.70242523916E+02  0.13979711636E+03  0.00000000000E+00 0. -1.
         11    1    4    4    0    0 -0.26051963604E+02 -0.52679451714E+02  0.12814858504E+02  0.60150228919E+02  0.00000000000E+00 0.  1.
          1    1    1    2  501    0  0.25399139385E+02 -0.20324297529E+02  0.59825351296E+02  0.68097474323E+02  0.00000000000E+00 0. -1.
<scales pt_clust_5="13000.00000" pt_clust_6="13000.00000" pt_clust_7="13000.00000" pt_clust_8="13000.00000" pt_clust_9="32.52988"></scales>
<clustering>
<clus scale="   32.530">  2  9  1 -1</clus>
<clus scale="   76.139">  5  6 -1 -1</clus>
<clus scale="   90.172">  7  8 -1 -1</clus>
<clus scale="  164.154">  1  5  2 -1</clus>
<clus scale="   32.530">  2  5  1 -1</clus>
</clustering>
</event>
<event>
 9    2  0.1592151E-004  0.2433121E+03  0.7546771E-02  0.1159331E+00
         21   -1    0    0  501  502  0.00000000000E+00  0.00000000000E+00  0.11245699949E+04  0.11245699949E+04  0.00000000000E+00 0. -1.
          2   -1    0    0  502    0 -0.00000000000E+00 -0.00000000000E+00 -0.97305884915E+02  0.97305884915E+02  0.00000000000E+00 0. -1.
         24    2    1    2    0    0  0.76538218511E+01  0.33888403369E+02 -0.66292204844E+00  0.88660194569E+02  0.81567062982E+02 0.  0.
         23    2    1    2    0    0 -0.22134341146E+03 -0.73655812935E+02  0.66046699403E+03  0.70628294218E+03  0.90558597801E+02 0.  0.
        -11    1    3    3    0    0 -0.26243359310E+02 -0.39918407850E+00 -0.23573817137E+02  0.35278862088E+02  0.00000000000E+00 0.  1.
         12    1    3    3    0    0  0.33897181161E+02  0.34287587447E+02  0.22910895089E+02  0.53381332481E+02  0.00000000000E+00 0. -1.
        -13    1    4    4    0    0 -0.12939678067E+03  0.40550997888E+01  0.32249525482E+03  0.34750994239E+03  0.00000000000E+00 0. -1.
         13    1    4    4    0    0 -0.91946630791E+02 -0.77710912724E+02  0.33797173921E+03  0.35877299978E+03  0.00000000000E+00 0.  1.
          1    1    1    2  501    0  0.21368958961E+03  0.39767409566E+02  0.36746003801E+03  0.42693274307E+03  0.00000000000E+00 0. -1.
<scales pt_clust_5="13000.00000" pt_clust_6="13000.00000" pt_clust_7="13000.00000" pt_clust_8="13000.00000" pt_clust_9="225.83176"></scales>
<clustering>
<clus scale="   81.567">  5  6 -1 -1</clus>
<clus scale="   88.658">  2  5  1 -1</clus>
<clus scale="   90.559">  7  8 -1 -1</clus>
<clus scale="  225.832">  1  9  2 -1</clus>
<clus scale="  225.832">  1  5  2 -1</clus>
</clustering>
</event>
<event>
 9    2  0.1592151E-004  0.1818434E+03  0.7546771E-02  0.1166283E+00
          2   -1    0    0  502    0 -0.00000000000E+00  0.00000000000E+00  0.31039760564E+03  0.31039760564E+03  0.00000000000E+00 0. -1.
         21   -1    0    0  501  502  0.00000000000E+00 -0.00000000000E+00 -0.36907211339E+03  0.36907211339E+03  0.00000000000E+00 0. -1.
         23    2    1    2    0    0 -0.83320567019E+02 -0.13583015158E+03  0.17102194204E+03  0.24953239452E+03  0.87325622199E+02 0.  0.
         24    2    1    2    0    0  0.17510541441E+03  0.75553968814E+02 -0.24175652676E+03  0.31946958317E+03  0.85113383101E+02 0.  0.
        -11    1    4    4    0    0  0.32642475164E+02  0.50993721723E+02 -0.10063203800E+03  0.11744231738E+03  0.00000000000E+00 0.  1.
         12    1    4    4    0    0  0.14246293924E+03  0.24560247091E+02 -0.14112448876E+03  0.20202726579E+03  0.00000000000E+00 0. -1.
        -13    1    3    3    0    0 -0.61262175949E+01 -0.69556037137E+02  0.30868949305E+02  0.76344383391E+02  0.00000000000E+00 0.  1.
         13    1    3    3    0    0 -0.77194349424E+02 -0.66274114440E+02  0.14015299273E+03  0.17318801113E+03  0.00000000000E+00 0. -1.
          1    1    1    2  501    0 -0.91784847388E+02  0.60276182764E+02  0.12060076970E+02  0.11046774133E+03  0.00000000000E+00 0. -1.
<scales pt_clust_5="13000.00000" pt_clust_6="13000.00000" pt_clust_7="13000.00000" pt_clust_8="13000.00000" pt_clust_9="109.80751"></scales>
<clustering>
<clus scale="   85.113">  5  6 -1 -1</clus>
<clus scale="   87.326">  7  8 -1 -1</clus>
<clus scale="  109.808">  2  9  1 -1</clus>
<clus scale="  180.791">  2  5  1 -1</clus>
<clus scale="  109.808">  2  5  1 -1</clus>
</clustering>
</event>
<event>
 9    2  0.1592151E-004  0.2443504E+03  0.7546771E-02  0.1155635E+00
          2   -1    0    0  502    0 -0.00000000000E+00  0.00000000000E+00  0.34291868974E+03  0.34291868974E+03  0.00000000000E+00 0. -1.
         21   -1    0    0  501  502  0.00000000000E+00 -0.00000000000E+00 -0.26887887736E+03  0.26887887736E+03  0.00000000000E+00 0. -1.
         24    2    1    2    0    0 -0.34222093659E+02 -0.39214594055E+02  0.21630235849E+01  0.95457166657E+02  0.79990348879E+02 0.  0.
         23    2    1    2    0    0 -0.26962685519E+02  0.24806490396E+03  0.12248193678E+03  0.29290604733E+03  0.92352286059E+02 0.  0.
        -11    1    3    3    0    0 -0.56122492913E+02 -0.33060180246E+02  0.18191658972E+02  0.67628737862E+02  0.00000000000E+00 0.  1.
         12    1    3    3    0    0  0.21900399254E+02 -0.61544138085E+01 -0.16028635387E+02  0.27828428795E+02  0.00000000000E+00 0. -1.
        -13    1    4    4    0    0 -0.54979792808E+02  0.11420654191E+03  0.79202647134E+02  0.14946227332E+03  0.00000000000E+00 0. -1.
         13    1    4    4    0    0  0.28017107290E+02  0.13385836205E+03  0.43279289641E+02  0.14344377401E+03  0.00000000000E+00 0.  1.
          1    1    1    2  501    0  0.61184779178E+02 -0.20885030990E+03 -0.50605147975E+02  0.22343435311E+03  0.00000000000E+00 0. -1.
<scales pt_clust_5="13000.00000" pt_clust_6="13000.00000" pt_clust_7="13000.00000" pt_clust_8="13000.00000" pt_clust_9="226.22597"></scales>
<clustering>
<clus scale="   79.990">  5  6 -1 -1</clus>
<clus scale="   92.352">  7  8 -1 -1</clus>
<clus scale="   95.433">  1  5  2 -1</clus>
<clus scale="  226.226">  2  9  1 -1</clus>
<clus scale="  226.226">  2  5  1 -1</clus>
</clustering>
</event>
<event>
 9    2  0.1592151E-004  0.2431506E+03  0.7546771E-02  0.1118407E+00
         21   -1    0    0  501  502  0.00000000000E+00  0.00000000000E+00  0.48882139191E+03  0.48882139191E+03  0.00000000000E+00 0.  1.
          2   -1    0    0  502    0 -0.00000000000E+00 -0.00000000000E+00 -0.13883623303E+03  0.13883623303E+03  0.00000000000E+00 0. -1.
         24    2    1    2    0    0  0.43212485374E+02 -0.20600138337E+03  0.14069435192E+03  0.26528992752E+03  0.79246174277E+02 0.  0.
         23    2    1    2    0    0 -0.60286008803E+02  0.23569331452E+03  0.17114106040E+03  0.31109861180E+03  0.91144623211E+02 0.  0.
        -13    1    3    3    0    0  0.51120875935E+02 -0.61725503198E+02  0.44018276493E+02  0.91438451249E+02  0.00000000000E+00 0.  1.
         14    1    3    3    0    0 -0.79083905613E+01 -0.14427588017E+03  0.96676075431E+02  0.17385147627E+03  0.00000000000E+00 0. -1.
        -11    1    4    4    0    0 -0.34278595727E+02  0.39899083719E+02  0.74528282740E+02  0.91221839133E+02  0.00000000000E+00 0. -1.
         11    1    4    4    0    0 -0.26007413076E+02  0.19579423080E+03  0.96612777664E+02  0.21987677267E+03  0.00000000000E+00 0.  1.
          1    1    1    2  501    0  0.17073523428E+02 -0.29691931152E+02  0.38149746549E+02  0.51269085612E+02  0.00000000000E+00 0. -1.
<scales pt_clust_5="13000.00000" pt_clust_6="13000.00000" pt_clust_7="13000.00000" pt_clust_8="13000.00000" pt_clust_9="34.25078"></scales>
<clustering>
<clus scale="   34.251">  1  9  2 -1</clus>
<clus scale="   79.246">  5  6 -1 -1</clus>
<clus scale="   91.145">  7  8 -1 -1</clus>
<clus scale="  238.945">  2  5  1 -1</clus>
<clus scale="   34.251">  1  5  2 -1</clus>
</clustering>
</event>
<event>
 9    2  0.1592151E-004  0.1090021E+03  0.7546771E-02  0.1266971E+00
         21   -1    0    0  501  502  0.00000000000E+00  0.00000000000E+00  0.22550872240E+02  0.22550872240E+02  0.00000000000E+00 0.  1.
          2   -1    0    0  502    0 -0.00000000000E+00 -0.00000000000E+00 -0.10272691182E+04  0.10272691182E+04  0.00000000000E+00 0. -1.
         23    2    1    2    0    0  0.51497750843E+02 -0.72854582343E+01 -0.48125372682E+03  0.49263781062E+03  0.91551988682E+02 0.  0.
         24    2    1    2    0    0 -0.55446787812E+02  0.71149874679E+02 -0.27035537515E+03  0.29611035569E+03  0.80328468995E+02 0.  0.
        -13    1    4    4    0    0 -0.64160158688E+02  0.82703060775E+02 -0.21856725380E+03  0.24233853730E+03  0.00000000000E+00 0.  1.
         14    1    4    4    0    0  0.87133708766E+01 -0.11553186095E+02 -0.51788121349E+02  0.53771818398E+02  0.00000000000E+00 0. -1.
        -13    1    3    3    0    0 -0.26094206388E+02 -0.75469450854E+01 -0.10413874942E+03  0.10762315326E+03  0.00000000000E+00 0.  1.
         13    1    3    3    0    0  0.77591957231E+02  0.26148685109E+00 -0.37711497740E+03  0.38501465736E+03  0.00000000000E+00 0. -1.
          1    1    1    2  501    0  0.39490369693E+01 -0.63864416445E+02 -0.25310914398E+03  0.26107182412E+03  0.00000000000E+00 0. -1.
<scales pt_clust_5="13000.00000" pt_clust_6="13000.00000" pt_clust_7="13000.00000" pt_clust_8="13000.00000" pt_clust_9="63.98643"></scales>
<clustering>
<clus scale="   63.986">  1  9  2 -1</clus>
<clus scale="   80.328">  5  6 -1 -1</clus>
<clus scale="   91.552">  7  8 -1 -1</clus>
<clus scale="   99.762">  1  5  2 -1</clus>
<clus scale="   63.986">  1  5  2 -1</clus>
</clustering>
</event>
<event>
 9    2  0.1592151E-004  0.1690658E+03  0.7546771E-02  0.1198104E+00
         -3   -1    0    0    0  501 -0.00000000000E+00  0.00000000000E+00  0.27027885224E+03  0.27027885224E+03  0.00000000000E+00 0.  1.
         21   -1    0    0  501  502  0.00000000000E+00 -0.00000000000E+00 -0.26076501171E+03  0.26076501171E+03  0.00000000000E+00 0.  1.
         23    2    1    2    0    0  0.11212242237E+01 -0.59176757092E+02  0.13692509021E+03  0.17582519995E+03  0.93074566256E+02 0.  0.
         24    2    1    2    0    0 -0.11985792168E+03  0.11102350396E+03 -0.13182720394E+03  0.22558074849E+03  0.82559812075E+02 0.  0.
        -11    1    4    4    0    0 -0.73329158714E+02  0.11424852954E+03 -0.10621784968E+03  0.17237204996E+03  0.00000000000E+00 0.  1.
         12    1    4    4    0    0 -0.46528762969E+02 -0.32250255744E+01 -0.25609354266E+02  0.53208698530E+02  0.00000000000E+00 0. -1.
        -11    1    3    3    0    0 -0.44032740058E+02 -0.30152578279E+02  0.89474654185E+02  0.10418144708E+03  0.00000000000E+00 0.  1.
         11    1    3    3    0    0  0.45153964282E+02 -0.29024178813E+02  0.47450436024E+02  0.71643752868E+02  0.00000000000E+00 0. -1.
         -4    1    1    2    0  502  0.11873669746E+03 -0.51846746870E+02  0.44159542664E+01  0.12963791551E+03  0.00000000000E+00 0.  1.
<scales pt_clust_5="13000.00000" pt_clust_6="13000.00000" pt_clust_7="13000.00000" pt_clust_8="13000.00000" pt_clust_9="147.53691"></scales>
<clustering>
<clus scale="   82.560">  5  6 -1 -1</clus>
<clus scale="   93.075">  7  8 -1 -1</clus>
<clus scale="  110.300">  1  7  2 -1</clus>
<clus scale="  147.537">  2  9  1 -1</clus>
<clus scale="  147.537">  2  5  1 -1</clus>
</clustering>
</event>
<event>
 9    2  0.1592151E-004  0.1379185E+03  0.7546771E-02  0.1218069E+00
          4   -1    0    0  502    0 -0.00000000000E+00  0.00000000000E+00  0.81202196424E+02  0.81202196424E+02  0.00000000000E+00 0. -1.
         21   -1    0    0  501  502  0.00000000000E+00 -0.00000000000E+00 -0.31432076842E+03  0.31432076842E+03  0.00000000000E+00 0. -1.
         24    2    1    2    0    0  0.92408866148E+02  0.29375435782E+02 -0.73287279021E+02  0.14674710449E+03  0.82227566170E+02 0.  0.
         23    2    1    2    0    0 -0.11529458771E+03  0.35768183098E+00 -0.97977359334E+02  0.17643138136E+03  0.90749652860E+02 0.  0.
        -11    1    3    3    0    0  0.43976510004E+02 -0.59372201484E+01 -0.74592272350E+02  0.86793957794E+02  0.00000000000E+00 0.  1.
         12    1    3    3    0    0  0.48432356145E+02  0.35312655930E+02  0.13049933291E+01  0.59953146691E+02  0.00000000000E+00 0. -1.
        -11    1    4    4    0    0 -0.97587918163E+02  0.23043553980E+02 -0.10663990166E+03  0.14637785276E+03  0.00000000000E+00 0. -1.
         11    1    4    4    0    0 -0.17706669551E+02 -0.22685872149E+02  0.86625423306E+01  0.30053528601E+02  0.00000000000E+00 0.  1.
          3    1    1    2  501    0  0.22885721566E+02 -0.29733117613E+02 -0.61853933638E+02  0.72344478995E+02  0.00000000000E+00 0. -1.
<scales pt_clust_5="13000.00000" pt_clust_6="13000.00000" pt_clust_7="13000.00000" pt_clust_8="13000.00000" pt_clust_9="37.52085"></scales>
<clustering>
<clus scale="   37.521">  2  9  1 -1</clus>
<clus scale="   82.228">  5  6 -1 -1</clus>
<clus scale="   90.750">  7  8 -1 -1</clus>
<clus scale="  132.467">  1  5  2 -1</clus>
<clus scale="   37.521">  2  5  1 -1</clus>
</clustering>
</event>
<event>
 9    2  0.2409560E-004  0.1211554E+03  0.7546771E-02  0.1242719E+00
         21   -1    0    0  501  502  0.00000000000E+00  0.00000000000E+00  0.20113750207E+03  0.20113750207E+03  0.00000000000E+00 0. -1.
          2   -1    0    0  502    0 -0.00000000000E+00 -0.00000000000E+00 -0.15015024212E+04  0.15015024212E+04  0.00000000000E+00 0. -1.
         24    2    1    2    0    0 -0.79522308766E+02 -0.18669953630E+02 -0.11460469197E+04  0.11520527473E+04  0.84437110583E+02 0.  0.
         23    2    1    2    0    0  0.55686504919E+02  0.12015884085E+03  0.15593338253E+03  0.22328905531E+03  0.89463112910E+02 0.  0.
        -11    1    3    3    0    0  0.12362438855E+02 -0.18052570199E+02 -0.12694637123E+03  0.12881811345E+03  0.00000000000E+00 0.  1.
         12    1    3    3    0    0 -0.91884747621E+02 -0.61738343192E+00 -0.10191005485E+04  0.10232346339E+04  0.00000000000E+00 0. -1.
        -11    1    4    4    0    0  0.40256107961E+02  0.31932388731E+02  0.11264525798E+03  0.12381108926E+03  0.00000000000E+00 0. -1.
         11    1    4    4    0    0  0.15430396958E+02  0.88226452117E+02  0.43288124553E+02  0.99477966056E+02  0.00000000000E+00 0.  1.
          1    1    1    2  501    0  0.23835803847E+02 -0.10148888722E+03 -0.31025138191E+03  0.32729812060E+03  0.00000000000E+00 0. -1.
<scales pt_clust_5="13000.00000" pt_clust_6="13000.00000" pt_clust_7="13000.00000" pt_clust_8="13000.00000" pt_clust_9="104.25042"></scales>
<clustering>
<clus scale="   84.437">  5  6 -1 -1</clus>
<clus scale="   89.463">  7  8 -1 -1</clus>
<clus scale="  104.250">  1  9  2 -1</clus>
<clus scale="  117.493">  2  5  1 -1</clus>
<clus scale="  104.250">  1  5  2 -1</clus>
</clustering>
</event>
<event>
 9    2  0.1592151E-004  0.1299886E+03  0.7546771E-02  0.1249174E+00
          4   -1    0    0  502    0 -0.00000000000E+00  0.00000000000E+00  0.60332690787E+03  0.60332690787E+03  0.00000000000E+00 0. -1.
         21   -1    0    0  501  502  0.00000000000E+00 -0.00000000000E+00 -0.95806640535E+02  0.95806640535E+02  0.00000000000E+00 0.  1.
         24    2    1    2    0    0 -0.11432800123E+02  0.19847943548E+02  0.48642461566E+01  0.83690882418E+02  0.80348323738E+02 0.  0.
         23    2    1    2    0    0  0.65417652944E+02 -0.89483062229E+02  0.50681297202E+03  0.52723442188E+03  0.93968395045E+02 0.  0.
        -11    1    3    3    0    0  0.24675309024E+02  0.31882969957E+02  0.16982939984E+02  0.43747170186E+02  0.00000000000E+00 0.  1.
         12    1    3    3    0    0 -0.36108109147E+02 -0.12035026409E+02 -0.12118693828E+02  0.39943712233E+02  0.00000000000E+00 0. -1.
        -13    1    4    4    0    0  0.88873102677E+02 -0.81113425730E+02  0.41277397107E+03  0.42995368054E+03  0.00000000000E+00 0.  1.
         13    1    4    4    0    0 -0.23455449733E+02 -0.83696364983E+01  0.94039000946E+02  0.97280741343E+02  0.00000000000E+00 0. -1.
          3    1    1    2  501    0 -0.53984852821E+02  0.69635118681E+02 -0.41569508402E+01  0.88208244105E+02  0.00000000000E+00 0. -1.
<scales pt_clust_5="13000.00000" pt_clust_6="13000.00000" pt_clust_7="13000.00000" pt_clust_8="13000.00000" pt_clust_9="89.81631"></scales>
<clustering>
<clus scale="   80.348">  5  6 -1 -1</clus>
<clus scale="   83.549">  1  5  2 -1</clus>
<clus scale="   89.816">  2  9  1 -1</clus>
<clus scale="   93.968">  7  8 -1 -1</clus>
<clus scale="   89.816">  2  5  1 -1</clus>
</clustering>
</event>
<event>
 9    2  0.1592151E-004  0.1411766E+03  0.7546771E-02  0.1213722E+00
         21   -1    0    0  501  502  0.00000000000E+00  0.00000000000E+00  0.16681921651E+03  0.16681921651E+03  0.00000000000E+00 0.  1.
          2   -1    0    0  502    0 -0.00000000000E+00 -0.00000000000E+00 -0.34275509385E+03  0.34275509385E+03  0.00000000000E+00 0. -1.
         24    2    1    2    0    0  0.88026928268E+02  0.55243160164E+02 -0.24593774914E+03  0.27913951613E+03  0.81442901285E+02 0.  0.
         23    2    1    2    0    0 -0.11141305939E+03 -0.63939903985E+02  0.12260777780E+01  0.15727295771E+03  0.90730914436E+02 0.  0.
        -11    1    3    3    0    0  0.89408064379E+02  0.68725445637E+02 -0.18457744886E+03  0.21630030856E+03  0.00000000000E+00 0.  1.
         12    1    3    3    0    0 -0.13811361107E+01 -0.13482285473E+02 -0.61360300271E+02  0.62839207569E+02  0.00000000000E+00 0. -1.
        -11    1    4    4    0    0 -0.91524597286E+02 -0.86906634588E+02 -0.47844811171E+01  0.12630283569E+03  0.00000000000E+00 0. -1.
         11    1    4    4    0    0 -0.19888462104E+02  0.22966730603E+02  0.60105588951E+01  0.30970122016E+02  0.00000000000E+00 0.  1.
          1    1    1    2  501    0  0.23386131122E+02  0.86967438213E+01  0.68775794017E+02  0.73161836531E+02  0.00000000000E+00 0. -1.
<scales pt_clust_5="13000.00000" pt_clust_6="13000.00000" pt_clust_7="13000.00000" pt_clust_8="13000.00000" pt_clust_9="24.95084"></scales>
<clustering>
<clus scale="   24.951">  1  9  2 -1</clus>
<clus scale="   81.443">  5  6 -1 -1</clus>
<clus scale="   90.731">  7  8 -1 -1</clus>
<clus scale="  135.395">  2  5  1 -1</clus>
<clus scale="   24.951">  1  5  2 -1</clus>
</clustering>
</event>
<event>
 9    2  0.1592151E-004  0.1286077E+03  0.7546771E-02  0.1250150E+00
         -1   -1    0    0    0  501 -0.00000000000E+00  0.00000000000E+00  0.10303220315E+04  0.10303220315E+04  0.00000000000E+00 0.  1.
         21   -1    0    0  501  502  0.00000000000E+00 -0.00000000000E+00 -0.49373823922E+02  0.49373823922E+02  0.00000000000E+00 0.  1.
         24    2    1    2    0    0  0.11883028980E+02 -0.13691014415E+02  0.71697231877E+03  0.72194675042E+03  0.82638697422E+02 0.  0.
         23    2    1    2    0    0 -0.81615337755E+02 -0.41964783220E+02  0.77351493960E+02  0.15089450038E+03  0.91453760121E+02 0.  0.
        -13    1    3    3    0    0  0.27398833393E+02 -0.20934688178E+02  0.12338527798E+03  0.12811277868E+03  0.00000000000E+00 0.  1.
         14    1    3    3    0    0 -0.15515804413E+02  0.72436737633E+01  0.59358704079E+03  0.59383397174E+03  0.00000000000E+00 0. -1.
        -13    1    4    4    0    0 -0.44471742358E+02 -0.51665665687E+02  0.87753737119E+02  0.11112063381E+03  0.00000000000E+00 0.  1.
         13    1    4    4    0    0 -0.37143595397E+02  0.97008824666E+01 -0.10402243159E+02  0.39773866576E+02  0.00000000000E+00 0. -1.
         -2    1    1    2    0  502  0.69732308774E+02  0.55655797635E+02  0.18662439482E+03  0.20685460459E+03  0.00000000000E+00 0.  1.
<scales pt_clust_5="13000.00000" pt_clust_6="13000.00000" pt_clust_7="13000.00000" pt_clust_8="13000.00000" pt_clust_9="90.42216"></scales>
<clustering>
<clus scale="   82.639">  5  6 -1 -1</clus>
<clus scale="   84.604">  1  5  2 -1</clus>
<clus scale="   90.422">  2  9  1 -1</clus>
<clus scale="   91.454">  7  8 -1 -1</clus>
<clus scale="   90.422">  2  5  1 -1</clus>
</clustering>
</event>
<event>
 9    2  0.1592151E-004  0.1981721E+03  0.7546771E-02  0.1191383E+00
         21   -1    0    0  501  502  0.00000000000E+00  0.00000000000E+00  0.89593664609E+03  0.89593664609E+03  0.00000000000E+00 0. -1.
          2   -1    0    0  502    0 -0.00000000000E+00 -0.00000000000E+00 -0.48129699729E+03  0.48129699729E+03  0.00000000000E+00 0. -1.
         24    2    1    2    0    0  0.19041127712E+01 -0.15934985131E+02 -0.33810762808E+03  0.34729542229E+03  0.77716103746E+02 0.  0.
         23    2    1    2    0    0  0.21605425906E+02 -0.15795385191E+03 -0.62975390071E+02  0.19555611712E+03  0.94128005530E+02 0.  0.
        -13    1    3    3    0    0 -0.17511641856E+02  0.20492436222E+02 -0.55618115017E+02  0.61805924156E+02  0.00000000000E+00 0.  1.
         14    1    3    3    0    0  0.19415754627E+02 -0.36427421353E+02 -0.28248951306E+03  0.28548949813E+03  0.00000000000E+00 0. -1.
        -13    1    4    4    0    0  0.55655596871E+02 -0.71626055601E+02 -0.18186220799E+02  0.92512571745E+02  0.00000000000E+00 0. -1.
         13    1    4    4    0    0 -0.34050170965E+02 -0.86327796310E+02 -0.44789169272E+02  0.10304354537E+03  0.00000000000E+00 0.  1.
          1    1    1    2  501    0 -0.23509538677E+02  0.17388883704E+03  0.81572266695E+03  0.83438210397E+03  0.00000000000E+00 0. -1.
<scales pt_clust_5="13000.00000" pt_clust_6="13000.00000" pt_clust_7="13000.00000" pt_clust_8="13000.00000" pt_clust_9="174.39069"></scales>
<clustering>
<clus scale="   77.716">  5  6 -1 -1</clus>
<clus scale="   79.356">  2  5  1 -1</clus>
<clus scale="   94.128">  7  8 -1 -1</clus>
<clus scale="  174.391">  1  9  2 -1</clus>
<clus scale="  174.391">  1  5  2 -1</clus>
</clustering>
</event>
<event>
 9    2  0.1592151E-004  0.1041365E+03  0.7546771E-02  0.1277312E+00
          2   -1    0    0  502    0 -0.00000000000E+00  0.00000000000E+00  0.21260876935E+03  0.21260876935E+03  0.00000000000E+00 0. -1.
         21   -1    0    0  501  502  0.00000000000E+00 -0.00000000000E+00 -0.13784555352E+03  0.13784555352E+03  0.00000000000E+00 0.  1.
         23    2    1    2    0    0  0.61572401094E+01  0.46624192602E+02  0.28533353259E+02  0.10722362510E+03  0.92038180064E+02 0.  0.
         24    2    1    2    0    0 -0.41524650381E+02 -0.43984812697E+02 -0.69575166381E+02  0.12211659964E+03  0.80079958754E+02 0.  0.
        -11    1    4    4    0    0 -0.12410362003E+02 -0.62670452580E+02 -0.33512661295E+02  0.72143614954E+02  0.00000000000E+00 0.  1.
         12    1    4    4    0    0 -0.29114288378E+02  0.18685639882E+02 -0.36062505085E+02  0.49972984688E+02  0.00000000000E+00 0. -1.
        -11    1    3    3    0    0  0.38051344753E+02  0.54086222454E+02  0.39110611308E+01  0.66245910787E+02  0.00000000000E+00 0.  1.
         11    1    3    3    0    0 -0.31894104644E+02 -0.74620298518E+01  0.24622292128E+02  0.40977714311E+02  0.00000000000E+00 0. -1.
          1    1    1    2  501    0  0.35367410272E+02 -0.26393799050E+01  0.11580502895E+03  0.12111409813E+03  0.00000000000E+00 0. -1.
<scales pt_clust_5="13000.00000" pt_clust_6="13000.00000" pt_clust_7="13000.00000" pt_clust_8="13000.00000" pt_clust_9="35.46578"></scales>
<clustering>
<clus scale="   35.466">  2  9  1 -1</clus>
<clus scale="   80.080">  5  6 -1 -1</clus>
<clus scale="   92.038">  7  8 -1 -1</clus>
<clus scale="   93.735">  2  5  1 -1</clus>
<clus scale="   35.466">  2  5  1 -1</clus>
</clustering>
</event>
<event>
 9    2  0.1592151E-004  0.1936907E+03  0.7546771E-02  0.1189911E+00
         21   -1    0    0  501  502  0.00000000000E+00  0.00000000000E+00  0.30916688901E+03  0.30916688901E+03  0.00000000000E+00 0. -1.
          2   -1    0    0  502    0 -0.00000000000E+00 -0.00000000000E+00 -0.40187333810E+03  0.40187333810E+03  0.00000000000E+00 0. -1.
         24    2    1    2    0    0 -0.82771257981E+01 -0.35804624477E+02 -0.28071686539E+03  0.29412697892E+03  0.79738568255E+02 0.  0.
         23    2    1    2    0    0  0.13811807114E+03 -0.90639643804E+02  0.12134535494E+03  0.22380432952E+03  0.89841728287E+02 0.  0.
        -11    1    3    3    0    0 -0.31375435085E+02  0.12026502150E+02 -0.87109159190E+02  0.93365198525E+02  0.00000000000E+00 0.  1.
         12    1    3    3    0    0  0.23098309287E+02 -0.47831126628E+02 -0.19360770620E+03  0.20076178039E+03  0.00000000000E+00 0. -1.
        -13    1    4    4    0    0  0.11326035820E+03 -0.34984375185E+02  0.46636750323E+02  0.12738446423E+03  0.00000000000E+00 0. -1.
         13    1    4    4    0    0  0.24857712933E+02 -0.55655268619E+02  0.74708604618E+02  0.96419865284E+02  0.00000000000E+00 0.  1.
          1    1    1    2  501    0 -0.12984094534E+03  0.12644426828E+03  0.66665061363E+02  0.19310891868E+03  0.00000000000E+00 0. -1.
<scales pt_clust_5="13000.00000" pt_clust_6="13000.00000" pt_clust_7="13000.00000" pt_clust_8="13000.00000" pt_clust_9="171.59425"></scales>
<clustering>
<clus scale="   79.739">  5  6 -1 -1</clus>
<clus scale="   87.799">  2  5  1 -1</clus>
<clus scale="   89.842">  7  8 -1 -1</clus>
<clus scale="  171.594">  1  9  2 -1</clus>
<clus scale="  171.594">  1  5  2 -1</clus>
</clustering>
</event>
<event>
 9    2  0.1592151E-004  0.1339792E+03  0.7546771E-02  0.1235940E+00
         21   -1    0    0  501  502  0.00000000000E+00  0.00000000000E+00  0.10732680363E+03  0.10732680363E+03  0.00000000000E+00 0.  1.
          2   -1    0    0  502    0 -0.00000000000E+00 -0.00000000000E+00 -0.34475394977E+03  0.34475394977E+03  0.00000000000E+00 0. -1.
         24    2    1    2    0    0  0.50525777978E+02  0.30931028239E+02 -0.77471271266E+00  0.99724396757E+02  0.80217032983E+02 0.  0.
         23    2    1    2    0    0  0.80626481506E+02 -0.17812059857E+02 -0.73080274240E+02  0.14228762085E+03  0.89928535885E+02 0.  0.
        -13    1    3    3    0    0  0.20019969680E+02  0.37344248029E+02  0.33041712215E+02  0.53732176514E+02  0.00000000000E+00 0.  1.
         14    1    3    3    0    0  0.30505808298E+02 -0.64132197905E+01 -0.33816424927E+02  0.45992220243E+02  0.00000000000E+00 0. -1.
        -13    1    4    4    0    0 -0.19106899534E+01  0.24763119268E+02 -0.32586309579E+02  0.40972312407E+02  0.00000000000E+00 0. -1.
         13    1    4    4    0    0  0.82537171460E+02 -0.42575179125E+02 -0.40493964661E+02  0.10131530844E+03  0.00000000000E+00 0.  1.
          1    1    1    2  501    0 -0.13115225948E+03 -0.13118968382E+02 -0.16357215919E+03  0.21006873580E+03  0.00000000000E+00 0. -1.
<scales pt_clust_5="13000.00000" pt_clust_6="13000.00000" pt_clust_7="13000.00000" pt_clust_8="13000.00000" pt_clust_9="99.31410"></scales>
<clustering>
<clus scale="   80.217">  5  6 -1 -1</clus>
<clus scale="   89.929">  7  8 -1 -1</clus>
<clus scale="   99.721">  2  5  1 -1</clus>
<clus scale="   99.314">  1  9  2 -1</clus>
<clus scale="   99.314">  1  5  2 -1</clus>
</clustering>
</event>
<event>
 9    2  0.1592151E-004  0.3491723E+03  0.7546771E-02  0.1113695E+00
         21   -1    0    0  501  502  0.00000000000E+00  0.00000000000E+00  0.33778132580E+03  0.33778132580E+03  0.00000000000E+00 0. -1.
          2   -1    0    0  502    0 -0.00000000000E+00 -0.00000000000E+00 -0.10606890299E+04  0.10606890299E+04  0.00000000000E+00 0. -1.
         24    2    1    2    0    0  0.14185518899E+02 -0.41371544568E+02 -0.34311641338E+02  0.97119040087E+02  0.79636584367E+02 0.  0.
         23    2    1    2    0    0  0.86455495830E+02 -0.28508486356E+03 -0.86318990949E+03  0.91770380607E+03  0.91299088888E+02 0.  0.
        -13    1    3    3    0    0  0.25762618696E+02 -0.60905786795E+02 -0.16231954633E+02  0.68093345772E+02  0.00000000000E+00 0.  1.
         14    1    3    3    0    0 -0.11577099797E+02  0.19534242227E+02 -0.18079686705E+02  0.29025694315E+02  0.00000000000E+00 0. -1.
        -11    1    4    4    0    0  0.27518262368E+02 -0.21244410061E+03 -0.66274525330E+03  0.69650629676E+03  0.00000000000E+00 0. -1.
         11    1    4    4    0    0  0.58937233461E+02 -0.72640762950E+02 -0.20044465619E+03  0.22119750931E+03  0.00000000000E+00 0.  1.
          1    1    1    2  501    0 -0.10064101473E+03  0.32645640812E+03  0.17459384675E+03  0.38364750954E+03  0.00000000000E+00 0. -1.
<scales pt_clust_5="13000.00000" pt_clust_6="13000.00000" pt_clust_7="13000.00000" pt_clust_8="13000.00000" pt_clust_9="337.02493"></scales>
<clustering>
<clus scale="   79.637">  5  6 -1 -1</clus>
<clus scale="   90.856">  2  5  1 -1</clus>
<clus scale="   91.299">  7  8 -1 -1</clus>
<clus scale="  337.025">  1  9  2 -1</clus>
<clus scale="  337.025">  1  5  2 -1</clus>
</clustering>
</event>
<event>
 9    2  0.1592151E-004  0.1591354E+03  0.7546771E-02  0.1192241E+00
         -1   -1    0    0    0  501 -0.00000000000E+00  0.00000000000E+00  0.23728865599E+03  0.23728865599E+03  0.00000000000E+00 0.  1.
         21   -1    0    0  501  502  0.00000000000E+00 -0.00000000000E+00 -0.16858623788E+03  0.16858623788E+03  0.00000000000E+00 0.  1.
         23    2    1    2    0    0  0.19276412368E+02 -0.13089388485E+03  0.13104189525E+03  0.20906678945E+03  0.95037650304E+02 0.  0.
         24    2    1    2    0    0 -0.42276270522E+02  0.11198037983E+03 -0.20058402949E+02  0.14509347030E+03  0.79516583661E+02 0.  0.
        -13    1    4    4    0    0 -0.64995253247E+02  0.91583021861E+02 -0.22240752410E+02  0.11448355299E+03  0.00000000000E+00 0.  1.
         14    1    4    4    0    0  0.22718982724E+02  0.20397357971E+02  0.21823494607E+01  0.30609917304E+02  0.00000000000E+00 0. -1.
        -11    1    3    3    0    0 -0.44808107362E+01 -0.58132469055E+02  0.11772935744E+03  0.13137603749E+03  0.00000000000E+00 0. -1.
         11    1    3    3    0    0  0.23757223104E+02 -0.72761415791E+02  0.13312537817E+02  0.77690751963E+02  0.00000000000E+00 0.  1.
         -2    1    1    2    0  502  0.22999858155E+02  0.18913505014E+02 -0.42281074200E+02  0.51714634124E+02  0.00000000000E+00 0.  1.
<scales pt_clust_5="13000.00000" pt_clust_6="13000.00000" pt_clust_7="13000.00000" pt_clust_8="13000.00000" pt_clust_9="29.77775"></scales>
<clustering>
<clus scale="   29.778">  2  9  1 -1</clus>
<clus scale="   79.517">  5  6 -1 -1</clus>
<clus scale="   95.038">  7  8 -1 -1</clus>
<clus scale="  150.382">  2  5  1 -1</clus>
<clus scale="   29.778">  2  5  1 -1</clus>
</clustering>
</event>
<event>
 9    2  0.1592151E-004  0.1486605E+03  0.7546771E-02  0.1204346E+00
         21   -1    0    0  501  502  0.00000000000E+00  0.00000000000E+00  0.19343169559E+03  0.19343169559E+03  0.00000000000E+00 0. -1.
          2   -1    0    0  502    0 -0.00000000000E+00 -0.00000000000E+00 -0.69527768721E+03  0.69527768721E+03  0.00000000000E+00 0. -1.
         24    2    1    2    0    0 -0.11647263745E+03  0.13565240461E+02 -0.63276789662E+03  0.64862143349E+03  0.81022601530E+02 0.  0.
         23    2    1    2    0    0  0.95721356113E+02 -0.56576156930E+02  0.64921509646E+02  0.15862257752E+03  0.92643834851E+02 0.  0.
        -13    1    3    3    0    0 -0.16090225237E+02 -0.19458097953E+02 -0.46567213055E+02  0.52971862869E+02  0.00000000000E+00 0.  1.
         14    1    3    3    0    0 -0.10038241222E+03  0.33023338414E+02 -0.58620068357E+03  0.59564957062E+03  0.00000000000E+00 0. -1.
        -11    1    4    4    0    0  0.67122583773E+02  0.85231072548E+01  0.54244776391E+02  0.86721279830E+02  0.00000000000E+00 0.  1.
         11    1    4    4    0    0  0.28598772339E+02 -0.65099264184E+02  0.10676733255E+02  0.71901297691E+02  0.00000000000E+00 0. -1.
          1    1    1    2  501    0  0.20751281341E+02  0.43010916468E+02  0.66000395357E+02  0.81465371785E+02  0.00000000000E+00 0. -1.
<scales pt_clust_5="13000.00000" pt_clust_6="13000.00000" pt_clust_7="13000.00000" pt_clust_8="13000.00000" pt_clust_9="47.75515"></scales>
<clustering>
<clus scale="   47.755">  1  9  2 -1</clus>
<clus scale="   81.023">  5  6 -1 -1</clus>
<clus scale="   92.644">  7  8 -1 -1</clus>
<clus scale="  141.710">  2  5  1 -1</clus>
<clus scale="   47.755">  1  5  2 -1</clus>
</clustering>
</event>
<event>
 9    2  0.1592151E-004  0.1384798E+03  0.7546771E-02  0.1217983E+00
         21   -1    0    0  501  502  0.00000000000E+00  0.00000000000E+00  0.27393539239E+02  0.27393539239E+02  0.00000000000E+00 0.  1.
         -3   -1    0    0    0  501 -0.00000000000E+00 -0.00000000000E+00 -0.11144532213E+04  0.11144532213E+04  0.00000000000E+00 0.  1.
         23    2    1    2    0    0 -0.46264771243E+02 -0.11631255374E+03 -0.61360784268E+03  0.63289333573E+03  0.91489620147E+02 0.  0.
         24    2    1    2    0    0  0.39926284550E+02  0.59877614385E+02 -0.17688783700E+03  0.20700096779E+03  0.79879014045E+02 0.  0.
        -11    1    4    4    0    0  0.12034918323E+02  0.36933366834E+02 -0.15835003755E+02  0.41948303764E+02  0.00000000000E+00 0.  1.
         12    1    4    4    0    0  0.27891366227E+02  0.22944247551E+02 -0.16105283325E+03  0.16505266403E+03  0.00000000000E+00 0. -1.
        -13    1    3    3    0    0 -0.60332005871E+02 -0.73477858382E+02 -0.52430115387E+03  0.53285143009E+03  0.00000000000E+00 0. -1.
         13    1    3    3    0    0  0.14067234627E+02 -0.42834695360E+02 -0.89306688817E+02  0.10004190564E+03  0.00000000000E+00 0.  1.
         -4    1    1    2    0  502  0.63384866930E+01  0.56434939358E+02 -0.29656400240E+03  0.30195245704E+03  0.00000000000E+00 0.  1.
<scales pt_clust_5="13000.00000" pt_clust_6="13000.00000" pt_clust_7="13000.00000" pt_clust_8="13000.00000" pt_clust_9="56.78981"></scales>
<clustering>
<clus scale="   56.790">  1  9  2 -1</clus>
<clus scale="   79.879">  5  6 -1 -1</clus>
<clus scale="   91.490">  7  8 -1 -1</clus>
<clus scale="  131.099">  1  5  2 -1</clus>
<clus scale="   56.790">  1  5  2 -1</clus>
</clustering>
</event>
<event>
 9    2  0.1592151E-004  0.1408182E+03  0.7546771E-02  0.1216017E+00
          4   -1    0    0  502    0 -0.00000000000E+00  0.00000000000E+00  0.57211756489E+03  0.57211756489E+03  0.00000000000E+00 0. -1.
         21   -1    0    0  501  502  0.00000000000E+00 -0.00000000000E+00 -0.73568838700E+02  0.73568838700E+02  0.00000000000E+00 0. -1.
         24    2    1    2    0    0 -0.21112652319E-01  0.70497266338E+02  0.16279508438E+03  0.19517647337E+03  0.81374143630E+02 0.  0.
         23    2    1    2    0    0 -0.41996105451E+02 -0.16433433824E+03  0.24281790977E+03  0.31191738724E+03  0.97787890675E+02 0.  0.
        -13    1    3    3    0    0 -0.12449472940E+02  0.32471452138E+02  0.14877521602E+03  0.15278563245E+03  0.00000000000E+00 0.  1.
         14    1    3    3    0    0  0.12428360288E+02  0.38025814200E+02  0.14019868355E+02  0.42390840917E+02  0.00000000000E+00 0. -1.
        -13    1    4    4    0    0  0.24674835657E+02 -0.31413519874E+02  0.21732870863E+02  0.45474986768E+02  0.00000000000E+00 0.  1.
         13    1    4    4    0    0 -0.66670941108E+02 -0.13292081836E+03  0.22108503891E+03  0.26644240048E+03  0.00000000000E+00 0. -1.
          3    1    1    2  501    0  0.42017218104E+02  0.93837071897E+02  0.92935732039E+02  0.13859254298E+03  0.00000000000E+00 0. -1.
<scales pt_clust_5="13000.00000" pt_clust_6="13000.00000" pt_clust_7="13000.00000" pt_clust_8="13000.00000" pt_clust_9="102.81460"></scales>
<clustering>
<clus scale="   81.374">  5  6 -1 -1</clus>
<clus scale="   97.788">  7  8 -1 -1</clus>
<clus scale="  102.815">  2  9  1 -1</clus>
<clus scale="  129.958">  1  5  2 -1</clus>
<clus scale="  102.815">  2  5  1 -1</clus>
</clustering>
</event>
<event>
 9    2  0.1592151E-004  0.1108260E+03  0.7546771E-02  0.1264480E+00
         21   -1    0    0  501  502  0.00000000000E+00  0.00000000000E+00  0.40523163834E+02  0.40523163834E+02  0.00000000000E+00 0.  1.
          2   -1    0    0  502    0 -0.00000000000E+00 -0.00000000000E+00 -0.13264486246E+04  0.13264486246E+04  0.00000000000E+00 0. -1.
         24    2    1    2    0    0  0.44366186885E+02 -0.38118437845E+02 -0.10176939633E+04  0.10225420191E+04  0.80435091644E+02 0.  0.
         23    2    1    2    0    0 -0.73711892671E+02  0.99909531438E+01 -0.63328198685E+02  0.13553341303E+03  0.93944574254E+02 0.  0.
        -11    1    3    3    0    0  0.67124463455E+01 -0.43353939500E+02 -0.24385456265E+03  0.24776938619E+03  0.00000000000E+00 0.  1.
         12    1    3    3    0    0  0.37653740540E+02  0.52355016557E+01 -0.77383940064E+03  0.77477263287E+03  0.00000000000E+00 0. -1.
        -11    1    4    4    0    0 -0.13846716884E+02  0.34864196382E+02 -0.59823037278E+02  0.70611893806E+02  0.00000000000E+00 0. -1.
         11    1    4    4    0    0 -0.59865175788E+02 -0.24873243238E+02 -0.35051614075E+01  0.64921519219E+02  0.00000000000E+00 0.  1.
          1    1    1    2  501    0  0.29345705786E+02  0.28127484701E+02 -0.20490329881E+03  0.20889635638E+03  0.00000000000E+00 0. -1.
<scales pt_clust_5="13000.00000" pt_clust_6="13000.00000" pt_clust_7="13000.00000" pt_clust_8="13000.00000" pt_clust_9="40.64883"></scales>
<clustering>
<clus scale="   40.649">  1  9  2 -1</clus>
<clus scale="   80.435">  5  6 -1 -1</clus>
<clus scale="   93.945">  7  8 -1 -1</clus>
<clus scale="   99.632">  2  5  1 -1</clus>
<clus scale="   40.649">  1  5  2 -1</clus>
</clustering>
</event>
<event>
 9    2  0.1592151E-004  0.9847293E+02  0.7546771E-02  0.1308103E+00
         -1   -1    0    0    0  501 -0.00000000000E+00  0.00000000000E+00  0.40609646540E+03  0.40609646540E+03  0.00000000000E+00 0.  1.
         21   -1    0    0  501  502  0.00000000000E+00 -0.00000000000E+00 -0.35553562260E+02  0.35553562260E+02  0.00000000000E+00 0.  1.
         24    2    1    2    0    0 -0.94987060153E+01 -0.34723838296E+02  0.21487592850E+03  0.22379302037E+03  0.51143728430E+02 0.  0.
         23    2    1    2    0    0 -0.14954577603E+02  0.38590145087E+02  0.56025418624E+02  0.11518592522E+03  0.91739365305E+02 0.  0.
        -11    1    3    3    0    0 -0.20877477439E+02 -0.28548153935E+02  0.20352464669E+03  0.20657479993E+03  0.00000000000E+00 0.  1.
         12    1    3    3    0    0  0.11378771424E+02 -0.61756843606E+01  0.11351281810E+02  0.17218220442E+02  0.00000000000E+00 0. -1.
        -11    1    4    4    0    0  0.28698385538E+02  0.40090618542E+02  0.51463600701E+02  0.71269609405E+02  0.00000000000E+00 0.  1.
         11    1    4    4    0    0 -0.43652963142E+02 -0.15004734550E+01  0.45618179232E+01  0.43916315811E+02  0.00000000000E+00 0. -1.
         -2    1    1    2    0  502  0.24453283618E+02 -0.38663067915E+01  0.99641556024E+02  0.10267108208E+03  0.00000000000E+00 0.  1.
<scales pt_clust_5="13000.00000" pt_clust_6="13000.00000" pt_clust_7="13000.00000" pt_clust_8="13000.00000" pt_clust_9="24.75706"></scales>
<clustering>
<clus scale="   24.757">  2  9  1 -1</clus>
<clus scale="   51.144">  5  6 -1 -1</clus>
<clus scale="   62.422">  1  5  2 -1</clus>
<clus scale="   91.739">  7  8 -1 -1</clus>
<clus scale="   24.757">  2  5  1 -1</clus>
</clustering>
</event>
<event>
 9    2  0.1592151E-004  0.2540757E+03  0.7546771E-02  0.1111513E+00
         21   -1    0    0  501  502  0.00000000000E+00  0.00000000000E+00  0.52949848790E+03  0.52949848790E+03  0.00000000000E+00 0. -1.
          4   -1    0    0  502    0 -0.00000000000E+00 -0.00000000000E+00 -0.99694173065E+03  0.99694173065E+03  0.00000000000E+00 0. -1.
         24    2    1    2    0    0  0.14722543460E+03 -0.19403525790E+03 -0.56571153120E+03  0.62039023332E+03  0.74360575316E+02 0.  0.
         23    2    1    2    0    0 -0.23039307097E+03 -0.42406524124E+01  0.43863689441E+03  0.50345716329E+03  0.89262757318E+02 0.  0.
        -11    1    3    3    0    0  0.97882107834E+01 -0.50882379908E+02 -0.75855919404E+02  0.91863736937E+02  0.00000000000E+00 0.  1.
         12    1    3    3    0    0  0.13743722382E+03 -0.14315287799E+03 -0.48985561179E+03  0.52852649638E+03  0.00000000000E+00 0. -1.
        -13    1    4    4    0    0 -0.16995640184E+03 -0.38844591299E+02  0.27484839862E+03  0.32547768438E+03  0.00000000000E+00 0.  1.
         13    1    4    4    0    0 -0.60436669129E+02  0.34603938887E+02  0.16378849579E+03  0.17797947892E+03  0.00000000000E+00 0. -1.
          3    1    1    2  501    0  0.83167636370E+02  0.19827591031E+03 -0.34036860596E+03  0.40259282194E+03  0.00000000000E+00 0. -1.
<scales pt_clust_5="13000.00000" pt_clust_6="13000.00000" pt_clust_7="13000.00000" pt_clust_8="13000.00000" pt_clust_9="215.01218"></scales>
<clustering>
<clus scale="   74.361">  5  6 -1 -1</clus>
<clus scale="   89.263">  7  8 -1 -1</clus>
<clus scale="  215.012">  1  9  2 -1</clus>
<clus scale="  249.231">  2  5  1 -1</clus>
<clus scale="  215.012">  1  5  2 -1</clus>
</clustering>
</event>
<event>
 9    2  0.1592151E-004  0.1041645E+03  0.7546771E-02  0.1275027E+00
          2   -1    0    0  502    0 -0.00000000000E+00  0.00000000000E+00  0.10524374859E+04  0.10524374859E+04  0.00000000000E+00 0. -1.
         21   -1    0    0  501  502  0.00000000000E+00 -0.00000000000E+00 -0.20761916186E+02  0.20761916186E+02  0.00000000000E+00 0.  1.
         24    2    1    2    0    0  0.31935629045E+02  0.48796976222E+02  0.78188850193E+03  0.78832744289E+03  0.81911528373E+02 0.  0.
         23    2    1    2    0    0 -0.11697638627E+02 -0.38886316492E+02  0.24180171722E+03  0.26096457007E+03  0.89361378794E+02 0.  0.
        -11    1    3    3    0    0  0.13167351565E+02  0.31801915279E+02  0.96211805240E+02  0.10218342542E+03  0.00000000000E+00 0.  1.
         12    1    3    3    0    0  0.18768277479E+02  0.16995060944E+02  0.68567669669E+03  0.68614401747E+03  0.00000000000E+00 0. -1.
        -11    1    4    4    0    0  0.10546220585E+02 -0.59725280589E+02  0.20153160561E+03  0.21045978231E+03  0.00000000000E+00 0.  1.
         11    1    4    4    0    0 -0.22243859213E+02  0.20838964097E+02  0.40270111610E+02  0.50504787757E+02  0.00000000000E+00 0. -1.
          1    1    1    2  501    0 -0.20237990417E+02 -0.99106597303E+01  0.79853506055E+01  0.23907389165E+02  0.00000000000E+00 0. -1.
<scales pt_clust_5="13000.00000" pt_clust_6="13000.00000" pt_clust_7="13000.00000" pt_clust_8="13000.00000" pt_clust_9="22.53436"></scales>
<clustering>
<clus scale="   22.534">  2  9  1 -1</clus>
<clus scale="   81.912">  5  6 -1 -1</clus>
<clus scale="   89.361">  7  8 -1 -1</clus>
<clus scale="   97.848">  1  5  2 -1</clus>
<clus scale="   22.534">  2  5  1 -1</clus>
</clustering>
</event>
<event>
 9    2  0.1592151E-004  0.9581442E+02  0.7546771E-02  0.1306487E+00
          2   -1    0    0  502    0 -0.00000000000E+00  0.00000000000E+00  0.10072939575E+04  0.10072939575E+04  0.00000000000E+00 0. -1.
         21   -1    0    0  501  502  0.00000000000E+00 -0.00000000000E+00 -0.27381897445E+02  0.27381897445E+02  0.00000000000E+00 0.  1.
         24    2    1    2    0    0 -0.25587968211E+02 -0.53408211820E+01  0.30552585055E+03  0.31418636192E+03  0.68437973201E+02 0.  0.
         23    2    1    2    0    0 -0.47259627750E+02 -0.75011116788E+00  0.11510535019E+03  0.15645141692E+03  0.94835484566E+02 0.  0.
        -11    1    3    3    0    0 -0.22956497794E+02  0.11031853234E+02  0.35715194361E+02  0.43866589621E+02  0.00000000000E+00 0.  1.
         12    1    3    3    0    0 -0.26314704167E+01 -0.16372674416E+02  0.26981065619E+03  0.27031977230E+03  0.00000000000E+00 0. -1.
        -11    1    4    4    0    0 -0.16948390815E+02  0.46685411174E+02  0.54396778926E+02  0.73659928898E+02  0.00000000000E+00 0. -1.
         11    1    4    4    0    0 -0.30311236935E+02 -0.47435522342E+02  0.60708571260E+02  0.82791488022E+02  0.00000000000E+00 0.  1.
          1    1    1    2  501    0  0.72847595960E+02  0.60909323499E+01  0.55928085935E+03  0.56403807614E+03  0.00000000000E+00 0. -1.
<scales pt_clust_5="13000.00000" pt_clust_6="13000.00000" pt_clust_7="13000.00000" pt_clust_8="13000.00000" pt_clust_9="73.10183"></scales>
<clustering>
<clus scale="   68.438">  5  6 -1 -1</clus>
<clus scale="   73.102">  2  9  1 -1</clus>
<clus scale="   69.788">  1  5  2 -1</clus>
<clus scale="   94.835">  7  8 -1 -1</clus>
<clus scale="   73.102">  2  5  1 -1</clus>
</clustering>
</event>
<event>
 9    2  0.1592151E-004  0.3881194E+03  0.7546771E-02  0.1092500E+00
         21   -1    0    0  501  502  0.00000000000E+00  0.00000000000E+00  0.98737574103E+03  0.98737574103E+03  0.00000000000E+00 0.  1.
          2   -1    0    0  502    0 -0.00000000000E+00 -0.00000000000E+00 -0.19892308203E+03  0.19892308203E+03  0.00000000000E+00 0. -1.
         23    2    1    2    0    0  0.65364794252E+02 -0.27050333410E+02  0.88638824750E+02  0.14464672201E+03  0.89786168582E+02 0.  0.
         24    2    1    2    0    0 -0.40364273223E+03 -0.70761506959E+02  0.41893700711E+03  0.59121796440E+03  0.78075728288E+02 0.  0.
        -11    1    4    4    0    0 -0.22753232056E+03 -0.40173317819E+01  0.25203626677E+03  0.33957234225E+03  0.00000000000E+00 0.  1.
         12    1    4    4    0    0 -0.17611041167E+03 -0.66744175177E+02  0.16690074035E+03  0.25164562215E+03  0.00000000000E+00 0. -1.
        -13    1    3    3    0    0  0.48637439795E+02  0.13210233417E+02  0.87568465199E+02  0.10103636432E+03  0.00000000000E+00 0.  1.
         13    1    3    3    0    0  0.16727354457E+02 -0.40260566827E+02  0.10703595513E+01  0.43610357690E+02  0.00000000000E+00 0. -1.
          1    1    1    2  501    0  0.33827793798E+03  0.97811840368E+02  0.28087682713E+03  0.45043413665E+03  0.00000000000E+00 0. -1.
<scales pt_clust_5="13000.00000" pt_clust_6="13000.00000" pt_clust_7="13000.00000" pt_clust_8="13000.00000" pt_clust_9="380.18549"></scales>
<clustering>
<clus scale="   78.076">  5  6 -1 -1</clus>
<clus scale="   89.786">  7  8 -1 -1</clus>
<clus scale="  114.306">  2  7  1 -1</clus>
<clus scale="  380.185">  1  9  2 -1</clus>
<clus scale="  380.185">  1  5  2 -1</clus>
</clustering>
</event>
<event>
 9    2  0.1592151E-004  0.1148318E+03  0.7546771E-02  0.1255728E+00
         21   -1    0    0  501  502  0.00000000000E+00  0.00000000000E+00  0.13908940991E+03  0.13908940991E+03  0.00000000000E+00 0. -1.
          2   -1    0    0  502    0 -0.00000000000E+00 -0.00000000000E+00 -0.49862114538E+03  0.49862114538E+03  0.00000000000E+00 0. -1.
         24    2    1    2    0    0  0.45499279463E+01  0.71629780588E+02 -0.43454296276E+03  0.44773722638E+03  0.80557495589E+02 0.  0.
         23    2    1    2    0    0 -0.19524032990E+02 -0.50338169711E+02 -0.45286083830E+01  0.10628257688E+03  0.91434996909E+02 0.  0.
        -11    1    3    3    0    0  0.25415679629E+02 -0.29981034342E+01 -0.59463009466E+02  0.64736349063E+02  0.00000000000E+00 0.  1.
         12    1    3    3    0    0 -0.20865751683E+02  0.74627884022E+02 -0.37507995329E+03  0.38300087732E+03  0.00000000000E+00 0. -1.
        -11    1    4    4    0    0  0.68582761614E+01 -0.70591318467E+02  0.65516215753E+01  0.71225655069E+02  0.00000000000E+00 0.  1.
         11    1    4    4    0    0 -0.26382309152E+02  0.20253148756E+02 -0.11080229958E+02  0.35056921808E+02  0.00000000000E+00 0. -1.
          1    1    1    2  501    0  0.14974105044E+02 -0.21291610877E+02  0.79539835677E+02  0.83690752028E+02  0.00000000000E+00 0. -1.
<scales pt_clust_5="13000.00000" pt_clust_6="13000.00000" pt_clust_7="13000.00000" pt_clust_8="13000.00000" pt_clust_9="26.02992"></scales>
<clustering>
<clus scale="   26.030">  1  9  2 -1</clus>
<clus scale="   80.557">  5  6 -1 -1</clus>
<clus scale="   91.435">  7  8 -1 -1</clus>
<clus scale="  106.374">  2  5  1 -1</clus>
<clus scale="   26.030">  1  5  2 -1</clus>
</clustering>
</event>
<event>
 9    2  0.1592151E-004  0.9128774E+02  0.7546771E-02  0.1305217E+00
         -1   -1    0    0    0  501 -0.00000000000E+00  0.00000000000E+00  0.21558021366E+03  0.21558021366E+03  0.00000000000E+00 0.  1.
         21   -1    0    0  501  502  0.00000000000E+00 -0.00000000000E+00 -0.71074844361E+02  0.71074844361E+02  0.00000000000E+00 0. -1.
         23    2    1    2    0    0  0.33783603505E+02 -0.67789003874E+01  0.13927151501E+03  0.16841269668E+03  0.88198617642E+02 0.  0.
         24    2    1    2    0    0 -0.18842926454E+00 -0.50573553314E+00  0.18671991339E+02  0.81333213700E+02  0.79159062123E+02 0.  0.
        -13    1    4    4    0    0 -0.25302813608E+02  0.10062183376E+02  0.38839639995E+02  0.47434139032E+02  0.00000000000E+00 0.  1.
         14    1    4    4    0    0  0.25114384344E+02 -0.10567918909E+02 -0.20167648656E+02  0.33899074668E+02  0.00000000000E+00 0. -1.
        -13    1    3    3    0    0  0.59917559924E+01  0.25696421562E+02  0.11753346535E+03  0.12045880083E+03  0.00000000000E+00 0. -1.
         13    1    3    3    0    0  0.27791847512E+02 -0.32475321950E+02  0.21738049658E+02  0.47953895846E+02  0.00000000000E+00 0.  1.
         -2    1    1    2    0  502 -0.33595174240E+02  0.72846359206E+01 -0.13438137043E+02  0.36909147646E+02  0.00000000000E+00 0.  1.
<scales pt_clust_5="13000.00000" pt_clust_6="13000.00000" pt_clust_7="13000.00000" pt_clust_8="13000.00000" pt_clust_9="34.37589"></scales>
<clustering>
<clus scale="   34.376">  2  9  1 -1</clus>
<clus scale="   79.159">  5  6 -1 -1</clus>
<clus scale="   82.587">  2  5  1 -1</clus>
<clus scale="   88.199">  7  8 -1 -1</clus>
<clus scale="   34.376">  2  5  1 -1</clus>
</clustering>
</event>
<event>
 9    2  0.1592151E-004  0.2485188E+03  0.7546771E-02  0.1126417E+00
         21   -1    0    0  501  502  0.00000000000E+00  0.00000000000E+00  0.38850499436E+03  0.38850499436E+03  0.00000000000E+00 0.  1.
          2   -1    0    0  502    0 -0.00000000000E+00 -0.00000000000E+00 -0.63033725024E+03  0.63033725024E+03  0.00000000000E+00 0. -1.
         24    2    1    2    0    0  0.97344189768E+02 -0.13138919060E+03 -0.21590860754E+03  0.28323933236E+03  0.82879321302E+02 0.  0.
         23    2    1    2    0    0  0.70588347216E+02 -0.19620647438E+03  0.19981764438E+03  0.30377031975E+03  0.94178664278E+02 0.  0.
        -13    1    3    3    0    0  0.72241934066E+02 -0.33415165591E+02 -0.11900665665E+03  0.14317141703E+03  0.00000000000E+00 0.  1.
         14    1    3    3    0    0  0.25102255702E+02 -0.97974025011E+02 -0.96901950893E+02  0.14006791533E+03  0.00000000000E+00 0. -1.
        -11    1    4    4    0    0  0.49892566904E+02 -0.13594970861E+03  0.19063229799E+03  0.23939980063E+03  0.00000000000E+00 0.  1.
         11    1    4    4    0    0  0.20695780312E+02 -0.60256765770E+02  0.91853463859E+01  0.64370519122E+02  0.00000000000E+00 0. -1.
          1    1    1    2  501    0 -0.16793253698E+03  0.32759566498E+03 -0.22574129272E+03  0.43183259249E+03  0.00000000000E+00 0. -1.
<scales pt_clust_5="13000.00000" pt_clust_6="13000.00000" pt_clust_7="13000.00000" pt_clust_8="13000.00000" pt_clust_9="229.98267"></scales>
<clustering>
<clus scale="   82.879">  5  6 -1 -1</clus>
<clus scale="   94.179">  7  8 -1 -1</clus>
<clus scale="  183.325">  2  5  1 -1</clus>
<clus scale="  229.983">  1  9  2 -1</clus>
<clus scale="  229.983">  1  5  2 -1</clus>
</clustering>
</event>
<event>
 9    2  0.1592151E-004  0.2460130E+03  0.7546771E-02  0.1116572E+00
          2   -1    0    0  502    0 -0.00000000000E+00  0.00000000000E+00  0.17147853122E+04  0.17147853122E+04  0.00000000000E+00 0. -1.
         21   -1    0    0  501  502  0.00000000000E+00 -0.00000000000E+00 -0.12686494361E+03  0.12686494361E+03  0.00000000000E+00 0. -1.
         24    2    1    2    0    0 -0.33414514348E+02 -0.22336104598E+03  0.14950182218E+04  0.15140428743E+04  0.78991486935E+02 0.  0.
         23    2    1    2    0    0  0.29820489615E+02  0.24920939011E+03  0.11736912458E+03  0.29183466980E+03  0.91637226990E+02 0.  0.
        -13    1    3    3    0    0  0.18257547343E+02 -0.15454631002E+02  0.11154287187E+03  0.11407890217E+03  0.00000000000E+00 0.  1.
         14    1    3    3    0    0 -0.51672061691E+02 -0.20790641498E+03  0.13834753499E+04  0.13999639721E+04  0.00000000000E+00 0. -1.
        -11    1    4    4    0    0 -0.31600229340E+01  0.19606965346E+03  0.55353185385E+02  0.20375787073E+03  0.00000000000E+00 0.  1.
         11    1    4    4    0    0  0.32980512549E+02  0.53139736650E+02  0.62015939194E+02  0.88076799064E+02  0.00000000000E+00 0. -1.
          1    1    1    2  501    0  0.35940247337E+01 -0.25848344134E+02 -0.24466977747E+02  0.35772711784E+02  0.00000000000E+00 0. -1.
<scales pt_clust_5="13000.00000" pt_clust_6="13000.00000" pt_clust_7="13000.00000" pt_clust_8="13000.00000" pt_clust_9="26.09701"></scales>
<clustering>
<clus scale="   26.097">  2  9  1 -1</clus>
<clus scale="   78.991">  5  6 -1 -1</clus>
<clus scale="   91.637">  7  8 -1 -1</clus>
<clus scale="  241.588">  1  5  2 -1</clus>
<clus scale="   26.097">  2  5  1 -1</clus>
</clustering>
</event>
<event>
 9    2  0.1592151E-004  0.1222773E+03  0.7546771E-02  0.1246403E+00
         21   -1    0    0  501  502  0.00000000000E+00  0.00000000000E+00  0.25437981914E+03  0.25437981914E+03  0.00000000000E+00 0.  1.
          2   -1    0    0  502    0 -0.00000000000E+00 -0.00000000000E+00 -0.19308799356E+03  0.19308799356E+03  0.00000000000E+00 0. -1.
         24    2    1    2    0    0  0.45435585075E+02 -0.43141798697E+02 -0.13683350098E+03  0.17354606633E+03  0.86424666404E+02 0.  0.
         23    2    1    2    0    0 -0.65464945297E+02  0.62881590298E+00  0.18875652099E+03  0.22600198535E+03  0.10564950874E+03 0.  0.
        -13    1    3    3    0    0  0.54015810025E+02 -0.64143605089E+02 -0.11192106453E+03  0.13985147297E+03  0.00000000000E+00 0.  1.
         14    1    3    3    0    0 -0.85802249503E+01  0.21001806393E+02 -0.24912436456E+02  0.33694593366E+02  0.00000000000E+00 0. -1.
        -11    1    4    4    0    0 -0.89304348567E+02  0.56196455247E+01  0.10103835127E+03  0.13496516409E+03  0.00000000000E+00 0. -1.
         11    1    4    4    0    0  0.23839403271E+02 -0.49908296217E+01  0.87718169713E+02  0.91036821267E+02  0.00000000000E+00 0.  1.
          1    1    1    2  501    0  0.20029360222E+02  0.42512982794E+02  0.93688055762E+01  0.47919761006E+02  0.00000000000E+00 0. -1.
<scales pt_clust_5="13000.00000" pt_clust_6="13000.00000" pt_clust_7="13000.00000" pt_clust_8="13000.00000" pt_clust_9="46.99499"></scales>
<clustering>
<clus scale="   46.995">  1  9  2 -1</clus>
<clus scale="   86.425">  5  6 -1 -1</clus>
<clus scale="  105.650">  7  8 -1 -1</clus>
<clus scale="  106.109">  2  5  1 -1</clus>
<clus scale="   46.995">  1  5  2 -1</clus>
</clustering>
</event>
<event>
 9    2  0.1592151E-004  0.9476302E+02  0.7546771E-02  0.1297276E+00
         -1   -1    0    0    0  501 -0.00000000000E+00  0.00000000000E+00  0.22604012215E+03  0.22604012215E+03  0.00000000000E+00 0.  1.
         21   -1    0    0  501  502  0.00000000000E+00 -0.00000000000E+00 -0.52629540090E+02  0.52629540090E+02  0.00000000000E+00 0. -1.
         23    2    1    2    0    0  0.25761969318E+02 -0.23334981200E+02  0.12768976314E+03  0.16068719361E+03  0.91145478040E+02 0.  0.
         24    2    1    2    0    0 -0.28599493201E+01  0.14571846073E+02  0.43132843830E+02  0.93324961212E+02  0.81416141889E+02 0.  0.
        -13    1    4    4    0    0  0.22295831834E+01  0.29873138696E+02  0.61787707368E+02  0.68666558371E+02  0.00000000000E+00 0.  1.
         14    1    4    4    0    0 -0.50895325034E+01 -0.15301292622E+02 -0.18654863538E+02  0.24658402840E+02  0.00000000000E+00 0. -1.
        -11    1    3    3    0    0 -0.18565103510E+02 -0.15865924817E+02 -0.92963302034E+00  0.24438798174E+02  0.00000000000E+00 0. -1.
         11    1    3    3    0    0  0.44327072828E+02 -0.74690563834E+01  0.12861939616E+03  0.13624839543E+03  0.00000000000E+00 0.  1.
         -2    1    1    2    0  502 -0.22902019998E+02  0.87631351266E+01  0.25879750864E+01  0.24657507422E+02  0.00000000000E+00 0.  1.
<scales pt_clust_5="13000.00000" pt_clust_6="13000.00000" pt_clust_7="13000.00000" pt_clust_8="13000.00000" pt_clust_9="24.52132"></scales>
<clustering>
<clus scale="   24.521">  2  9  1 -1</clus>
<clus scale="   81.416">  5  6 -1 -1</clus>
<clus scale="   85.447">  2  5  1 -1</clus>
<clus scale="   91.145">  7  8 -1 -1</clus>
<clus scale="   24.521">  2  5  1 -1</clus>
</clustering>
</event>
<event>
 9    2  0.1592151E-004  0.1427453E+03  0.7546771E-02  0.1234894E+00
         21   -1    0    0  501  502  0.00000000000E+00  0.00000000000E+00  0.27852347283E+02  0.27852347283E+02  0.00000000000E+00 0. -1.
          2   -1    0    0  502    0 -0.00000000000E+00 -0.00000000000E+00 -0.10684190409E+04  0.10684190409E+04  0.00000000000E+00 0. -1.
         24    2    1    2    0    0 -0.31948592594E+02 -0.65061299789E+01 -0.28076461246E+03  0.29312941559E+03  0.77672674588E+02 0.  0.
         23    2    1    2    0    0  0.58035521192E+02  0.10856133237E+03 -0.50125352578E+03  0.52395897228E+03  0.90134471310E+02 0.  0.
        -13    1    3    3    0    0 -0.34125040699E+02  0.15342247190E+02 -0.56332453316E+02  0.67625795730E+02  0.00000000000E+00 0.  1.
         14    1    3    3    0    0  0.21764481049E+01 -0.21848377168E+02 -0.22443215914E+03  0.22550361986E+03  0.00000000000E+00 0. -1.
        -11    1    4    4    0    0  0.52976380101E+02  0.71255860575E+02 -0.45838881696E+03  0.46690920105E+03  0.00000000000E+00 0. -1.
         11    1    4    4    0    0  0.50591410904E+01  0.37305471798E+02 -0.42864708821E+02  0.57049771226E+02  0.00000000000E+00 0.  1.
          1    1    1    2  501    0 -0.26086928598E+02 -0.10205520239E+03 -0.25854855542E+03  0.27918300036E+03  0.00000000000E+00 0. -1.
<scales pt_clust_5="13000.00000" pt_clust_6="13000.00000" pt_clust_7="13000.00000" pt_clust_8="13000.00000" pt_clust_9="110.68877"></scales>
<clustering>
<clus scale="   77.673">  5  6 -1 -1</clus>
<clus scale="   84.238">  2  5  1 -1</clus>
<clus scale="   90.134">  7  8 -1 -1</clus>
<clus scale="  110.689">  1  9  2 -1</clus>
<clus scale="  110.689">  1  5  2 -1</clus>
</clustering>
</event>
<event>
 9    2  0.1592151E-004  0.1050182E+03  0.7546771E-02  0.1276385E+00
          2   -1    0    0  502    0 -0.00000000000E+00  0.00000000000E+00  0.25981023088E+03  0.25981023088E+03  0.00000000000E+00 0. -1.
         21   -1    0    0  501  502  0.00000000000E+00 -0.00000000000E+00 -0.14342479683E+03  0.14342479683E+03  0.00000000000E+00 0. -1.
         24    2    1    2    0    0 -0.28078546696E+02  0.29805103894E+02  0.17218444927E+03  0.19470051515E+03  0.81142202502E+02 0.  0.
         23    2    1    2    0    0  0.61321643056E+01 -0.88008178916E+02 -0.71862787724E+01  0.12958870971E+03  0.94649606905E+02 0.  0.
        -11    1    3    3    0    0  0.24948257505E+02  0.27829766691E+02  0.61774197361E+02  0.72200851284E+02  0.00000000000E+00 0.  1.
         12    1    3    3    0    0 -0.53026804201E+02  0.19753372029E+01  0.11041025191E+03  0.12249966386E+03  0.00000000000E+00 0. -1.
        -13    1    4    4    0    0  0.46368129731E+02 -0.29427182818E+02  0.11491616357E+02  0.56107216914E+02  0.00000000000E+00 0.  1.
         13    1    4    4    0    0 -0.40235965425E+02 -0.58580996098E+02 -0.18677895129E+02  0.73481492799E+02  0.00000000000E+00 0. -1.
          1    1    1    2  501    0  0.21946382390E+02  0.58203075022E+02 -0.48612736450E+02  0.78945802847E+02  0.00000000000E+00 0. -1.
<scales pt_clust_5="13000.00000" pt_clust_6="13000.00000" pt_clust_7="13000.00000" pt_clust_8="13000.00000" pt_clust_9="62.20323"></scales>
<clustering>
<clus scale="   62.203">  2  9  1 -1</clus>
<clus scale="   81.142">  5  6 -1 -1</clus>
<clus scale="   93.029">  1  5  2 -1</clus>
<clus scale="   94.650">  7  8 -1 -1</clus>
<clus scale="   62.203">  2  5  1 -1</clus>
</clustering>
</event>
<event>
 9    2  0.1592151E-004  0.1532944E+03  0.7546771E-02  0.1225292E+00
          2   -1    0    0  502    0 -0.00000000000E+00  0.00000000000E+00  0.10502913338E+03  0.10502913338E+03  0.00000000000E+00 0. -1.
         21   -1    0    0  501  502  0.00000000000E+00 -0.00000000000E+00 -0.84767608884E+03  0.84767608884E+03  0.00000000000E+00 0. -1.
         24    2    1    2    0    0 -0.10846116733E+02 -0.17186655039E+02  0.57438848437E+02  0.10087937813E+03  0.80401543902E+02 0.  0.
         23    2    1    2    0    0  0.11753895659E+03 -0.45294441156E+02 -0.57108092843E+03  0.59157503729E+03  0.89222223749E+02 0.  0.
        -11    1    3    3    0    0 -0.45000551577E+02 -0.18707819124E+02  0.34431425347E+02  0.59670387883E+02  0.00000000000E+00 0.  1.
         12    1    3    3    0    0  0.34154434845E+02  0.15211640846E+01  0.23007423089E+02  0.41208990244E+02  0.00000000000E+00 0. -1.
        -13    1    4    4    0    0  0.10459661805E+03 -0.69090525424E+02 -0.50091048260E+03  0.51635769074E+03  0.00000000000E+00 0. -1.
         13    1    4    4    0    0  0.12942338534E+02  0.23796084268E+02 -0.70170445829E+02  0.75217346544E+02  0.00000000000E+00 0.  1.
          1    1    1    2  501    0 -0.10669283985E+03  0.62481096195E+02 -0.22900487547E+03  0.26025080681E+03  0.00000000000E+00 0. -1.
<scales pt_clust_5="13000.00000" pt_clust_6="13000.00000" pt_clust_7="13000.00000" pt_clust_8="13000.00000" pt_clust_9="124.65383"></scales>
<clustering>
<clus scale="   80.402">  5  6 -1 -1</clus>
<clus scale="   82.930">  1  5  2 -1</clus>
<clus scale="   89.222">  7  8 -1 -1</clus>
<clus scale="  124.654">  2  9  1 -1</clus>
<clus scale="  124.654">  2  5  1 -1</clus>
</clustering>
</event>
<event>
 9    2  0.1592151E-004  0.8735489E+02  0.7546771E-02  0.1310480E+00
          4   -1    0    0  502    0 -0.00000000000E+00  0.00000000000E+00  0.36716949676E+03  0.36716949676E+03  0.00000000000E+00 0. -1.
         21   -1    0    0  501  502  0.00000000000E+00 -0.00000000000E+00 -0.11287932458E+03  0.11287932458E+03  0.00000000000E+00 0. -1.
         24    2    1    2    0    0  0.10678469043E+02 -0.34402159730E+02  0.33601574146E+03  0.34690760850E+03  0.78363078256E+02 0.  0.
         23    2    1    2    0    0 -0.74135794865E+01  0.11626820443E+02 -0.57096299044E+02  0.99436961837E+02  0.80234518136E+02 0.  0.
        -11    1    3    3    0    0  0.36390499289E+02 -0.31612157010E+02  0.29121517336E+03  0.29517769920E+03  0.00000000000E+00 0.  1.
         12    1    3    3    0    0 -0.25712030247E+02 -0.27900027202E+01  0.44800568098E+02  0.51729909303E+02  0.00000000000E+00 0. -1.
        -13    1    4    4    0    0  0.35324655393E+02  0.47489055478E+01 -0.38073759111E+02  0.52153566660E+02  0.00000000000E+00 0. -1.
         13    1    4    4    0    0 -0.42738234880E+02  0.68779148948E+01 -0.19022539933E+02  0.47283395177E+02  0.00000000000E+00 0.  1.
          3    1    1    2  501    0 -0.32648895561E+01  0.22775339287E+02 -0.24629270237E+02  0.33704251006E+02  0.00000000000E+00 0. -1.
<scales pt_clust_5="13000.00000" pt_clust_6="13000.00000" pt_clust_7="13000.00000" pt_clust_8="13000.00000" pt_clust_9="23.00816"></scales>
<clustering>
<clus scale="   23.008">  2  9  1 -1</clus>
<clus scale="   78.363">  5  6 -1 -1</clus>
<clus scale="   80.235">  7  8 -1 -1</clus>
<clus scale="   85.639">  1  5  2 -1</clus>
<clus scale="   23.008">  2  5  1 -1</clus>
</clustering>
</event>
<event>
 9    2  0.1592151E-004  0.2744627E+03  0.7546771E-02  0.1131555E+00
          2   -1    0    0  502    0 -0.00000000000E+00  0.00000000000E+00  0.13729554733E+04  0.13729554733E+04  0.00000000000E+00 0. -1.
         21   -1    0    0  501  502  0.00000000000E+00 -0.00000000000E+00 -0.86302228663E+02  0.86302228663E+02  0.00000000000E+00 0. -1.
         23    2    1    2    0    0 -0.72122206596E+02 -0.13837296646E+02  0.17292708438E+03  0.21044743038E+03  0.94822259934E+02 0.  0.
         24    2    1    2    0    0  0.27644581349E+02  0.26750954586E+03  0.38911359198E+03  0.47979060781E+03  0.80399377294E+02 0.  0.
        -13    1    4    4    0    0 -0.13819653187E+01  0.12897933941E+03  0.12224744587E+03  0.17771330238E+03  0.00000000000E+00 0.  1.
         14    1    4    4    0    0  0.29026546667E+02  0.13853020646E+03  0.26686614611E+03  0.30207730542E+03  0.00000000000E+00 0. -1.
        -11    1    3    3    0    0  0.22888078831E+02 -0.43096357005E+01  0.46564086290E+02  0.52063914994E+02  0.00000000000E+00 0.  1.
         11    1    3    3    0    0 -0.95010285428E+02 -0.95276609459E+01  0.12636299809E+03  0.15838351539E+03  0.00000000000E+00 0. -1.
          1    1    1    2  501    0  0.44477625248E+02 -0.25367224922E+03  0.72461256824E+03  0.76901966374E+03  0.00000000000E+00 0. -1.
<scales pt_clust_5="13000.00000" pt_clust_6="13000.00000" pt_clust_7="13000.00000" pt_clust_8="13000.00000" pt_clust_9="262.42292"></scales>
<clustering>
<clus scale="   80.399">  5  6 -1 -1</clus>
<clus scale="   94.822">  7  8 -1 -1</clus>
<clus scale="  119.935">  1  7  2 -1</clus>
<clus scale="  262.423">  2  9  1 -1</clus>
<clus scale="  262.423">  2  5  1 -1</clus>
</clustering>
</event>
<event>
 9    2  0.1592151E-004  0.9451527E+02  0.7546771E-02  0.1292981E+00
         21   -1    0    0  501  502  0.00000000000E+00  0.00000000000E+00  0.13115748197E+03  0.13115748197E+03  0.00000000000E+00 0. -1.
         -1   -1    0    0    0  501 -0.00000000000E+00 -0.00000000000E+00 -0.31108386467E+03  0.31108386467E+03  0.00000000000E+00 0.  1.
         23    2    1    2    0    0  0.19289132015E+02 -0.26726786877E+01 -0.20517056992E+03  0.22528475723E+03  0.90989258995E+02 0.  0.
         24    2    1    2    0    0 -0.84540472373E+02 -0.33826282109E+02  0.51375908785E+02  0.13775571550E+03  0.89698630526E+02 0.  0.
        -13    1    4    4    0    0 -0.35286500392E+02  0.13159337585E+02 -0.16958640493E+02  0.41302551531E+02  0.00000000000E+00 0.  1.
         14    1    4    4    0    0 -0.49253971981E+02 -0.46985619694E+02  0.68334549278E+02  0.96453163965E+02  0.00000000000E+00 0. -1.
        -11    1    3    3    0    0  0.93683735795E+01  0.34805330526E+02 -0.16712029261E+03  0.17096306519E+03  0.00000000000E+00 0. -1.
         11    1    3    3    0    0  0.99207584353E+01 -0.37478009213E+02 -0.38050277307E+02  0.54321692036E+02  0.00000000000E+00 0.  1.
         -2    1    1    2    0  502  0.65251340358E+02  0.36498960797E+02 -0.26131721560E+02  0.79200873919E+02  0.00000000000E+00 0.  1.
<scales pt_clust_5="13000.00000" pt_clust_6="13000.00000" pt_clust_7="13000.00000" pt_clust_8="13000.00000" pt_clust_9="74.76571"></scales>
<clustering>
<clus scale="   74.766">  1  9  2 -1</clus>
<clus scale="   89.699">  5  6 -1 -1</clus>
<clus scale="   90.989">  7  8 -1 -1</clus>
<clus scale="   93.273">  1  5  2 -1</clus>
<clus scale="   74.766">  1  5  2 -1</clus>
</clustering>
</event>
<event>
 9    2  0.1592151E-004  0.9754193E+02  0.7546771E-02  0.1293089E+00
         21   -1    0    0  501  502  0.00000000000E+00  0.00000000000E+00  0.11706990893E+03  0.11706990893E+03  0.00000000000E+00 0.  1.
          2   -1    0    0  502    0 -0.00000000000E+00 -0.00000000000E+00 -0.13546185747E+03  0.13546185747E+03  0.00000000000E+00 0. -1.
         23    2    1    2    0    0  0.33808316049E+02 -0.51496408003E+01 -0.74969521349E+02  0.12367691236E+03  0.92228132832E+02 0.  0.
         24    2    1    2    0    0 -0.24775148859E+02 -0.17307632107E+02  0.61432958177E+02  0.10416676009E+03  0.78506964198E+02 0.  0.
        -11    1    4    4    0    0 -0.18738580029E+02 -0.18951396756E+02  0.80132560754E+02  0.84448310305E+02  0.00000000000E+00 0.  1.
         12    1    4    4    0    0 -0.60365688303E+01  0.16437646490E+01 -0.18699602577E+02  0.19718449787E+02  0.00000000000E+00 0. -1.
        -13    1    3    3    0    0  0.18428314774E+02 -0.21390647684E+02  0.14299211615E+02  0.31648539407E+02  0.00000000000E+00 0.  1.
         13    1    3    3    0    0  0.15380001275E+02  0.16241006884E+02 -0.89268732964E+02  0.92028372955E+02  0.00000000000E+00 0. -1.
          1    1    1    2  501    0 -0.90331671894E+01  0.22457272908E+02 -0.48553853707E+01  0.24688093953E+02  0.00000000000E+00 0. -1.
<scales pt_clust_5="13000.00000" pt_clust_6="13000.00000" pt_clust_7="13000.00000" pt_clust_8="13000.00000" pt_clust_9="24.20595"></scales>
<clustering>
<clus scale="   24.206">  1  9  2 -1</clus>
<clus scale="   78.507">  5  6 -1 -1</clus>
<clus scale="   84.686">  1  5  2 -1</clus>
<clus scale="   92.228">  7  8 -1 -1</clus>
<clus scale="   24.206">  1  5  2 -1</clus>
</clustering>
</event>
<event>
 9    2  0.1592151E-004  0.1246601E+03  0.7546771E-02  0.1244746E+00
         21   -1    0    0  501  502  0.00000000000E+00  0.00000000000E+00  0.16492793909E+03  0.16492793909E+03  0.00000000000E+00 0. -1.
          2   -1    0    0  502    0 -0.00000000000E+00 -0.00000000000E+00 -0.20669348221E+03  0.20669348221E+03  0.00000000000E+00 0. -1.
         24    2    1    2    0    0  0.20089192476E+02 -0.63834153223E+02 -0.89553547373E+02  0.13689313580E+03  0.79003278482E+02 0.  0.
         23    2    1    2    0    0 -0.35782665343E+02 -0.52036274693E+02  0.36085052580E+02  0.11721573198E+03  0.91919659384E+02 0.  0.
        -13    1    3    3    0    0  0.34961515072E+02 -0.34191459238E+02 -0.89236508599E+01  0.49709103448E+02  0.00000000000E+00 0.  1.
         14    1    3    3    0    0 -0.14872322596E+02 -0.29642693986E+02 -0.80629896513E+02  0.87184032355E+02  0.00000000000E+00 0. -1.
        -13    1    4    4    0    0  0.22185863937E+02 -0.16505437347E+02  0.40546833326E+02  0.49078383362E+02  0.00000000000E+00 0.  1.
         13    1    4    4    0    0 -0.57968529280E+02 -0.35530837346E+02 -0.44617807457E+01  0.68137348619E+02  0.00000000000E+00 0. -1.
          1    1    1    2  501    0  0.15693472867E+02  0.11587042792E+03  0.11702951664E+02  0.11751255352E+03  0.00000000000E+00 0. -1.
<scales pt_clust_5="13000.00000" pt_clust_6="13000.00000" pt_clust_7="13000.00000" pt_clust_8="13000.00000" pt_clust_9="84.20755"></scales>
<clustering>
<clus scale="   79.003">  5  6 -1 -1</clus>
<clus scale="   91.920">  7  8 -1 -1</clus>
<clus scale="  103.537">  2  5  1 -1</clus>
<clus scale="   84.208">  1  9  2 -1</clus>
<clus scale="   84.208">  1  5  2 -1</clus>
</clustering>
</event>
<event>
 9    2  0.1592151E-004  0.1576664E+03  0.7546771E-02  0.1200932E+00
         21   -1    0    0  501  502  0.00000000000E+00  0.00000000000E+00  0.36473715580E+02  0.36473715580E+02  0.00000000000E+00 0.  1.
          4   -1    0    0  502    0 -0.00000000000E+00 -0.00000000000E+00 -0.15189977700E+04  0.15189977700E+04  0.00000000000E+00 0. -1.
         24    2    1    2    0    0  0.54549382112E+02  0.83039638972E+02 -0.42268646289E+03  0.44160945014E+03  0.80522318759E+02 0.  0.
         23    2    1    2    0    0  0.10097045601E+03 -0.80236717980E+02 -0.30397149194E+03  0.34215753440E+03  0.89666864193E+02 0.  0.
        -11    1    3    3    0    0  0.47358793967E+02  0.98348393202E+02 -0.38730298053E+03  0.40239142702E+03  0.00000000000E+00 0.  1.
         12    1    3    3    0    0  0.71905881448E+01 -0.15308754231E+02 -0.35383482353E+02  0.39218023119E+02  0.00000000000E+00 0. -1.
        -13    1    4    4    0    0  0.23983669765E+02 -0.54911437058E+02 -0.58856394671E+02  0.83991413423E+02  0.00000000000E+00 0.  1.
         13    1    4    4    0    0  0.76986786240E+02 -0.25325280922E+02 -0.24511509727E+03  0.25816612097E+03  0.00000000000E+00 0. -1.
          3    1    1    2  501    0 -0.15551983812E+03 -0.28029209919E+01 -0.75586609963E+03  0.77170450108E+03  0.00000000000E+00 0. -1.
<scales pt_clust_5="13000.00000" pt_clust_6="13000.00000" pt_clust_7="13000.00000" pt_clust_8="13000.00000" pt_clust_9="129.68636"></scales>
<clustering>
<clus scale="   80.522">  5  6 -1 -1</clus>
<clus scale="   89.667">  7  8 -1 -1</clus>
<clus scale="  127.887">  2  5  1 -1</clus>
<clus scale="  129.686">  1  9  2 -1</clus>
<clus scale="  129.686">  1  5  2 -1</clus>
</clustering>
</event>
<event>
 9    2  0.1592151E-004  0.1998398E+03  0.7546771E-02  0.1150782E+00
          2   -1    0    0  502    0 -0.00000000000E+00  0.00000000000E+00  0.13818142833E+04  0.13818142833E+04  0.00000000000E+00 0. -1.
         21   -1    0    0  501  502  0.00000000000E+00 -0.00000000000E+00 -0.10773293698E+03  0.10773293698E+03  0.00000000000E+00 0. -1.
         23    2    1    2    0    0  0.64163998024E+02 -0.18130107926E+03  0.12403972557E+04  0.12585730725E+04  0.91835324666E+02 0.  0.
         24    2    1    2    0    0 -0.13550260365E+02  0.98490015576E+02  0.35926172921E+02  0.13389454306E+03  0.82177649253E+02 0.  0.
        -13    1    4    4    0    0  0.19228930264E+02  0.93449836685E+02  0.21917184534E+02  0.97892730647E+02  0.00000000000E+00 0.  1.
         14    1    4    4    0    0 -0.32779190629E+02  0.50401788912E+01  0.14008988387E+02  0.36001812415E+02  0.00000000000E+00 0. -1.
        -13    1    3    3    0    0  0.87128880087E+02 -0.12560889209E+03  0.88396626782E+03  0.89708717423E+03  0.00000000000E+00 0. -1.
         13    1    3    3    0    0 -0.22964882063E+02 -0.55692187173E+02  0.35643098790E+03  0.36148589828E+03  0.00000000000E+00 0.  1.
          1    1    1    2  501    0 -0.50613737660E+02  0.82811063683E+02 -0.22420823637E+01  0.97079604663E+02  0.00000000000E+00 0. -1.
<scales pt_clust_5="13000.00000" pt_clust_6="13000.00000" pt_clust_7="13000.00000" pt_clust_8="13000.00000" pt_clust_9="97.05371"></scales>
<clustering>
<clus scale="   82.178">  5  6 -1 -1</clus>
<clus scale="   91.835">  7  8 -1 -1</clus>
<clus scale="   97.054">  2  9  1 -1</clus>
<clus scale="  195.590">  2  5  1 -1</clus>
<clus scale="   97.054">  2  5  1 -1</clus>
</clustering>
</event>
<event>
 9    2  0.1592151E-004  0.9948475E+02  0.7546771E-02  0.1285660E+00
         21   -1    0    0  501  502  0.00000000000E+00  0.00000000000E+00  0.54896908197E+02  0.54896908197E+02  0.00000000000E+00 0.  1.
          2   -1    0    0  502    0 -0.00000000000E+00 -0.00000000000E+00 -0.79027107907E+03  0.79027107907E+03  0.00000000000E+00 0. -1.
         23    2    1    2    0    0 -0.36376052892E+01 -0.20814280232E+02 -0.10752345242E+03  0.14167220060E+03  0.89795618875E+02 0.  0.
         24    2    1    2    0    0  0.40447669212E+02  0.79784965129E+02 -0.66524792408E+02  0.13788167993E+03  0.81142806529E+02 0.  0.
        -11    1    4    4    0    0  0.39931404329E+02  0.31113449247E+02  0.55345905914E+01  0.50923427504E+02  0.00000000000E+00 0.  1.
         12    1    4    4    0    0  0.51626488337E+00  0.48671515882E+02 -0.72059382999E+02  0.86958252431E+02  0.00000000000E+00 0. -1.
        -13    1    3    3    0    0 -0.37668969847E+02  0.16487873444E+02 -0.56592852386E+02  0.69953929133E+02  0.00000000000E+00 0.  1.
         13    1    3    3    0    0  0.34031364558E+02 -0.37302153676E+02 -0.50930600036E+02  0.71718271469E+02  0.00000000000E+00 0. -1.
          1    1    1    2  501    0 -0.36810063923E+02 -0.58970684897E+02 -0.56132592604E+03  0.56561410673E+03  0.00000000000E+00 0. -1.
<scales pt_clust_5="13000.00000" pt_clust_6="13000.00000" pt_clust_7="13000.00000" pt_clust_8="13000.00000" pt_clust_9="69.51638"></scales>
<clustering>
<clus scale="   69.516">  1  9  2 -1</clus>
<clus scale="   81.143">  5  6 -1 -1</clus>
<clus scale="   89.796">  7  8 -1 -1</clus>
<clus scale="   91.750">  1  5  2 -1</clus>
<clus scale="   69.516">  1  5  2 -1</clus>
</clustering>
</event>
<event>
 9    2  0.1592151E-004  0.9423042E+02  0.7546771E-02  0.1298868E+00
         21   -1    0    0  501  502  0.00000000000E+00  0.00000000000E+00  0.12495825703E+03  0.12495825703E+03  0.00000000000E+00 0.  1.
          2   -1    0    0  502    0 -0.00000000000E+00 -0.00000000000E+00 -0.16619674554E+03  0.16619674554E+03  0.00000000000E+00 0. -1.
         24    2    1    2    0    0 -0.18647307812E+02 -0.89586020991E+01 -0.99539106766E+02  0.12936592932E+03  0.79997070281E+02 0.  0.
         23    2    1    2    0    0  0.40410459959E+02  0.44243677801E+02  0.33369901079E+02  0.11341333534E+03  0.90324559430E+02 0.  0.
        -13    1    3    3    0    0  0.10926928122E+02 -0.25097776385E+02 -0.90405125609E+02  0.94458365823E+02  0.00000000000E+00 0.  1.
         14    1    3    3    0    0 -0.29574235934E+02  0.16139174286E+02 -0.91339811575E+01  0.34907563500E+02  0.00000000000E+00 0. -1.
        -11    1    4    4    0    0 -0.18836023579E+01  0.23834536255E+02  0.56290401676E+02  0.61157521183E+02  0.00000000000E+00 0.  1.
         11    1    4    4    0    0  0.42294062317E+02  0.20409141546E+02 -0.22920500598E+02  0.52255814161E+02  0.00000000000E+00 0. -1.
          1    1    1    2  501    0 -0.21763152147E+02 -0.35285075702E+02  0.24930717176E+02  0.48375737902E+02  0.00000000000E+00 0. -1.
<scales pt_clust_5="13000.00000" pt_clust_6="13000.00000" pt_clust_7="13000.00000" pt_clust_8="13000.00000" pt_clust_9="41.45686"></scales>
<clustering>
<clus scale="   41.457">  1  9  2 -1</clus>
<clus scale="   79.997">  5  6 -1 -1</clus>
<clus scale="   84.382">  2  5  1 -1</clus>
<clus scale="   90.325">  7  8 -1 -1</clus>
<clus scale="   41.457">  1  5  2 -1</clus>
</clustering>
</event>
<event>
 9    2  0.1592151E-004  0.1459730E+03  0.7546771E-02  0.1209444E+00
         21   -1    0    0  501  502  0.00000000000E+00  0.00000000000E+00  0.13561733253E+03  0.13561733253E+03  0.00000000000E+00 0. -1.
          2   -1    0    0  502    0 -0.00000000000E+00 -0.00000000000E+00 -0.42770051392E+03  0.42770051392E+03  0.00000000000E+00 0. -1.
         24    2    1    2    0    0  0.67184950905E+02  0.70220631856E+02 -0.33657972563E+03  0.36680375214E+03  0.10869372618E+03 0.  0.
         23    2    1    2    0    0 -0.36998820268E+02 -0.10023571825E+03  0.56885253028E+02  0.15217914196E+03  0.92230403450E+02 0.  0.
        -11    1    3    3    0    0  0.30847208947E+02  0.71314652032E+02 -0.96054873390E+02  0.12354702990E+03  0.00000000000E+00 0.  1.
         12    1    3    3    0    0  0.36337741959E+02 -0.10940201765E+01 -0.24052485224E+03  0.24325672224E+03  0.00000000000E+00 0. -1.
        -11    1    4    4    0    0  0.28881207690E+02 -0.22105659854E+02  0.26122608626E+01  0.36463793851E+02  0.00000000000E+00 0.  1.
         11    1    4    4    0    0 -0.65880027958E+02 -0.78130058398E+02  0.54272992165E+02  0.11571534811E+03  0.00000000000E+00 0. -1.
          1    1    1    2  501    0 -0.30186130637E+02  0.30015086396E+02 -0.12388708789E+02  0.44334952348E+02  0.00000000000E+00 0. -1.
<scales pt_clust_5="13000.00000" pt_clust_6="13000.00000" pt_clust_7="13000.00000" pt_clust_8="13000.00000" pt_clust_9="42.56886"></scales>
<clustering>
<clus scale="   42.569">  1  9  2 -1</clus>
<clus scale="   92.230">  7  8 -1 -1</clus>
<clus scale="  108.694">  5  6 -1 -1</clus>
<clus scale="  134.165">  1  7  2 -1</clus>
<clus scale="   42.569">  1  5  2 -1</clus>
</clustering>
</event>
<event>
 9    2  0.1592151E-004  0.4350381E+03  0.7546771E-02  0.1032280E+00
          2   -1    0    0  502    0 -0.00000000000E+00  0.00000000000E+00  0.33004812146E+04  0.33004812146E+04  0.00000000000E+00 0. -1.
         21   -1    0    0  501  502  0.00000000000E+00 -0.00000000000E+00 -0.49461681434E+02  0.49461681434E+02  0.00000000000E+00 0. -1.
         24    2    1    2    0    0 -0.16120618607E+03  0.44738858562E+02  0.97608527069E+03  0.99306384767E+03  0.73785838779E+02 0.  0.
         23    2    1    2    0    0 -0.20278471489E+03 -0.26971384116E+02  0.54695704264E+03  0.59089197836E+03  0.90234291969E+02 0.  0.
        -11    1    3    3    0    0 -0.16264371636E+03  0.40066554948E+02  0.97293305401E+03  0.98724720049E+03  0.00000000000E+00 0.  1.
         12    1    3    3    0    0  0.14375302951E+01  0.46723036134E+01  0.31522166803E+01  0.58166471790E+01  0.00000000000E+00 0. -1.
        -13    1    4    4    0    0 -0.16968070546E+03 -0.14012974756E+02  0.51729225608E+03  0.54459084042E+03  0.00000000000E+00 0. -1.
         13    1    4    4    0    0 -0.33104009428E+02 -0.12958409361E+02  0.29664786560E+02  0.46301137945E+02  0.00000000000E+00 0.  1.
          1    1    1    2  501    0  0.36399090096E+03 -0.17767474445E+02  0.17279772198E+04  0.17659870700E+04  0.00000000000E+00 0. -1.
<scales pt_clust_5="13000.00000" pt_clust_6="13000.00000" pt_clust_7="13000.00000" pt_clust_8="13000.00000" pt_clust_9="364.42447"></scales>
<clustering>
<clus scale="   73.786">  5  6 -1 -1</clus>
<clus scale="   90.234">  7  8 -1 -1</clus>
<clus scale="  179.660">  5  7 -1 -1</clus>
<clus scale="  364.424">  2  9  1 -1</clus>
<clus scale="  364.424">  2  5  1 -1</clus>
</clustering>
</event>
<event>
 9    2  0.1592151E-004  0.2717685E+03  0.7546771E-02  0.1100697E+00
          2   -1    0    0  502    0 -0.00000000000E+00  0.00000000000E+00  0.13106623771E+04  0.13106623771E+04  0.00000000000E+00 0. -1.
         21   -1    0    0  501  502  0.00000000000E+00 -0.00000000000E+00 -0.26748200297E+03  0.26748200297E+03  0.00000000000E+00 0.  1.
         23    2    1    2    0    0 -0.91890733664E+01 -0.25377056621E+03  0.99051993588E+03  0.10263865454E+04  0.88632149153E+02 0.  0.
         24    2    1    2    0    0  0.19179275225E+03  0.27643872534E+03 -0.36042584027E+02  0.34748797605E+03  0.79031619959E+02 0.  0.
        -11    1    4    4    0    0  0.93967158615E+02  0.15637989400E+03  0.18315905930E+02  0.18335749386E+03  0.00000000000E+00 0.  1.
         12    1    4    4    0    0  0.97825593636E+02  0.12005883134E+03 -0.54358489956E+02  0.16413048218E+03  0.00000000000E+00 0. -1.
        -13    1    3    3    0    0 -0.19467954954E+02 -0.10717393273E+03  0.58511875211E+03  0.59517157795E+03  0.00000000000E+00 0. -1.
         13    1    3    3    0    0  0.10278881587E+02 -0.14659663348E+03  0.40540118377E+03  0.43121496746E+03  0.00000000000E+00 0.  1.
          1    1    1    2  501    0 -0.18260367888E+03 -0.22668159126E+02  0.88703022286E+02  0.20426985863E+03  0.00000000000E+00 0. -1.
<scales pt_clust_5="13000.00000" pt_clust_6="13000.00000" pt_clust_7="13000.00000" pt_clust_8="13000.00000" pt_clust_9="184.00530"></scales>
<clustering>
<clus scale="   79.032">  5  6 -1 -1</clus>
<clus scale="   88.632">  7  8 -1 -1</clus>
<clus scale="  184.005">  2  9  1 -1</clus>
<clus scale="  268.791">  2  5  1 -1</clus>
<clus scale="  184.005">  2  5  1 -1</clus>
</clustering>
</event>
<event>
 9    2  0.1592151E-004  0.1034367E+03  0.7546771E-02  0.1278053E+00
         21   -1    0    0  501  502  0.00000000000E+00  0.00000000000E+00  0.63069879180E+03  0.63069879180E+03  0.00000000000E+00 0. -1.
          4   -1    0    0  502    0 -0.00000000000E+00 -0.00000000000E+00 -0.81105313800E+02  0.81105313800E+02  0.00000000000E+00 0. -1.
         23    2    1    2    0    0 -0.46616395875E+02  0.25586826346E+02 -0.33684433977E+02  0.10987297864E+03  0.90053630111E+02 0.  0.
         24    2    1    2    0    0  0.84040920291E+01 -0.23569891978E+02  0.52906155388E+03  0.53557103598E+03  0.79397973625E+02 0.  0.
        -11    1    4    4    0    0 -0.20355762505E+02 -0.42386093706E+02  0.24821638321E+03  0.25263077980E+03  0.00000000000E+00 0.  1.
         12    1    4    4    0    0  0.28759854534E+02  0.18816201728E+02  0.28084517067E+03  0.28294025618E+03  0.00000000000E+00 0. -1.
        -11    1    3    3    0    0 -0.34689934448E+02 -0.42290209947E+01  0.25005869273E+02  0.42971731041E+02  0.00000000000E+00 0.  1.
         11    1    3    3    0    0 -0.11926461428E+02  0.29815847341E+02 -0.58690303250E+02  0.66901247600E+02  0.00000000000E+00 0. -1.
          3    1    1    2  501    0  0.38212303846E+02 -0.20169343675E+01  0.54216358101E+02  0.66360090983E+02  0.00000000000E+00 0. -1.
<scales pt_clust_5="13000.00000" pt_clust_6="13000.00000" pt_clust_7="13000.00000" pt_clust_8="13000.00000" pt_clust_9="38.26550"></scales>
<clustering>
<clus scale="   38.265">  1  9  2 -1</clus>
<clus scale="   79.398">  5  6 -1 -1</clus>
<clus scale="   90.054">  7  8 -1 -1</clus>
<clus scale="   94.305">  1  5  2 -1</clus>
<clus scale="   38.265">  1  5  2 -1</clus>
</clustering>
</event>
<event>
 9    2  0.1592151E-004  0.1092259E+03  0.7546771E-02  0.1266858E+00
         -1   -1    0    0    0  501 -0.00000000000E+00  0.00000000000E+00  0.29128364918E+03  0.29128364918E+03  0.00000000000E+00 0.  1.
         21   -1    0    0  501  502  0.00000000000E+00 -0.00000000000E+00 -0.93175719651E+02  0.93175719651E+02  0.00000000000E+00 0.  1.
         24    2    1    2    0    0  0.30347609446E+02  0.12031480416E+02  0.55690896365E+02  0.10391473819E+03  0.81431338905E+02 0.  0.
         23    2    1    2    0    0 -0.83628352984E+02 -0.76617827352E+02  0.48231271043E+02  0.15452403062E+03  0.93206371250E+02 0.  0.
        -11    1    3    3    0    0  0.49769536044E+02  0.17658692740E+02  0.97244611724E+01  0.53697311780E+02  0.00000000000E+00 0.  1.
         12    1    3    3    0    0 -0.19421926598E+02 -0.56272123240E+01  0.45966435193E+02  0.50217426414E+02  0.00000000000E+00 0. -1.
        -13    1    4    4    0    0  0.18383289694E+02 -0.26334865679E+02  0.34770675397E+01  0.32304186864E+02  0.00000000000E+00 0. -1.
         13    1    4    4    0    0 -0.10201164268E+03 -0.50282961673E+02  0.44754203504E+02  0.12221984376E+03  0.00000000000E+00 0.  1.
         -2    1    1    2    0  502  0.53280743539E+02  0.64586346936E+02  0.94185762125E+02  0.12602060002E+03  0.00000000000E+00 0.  1.
<scales pt_clust_5="13000.00000" pt_clust_6="13000.00000" pt_clust_7="13000.00000" pt_clust_8="13000.00000" pt_clust_9="83.72718"></scales>
<clustering>
<clus scale="   81.431">  5  6 -1 -1</clus>
<clus scale="   83.727">  2  9  1 -1</clus>
<clus scale="   93.206">  7  8 -1 -1</clus>
<clus scale="   99.368">  1  5  2 -1</clus>
<clus scale="   83.727">  2  5  1 -1</clus>
</clustering>
</event>
<event>
 9    2  0.1592151E-004  0.1344039E+03  0.7546771E-02  0.1223541E+00
          2   -1    0    0  502    0 -0.00000000000E+00  0.00000000000E+00  0.39407978002E+03  0.39407978002E+03  0.00000000000E+00 0. -1.
         21   -1    0    0  501  502  0.00000000000E+00 -0.00000000000E+00 -0.11958922198E+03  0.11958922198E+03  0.00000000000E+00 0. -1.
         23    2    1    2    0    0 -0.53144001645E+01  0.80348923104E+02  0.74663170435E+02  0.14566687100E+03  0.95708181435E+02 0.  0.
         24    2    1    2    0    0 -0.81444197978E+01 -0.12645498171E+03 -0.93492532054E+01  0.15338205846E+03  0.85915384819E+02 0.  0.
        -13    1    4    4    0    0 -0.37933947552E+02 -0.45774204713E+02  0.19661009170E+02  0.62616431354E+02  0.00000000000E+00 0.  1.
         14    1    4    4    0    0  0.29789527754E+02 -0.80680776999E+02 -0.29010262376E+02  0.90765627106E+02  0.00000000000E+00 0. -1.
        -13    1    3    3    0    0  0.55604975223E+01  0.99305152439E+02  0.45894398773E+02  0.10953870673E+03  0.00000000000E+00 0. -1.
         13    1    3    3    0    0 -0.10874897687E+02 -0.18956229335E+02  0.28768771662E+02  0.36128164266E+02  0.00000000000E+00 0.  1.
          1    1    1    2  501    0  0.13458819962E+02  0.46106058607E+02  0.20917664082E+03  0.21462007254E+03  0.00000000000E+00 0. -1.
<scales pt_clust_5="13000.00000" pt_clust_6="13000.00000" pt_clust_7="13000.00000" pt_clust_8="13000.00000" pt_clust_9="48.03031"></scales>
<clustering>
<clus scale="   48.030">  2  9  1 -1</clus>
<clus scale="   85.915">  5  6 -1 -1</clus>
<clus scale="   95.708">  7  8 -1 -1</clus>
<clus scale="  127.616">  2  5  1 -1</clus>
<clus scale="   48.030">  2  5  1 -1</clus>
</clustering>
</event>
<event>
 9    2  0.1592151E-004  0.1195361E+03  0.7546771E-02  0.1262806E+00
         21   -1    0    0  501  502  0.00000000000E+00  0.00000000000E+00  0.27657769993E+03  0.27657769993E+03  0.00000000000E+00 0.  1.
         -1   -1    0    0    0  501 -0.00000000000E+00 -0.00000000000E+00 -0.11743103345E+03  0.11743103345E+03  0.00000000000E+00 0.  1.
         24    2    1    2    0    0  0.16415100474E+02 -0.16349376746E+01  0.12696867917E+03  0.15116849861E+03  0.80366292280E+02 0.  0.
         23    2    1    2    0    0  0.66431130586E+02  0.21038475012E+02 -0.52427117388E+02  0.12284848921E+03  0.86529972393E+02 0.  0.
        -11    1    3    3    0    0  0.44733524594E+02 -0.84771850404E+01  0.10572677341E+03  0.11511342887E+03  0.00000000000E+00 0.  1.
         12    1    3    3    0    0 -0.28318424120E+02  0.68422473658E+01  0.21241905760E+02  0.36055069740E+02  0.00000000000E+00 0. -1.
        -13    1    4    4    0    0 -0.11614595770E+02  0.23129312380E+02 -0.33821858404E+02  0.42588519955E+02  0.00000000000E+00 0. -1.
         13    1    4    4    0    0  0.78045726355E+02 -0.20908373684E+01 -0.18605258983E+02  0.80259969256E+02  0.00000000000E+00 0.  1.
         -2    1    1    2    0  502 -0.82846231059E+02 -0.19403537337E+02  0.84605104691E+02  0.11999174556E+03  0.00000000000E+00 0.  1.
<scales pt_clust_5="13000.00000" pt_clust_6="13000.00000" pt_clust_7="13000.00000" pt_clust_8="13000.00000" pt_clust_9="82.47093"></scales>
<clustering>
<clus scale="   80.366">  5  6 -1 -1</clus>
<clus scale="   82.042">  2  5  1 -1</clus>
<clus scale="   82.471">  1  9  2 -1</clus>
<clus scale="   86.530">  7  8 -1 -1</clus>
<clus scale="   82.471">  1  5  2 -1</clus>
</clustering>
</event>
<event>
 9    2  0.1592151E-004  0.8790210E+02  0.7546771E-02  0.1311673E+00
          2   -1    0    0  502    0 -0.00000000000E+00  0.00000000000E+00  0.29265149367E+03  0.29265149367E+03  0.00000000000E+00 0. -1.
         21   -1    0    0  501  502  0.00000000000E+00 -0.00000000000E+00 -0.82229228387E+02  0.82229228387E+02  0.00000000000E+00 0.  1.
         24    2    1    2    0    0  0.59702044165E+01 -0.60432449041E+01  0.20701922355E+03  0.22265775189E+03  0.81531290973E+02 0.  0.
         23    2    1    2    0    0 -0.38452093152E+02  0.17770281920E+01 -0.35161882711E+02  0.10162131903E+03  0.87228511324E+02 0.  0.
        -13    1    3    3    0    0 -0.32476807636E+02 -0.90095754324E-01  0.15100526992E+03  0.15445822314E+03  0.00000000000E+00 0.  1.
         14    1    3    3    0    0  0.38447012052E+02 -0.59531491498E+01  0.56013953621E+02  0.68199528743E+02  0.00000000000E+00 0. -1.
        -13    1    4    4    0    0 -0.30965474524E+02  0.34308536898E+02 -0.47272340037E+02  0.66110592564E+02  0.00000000000E+00 0.  1.
         13    1    4    4    0    0 -0.74866186289E+01 -0.32531508706E+02  0.12110457326E+02  0.35510726462E+02  0.00000000000E+00 0. -1.
          1    1    1    2  501    0  0.32481888736E+02  0.42662167121E+01  0.38564924448E+02  0.50601651145E+02  0.00000000000E+00 0. -1.
<scales pt_clust_5="13000.00000" pt_clust_6="13000.00000" pt_clust_7="13000.00000" pt_clust_8="13000.00000" pt_clust_9="32.76087"></scales>
<clustering>
<clus scale="   32.761">  2  9  1 -1</clus>
<clus scale="   81.531">  5  6 -1 -1</clus>
<clus scale="   82.252">  1  5  2 -1</clus>
<clus scale="   87.229">  7  8 -1 -1</clus>
<clus scale="   32.761">  2  5  1 -1</clus>
</clustering>
</event>
<event>
 9    2  0.1592151E-004  0.2232433E+03  0.7546771E-02  0.1131659E+00
          2   -1    0    0  502    0 -0.00000000000E+00  0.00000000000E+00  0.20675357384E+04  0.20675357384E+04  0.00000000000E+00 0. -1.
         21   -1    0    0  501  502  0.00000000000E+00 -0.00000000000E+00 -0.64159486803E+02  0.64159486803E+02  0.00000000000E+00 0. -1.
         24    2    1    2    0    0 -0.12024369117E+03  0.20763288803E+03  0.66745586469E+03  0.71433179326E+03  0.84868239552E+02 0.  0.
         23    2    1    2    0    0 -0.69578430268E+02 -0.19611938058E+03  0.36625274250E+03  0.42922359405E+03  0.82388426972E+02 0.  0.
        -13    1    3    3    0    0 -0.52119598044E+02  0.56135784842E+02  0.32240064811E+03  0.33137570330E+03  0.00000000000E+00 0.  1.
         14    1    3    3    0    0 -0.68124093129E+02  0.15149710318E+03  0.34505521659E+03  0.38295608995E+03  0.00000000000E+00 0. -1.
        -11    1    4    4    0    0  0.17372306759E+02 -0.16347005794E+02  0.45837240571E+02  0.51672761333E+02  0.00000000000E+00 0.  1.
         11    1    4    4    0    0 -0.86950737027E+02 -0.17977237479E+03  0.32041550193E+03  0.37755083272E+03  0.00000000000E+00 0. -1.
          1    1    1    2  501    0  0.18982212144E+03 -0.11513507441E+02  0.96966764440E+03  0.98813983790E+03  0.00000000000E+00 0. -1.
<scales pt_clust_5="13000.00000" pt_clust_6="13000.00000" pt_clust_7="13000.00000" pt_clust_8="13000.00000" pt_clust_9="190.17107"></scales>
<clustering>
<clus scale="   82.388">  7  8 -1 -1</clus>
<clus scale="   84.868">  5  6 -1 -1</clus>
<clus scale="  190.171">  2  9  1 -1</clus>
<clus scale="  222.312">  2  7  1 -1</clus>
<clus scale="  190.171">  2  5  1 -1</clus>
</clustering>
</event>
<event>
 9    2  0.1592151E-004  0.2355443E+03  0.7546771E-02  0.1160604E+00
         21   -1    0    0  501  502  0.00000000000E+00  0.00000000000E+00  0.78387245180E+02  0.78387245180E+02  0.00000000000E+00 0.  1.
         -3   -1    0    0    0  501 -0.00000000000E+00 -0.00000000000E+00 -0.15196545318E+04  0.15196545318E+04  0.00000000000E+00 0.  1.
         24    2    1    2    0    0 -0.26236397662E+02 -0.45576857090E+02 -0.42837878866E+03  0.43875736192E+03  0.78955921847E+02 0.  0.
         23    2    1    2    0    0 -0.31125061455E+02  0.24758037910E+03 -0.85840819784E+03  0.89859317427E+03  0.91324942694E+02 0.  0.
        -11    1    3    3    0    0  0.25832740810E+02 -0.58712917381E+00 -0.13050151132E+03  0.13303503176E+03  0.00000000000E+00 0.  1.
         12    1    3    3    0    0 -0.52069138472E+02 -0.44989727916E+02 -0.29787727734E+03  0.30572233016E+03  0.00000000000E+00 0. -1.
        -13    1    4    4    0    0 -0.33232721762E+02  0.14647970102E+03 -0.36084029681E+03  0.39085347179E+03  0.00000000000E+00 0.  1.
         13    1    4    4    0    0  0.21076603067E+01  0.10110067808E+03 -0.49756790104E+03  0.50773970249E+03  0.00000000000E+00 0. -1.
         -4    1    1    2    0  502  0.57361459117E+02 -0.20200352201E+03 -0.15448030008E+03  0.26069124075E+03  0.00000000000E+00 0.  1.
<scales pt_clust_5="13000.00000" pt_clust_6="13000.00000" pt_clust_7="13000.00000" pt_clust_8="13000.00000" pt_clust_9="217.11951"></scales>
<clustering>
<clus scale="   78.956">  5  6 -1 -1</clus>
<clus scale="   91.325">  7  8 -1 -1</clus>
<clus scale="   94.866">  2  5  1 -1</clus>
<clus scale="  217.120">  1  9  2 -1</clus>
<clus scale="  217.120">  1  5  2 -1</clus>
</clustering>
</event>
<event>
 9    2  0.1592151E-004  0.9221919E+02  0.7546771E-02  0.1304452E+00
         21   -1    0    0  501  502  0.00000000000E+00  0.00000000000E+00  0.64501210414E+02  0.64501210414E+02  0.00000000000E+00 0. -1.
         -1   -1    0    0    0  501 -0.00000000000E+00 -0.00000000000E+00 -0.28181070883E+03  0.28181070883E+03  0.00000000000E+00 0.  1.
         24    2    1    2    0    0 -0.11121797084E+02 -0.76403994816E+01 -0.20290287934E+03  0.21857297661E+03  0.80140486563E+02 0.  0.
         23    2    1    2    0    0  0.21195534415E+02 -0.16903168358E+02 -0.26157814220E+02  0.98722438813E+02  0.91251963819E+02 0.  0.
        -13    1    3    3    0    0 -0.32052059445E+02 -0.31222524195E+02 -0.15414517766E+03  0.16050830611E+03  0.00000000000E+00 0.  1.
         14    1    3    3    0    0  0.20930262361E+02  0.23582124713E+02 -0.48757701677E+02  0.58064670509E+02  0.00000000000E+00 0. -1.
        -11    1    4    4    0    0 -0.25269858232E+02 -0.34055258510E+02 -0.24899638444E+02  0.49176400457E+02  0.00000000000E+00 0.  1.
         11    1    4    4    0    0  0.46465392647E+02  0.17152090152E+02 -0.12581757759E+01  0.49546038356E+02  0.00000000000E+00 0. -1.
         -2    1    1    2    0  502 -0.10073737331E+02  0.24543567840E+02  0.11751195148E+02  0.29016503813E+02  0.00000000000E+00 0.  1.
<scales pt_clust_5="13000.00000" pt_clust_6="13000.00000" pt_clust_7="13000.00000" pt_clust_8="13000.00000" pt_clust_9="26.53049"></scales>
<clustering>
<clus scale="   26.530">  1  9  2 -1</clus>
<clus scale="   80.140">  5  6 -1 -1</clus>
<clus scale="   81.240">  2  5  1 -1</clus>
<clus scale="   91.252">  7  8 -1 -1</clus>
<clus scale="   26.530">  1  5  2 -1</clus>
</clustering>
</event>
<event>
 9    2  0.1592151E-004  0.1454364E+03  0.7546771E-02  0.1224479E+00
          4   -1    0    0  502    0 -0.00000000000E+00  0.00000000000E+00  0.12330641583E+03  0.12330641583E+03  0.00000000000E+00 0. -1.
         21   -1    0    0  501  502  0.00000000000E+00 -0.00000000000E+00 -0.33462935820E+03  0.33462935820E+03  0.00000000000E+00 0. -1.
         23    2    1    2    0    0  0.37732239148E+02 -0.91683945875E+00  0.68432486690E+01  0.99007797226E+02  0.91275141159E+02 0.  0.
         24    2    1    2    0    0 -0.95295048903E+02  0.10042625716E+03 -0.79457992452E+02  0.17877369395E+03  0.80497711837E+02 0.  0.
        -13    1    4    4    0    0 -0.49650741187E+02  0.17991872596E+02 -0.64507633223E+02  0.83367489610E+02  0.00000000000E+00 0.  1.
         14    1    4    4    0    0 -0.45644307716E+02  0.82434384561E+02 -0.14950359229E+02  0.95406204337E+02  0.00000000000E+00 0. -1.
        -11    1    3    3    0    0 -0.23384812739E+02  0.77202147733E+01  0.24571418905E+02  0.34788012447E+02  0.00000000000E+00 0.  1.
         11    1    3    3    0    0  0.61117051887E+02 -0.86370542321E+01 -0.17728170236E+02  0.64219784779E+02  0.00000000000E+00 0. -1.
          3    1    1    2  501    0  0.57562809755E+02 -0.99509417698E+02 -0.13870819858E+03  0.18015428286E+03  0.00000000000E+00 0. -1.
<scales pt_clust_5="13000.00000" pt_clust_6="13000.00000" pt_clust_7="13000.00000" pt_clust_8="13000.00000" pt_clust_9="121.12749"></scales>
<clustering>
<clus scale="   80.498">  5  6 -1 -1</clus>
<clus scale="   91.275">  7  8 -1 -1</clus>
<clus scale="   98.771">  1  7  2 -1</clus>
<clus scale="  121.127">  2  9  1 -1</clus>
<clus scale="  121.127">  2  5  1 -1</clus>
</clustering>
</event>
<event>
 9    2  0.1592151E-004  0.1075756E+03  0.7546771E-02  0.1271672E+00
         -3   -1    0    0    0  501 -0.00000000000E+00  0.00000000000E+00  0.63703655597E+02  0.63703655597E+02  0.00000000000E+00 0.  1.
         21   -1    0    0  501  502  0.00000000000E+00 -0.00000000000E+00 -0.52468501674E+03  0.52468501674E+03  0.00000000000E+00 0. -1.
         23    2    1    2    0    0 -0.34087365345E+02  0.45660794140E+02 -0.98719167431E+00  0.11047763594E+03  0.94643948030E+02 0.  0.
         24    2    1    2    0    0  0.23169257322E+02 -0.16925864232E+02 -0.21684964409E+03  0.23283112800E+03  0.79770086223E+02 0.  0.
        -11    1    4    4    0    0 -0.26951794444E+02 -0.11599562569E+02 -0.44825854745E+02  0.53575239889E+02  0.00000000000E+00 0.  1.
         12    1    4    4    0    0  0.50121051766E+02 -0.53263016628E+01 -0.17202378935E+03  0.17925588811E+03  0.00000000000E+00 0. -1.
        -13    1    3    3    0    0  0.46742488246E+01  0.59783735074E+02 -0.22380152800E+02  0.64006365471E+02  0.00000000000E+00 0. -1.
         13    1    3    3    0    0 -0.38761614169E+02 -0.14122940934E+02  0.21392961126E+02  0.46471270473E+02  0.00000000000E+00 0.  1.
         -4    1    1    2    0  502  0.10918108023E+02 -0.28734929909E+02 -0.24314452538E+03  0.24507990840E+03  0.00000000000E+00 0.  1.
<scales pt_clust_5="13000.00000" pt_clust_6="13000.00000" pt_clust_7="13000.00000" pt_clust_8="13000.00000" pt_clust_9="30.73925"></scales>
<clustering>
<clus scale="   30.739">  2  9  1 -1</clus>
<clus scale="   79.770">  5  6 -1 -1</clus>
<clus scale="   94.644">  7  8 -1 -1</clus>
<clus scale="   94.754">  2  5  1 -1</clus>
<clus scale="   30.739">  2  5  1 -1</clus>
</clustering>
</event>
<event>
 9    2  0.1592151E-004  0.1112891E+03  0.7546771E-02  0.1261726E+00
          2   -1    0    0  502    0 -0.00000000000E+00  0.00000000000E+00  0.32564928114E+03  0.32564928114E+03  0.00000000000E+00 0. -1.
         21   -1    0    0  501  502  0.00000000000E+00 -0.00000000000E+00 -0.54895027284E+02  0.54895027284E+02  0.00000000000E+00 0.  1.
         24    2    1    2    0    0 -0.44644851837E+02  0.48261190024E+02  0.16488063126E+03  0.19239229444E+03  0.74208268649E+02 0.  0.
         23    2    1    2    0    0  0.47251841814E+02 -0.72880486949E+02  0.10937750847E+03  0.16314834637E+03  0.84318690883E+02 0.  0.
        -13    1    3    3    0    0 -0.30564681380E+02 -0.50392763859E+01  0.18753146849E+02  0.36211525391E+02  0.00000000000E+00 0.  1.
         14    1    3    3    0    0 -0.14080170457E+02  0.53300466410E+02  0.14612748441E+03  0.15618076905E+03  0.00000000000E+00 0. -1.
        -11    1    4    4    0    0  0.65333699437E+02 -0.46765182335E+02  0.10320038341E+03  0.13078911919E+03  0.00000000000E+00 0.  1.
         11    1    4    4    0    0 -0.18081857623E+02 -0.26115304614E+02  0.61771250596E+01  0.32359227188E+02  0.00000000000E+00 0. -1.
          1    1    1    2  501    0 -0.26069899765E+01  0.24619296925E+02 -0.35038858778E+01  0.25003667612E+02  0.00000000000E+00 0. -1.
<scales pt_clust_5="13000.00000" pt_clust_6="13000.00000" pt_clust_7="13000.00000" pt_clust_8="13000.00000" pt_clust_9="24.75694"></scales>
<clustering>
<clus scale="   24.757">  2  9  1 -1</clus>
<clus scale="   74.208">  5  6 -1 -1</clus>
<clus scale="   84.319">  7  8 -1 -1</clus>
<clus scale="  103.839">  1  5  2 -1</clus>
<clus scale="   24.757">  2  5  1 -1</clus>
</clustering>
</event>
<event>
 9    2  0.1592151E-004  0.1050120E+03  0.7546771E-02  0.1274046E+00
          2   -1    0    0  502    0 -0.00000000000E+00  0.00000000000E+00  0.61838859891E+03  0.61838859891E+03  0.00000000000E+00 0. -1.
         21   -1    0    0  501  502  0.00000000000E+00 -0.00000000000E+00 -0.49297336237E+02  0.49297336237E+02  0.00000000000E+00 0.  1.
         23    2    1    2    0    0 -0.54370119499E+02  0.46928670774E+02  0.20018627413E+03  0.23134757908E+03  0.91042561277E+02 0.  0.
         24    2    1    2    0    0  0.15415440706E+02 -0.22003123381E+01  0.24734847236E+02  0.87094631399E+02  0.82043799060E+02 0.  0.
        -11    1    4    4    0    0  0.29104481001E+02  0.14926929174E+02 -0.19246225261E+02  0.37951300580E+02  0.00000000000E+00 0.  1.
         12    1    4    4    0    0 -0.13689040295E+02 -0.17127241512E+02  0.43981072497E+02  0.49143330819E+02  0.00000000000E+00 0. -1.
        -13    1    3    3    0    0 -0.58894482547E+02 -0.68394349424E+01  0.79737151815E+02  0.99364738838E+02  0.00000000000E+00 0.  1.
         13    1    3    3    0    0  0.45243630480E+01  0.53768105717E+02  0.12044912231E+03  0.13198284025E+03  0.00000000000E+00 0. -1.
          1    1    1    2  501    0  0.38954678793E+02 -0.44728358436E+02  0.34417014131E+03  0.34924372467E+03  0.00000000000E+00 0. -1.
<scales pt_clust_5="13000.00000" pt_clust_6="13000.00000" pt_clust_7="13000.00000" pt_clust_8="13000.00000" pt_clust_9="59.31354"></scales>
<clustering>
<clus scale="   59.314">  2  9  1 -1</clus>
<clus scale="   82.044">  5  6 -1 -1</clus>
<clus scale="   91.043">  7  8 -1 -1</clus>
<clus scale="   97.314">  2  5  1 -1</clus>
<clus scale="   59.314">  2  5  1 -1</clus>
</clustering>
</event>
<event>
 9    2  0.1592151E-004  0.1026711E+03  0.7546771E-02  0.1288361E+00
          2   -1    0    0  502    0 -0.00000000000E+00  0.00000000000E+00  0.41842656800E+03  0.41842656800E+03  0.00000000000E+00 0. -1.
         21   -1    0    0  501  502  0.00000000000E+00 -0.00000000000E+00 -0.45667946605E+02  0.45667946605E+02  0.00000000000E+00 0.  1.
         23    2    1    2    0    0  0.50232558109E+02  0.11551264997E+02  0.33523049405E+03  0.35146862078E+03  0.92162712830E+02 0.  0.
         24    2    1    2    0    0 -0.30997330137E+02  0.93924640712E+01  0.41720727952E+02  0.83881995647E+02  0.65165306689E+02 0.  0.
        -11    1    4    4    0    0 -0.31391545267E+02 -0.58956188605E+01 -0.71017266930E+01  0.32720359992E+02  0.00000000000E+00 0.  1.
         12    1    4    4    0    0  0.39421513002E+00  0.15288082932E+02  0.48822454645E+02  0.51161635655E+02  0.00000000000E+00 0. -1.
        -11    1    3    3    0    0  0.42571961729E+02  0.46469125052E+02  0.26816000006E+03  0.27546603628E+03  0.00000000000E+00 0. -1.
         11    1    3    3    0    0  0.76605963802E+01 -0.34917860055E+02  0.67070493986E+02  0.76002584504E+02  0.00000000000E+00 0.  1.
          1    1    1    2  501    0 -0.19235227972E+02 -0.20943729068E+02 -0.41926006079E+01  0.28743898175E+02  0.00000000000E+00 0. -1.
<scales pt_clust_5="13000.00000" pt_clust_6="13000.00000" pt_clust_7="13000.00000" pt_clust_8="13000.00000" pt_clust_9="28.43649"></scales>
<clustering>
<clus scale="   28.436">  2  9  1 -1</clus>
<clus scale="   65.165">  5  6 -1 -1</clus>
<clus scale="   79.334">  2  5  1 -1</clus>
<clus scale="   92.163">  7  8 -1 -1</clus>
<clus scale="   28.436">  2  5  1 -1</clus>
</clustering>
</event>
<event>
 9    2  0.1592151E-004  0.1100630E+03  0.7546771E-02  0.1264561E+00
         -1   -1    0    0    0  501 -0.00000000000E+00  0.00000000000E+00  0.22448056542E+03  0.22448056542E+03  0.00000000000E+00 0.  1.
         21   -1    0    0  501  502  0.00000000000E+00 -0.00000000000E+00 -0.10080032308E+03  0.10080032308E+03  0.00000000000E+00 0.  1.
         23    2    1    2    0    0  0.29754948014E+02  0.12092823866E+02  0.36063578516E+02  0.10264595979E+03  0.90576034606E+02 0.  0.
         24    2    1    2    0    0 -0.61360632283E+02 -0.78591369341E+02  0.74112714217E+02  0.14777951820E+03  0.80027251989E+02 0.  0.
        -13    1    4    4    0    0 -0.59892629345E+02 -0.94484807202E+02  0.63932550570E+02  0.12884827071E+03  0.00000000000E+00 0.  1.
         14    1    4    4    0    0 -0.14680029385E+01  0.15893437861E+02  0.10180163647E+02  0.18931247490E+02  0.00000000000E+00 0. -1.
        -11    1    3    3    0    0 -0.19265405875E+02  0.36358199522E+02  0.11777500825E+02  0.42799346510E+02  0.00000000000E+00 0.  1.
         11    1    3    3    0    0  0.49020353888E+02 -0.24265375656E+02  0.24286077691E+02  0.59846613277E+02  0.00000000000E+00 0. -1.
         -2    1    1    2    0  502  0.31605684269E+02  0.66498545475E+02  0.13503949615E+02  0.74855410517E+02  0.00000000000E+00 0.  1.
<scales pt_clust_5="13000.00000" pt_clust_6="13000.00000" pt_clust_7="13000.00000" pt_clust_8="13000.00000" pt_clust_9="73.62728"></scales>
<clustering>
<clus scale="   73.627">  2  9  1 -1</clus>
<clus scale="   80.027">  5  6 -1 -1</clus>
<clus scale="   90.576">  7  8 -1 -1</clus>
<clus scale="  101.559">  2  5  1 -1</clus>
<clus scale="   73.627">  2  5  1 -1</clus>
</clustering>
</event>
<event>
 9    2  0.1592151E-004  0.9728094E+02  0.7546771E-02  0.1286120E+00
         21   -1    0    0  501  502  0.00000000000E+00  0.00000000000E+00  0.41728687757E+03  0.41728687757E+03  0.00000000000E+00 0.  1.
          2   -1    0    0  502    0 -0.00000000000E+00 -0.00000000000E+00 -0.81251432662E+02  0.81251432662E+02  0.00000000000E+00 0. -1.
         23    2    1    2    0    0  0.37490984960E+01 -0.34340807566E+02  0.45026237104E+02  0.10955768314E+03  0.93713270694E+02 0.  0.
         24    2    1    2    0    0 -0.69781177476E+02 -0.37097001003E+02  0.26561225244E+03  0.28843908697E+03  0.80010237062E+02 0.  0.
        -13    1    4    4    0    0 -0.45297180444E+02 -0.52852491168E+01  0.23092704981E+03  0.23538706580E+03  0.00000000000E+00 0.  1.
         14    1    4    4    0    0 -0.24483997032E+02 -0.31811751886E+02  0.34685202634E+02  0.53052021172E+02  0.00000000000E+00 0. -1.
        -13    1    3    3    0    0  0.39016445060E+02  0.11372294804E+02  0.28039845180E+02  0.49374537891E+02  0.00000000000E+00 0.  1.
         13    1    3    3    0    0 -0.35267346563E+02 -0.45713102370E+02  0.16986391924E+02  0.60183145253E+02  0.00000000000E+00 0. -1.
          1    1    1    2  501    0  0.66032078980E+02  0.71437808569E+02  0.25396955367E+02  0.10054154012E+03  0.00000000000E+00 0. -1.
<scales pt_clust_5="13000.00000" pt_clust_6="13000.00000" pt_clust_7="13000.00000" pt_clust_8="13000.00000" pt_clust_9="97.28106"></scales>
<clustering>
<clus scale="   80.010">  5  6 -1 -1</clus>
<clus scale="   93.713">  7  8 -1 -1</clus>
<clus scale="   97.281">  1  9  2 -1</clus>
<clus scale="   97.281">  1  5  2 -1</clus>
<clus scale="   97.281">  1  5  2 -1</clus>
</clustering>
</event>
<event>
 9    2  0.1592151E-004  0.1254840E+03  0.7546771E-02  0.1237777E+00
         21   -1    0    0  501  502  0.00000000000E+00  0.00000000000E+00  0.25194557732E+02  0.25194557732E+02  0.00000000000E+00 0.  1.
          2   -1    0    0  502    0 -0.00000000000E+00 -0.00000000000E+00 -0.10846227662E+04  0.10846227662E+04  0.00000000000E+00 0. -1.
         23    2    1    2    0    0 -0.33753265738E+02  0.50063739979E+02 -0.25761845121E+03  0.28024741751E+03  0.92334650098E+02 0.  0.
         24    2    1    2    0    0  0.10068520966E+03 -0.52075537080E+02 -0.43320131111E+03  0.45492858593E+03  0.80294889920E+02 0.  0.
        -11    1    4    4    0    0  0.64724106403E+02 -0.71194572819E+02 -0.33686604363E+03  0.35033784909E+03  0.00000000000E+00 0.  1.
         12    1    4    4    0    0  0.35961103254E+02  0.19119035739E+02 -0.96335267473E+02  0.10459073685E+03  0.00000000000E+00 0. -1.
        -13    1    3    3    0    0 -0.52949806154E+02 -0.17700249965E+01 -0.99168249148E+02  0.11243289821E+03  0.00000000000E+00 0.  1.
         13    1    3    3    0    0  0.19196540416E+02  0.51833764975E+02 -0.15845020206E+03  0.16781451930E+03  0.00000000000E+00 0. -1.
          1    1    1    2  501    0 -0.66931943920E+02  0.20117971011E+01 -0.36860844617E+03  0.37464132051E+03  0.00000000000E+00 0. -1.
<scales pt_clust_5="13000.00000" pt_clust_6="13000.00000" pt_clust_7="13000.00000" pt_clust_8="13000.00000" pt_clust_9="66.96221"></scales>
<clustering>
<clus scale="   66.962">  1  9  2 -1</clus>
<clus scale="   80.295">  5  6 -1 -1</clus>
<clus scale="   92.335">  7  8 -1 -1</clus>
<clus scale="  116.909">  1  5  2 -1</clus>
<clus scale="   66.962">  1  5  2 -1</clus>
</clustering>
</event>
<event>
 9    2  0.1592151E-004  0.2248096E+03  0.7546771E-02  0.1149443E+00
          2   -1    0    0  502    0 -0.00000000000E+00  0.00000000000E+00  0.72548721963E+03  0.72548721963E+03  0.00000000000E+00 0. -1.
         21   -1    0    0  501  502  0.00000000000E+00 -0.00000000000E+00 -0.12784315887E+03  0.12784315887E+03  0.00000000000E+00 0. -1.
         24    2    1    2    0    0  0.11567136141E+03  0.21160918250E+02  0.58845155003E+02  0.15353821120E+03  0.79269046405E+02 0.  0.
         23    2    1    2    0    0 -0.23848502921E+03  0.76070058885E+02  0.22873809917E+03  0.35240943358E+03  0.95966284965E+02 0.  0.
        -13    1    3    3    0    0  0.89465532942E+02  0.45428299461E+02  0.61562117812E+02  0.11771875945E+03  0.00000000000E+00 0.  1.
         14    1    3    3    0    0  0.26205828469E+02 -0.24267381211E+02 -0.27169628090E+01  0.35819451747E+02  0.00000000000E+00 0. -1.
        -11    1    4    4    0    0 -0.42292013791E+02 -0.23170393958E+02  0.41416857156E+02  0.63567583274E+02  0.00000000000E+00 0.  1.
         11    1    4    4    0    0 -0.19619301542E+03  0.99240452844E+02  0.18732124201E+03  0.28884185031E+03  0.00000000000E+00 0. -1.
          1    1    1    2  501    0  0.12281366780E+03 -0.97230977136E+02  0.31006080658E+03  0.34738273372E+03  0.00000000000E+00 0. -1.
<scales pt_clust_5="13000.00000" pt_clust_6="13000.00000" pt_clust_7="13000.00000" pt_clust_8="13000.00000" pt_clust_9="203.29752"></scales>
<clustering>
<clus scale="   79.269">  5  6 -1 -1</clus>
<clus scale="   95.966">  7  8 -1 -1</clus>
<clus scale="  141.814">  1  5  2 -1</clus>
<clus scale="  203.298">  2  9  1 -1</clus>
<clus scale="  203.298">  2  5  1 -1</clus>
</clustering>
</event>
<event>
 9    2  0.1592151E-004  0.1712850E+03  0.7546771E-02  0.1177219E+00
          2   -1    0    0  502    0 -0.00000000000E+00  0.00000000000E+00  0.57074216852E+03  0.57074216852E+03  0.00000000000E+00 0. -1.
         21   -1    0    0  501  502  0.00000000000E+00 -0.00000000000E+00 -0.30724332001E+03  0.30724332001E+03  0.00000000000E+00 0. -1.
         24    2    1    2    0    0 -0.13199152824E+03 -0.70261511597E+02  0.52186097655E+03  0.54871175771E+03  0.79920402085E+02 0.  0.
         23    2    1    2    0    0  0.10707957934E+03  0.81685980540E+02 -0.15529386151E+03  0.22262387731E+03  0.85478486157E+02 0.  0.
        -13    1    3    3    0    0 -0.13771788562E+02 -0.46596655814E+02  0.16728367283E+03  0.17419741011E+03  0.00000000000E+00 0.  1.
         14    1    3    3    0    0 -0.11821973968E+03 -0.23664855783E+02  0.35457730371E+03  0.37451434760E+03  0.00000000000E+00 0. -1.
        -11    1    4    4    0    0 -0.96932560569E+01  0.27985896015E+02 -0.41334018757E+02  0.50849490611E+02  0.00000000000E+00 0. -1.
         11    1    4    4    0    0  0.11677283539E+03  0.53700084525E+02 -0.11395984276E+03  0.17177438670E+03  0.00000000000E+00 0.  1.
          1    1    1    2  501    0  0.24911948905E+02 -0.11424468943E+02 -0.10306826653E+03  0.10664985351E+03  0.00000000000E+00 0. -1.
<scales pt_clust_5="13000.00000" pt_clust_6="13000.00000" pt_clust_7="13000.00000" pt_clust_8="13000.00000" pt_clust_9="27.40664"></scales>
<clustering>
<clus scale="   27.407">  2  9  1 -1</clus>
<clus scale="   79.920">  5  6 -1 -1</clus>
<clus scale="   85.478">  7  8 -1 -1</clus>
<clus scale="  168.580">  1  5  2 -1</clus>
<clus scale="   27.407">  2  5  1 -1</clus>
</clustering>
</event>
<event>
 9    2  0.1592151E-004  0.5959227E+03  0.7546771E-02  0.1030468E+00
         21   -1    0    0  501  502  0.00000000000E+00  0.00000000000E+00  0.10997504000E+04  0.10997504000E+04  0.00000000000E+00 0. -1.
          2   -1    0    0  502    0 -0.00000000000E+00 -0.00000000000E+00 -0.11714064133E+04  0.11714064133E+04  0.00000000000E+00 0. -1.
         23    2    1    2    0    0 -0.22234805062E+02  0.15430250343E+03  0.55714265850E+02  0.18706685480E+03  0.87099251579E+02 0.  0.
         24    2    1    2    0    0 -0.51275401825E+03 -0.39415796480E+03 -0.90179876148E+03  0.11127593466E+04  0.81946157380E+02 0.  0.
        -13    1    4    4    0    0 -0.28970242081E+03 -0.24639316481E+03 -0.58936234906E+03  0.70141646885E+03  0.00000000000E+00 0.  1.
         14    1    4    4    0    0 -0.22305159744E+03 -0.14776479999E+03 -0.31243641241E+03  0.41134287770E+03  0.00000000000E+00 0. -1.
        -11    1    3    3    0    0  0.85304126905E+01  0.13289964921E+03  0.18855799689E+02  0.13450139732E+03  0.00000000000E+00 0. -1.
         11    1    3    3    0    0 -0.30765217752E+02  0.21402854222E+02  0.36858466161E+02  0.52565457478E+02  0.00000000000E+00 0.  1.
          1    1    1    2  501    0  0.53498882331E+03  0.23985546137E+03  0.77442848238E+03  0.97133061196E+03  0.00000000000E+00 0. -1.
<scales pt_clust_5="13000.00000" pt_clust_6="13000.00000" pt_clust_7="13000.00000" pt_clust_8="13000.00000" pt_clust_9="590.26153"></scales>
<clustering>
<clus scale="   81.946">  5  6 -1 -1</clus>
<clus scale="   87.099">  7  8 -1 -1</clus>
<clus scale="  178.578">  2  7  1 -1</clus>
<clus scale="  590.262">  1  9  2 -1</clus>
<clus scale="  590.262">  1  5  2 -1</clus>
</clustering>
</event>
<event>
 9    2  0.1592151E-004  0.1997912E+03  0.7546771E-02  0.1151579E+00
         21   -1    0    0  501  502  0.00000000000E+00  0.00000000000E+00  0.32745863174E+03  0.32745863174E+03  0.00000000000E+00 0.  1.
         -1   -1    0    0    0  501 -0.00000000000E+00 -0.00000000000E+00 -0.14950612852E+03  0.14950612852E+03  0.00000000000E+00 0.  1.
         23    2    1    2    0    0  0.16952034637E+03 -0.78044962390E+02  0.35299372907E+01  0.20796133665E+03  0.91691292368E+02 0.  0.
         24    2    1    2    0    0 -0.14232812898E+03  0.76199756981E+02  0.14699977671E+03  0.23034038134E+03  0.73376138228E+02 0.  0.
        -13    1    4    4    0    0 -0.38732023865E+02  0.26635803796E+02  0.91328589969E+02  0.10271585594E+03  0.00000000000E+00 0.  1.
         14    1    4    4    0    0 -0.10359610511E+03  0.49563953185E+02  0.55671186744E+02  0.12762452540E+03  0.00000000000E+00 0. -1.
        -13    1    3    3    0    0  0.14571366036E+03 -0.76936902996E+02 -0.29330841422E+02  0.16736802597E+03  0.00000000000E+00 0.  1.
         13    1    3    3    0    0  0.23806686008E+02 -0.11080593934E+01  0.32860778713E+02  0.40593310679E+02  0.00000000000E+00 0. -1.
         -2    1    1    2    0  502 -0.27192217390E+02  0.18452054090E+01  0.27422789214E+02  0.38663042274E+02  0.00000000000E+00 0.  1.
<scales pt_clust_5="13000.00000" pt_clust_6="13000.00000" pt_clust_7="13000.00000" pt_clust_8="13000.00000" pt_clust_9="27.25475"></scales>
<clustering>
<clus scale="   27.255">  1  9  2 -1</clus>
<clus scale="   73.376">  5  6 -1 -1</clus>
<clus scale="   91.691">  7  8 -1 -1</clus>
<clus scale="  192.076">  1  5  2 -1</clus>
<clus scale="   27.255">  1  5  2 -1</clus>
</clustering>
</event>
<event>
 9    2  0.1592151E-004  0.2831323E+03  0.7546771E-02  0.1093990E+00
         21   -1    0    0  501  502  0.00000000000E+00  0.00000000000E+00  0.37149390185E+03  0.37149390185E+03  0.00000000000E+00 0.  1.
         -1   -1    0    0    0  501 -0.00000000000E+00 -0.00000000000E+00 -0.18257564036E+03  0.18257564036E+03  0.00000000000E+00 0.  1.
         24    2    1    2    0    0 -0.64238556255E+02 -0.30203965383E+02  0.46420518370E+02  0.11581500267E+03  0.78863037497E+02 0.  0.
         23    2    1    2    0    0 -0.13402633852E+03 -0.33619005956E+02 -0.30036934991E+02  0.16779094620E+03  0.90323237228E+02 0.  0.
        -11    1    3    3    0    0 -0.33591232645E+02 -0.17423141959E+01 -0.18650899078E+02  0.38461183104E+02  0.00000000000E+00 0.  1.
         12    1    3    3    0    0 -0.30647323610E+02 -0.28461651188E+02  0.65071417449E+02  0.77353819567E+02  0.00000000000E+00 0. -1.
        -11    1    4    4    0    0 -0.10038921362E+03 -0.39824471558E+02  0.17312982896E+02  0.10937880107E+03  0.00000000000E+00 0.  1.
         11    1    4    4    0    0 -0.33637124904E+02  0.62054656014E+01 -0.47349917887E+02  0.58412145133E+02  0.00000000000E+00 0. -1.
         -2    1    1    2    0  502  0.19826489478E+03  0.63822971340E+02  0.17253467811E+03  0.27046359334E+03  0.00000000000E+00 0.  1.
<scales pt_clust_5="13000.00000" pt_clust_6="13000.00000" pt_clust_7="13000.00000" pt_clust_8="13000.00000" pt_clust_9="208.28428"></scales>
<clustering>
<clus scale="   78.863">  5  6 -1 -1</clus>
<clus scale="   90.323">  7  8 -1 -1</clus>
<clus scale="  105.724">  5  7 -1 -1</clus>
<clus scale="  208.284">  1  9  2 -1</clus>
<clus scale="  208.284">  1  5  2 -1</clus>
</clustering>
</event>
<event>
 9    2  0.1592151E-004  0.1473094E+03  0.7546771E-02  0.1206087E+00
         21   -1    0    0  501  502  0.00000000000E+00  0.00000000000E+00  0.39826662779E+02  0.39826662779E+02  0.00000000000E+00 0. -1.
          2   -1    0    0  502    0 -0.00000000000E+00 -0.00000000000E+00 -0.15406281390E+04  0.15406281390E+04  0.00000000000E+00 0. -1.
         24    2    1    2    0    0  0.55280145489E+02  0.11540115834E+03 -0.10768733026E+04  0.10874253572E+04  0.80401963894E+02 0.  0.
         23    2    1    2    0    0 -0.25350643854E+02 -0.34565336081E+02 -0.57791831027E+02  0.11688316107E+03  0.92110585744E+02 0.  0.
        -13    1    3    3    0    0  0.35634327399E+02  0.11643743020E+02 -0.15252553421E+03  0.15706502038E+03  0.00000000000E+00 0.  1.
         14    1    3    3    0    0  0.19645818090E+02  0.10375741532E+03 -0.92434776839E+03  0.93036033682E+03  0.00000000000E+00 0. -1.
        -11    1    4    4    0    0  0.13470133679E+01  0.26455079055E+02 -0.39942067534E+02  0.47927595513E+02  0.00000000000E+00 0.  1.
         11    1    4    4    0    0 -0.26697657222E+02 -0.61020415136E+02 -0.17849763493E+02  0.68955565557E+02  0.00000000000E+00 0. -1.
          1    1    1    2  501    0 -0.29929501635E+02 -0.80835822263E+02 -0.36613634257E+03  0.37614628348E+03  0.00000000000E+00 0. -1.
<scales pt_clust_5="13000.00000" pt_clust_6="13000.00000" pt_clust_7="13000.00000" pt_clust_8="13000.00000" pt_clust_9="86.19868"></scales>
<clustering>
<clus scale="   80.402">  5  6 -1 -1</clus>
<clus scale="   86.199">  1  9  2 -1</clus>
<clus scale="   92.111">  7  8 -1 -1</clus>
<clus scale="  140.286">  2  5  1 -1</clus>
<clus scale="   86.199">  1  5  2 -1</clus>
</clustering>
</event>
<event>
 9    2  0.1592151E-004  0.1115506E+03  0.7546771E-02  0.1260366E+00
         21   -1    0    0  501  502  0.00000000000E+00  0.00000000000E+00  0.14171768614E+04  0.14171768614E+04  0.00000000000E+00 0. -1.
         -1   -1    0    0    0  501 -0.00000000000E+00 -0.00000000000E+00 -0.16618543215E+02  0.16618543215E+02  0.00000000000E+00 0.  1.
         23    2    1    2    0    0 -0.73664852329E+02 -0.29751608403E+02  0.26658858211E+03  0.29188107879E+03  0.88393570893E+02 0.  0.
         24    2    1    2    0    0  0.31382954056E+02  0.14216452823E+02  0.82101843502E+03  0.82573776627E+03  0.81145490679E+02 0.  0.
        -13    1    4    4    0    0 -0.12838861493E+02 -0.16929476297E+02  0.80837444797E+02  0.83583108422E+02  0.00000000000E+00 0.  1.
         14    1    4    4    0    0  0.44221815549E+02  0.31145929119E+02  0.74018099023E+03  0.74215465785E+03  0.00000000000E+00 0. -1.
        -13    1    3    3    0    0 -0.54088074293E+02 -0.52032955343E+02  0.11435146037E+03  0.13678159493E+03  0.00000000000E+00 0.  1.
         13    1    3    3    0    0 -0.19576778036E+02  0.22281346940E+02  0.15223712173E+03  0.15509948386E+03  0.00000000000E+00 0. -1.
         -2    1    1    2    0  502  0.42281898273E+02  0.15535155580E+02  0.31295130106E+03  0.31617655956E+03  0.00000000000E+00 0.  1.
<scales pt_clust_5="13000.00000" pt_clust_6="13000.00000" pt_clust_7="13000.00000" pt_clust_8="13000.00000" pt_clust_9="45.04553"></scales>
<clustering>
<clus scale="   45.046">  1  9  2 -1</clus>
<clus scale="   81.145">  5  6 -1 -1</clus>
<clus scale="   88.394">  7  8 -1 -1</clus>
<clus scale="  105.900">  1  5  2 -1</clus>
<clus scale="   45.046">  1  5  2 -1</clus>
</clustering>
</event>
<event>
 9    2  0.1592151E-004  0.9180366E+02  0.7546771E-02  0.1304669E+00
         -1   -1    0    0    0  501 -0.00000000000E+00  0.00000000000E+00  0.10326468145E+03  0.10326468145E+03  0.00000000000E+00 0.  1.
         21   -1    0    0  501  502  0.00000000000E+00 -0.00000000000E+00 -0.22502461812E+03  0.22502461812E+03  0.00000000000E+00 0. -1.
         24    2    1    2    0    0  0.13908415315E+01  0.92345589471E+01  0.38629040173E+02  0.89482463517E+02  0.80172919451E+02 0.  0.
         23    2    1    2    0    0  0.52429624569E+02 -0.34889602559E+02 -0.69458988318E+02  0.13007281816E+03  0.90156736117E+02 0.  0.
        -13    1    3    3    0    0  0.31463771563E+01  0.34424296664E+02  0.50804583120E+02  0.61449471568E+02  0.00000000000E+00 0.  1.
         14    1    3    3    0    0 -0.17555356248E+01 -0.25189737717E+02 -0.12175542947E+02  0.28032991949E+02  0.00000000000E+00 0. -1.
        -11    1    4    4    0    0  0.52079606545E+02  0.17227162333E+02 -0.50656654028E+02  0.74666974876E+02  0.00000000000E+00 0.  1.
         11    1    4    4    0    0  0.35001802388E+00 -0.52116764892E+02 -0.18802334290E+02  0.55405843285E+02  0.00000000000E+00 0. -1.
         -2    1    1    2    0  502 -0.53820466100E+02  0.25655043612E+02 -0.90929988528E+02  0.10873401790E+03  0.00000000000E+00 0.  1.
<scales pt_clust_5="13000.00000" pt_clust_6="13000.00000" pt_clust_7="13000.00000" pt_clust_8="13000.00000" pt_clust_9="59.62234"></scales>
<clustering>
<clus scale="   59.622">  2  9  1 -1</clus>
<clus scale="   80.173">  5  6 -1 -1</clus>
<clus scale="   82.021">  1  5  2 -1</clus>
<clus scale="   90.157">  7  8 -1 -1</clus>
<clus scale="   59.622">  2  5  1 -1</clus>
</clustering>
</event>
<event>
 9    2  0.1592151E-004  0.1886878E+03  0.7546771E-02  0.1163150E+00
         -1   -1    0    0    0  501 -0.00000000000E+00  0.00000000000E+00  0.90987678765E+03  0.90987678765E+03  0.00000000000E+00 0.  1.
         21   -1    0    0  501  502  0.00000000000E+00 -0.00000000000E+00 -0.44279227714E+02  0.44279227714E+02  0.00000000000E+00 0.  1.
         24    2    1    2    0    0  0.83500712361E+02 -0.12401718715E+03  0.49379681866E+03  0.52222246937E+03  0.80798377014E+02 0.  0.
         23    2    1    2    0    0 -0.75012547325E+02  0.14532926407E+03  0.32449794690E+03  0.37936161504E+03  0.10894420667E+03 0.  0.
        -13    1    3    3    0    0  0.99286721387E+02 -0.98049386700E+02  0.40804387410E+03  0.43124394311E+03  0.00000000000E+00 0.  1.
         14    1    3    3    0    0 -0.15786009027E+02 -0.25967800445E+02  0.85752944557E+02  0.90978526264E+02  0.00000000000E+00 0. -1.
        -11    1    4    4    0    0  0.58341845058E+01  0.49514564878E+02  0.18593090213E+03  0.19249942912E+03  0.00000000000E+00 0. -1.
         11    1    4    4    0    0 -0.80846731830E+02  0.95814699193E+02  0.13856704477E+03  0.18686218592E+03  0.00000000000E+00 0.  1.
         -2    1    1    2    0  502 -0.84881650362E+01 -0.21312076926E+02  0.47302794372E+02  0.52571930952E+02  0.00000000000E+00 0.  1.
<scales pt_clust_5="13000.00000" pt_clust_6="13000.00000" pt_clust_7="13000.00000" pt_clust_8="13000.00000" pt_clust_9="22.94022"></scales>
<clustering>
<clus scale="   22.940">  2  9  1 -1</clus>
<clus scale="   80.798">  5  6 -1 -1</clus>
<clus scale="  108.944">  7  8 -1 -1</clus>
<clus scale="  173.962">  1  5  2 -1</clus>
<clus scale="   22.940">  2  5  1 -1</clus>
</clustering>
</event>
<event>
 9    2  0.1592151E-004  0.1513279E+03  0.7546771E-02  0.1222037E+00
          2   -1    0    0  502    0 -0.00000000000E+00  0.00000000000E+00  0.11041926263E+04  0.11041926263E+04  0.00000000000E+00 0. -1.
         21   -1    0    0  501  502  0.00000000000E+00 -0.00000000000E+00 -0.37605175979E+02  0.37605175979E+02  0.00000000000E+00 0.  1.
         24    2    1    2    0    0  0.29084349297E+02  0.32558814272E+02  0.44090610932E+03  0.45045630860E+03  0.81281688996E+02 0.  0.
         23    2    1    2    0    0 -0.12131539813E+03  0.34914070002E+02  0.21979452613E+03  0.26967425168E+03  0.92076871141E+02 0.  0.
        -11    1    3    3    0    0  0.52371065236E+02  0.21731196750E+02  0.19112004054E+03  0.19935356350E+03  0.00000000000E+00 0.  1.
         12    1    3    3    0    0 -0.23286715939E+02  0.10827617523E+02  0.24978606878E+03  0.25110274510E+03  0.00000000000E+00 0. -1.
        -11    1    4    4    0    0 -0.95156001711E+02  0.70935083292E+01  0.20937102987E+03  0.23008957098E+03  0.00000000000E+00 0.  1.
         11    1    4    4    0    0 -0.26159396414E+02  0.27820561673E+02  0.10423496255E+02  0.39584680708E+02  0.00000000000E+00 0. -1.
          1    1    1    2  501    0  0.92231048828E+02 -0.67472884274E+02  0.40588681492E+03  0.42166724204E+03  0.00000000000E+00 0. -1.
<scales pt_clust_5="13000.00000" pt_clust_6="13000.00000" pt_clust_7="13000.00000" pt_clust_8="13000.00000" pt_clust_9="120.09167"></scales>
<clustering>
<clus scale="   81.282">  5  6 -1 -1</clus>
<clus scale="   92.077">  7  8 -1 -1</clus>
<clus scale="   92.264">  1  5  2 -1</clus>
<clus scale="  120.092">  2  9  1 -1</clus>
<clus scale="  120.092">  2  5  1 -1</clus>
</clustering>
</event>
<event>
 9    2  0.1592151E-004  0.3222967E+03  0.7546771E-02  0.1074908E+00
         21   -1    0    0  501  502  0.00000000000E+00  0.00000000000E+00  0.11736523708E+03  0.11736523708E+03  0.00000000000E+00 0. -1.
          2   -1    0    0  502    0 -0.00000000000E+00 -0.00000000000E+00 -0.14929857592E+04  0.14929857592E+04  0.00000000000E+00 0. -1.
         23    2    1    2    0    0  0.36987366357E+03  0.27526574066E+02 -0.81841186160E+03  0.90317159047E+03  0.91415028007E+02 0.  0.
         24    2    1    2    0    0 -0.22226371266E+03  0.14639818945E+02 -0.17327061017E+03  0.29368801675E+03  0.81329358598E+02 0.  0.
        -13    1    4    4    0    0 -0.13806941014E+03  0.37921974547E+02 -0.13988192545E+03  0.20017040550E+03  0.00000000000E+00 0.  1.
         14    1    4    4    0    0 -0.84194302526E+02 -0.23282155602E+02 -0.33388684714E+02  0.93517611252E+02  0.00000000000E+00 0. -1.
        -13    1    3    3    0    0  0.18753560476E+03  0.82541217571E+01 -0.52096814280E+03  0.55375584817E+03  0.00000000000E+00 0.  1.
         13    1    3    3    0    0  0.18233805882E+03  0.19272452309E+02 -0.29744371880E+03  0.34941574229E+03  0.00000000000E+00 0. -1.
          1    1    1    2  501    0 -0.14760995091E+03 -0.42166393011E+02 -0.38393805031E+03  0.41349138901E+03  0.00000000000E+00 0. -1.
<scales pt_clust_5="13000.00000" pt_clust_6="13000.00000" pt_clust_7="13000.00000" pt_clust_8="13000.00000" pt_clust_9="153.51458"></scales>
<clustering>
<clus scale="   81.329">  5  6 -1 -1</clus>
<clus scale="   91.415">  7  8 -1 -1</clus>
<clus scale="  153.515">  1  9  2 -1</clus>
<clus scale="  319.582">  1  5  2 -1</clus>
<clus scale="  153.515">  1  5  2 -1</clus>
</clustering>
</event>
<event>
 9    2  0.1592151E-004  0.2447112E+03  0.7546771E-02  0.1117281E+00
         21   -1    0    0  501  502  0.00000000000E+00  0.00000000000E+00  0.55642775249E+03  0.55642775249E+03  0.00000000000E+00 0.  1.
          2   -1    0    0  502    0 -0.00000000000E+00 -0.00000000000E+00 -0.30891109346E+03  0.30891109346E+03  0.00000000000E+00 0. -1.
         23    2    1    2    0    0 -0.20843234039E+03  0.92968093585E+02 -0.20560648720E+03  0.32028511123E+03  0.90672035110E+02 0.  0.
         24    2    1    2    0    0  0.17845042363E+03 -0.13834701337E+03  0.41278065074E+03  0.47733609569E+03  0.80482500071E+02 0.  0.
        -11    1    4    4    0    0  0.14528087651E+03 -0.13097308223E+03  0.39036401089E+03  0.43662860917E+03  0.00000000000E+00 0.  1.
         12    1    4    4    0    0  0.33169547119E+02 -0.73739311462E+01  0.22416639859E+02  0.40707486525E+02  0.00000000000E+00 0. -1.
        -11    1    3    3    0    0 -0.60983534245E+02  0.64272403596E+02 -0.41590538350E+02  0.97875973524E+02  0.00000000000E+00 0.  1.
         11    1    3    3    0    0 -0.14744880614E+03  0.28695689989E+02 -0.16401594885E+03  0.22240913771E+03  0.00000000000E+00 0. -1.
          1    1    1    2  501    0  0.29981916756E+02  0.45378919789E+02  0.40342495489E+02  0.67717639030E+02  0.00000000000E+00 0. -1.
<scales pt_clust_5="13000.00000" pt_clust_6="13000.00000" pt_clust_7="13000.00000" pt_clust_8="13000.00000" pt_clust_9="54.38899"></scales>
<clustering>
<clus scale="   54.389">  1  9  2 -1</clus>
<clus scale="   80.483">  5  6 -1 -1</clus>
<clus scale="   90.672">  7  8 -1 -1</clus>
<clus scale="  241.122">  1  5  2 -1</clus>
<clus scale="   54.389">  1  5  2 -1</clus>
</clustering>
</event>
<event>
 9    2  0.1592151E-004  0.1459161E+03  0.7546771E-02  0.1208320E+00
         21   -1    0    0  501  502  0.00000000000E+00  0.00000000000E+00  0.14321898643E+03  0.14321898643E+03  0.00000000000E+00 0. -1.
          2   -1    0    0  502    0 -0.00000000000E+00 -0.00000000000E+00 -0.53111177677E+03  0.53111177677E+03  0.00000000000E+00 0. -1.
         24    2    1    2    0    0 -0.66234107878E+02  0.95170541752E+02 -0.46688161757E+03  0.48681888825E+03  0.74631066411E+02 0.  0.
         23    2    1    2    0    0  0.82472220248E+02 -0.78557491559E+02  0.56644176658E+02  0.15527907893E+03  0.89051013540E+02 0.  0.
        -13    1    3    3    0    0 -0.52931843754E+02  0.37779049678E+02 -0.13617926765E+03  0.15091000502E+03  0.00000000000E+00 0.  1.
         14    1    3    3    0    0 -0.13302264124E+02  0.57391492073E+02 -0.33070234991E+03  0.33590888323E+03  0.00000000000E+00 0. -1.
        -13    1    4    4    0    0 -0.88467235546E+01 -0.46467874710E+02  0.12700200974E+02  0.48977780702E+02  0.00000000000E+00 0.  1.
         13    1    4    4    0    0  0.91318943802E+02 -0.32089616849E+02  0.43943975684E+02  0.10630129823E+03  0.00000000000E+00 0. -1.
          1    1    1    2  501    0 -0.16238112370E+02 -0.16613050192E+02  0.22344650563E+02  0.32232796013E+02  0.00000000000E+00 0. -1.
<scales pt_clust_5="13000.00000" pt_clust_6="13000.00000" pt_clust_7="13000.00000" pt_clust_8="13000.00000" pt_clust_9="23.23079"></scales>
<clustering>
<clus scale="   23.231">  1  9  2 -1</clus>
<clus scale="   74.631">  5  6 -1 -1</clus>
<clus scale="   89.051">  7  8 -1 -1</clus>
<clus scale="  137.591">  2  5  1 -1</clus>
<clus scale="   23.231">  1  5  2 -1</clus>
</clustering>
</event>
<event>
 9    2  0.1592151E-004  0.1064627E+03  0.7546771E-02  0.1273096E+00
         21   -1    0    0  501  502  0.00000000000E+00  0.00000000000E+00  0.19290565068E+03  0.19290565068E+03  0.00000000000E+00 0.  1.
          2   -1    0    0  502    0 -0.00000000000E+00 -0.00000000000E+00 -0.10756508382E+03  0.10756508382E+03  0.00000000000E+00 0. -1.
         23    2    1    2    0    0  0.72005588828E+02  0.64055168239E+01  0.46005510248E+01  0.11844723195E+03  0.93716307108E+02 0.  0.
         24    2    1    2    0    0 -0.19392213039E+02  0.40855481421E+02  0.46229089548E+02  0.10332932678E+03  0.80589036250E+02 0.  0.
        -13    1    4    4    0    0  0.21165009011E+02 -0.31816261452E+01  0.37013963416E+02  0.42756447925E+02  0.00000000000E+00 0.  1.
         14    1    4    4    0    0 -0.40557222050E+02  0.44037107566E+02  0.92151261317E+01  0.60572878855E+02  0.00000000000E+00 0. -1.
        -13    1    3    3    0    0  0.42112392153E+02  0.49693259178E+02  0.85339411600E+01  0.65694000733E+02  0.00000000000E+00 0.  1.
         13    1    3    3    0    0  0.29893196675E+02 -0.43287742354E+02 -0.39333901352E+01  0.52753231214E+02  0.00000000000E+00 0. -1.
          1    1    1    2  501    0 -0.52613375789E+02 -0.47260998245E+02  0.34510926291E+02  0.78694175772E+02  0.00000000000E+00 0. -1.
<scales pt_clust_5="13000.00000" pt_clust_6="13000.00000" pt_clust_7="13000.00000" pt_clust_8="13000.00000" pt_clust_9="70.72319"></scales>
<clustering>
<clus scale="   70.723">  1  9  2 -1</clus>
<clus scale="   80.589">  5  6 -1 -1</clus>
<clus scale="   93.716">  7  8 -1 -1</clus>
<clus scale="   95.111">  1  5  2 -1</clus>
<clus scale="   70.723">  1  5  2 -1</clus>
</clustering>
</event>
<event>
 9    2  0.1592151E-004  0.1339636E+03  0.7546771E-02  0.1245968E+00
         21   -1    0    0  501  502  0.00000000000E+00  0.00000000000E+00  0.82935077256E+02  0.82935077256E+02  0.00000000000E+00 0.  1.
         -3   -1    0    0    0  501 -0.00000000000E+00 -0.00000000000E+00 -0.31828396274E+03  0.31828396274E+03  0.00000000000E+00 0.  1.
         24    2    1    2    0    0  0.10224494157E+02  0.14160961137E+02 -0.93460998265E+02  0.12393936818E+03  0.79504312383E+02 0.  0.
         23    2    1    2    0    0 -0.49728545254E+02  0.79448605700E+02 -0.51544120637E+02  0.14131895242E+03  0.92353888824E+02 0.  0.
        -11    1    3    3    0    0  0.36348635280E+01  0.27276945468E+02 -0.10288148903E+03  0.10649809750E+03  0.00000000000E+00 0.  1.
         12    1    3    3    0    0  0.65896306293E+01 -0.13115984331E+02  0.94204907615E+01  0.17441270681E+02  0.00000000000E+00 0. -1.
        -11    1    4    4    0    0 -0.57024729886E+02  0.17187631167E+02  0.93335737073E+00  0.59565977199E+02  0.00000000000E+00 0.  1.
         11    1    4    4    0    0  0.72961846315E+01  0.62260974533E+02 -0.52477478008E+02  0.81752975224E+02  0.00000000000E+00 0. -1.
         -4    1    1    2    0  502  0.39504051097E+02 -0.93609566837E+02 -0.90343766578E+02  0.13596071939E+03  0.00000000000E+00 0.  1.
<scales pt_clust_5="13000.00000" pt_clust_6="13000.00000" pt_clust_7="13000.00000" pt_clust_8="13000.00000" pt_clust_9="97.04137"></scales>
<clustering>
<clus scale="   79.504">  5  6 -1 -1</clus>
<clus scale="   81.400">  2  5  1 -1</clus>
<clus scale="   92.354">  7  8 -1 -1</clus>
<clus scale="   97.041">  1  9  2 -1</clus>
<clus scale="   97.041">  1  5  2 -1</clus>
</clustering>
</event>
<event>
 9    2  0.1592151E-004  0.1140425E+03  0.7546771E-02  0.1255565E+00
         21   -1    0    0  501  502  0.00000000000E+00  0.00000000000E+00  0.19205524720E+03  0.19205524720E+03  0.00000000000E+00 0.  1.
          4   -1    0    0  502    0 -0.00000000000E+00 -0.00000000000E+00 -0.10504583711E+03  0.10504583711E+03  0.00000000000E+00 0. -1.
         23    2    1    2    0    0 -0.73863474100E+02 -0.13961296459E+01 -0.17593266271E+01  0.11406955932E+03  0.86896531278E+02 0.  0.
         24    2    1    2    0    0  0.70230860321E+02 -0.37632147196E+02  0.38650553978E+02  0.11940578715E+03  0.80095720471E+02 0.  0.
        -11    1    4    4    0    0  0.82816410709E+02 -0.48271275690E+02  0.37341389104E+02  0.10287396794E+03  0.00000000000E+00 0.  1.
         12    1    4    4    0    0 -0.12585550388E+02  0.10639128494E+02  0.13091648743E+01  0.16531819209E+02  0.00000000000E+00 0. -1.
        -13    1    3    3    0    0 -0.24323513838E+02  0.32748415922E+02  0.25402239059E+02  0.48055861454E+02  0.00000000000E+00 0.  1.
         13    1    3    3    0    0 -0.49539960262E+02 -0.34144545568E+02 -0.27161565686E+02  0.66013697861E+02  0.00000000000E+00 0. -1.
          3    1    1    2  501    0  0.36326137782E+01  0.39028276842E+02  0.50118182735E+02  0.63625737849E+02  0.00000000000E+00 0. -1.
<scales pt_clust_5="13000.00000" pt_clust_6="13000.00000" pt_clust_7="13000.00000" pt_clust_8="13000.00000" pt_clust_9="39.19697"></scales>
<clustering>
<clus scale="   39.197">  1  9  2 -1</clus>
<clus scale="   80.096">  5  6 -1 -1</clus>
<clus scale="   86.897">  7  8 -1 -1</clus>
<clus scale="  108.950">  1  5  2 -1</clus>
<clus scale="   39.197">  1  5  2 -1</clus>
</clustering>
</event>
<event>
 9    2  0.1592151E-004  0.9609184E+02  0.7546771E-02  0.1294487E+00
         -3   -1    0    0    0  501 -0.00000000000E+00  0.00000000000E+00  0.15619570093E+03  0.15619570093E+03  0.00000000000E+00 0.  1.
         21   -1    0    0  501  502  0.00000000000E+00 -0.00000000000E+00 -0.99723482693E+02  0.99723482693E+02  0.00000000000E+00 0.  1.
         24    2    1    2    0    0  0.31491555905E+02 -0.30388356641E+02  0.72120165226E+02  0.11659980712E+03  0.80492400114E+02 0.  0.
         23    2    1    2    0    0  0.52339622590E+01  0.14278922793E+02  0.84057911277E+01  0.92555503046E+02  0.90909745477E+02 0.  0.
        -11    1    3    3    0    0 -0.23670590355E+02 -0.27492539377E+02  0.25900541465E+02  0.44575493462E+02  0.00000000000E+00 0.  1.
         12    1    3    3    0    0  0.55162146260E+02 -0.28958172630E+01  0.46219623761E+02  0.72024313660E+02  0.00000000000E+00 0. -1.
        -13    1    4    4    0    0 -0.30729747996E+01 -0.28558836064E+02  0.31958019688E+02  0.42969353193E+02  0.00000000000E+00 0. -1.
         13    1    4    4    0    0  0.83069370586E+01  0.42837758857E+02 -0.23552228560E+02  0.49586149854E+02  0.00000000000E+00 0.  1.
         -4    1    1    2    0  502 -0.36725518163E+02  0.16109433848E+02 -0.24053738115E+02  0.46763873456E+02  0.00000000000E+00 0.  1.
<scales pt_clust_5="13000.00000" pt_clust_6="13000.00000" pt_clust_7="13000.00000" pt_clust_8="13000.00000" pt_clust_9="40.10334"></scales>
<clustering>
<clus scale="   40.103">  2  9  1 -1</clus>
<clus scale="   80.492">  5  6 -1 -1</clus>
<clus scale="   86.302">  1  5  2 -1</clus>
<clus scale="   90.910">  7  8 -1 -1</clus>
<clus scale="   40.103">  2  5  1 -1</clus>
</clustering>
</event>
<event>
 9    2  0.1592151E-004  0.8882358E+02  0.7546771E-02  0.1309704E+00
         21   -1    0    0  501  502  0.00000000000E+00  0.00000000000E+00  0.89119082744E+02  0.89119082744E+02  0.00000000000E+00 0.  1.
          2   -1    0    0  502    0 -0.00000000000E+00 -0.00000000000E+00 -0.19012860390E+03  0.19012860390E+03  0.00000000000E+00 0. -1.
         23    2    1    2    0    0  0.29808318819E+02  0.21550123755E+01 -0.28900031269E+02  0.96626930076E+02  0.87225981561E+02 0.  0.
         24    2    1    2    0    0  0.57771503959E+01 -0.11448438802E+02  0.19248988098E+02  0.84136925948E+02  0.80895343176E+02 0.  0.
        -11    1    4    4    0    0 -0.19314059473E+02 -0.15151500779E+02  0.42919889399E+02  0.49444087363E+02  0.00000000000E+00 0.  1.
         12    1    4    4    0    0  0.25091209869E+02  0.37030619768E+01 -0.23670901301E+02  0.34692838585E+02  0.00000000000E+00 0. -1.
        -11    1    3    3    0    0 -0.96656526480E+00  0.34431377864E+02 -0.37811746276E+02  0.51148628393E+02  0.00000000000E+00 0.  1.
         11    1    3    3    0    0  0.30774884084E+02 -0.32276365489E+02  0.89117150070E+01  0.45478301683E+02  0.00000000000E+00 0. -1.
          1    1    1    2  501    0 -0.35585469215E+02  0.92934264267E+01 -0.91358477983E+02  0.98483830619E+02  0.00000000000E+00 0. -1.
<scales pt_clust_5="13000.00000" pt_clust_6="13000.00000" pt_clust_7="13000.00000" pt_clust_8="13000.00000" pt_clust_9="36.77900"></scales>
<clustering>
<clus scale="   36.779">  1  9  2 -1</clus>
<clus scale="   80.895">  5  6 -1 -1</clus>
<clus scale="   82.615">  1  5  2 -1</clus>
<clus scale="   87.226">  7  8 -1 -1</clus>
<clus scale="   36.779">  1  5  2 -1</clus>
</clustering>
</event>
<event>
 9    2  0.1592151E-004  0.1213449E+03  0.7546771E-02  0.1245238E+00
         -3   -1    0    0    0  501 -0.00000000000E+00  0.00000000000E+00  0.10215918670E+03  0.10215918670E+03  0.00000000000E+00 0.  1.
         21   -1    0    0  501  502  0.00000000000E+00 -0.00000000000E+00 -0.21741168411E+03  0.21741168411E+03  0.00000000000E+00 0. -1.
         24    2    1    2    0    0 -0.42460223178E+02 -0.54818991861E+02 -0.56337451331E+02  0.11920997685E+03  0.78924759969E+02 0.  0.
         23    2    1    2    0    0  0.16331280940E+02  0.93656695748E+02 -0.72909966895E+02  0.15150450570E+03  0.92733298108E+02 0.  0.
        -11    1    3    3    0    0 -0.20684749270E+02 -0.81679243647E+01  0.18120443106E+02  0.28686657162E+02  0.00000000000E+00 0.  1.
         12    1    3    3    0    0 -0.21775473908E+02 -0.46651067497E+02 -0.74457894437E+02  0.90523319684E+02  0.00000000000E+00 0. -1.
        -13    1    4    4    0    0  0.24169593047E+02 -0.11880623228E+02 -0.16435087655E+02  0.31550444412E+02  0.00000000000E+00 0. -1.
         13    1    4    4    0    0 -0.78383121074E+01  0.10553731898E+03 -0.56474879240E+02  0.11995406128E+03  0.00000000000E+00 0.  1.
         -4    1    1    2    0  502  0.26128942238E+02 -0.38837703886E+02  0.13994920812E+02  0.48856388264E+02  0.00000000000E+00 0.  1.
<scales pt_clust_5="13000.00000" pt_clust_6="13000.00000" pt_clust_7="13000.00000" pt_clust_8="13000.00000" pt_clust_9="46.80909"></scales>
<clustering>
<clus scale="   46.809">  2  9  1 -1</clus>
<clus scale="   78.925">  5  6 -1 -1</clus>
<clus scale="   92.733">  7  8 -1 -1</clus>
<clus scale="  111.150">  1  5  2 -1</clus>
<clus scale="   46.809">  2  5  1 -1</clus>
</clustering>
</event>
<event>
 9    2  0.1592151E-004  0.5190097E+03  0.7546771E-02  0.1067486E+00
         21   -1    0    0  501  502  0.00000000000E+00  0.00000000000E+00  0.79762483942E+03  0.79762483942E+03  0.00000000000E+00 0.  1.
         -3   -1    0    0    0  501 -0.00000000000E+00 -0.00000000000E+00 -0.42743447459E+03  0.42743447459E+03  0.00000000000E+00 0.  1.
         23    2    1    2    0    0  0.31806840927E+00  0.21530822198E+02 -0.51800687705E+02  0.10713639311E+03  0.91275506081E+02 0.  0.
         24    2    1    2    0    0 -0.51305897789E+03 -0.16678409933E+02  0.16961361754E+03  0.54641512929E+03  0.79328621054E+02 0.  0.
        -11    1    4    4    0    0 -0.42352342064E+03 -0.80859172493E+01  0.10726046639E+03  0.43696942403E+03  0.00000000000E+00 0.  1.
         12    1    4    4    0    0 -0.89535557246E+02 -0.85924926832E+01  0.62353151149E+02  0.10944570526E+03  0.00000000000E+00 0. -1.
        -11    1    3    3    0    0 -0.60686462136E+01  0.51970975611E+02 -0.72812832086E+01  0.52828286533E+02  0.00000000000E+00 0.  1.
         11    1    3    3    0    0  0.63867146228E+01 -0.30440153413E+02 -0.44519404497E+02  0.54308106579E+02  0.00000000000E+00 0. -1.
         -4    1    1    2    0  502  0.51274090948E+03 -0.48524122651E+01  0.25237743500E+03  0.57150779160E+03  0.00000000000E+00 0.  1.
<scales pt_clust_5="13000.00000" pt_clust_6="13000.00000" pt_clust_7="13000.00000" pt_clust_8="13000.00000" pt_clust_9="512.91134"></scales>
<clustering>
<clus scale="   79.329">  5  6 -1 -1</clus>
<clus scale="   91.276">  7  8 -1 -1</clus>
<clus scale="   93.781">  2  7  1 -1</clus>
<clus scale="  512.911">  1  9  2 -1</clus>
<clus scale="  512.911">  1  5  2 -1</clus>
</clustering>
</event>
<event>
 9    2  0.1592151E-004  0.2252416E+03  0.7546771E-02  0.1130747E+00
          2   -1    0    0  502    0 -0.00000000000E+00  0.00000000000E+00  0.41301888897E+03  0.41301888897E+03  0.00000000000E+00 0. -1.
         21   -1    0    0  501  502  0.00000000000E+00 -0.00000000000E+00 -0.16000735554E+03  0.16000735554E+03  0.00000000000E+00 0. -1.
         23    2    1    2    0    0 -0.18134988972E+03  0.55709120350E+02  0.10278212987E+03  0.23432069873E+03  0.91382356274E+02 0.  0.
         24    2    1    2    0    0  0.19485163933E+03 -0.11635374874E+03  0.12610741343E+03  0.27205767558E+03  0.81283103552E+02 0.  0.
        -11    1    4    4    0    0  0.75012039869E+02 -0.60036831181E+02  0.96907625067E+02  0.13646360328E+03  0.00000000000E+00 0.  1.
         12    1    4    4    0    0  0.11983959946E+03 -0.56316917556E+02  0.29199788367E+02  0.13559407230E+03  0.00000000000E+00 0. -1.
        -13    1    3    3    0    0 -0.10584642392E+03 -0.12260508401E+02  0.34843122762E+02  0.11210632777E+03  0.00000000000E+00 0. -1.
         13    1    3    3    0    0 -0.75503465805E+02  0.67969628752E+02  0.67939007109E+02  0.12221437096E+03  0.00000000000E+00 0.  1.
          1    1    1    2  501    0 -0.13501749611E+02  0.60644628387E+02  0.24121990132E+02  0.66647870204E+02  0.00000000000E+00 0. -1.
<scales pt_clust_5="13000.00000" pt_clust_6="13000.00000" pt_clust_7="13000.00000" pt_clust_8="13000.00000" pt_clust_9="62.12945"></scales>
<clustering>
<clus scale="   62.129">  2  9  1 -1</clus>
<clus scale="   81.283">  5  6 -1 -1</clus>
<clus scale="   91.382">  7  8 -1 -1</clus>
<clus scale="  221.337">  2  5  1 -1</clus>
<clus scale="   62.129">  2  5  1 -1</clus>
</clustering>
</event>
<event>
 9    2  0.1592151E-004  0.1010410E+03  0.7546771E-02  0.1278927E+00
         21   -1    0    0  501  502  0.00000000000E+00  0.00000000000E+00  0.32703063066E+02  0.32703063066E+02  0.00000000000E+00 0. -1.
          2   -1    0    0  502    0 -0.00000000000E+00 -0.00000000000E+00 -0.78844339796E+03  0.78844339796E+03  0.00000000000E+00 0. -1.
         23    2    1    2    0    0  0.27347968108E+02  0.19642113999E+02 -0.49986147820E+03  0.50914808157E+03  0.90755427244E+02 0.  0.
         24    2    1    2    0    0 -0.61067556756E+02 -0.60377092509E+02 -0.19917588567E+03  0.23446402542E+03  0.89037666167E+02 0.  0.
        -13    1    4    4    0    0 -0.26906119550E+02  0.19742509726E+02 -0.81445352583E+02  0.88017335888E+02  0.00000000000E+00 0.  1.
         14    1    4    4    0    0 -0.34161437206E+02 -0.80119602235E+02 -0.11773053309E+03  0.14644668953E+03  0.00000000000E+00 0. -1.
        -11    1    3    3    0    0 -0.32415553633E+02  0.13905161869E+02 -0.14395972440E+03  0.14821782583E+03  0.00000000000E+00 0.  1.
         11    1    3    3    0    0  0.59763521741E+02  0.57369521296E+01 -0.35590175380E+03  0.36093025574E+03  0.00000000000E+00 0. -1.
          1    1    1    2  501    0  0.33719588648E+02  0.40734978510E+02 -0.56702971019E+02  0.77534354032E+02  0.00000000000E+00 0. -1.
<scales pt_clust_5="13000.00000" pt_clust_6="13000.00000" pt_clust_7="13000.00000" pt_clust_8="13000.00000" pt_clust_9="52.88052"></scales>
<clustering>
<clus scale="   52.881">  1  9  2 -1</clus>
<clus scale="   89.038">  5  6 -1 -1</clus>
<clus scale="   90.755">  7  8 -1 -1</clus>
<clus scale="   99.501">  1  5  2 -1</clus>
<clus scale="   52.881">  1  5  2 -1</clus>
</clustering>
</event>
<event>
 9    2  0.1592151E-004  0.2305054E+03  0.7546771E-02  0.1141646E+00
         21   -1    0    0  501  502  0.00000000000E+00  0.00000000000E+00  0.16671948260E+03  0.16671948260E+03  0.00000000000E+00 0.  1.
         -1   -1    0    0    0  501 -0.00000000000E+00 -0.00000000000E+00 -0.58923110664E+03  0.58923110664E+03  0.00000000000E+00 0.  1.
         24    2    1    2    0    0  0.21967427544E+02 -0.13527452668E+03 -0.68006313633E+02  0.17246206007E+03  0.79602374519E+02 0.  0.
         23    2    1    2    0    0 -0.17151253950E+03 -0.69279094302E+02 -0.19884228450E+03  0.28610510326E+03  0.90009621098E+02 0.  0.
        -13    1    3    3    0    0  0.36530368963E+02 -0.13075486382E+03 -0.75638251298E+02  0.15541057663E+03  0.00000000000E+00 0.  1.
         14    1    3    3    0    0 -0.14562941420E+02 -0.45196628652E+01  0.76319376647E+01  0.17051483446E+02  0.00000000000E+00 0. -1.
        -13    1    4    4    0    0 -0.72112732672E+02 -0.57602330986E+02 -0.14653158993E+03  0.17317558025E+03  0.00000000000E+00 0. -1.
         13    1    4    4    0    0 -0.99399806829E+02 -0.11676763316E+02 -0.52310694570E+02  0.11292952300E+03  0.00000000000E+00 0.  1.
         -2    1    1    2    0  502  0.14954511196E+03  0.20455362098E+03 -0.15566302590E+03  0.29738342590E+03  0.00000000000E+00 0.  1.
<scales pt_clust_5="13000.00000" pt_clust_6="13000.00000" pt_clust_7="13000.00000" pt_clust_8="13000.00000" pt_clust_9="212.20519"></scales>
<clustering>
<clus scale="   79.602">  5  6 -1 -1</clus>
<clus scale="   90.010">  7  8 -1 -1</clus>
<clus scale="  158.488">  2  5  1 -1</clus>
<clus scale="  212.205">  1  9  2 -1</clus>
<clus scale="  212.205">  1  5  2 -1</clus>
</clustering>
</event>
<event>
 9    2  0.1592151E-004  0.1613019E+03  0.7546771E-02  0.1188876E+00
          2   -1    0    0  502    0 -0.00000000000E+00  0.00000000000E+00  0.12791076512E+04  0.12791076512E+04  0.00000000000E+00 0. -1.
         21   -1    0    0  501  502  0.00000000000E+00 -0.00000000000E+00 -0.27261769352E+02  0.27261769352E+02  0.00000000000E+00 0.  1.
         24    2    1    2    0    0  0.90395776921E+02  0.10084550083E+03  0.78017315845E+03  0.79588941956E+03  0.80178547499E+02 0.  0.
         23    2    1    2    0    0 -0.10720853323E+03 -0.76131048813E+02  0.43331191763E+03  0.46184848516E+03  0.90858126174E+02 0.  0.
        -11    1    3    3    0    0 -0.59021334386E+01  0.45234440141E+02  0.19750560281E+03  0.20270533514E+03  0.00000000000E+00 0.  1.
         12    1    3    3    0    0  0.96297910360E+02  0.55611060693E+02  0.58266755565E+03  0.59318408442E+03  0.00000000000E+00 0. -1.
        -11    1    4    4    0    0 -0.97982067614E+02 -0.18492863427E+02  0.23922516411E+03  0.25917397770E+03  0.00000000000E+00 0.  1.
         11    1    4    4    0    0 -0.92264656114E+01 -0.57638185386E+02  0.19408675352E+03  0.20267450746E+03  0.00000000000E+00 0. -1.
          1    1    1    2  501    0  0.16812756304E+02 -0.24714452021E+02  0.38360805773E+02  0.48631515839E+02  0.00000000000E+00 0. -1.
<scales pt_clust_5="13000.00000" pt_clust_6="13000.00000" pt_clust_7="13000.00000" pt_clust_8="13000.00000" pt_clust_9="29.89102"></scales>
<clustering>
<clus scale="   29.891">  2  9  1 -1</clus>
<clus scale="   80.179">  5  6 -1 -1</clus>
<clus scale="   90.858">  7  8 -1 -1</clus>
<clus scale="  155.537">  1  5  2 -1</clus>
<clus scale="   29.891">  2  5  1 -1</clus>
</clustering>
</event>
<event>
 9    2  0.1592151E-004  0.1308008E+03  0.7546771E-02  0.1226650E+00
         21   -1    0    0  501  502  0.00000000000E+00  0.00000000000E+00  0.14698408149E+03  0.14698408149E+03  0.00000000000E+00 0.  1.
         -1   -1    0    0    0  501 -0.00000000000E+00 -0.00000000000E+00 -0.22914955475E+03  0.22914955475E+03  0.00000000000E+00 0.  1.
         23    2    1    2    0    0 -0.89230610874E+02 -0.40835086340E+02 -0.85824487902E+02  0.16021990607E+03  0.93139515689E+02 0.  0.
         24    2    1    2    0    0  0.33778452866E+02  0.83682278763E+02  0.40370747606E+02  0.13680257379E+03  0.94559183990E+02 0.  0.
        -11    1    4    4    0    0  0.59677958360E+02  0.22984527574E+02  0.27268342702E+02  0.69522009001E+02  0.00000000000E+00 0.  1.
         12    1    4    4    0    0 -0.25899505495E+02  0.60697751189E+02  0.13102404904E+02  0.67280564791E+02  0.00000000000E+00 0. -1.
        -11    1    3    3    0    0 -0.46740598311E+02 -0.28637283000E+02  0.90445492180E+01  0.55557010167E+02  0.00000000000E+00 0. -1.
         11    1    3    3    0    0 -0.42490012563E+02 -0.12197803340E+02 -0.94869037120E+02  0.10466289590E+03  0.00000000000E+00 0.  1.
         -2    1    1    2    0  502  0.55452158008E+02 -0.42847192423E+02 -0.36711732960E+02  0.79111156376E+02  0.00000000000E+00 0.  1.
<scales pt_clust_5="13000.00000" pt_clust_6="13000.00000" pt_clust_7="13000.00000" pt_clust_8="13000.00000" pt_clust_9="70.07730"></scales>
<clustering>
<clus scale="   70.077">  1  9  2 -1</clus>
<clus scale="   93.140">  7  8 -1 -1</clus>
<clus scale="   94.559">  5  6 -1 -1</clus>
<clus scale="  129.778">  2  7  1 -1</clus>
<clus scale="   70.077">  1  5  2 -1</clus>
</clustering>
</event>
<event>
 9    2  0.1592151E-004  0.2571702E+03  0.7546771E-02  0.1146762E+00
          2   -1    0    0  502    0 -0.00000000000E+00  0.00000000000E+00  0.82764217230E+03  0.82764217230E+03  0.00000000000E+00 0. -1.
         21   -1    0    0  501  502  0.00000000000E+00 -0.00000000000E+00 -0.21633821860E+03  0.21633821860E+03  0.00000000000E+00 0. -1.
         24    2    1    2    0    0  0.23063618801E+02  0.58017849067E+02  0.18915092595E+02  0.10272594740E+03  0.79352619478E+02 0.  0.
         23    2    1    2    0    0  0.14961715639E+03  0.11782946971E+03  0.65362085016E+03  0.68730506641E+03  0.94334305188E+02 0.  0.
        -11    1    3    3    0    0  0.39300311982E+02  0.42478687174E+02  0.41229684447E+02  0.71055191686E+02  0.00000000000E+00 0.  1.
         12    1    3    3    0    0 -0.16236693181E+02  0.15539161893E+02 -0.22314591851E+02  0.31670755711E+02  0.00000000000E+00 0. -1.
        -11    1    4    4    0    0  0.29344608734E+02  0.42525122031E+02  0.71974549333E+02  0.88599254044E+02  0.00000000000E+00 0.  1.
         11    1    4    4    0    0  0.12027254766E+03  0.75304347676E+02  0.58164630083E+03  0.59870581237E+03  0.00000000000E+00 0. -1.
          1    1    1    2  501    0 -0.17268077520E+03 -0.17584731877E+03 -0.61231989054E+02  0.25394937709E+03  0.00000000000E+00 0. -1.
<scales pt_clust_5="13000.00000" pt_clust_6="13000.00000" pt_clust_7="13000.00000" pt_clust_8="13000.00000" pt_clust_9="239.24366"></scales>
<clustering>
<clus scale="   79.353">  5  6 -1 -1</clus>
<clus scale="   94.334">  7  8 -1 -1</clus>
<clus scale="  100.970">  1  5  2 -1</clus>
<clus scale="  239.244">  2  9  1 -1</clus>
<clus scale="  239.244">  2  5  1 -1</clus>
</clustering>
</event>
<event>
 9    2  0.1592151E-004  0.9540889E+02  0.7546771E-02  0.1296683E+00
          2   -1    0    0  502    0 -0.00000000000E+00  0.00000000000E+00  0.37928424817E+03  0.37928424817E+03  0.00000000000E+00 0. -1.
         21   -1    0    0  501  502  0.00000000000E+00 -0.00000000000E+00 -0.51762887072E+02  0.51762887072E+02  0.00000000000E+00 0.  1.
         24    2    1    2    0    0  0.63435152277E+01  0.22292085856E+02  0.21393086002E+03  0.22899503516E+03  0.78327108867E+02 0.  0.
         23    2    1    2    0    0  0.15781600071E+02 -0.69374004841E+02  0.85034578535E+02  0.14270845228E+03  0.89849937983E+02 0.  0.
        -13    1    3    3    0    0  0.29038291571E+02  0.36370757030E+02  0.17941540090E+03  0.18535355520E+03  0.00000000000E+00 0.  1.
         14    1    3    3    0    0 -0.22694776344E+02 -0.14078671173E+02  0.34515459115E+02  0.43641479961E+02  0.00000000000E+00 0. -1.
        -13    1    4    4    0    0 -0.30486754352E+02 -0.57596148396E+02  0.60974015958E+02  0.89244546741E+02  0.00000000000E+00 0. -1.
         13    1    4    4    0    0  0.46268354423E+02 -0.11777856445E+02  0.24060562577E+02  0.53463905534E+02  0.00000000000E+00 0.  1.
          1    1    1    2  501    0 -0.22125115299E+02  0.47081918985E+02  0.28555922544E+02  0.59343647803E+02  0.00000000000E+00 0. -1.
<scales pt_clust_5="13000.00000" pt_clust_6="13000.00000" pt_clust_7="13000.00000" pt_clust_8="13000.00000" pt_clust_9="52.02142"></scales>
<clustering>
<clus scale="   52.021">  2  9  1 -1</clus>
<clus scale="   78.327">  5  6 -1 -1</clus>
<clus scale="   84.646">  1  5  2 -1</clus>
<clus scale="   89.850">  7  8 -1 -1</clus>
<clus scale="   52.021">  2  5  1 -1</clus>
</clustering>
</event>
<event>
 9    2  0.1592151E-004  0.1099415E+03  0.7546771E-02  0.1265576E+00
         21   -1    0    0  501  502  0.00000000000E+00  0.00000000000E+00  0.47123716353E+02  0.47123716353E+02  0.00000000000E+00 0. -1.
          2   -1    0    0  502    0 -0.00000000000E+00 -0.00000000000E+00 -0.49153088339E+03  0.49153088339E+03  0.00000000000E+00 0. -1.
         24    2    1    2    0    0 -0.36803853620E+02 -0.17520994949E+02 -0.18045952016E+03  0.20101339501E+03  0.78608127146E+02 0.  0.
         23    2    1    2    0    0  0.81348548975E+02  0.49736952554E+02 -0.24723467093E+03  0.28018320813E+03  0.91029098299E+02 0.  0.
        -11    1    3    3    0    0 -0.24169713562E+02 -0.35374997066E+02 -0.39200257711E+02  0.58070867703E+02  0.00000000000E+00 0.  1.
         12    1    3    3    0    0 -0.12634140058E+02  0.17854002118E+02 -0.14125926245E+03  0.14294252731E+03  0.00000000000E+00 0. -1.
        -11    1    4    4    0    0  0.79156970715E+02  0.10818677050E+02 -0.21577871955E+03  0.23009416681E+03  0.00000000000E+00 0. -1.
         11    1    4    4    0    0  0.21915782605E+01  0.38918275504E+02 -0.31455951373E+02  0.50089041319E+02  0.00000000000E+00 0.  1.
          1    1    1    2  501    0 -0.44544695355E+02 -0.32215957605E+02 -0.16712975950E+02  0.57457996604E+02  0.00000000000E+00 0. -1.
<scales pt_clust_5="13000.00000" pt_clust_6="13000.00000" pt_clust_7="13000.00000" pt_clust_8="13000.00000" pt_clust_9="54.97361"></scales>
<clustering>
<clus scale="   54.974">  1  9  2 -1</clus>
<clus scale="   78.608">  5  6 -1 -1</clus>
<clus scale="   91.029">  7  8 -1 -1</clus>
<clus scale="   99.900">  2  5  1 -1</clus>
<clus scale="   54.974">  1  5  2 -1</clus>
</clustering>
</event>
<event>
 9    2  0.1592151E-004  0.9373917E+02  0.7546771E-02  0.1300443E+00
         -1   -1    0    0    0  501 -0.00000000000E+00  0.00000000000E+00  0.13044133890E+03  0.13044133890E+03  0.00000000000E+00 0.  1.
         21   -1    0    0  501  502  0.00000000000E+00 -0.00000000000E+00 -0.11253117942E+03  0.11253117942E+03  0.00000000000E+00 0.  1.
         23    2    1    2    0    0  0.64189781046E+01  0.23367317534E+02  0.57628523477E+02  0.10925055621E+03  0.89595772809E+02 0.  0.
         24    2    1    2    0    0 -0.32541200775E+02 -0.20869261241E+02 -0.17660589788E+01  0.87581001364E+02  0.78567531608E+02 0.  0.
        -13    1    4    4    0    0  0.29341697636E+01 -0.29988729238E+02 -0.29090588667E+02  0.41883118108E+02  0.00000000000E+00 0.  1.
         14    1    4    4    0    0 -0.35475370538E+02  0.91194679967E+01  0.27324529688E+02  0.45697883256E+02  0.00000000000E+00 0. -1.
        -13    1    3    3    0    0 -0.32176881132E+02  0.37007349166E+02  0.44611839767E+02  0.66295639518E+02  0.00000000000E+00 0.  1.
         13    1    3    3    0    0  0.38595859237E+02 -0.13640031632E+02  0.13016683710E+02  0.42954916691E+02  0.00000000000E+00 0. -1.
         -2    1    1    2    0  502  0.26122222670E+02 -0.24980562932E+01 -0.37952305016E+02  0.46140960745E+02  0.00000000000E+00 0.  1.
<scales pt_clust_5="13000.00000" pt_clust_6="13000.00000" pt_clust_7="13000.00000" pt_clust_8="13000.00000" pt_clust_9="26.24139"></scales>
<clustering>
<clus scale="   26.241">  2  9  1 -1</clus>
<clus scale="   78.568">  5  6 -1 -1</clus>
<clus scale="   83.262">  2  5  1 -1</clus>
<clus scale="   89.596">  7  8 -1 -1</clus>
<clus scale="   26.241">  2  5  1 -1</clus>
</clustering>
</event>
<event>
 9    2  0.1592151E-004  0.9537007E+02  0.7546771E-02  0.1292453E+00
         21   -1    0    0  501  502  0.00000000000E+00  0.00000000000E+00  0.14271275707E+03  0.14271275707E+03  0.00000000000E+00 0.  1.
         -1   -1    0    0    0  501 -0.00000000000E+00 -0.00000000000E+00 -0.25454774010E+03  0.25454774010E+03  0.00000000000E+00 0.  1.
         23    2    1    2    0    0  0.60199547443E+01  0.21080676408E+02 -0.14014676698E+03  0.16853491866E+03  0.91006965340E+02 0.  0.
         24    2    1    2    0    0 -0.90059139386E+02  0.15576205070E+02 -0.27841821688E+02  0.12121028220E+03  0.74588864617E+02 0.  0.
        -13    1    4    4    0    0 -0.58554755464E+02  0.34649686660E+02  0.95753509020E+01  0.68709151632E+02  0.00000000000E+00 0.  1.
         14    1    4    4    0    0 -0.31504383922E+02 -0.19073481591E+02 -0.37417172590E+02  0.52501130568E+02  0.00000000000E+00 0. -1.
        -11    1    3    3    0    0 -0.24797654541E+02  0.38274034350E+02 -0.11889288403E+03  0.12733948032E+03  0.00000000000E+00 0.  1.
         11    1    3    3    0    0  0.30817609285E+02 -0.17193357942E+02 -0.21253882950E+02  0.41195438338E+02  0.00000000000E+00 0. -1.
         -2    1    1    2    0  502  0.84039184642E+02 -0.36656881477E+02  0.56153605636E+02  0.10751529631E+03  0.00000000000E+00 0.  1.
<scales pt_clust_5="13000.00000" pt_clust_6="13000.00000" pt_clust_7="13000.00000" pt_clust_8="13000.00000" pt_clust_9="91.68594"></scales>
<clustering>
<clus scale="   74.589">  5  6 -1 -1</clus>
<clus scale="   91.007">  7  8 -1 -1</clus>
<clus scale="   91.686">  1  9  2 -1</clus>
<clus scale="   91.686">  1  5  2 -1</clus>
<clus scale="   91.686">  1  5  2 -1</clus>
</clustering>
</event>
<event>
 9    2  0.1592151E-004  0.1473978E+03  0.7546771E-02  0.1221165E+00
         21   -1    0    0  501  502  0.00000000000E+00  0.00000000000E+00  0.65366966849E+02  0.65366966849E+02  0.00000000000E+00 0.  1.
         -1   -1    0    0    0  501 -0.00000000000E+00 -0.00000000000E+00 -0.66456736341E+03  0.66456736341E+03  0.00000000000E+00 0.  1.
         24    2    1    2    0    0 -0.13573407061E+02 -0.59506873719E+02 -0.29008881350E+03  0.30739399750E+03  0.81328006145E+02 0.  0.
         23    2    1    2    0    0 -0.93119012188E+02 -0.39118518772E+02 -0.10410443013E+03  0.17126722810E+03  0.91067678724E+02 0.  0.
        -11    1    3    3    0    0  0.29694609003E+02 -0.19300162646E+02 -0.58441208028E+02  0.68334770635E+02  0.00000000000E+00 0.  1.
         12    1    3    3    0    0 -0.43268016063E+02 -0.40206711073E+02 -0.23164760547E+03  0.23905922687E+03  0.00000000000E+00 0. -1.
        -11    1    4    4    0    0 -0.43680904444E+02 -0.62465063374E+02 -0.82926751671E+02  0.11263548152E+03  0.00000000000E+00 0.  1.
         11    1    4    4    0    0 -0.49438107744E+02  0.23346544603E+02 -0.21177678459E+02  0.58631746581E+02  0.00000000000E+00 0. -1.
         -2    1    1    2    0  502  0.10669241925E+03  0.98625392491E+02 -0.20500715294E+03  0.25127310466E+03  0.00000000000E+00 0.  1.
<scales pt_clust_5="13000.00000" pt_clust_6="13000.00000" pt_clust_7="13000.00000" pt_clust_8="13000.00000" pt_clust_9="115.89991"></scales>
<clustering>
<clus scale="   81.328">  5  6 -1 -1</clus>
<clus scale="   91.068">  7  8 -1 -1</clus>
<clus scale="  101.684">  2  5  1 -1</clus>
<clus scale="  115.900">  1  9  2 -1</clus>
<clus scale="  115.900">  1  5  2 -1</clus>
</clustering>
</event>
<event>
 9    2  0.1592151E-004  0.1159433E+03  0.7546771E-02  0.1257817E+00
          2   -1    0    0  502    0 -0.00000000000E+00  0.00000000000E+00  0.31163975678E+03  0.31163975678E+03  0.00000000000E+00 0. -1.
         21   -1    0    0  501  502  0.00000000000E+00 -0.00000000000E+00 -0.69822736585E+02  0.69822736585E+02  0.00000000000E+00 0. -1.
         24    2    1    2    0    0 -0.45674312321E+01 -0.64572142534E+02  0.22741062759E+03  0.24922748613E+03  0.78792913924E+02 0.  0.
         23    2    1    2    0    0  0.32358129916E+01  0.40111742016E+02  0.11107808998E+02  0.10751729992E+03  0.99081602877E+02 0.  0.
        -13    1    3    3    0    0 -0.37289785938E+02 -0.43095758907E+02  0.91527756367E+02  0.10781976979E+03  0.00000000000E+00 0.  1.
         14    1    3    3    0    0  0.32722354706E+02 -0.21476383627E+02  0.13588287122E+03  0.14140771635E+03  0.00000000000E+00 0. -1.
        -13    1    4    4    0    0  0.15964011103E+02 -0.25091233124E+02 -0.18242981644E+02  0.34888766236E+02  0.00000000000E+00 0. -1.
         13    1    4    4    0    0 -0.12728198112E+02  0.65202975140E+02  0.29350790642E+02  0.72628533687E+02  0.00000000000E+00 0.  1.
          1    1    1    2  501    0  0.13316182405E+01  0.24460400519E+02  0.32985836059E+01  0.24717707306E+02  0.00000000000E+00 0. -1.
<scales pt_clust_5="13000.00000" pt_clust_6="13000.00000" pt_clust_7="13000.00000" pt_clust_8="13000.00000" pt_clust_9="24.49662"></scales>
<clustering>
<clus scale="   24.497">  2  9  1 -1</clus>
<clus scale="   78.793">  5  6 -1 -1</clus>
<clus scale="   99.082">  7  8 -1 -1</clus>
<clus scale="   99.167">  1  5  2 -1</clus>
<clus scale="   24.497">  2  5  1 -1</clus>
</clustering>
</event>
<event>
 9    2  0.1592151E-004  0.9051809E+02  0.7546771E-02  0.1305709E+00
         21   -1    0    0  501  502  0.00000000000E+00  0.00000000000E+00  0.23021542949E+03  0.23021542949E+03  0.00000000000E+00 0. -1.
          4   -1    0    0  502    0 -0.00000000000E+00 -0.00000000000E+00 -0.22068848211E+03  0.22068848211E+03  0.00000000000E+00 0. -1.
         23    2    1    2    0    0 -0.99545290510E+01  0.62309911464E+00 -0.19022097591E+03  0.21072431194E+03  0.90117895378E+02 0.  0.
         24    2    1    2    0    0 -0.16405328034E+02  0.31217067280E+02  0.15238638131E+03  0.17731662231E+03  0.83522064519E+02 0.  0.
        -13    1    4    4    0    0 -0.19448220903E+02 -0.26487229379E+02  0.53600391460E+02  0.62871365351E+02  0.00000000000E+00 0.  1.
         14    1    4    4    0    0  0.30428928692E+01  0.57704296659E+02  0.98785989853E+02  0.11444525696E+03  0.00000000000E+00 0. -1.
        -13    1    3    3    0    0 -0.19297151639E+02  0.42396344165E+02 -0.11665222255E+03  0.12560880179E+03  0.00000000000E+00 0. -1.
         13    1    3    3    0    0  0.93426225881E+01 -0.41773245050E+02 -0.73568753353E+02  0.85115510154E+02  0.00000000000E+00 0.  1.
          3    1    1    2  501    0  0.26359857085E+02 -0.31840166395E+02  0.47361541980E+02  0.62862977342E+02  0.00000000000E+00 0. -1.
<scales pt_clust_5="13000.00000" pt_clust_6="13000.00000" pt_clust_7="13000.00000" pt_clust_8="13000.00000" pt_clust_9="41.33568"></scales>
<clustering>
<clus scale="   41.336">  1  9  2 -1</clus>
<clus scale="   83.522">  5  6 -1 -1</clus>
<clus scale="   83.954">  1  5  2 -1</clus>
<clus scale="   90.118">  7  8 -1 -1</clus>
<clus scale="   41.336">  1  5  2 -1</clus>
</clustering>
</event>
<event>
 9    2  0.1592151E-004  0.1132401E+03  0.7546771E-02  0.1257041E+00
          2   -1    0    0  502    0 -0.00000000000E+00  0.00000000000E+00  0.41104018949E+03  0.41104018949E+03  0.00000000000E+00 0. -1.
         21   -1    0    0  501  502  0.00000000000E+00 -0.00000000000E+00 -0.67749441756E+02  0.67749441756E+02  0.00000000000E+00 0.  1.
         23    2    1    2    0    0  0.40282918123E+02 -0.34709431317E+02  0.10028190654E+03  0.14494354093E+03  0.90137179698E+02 0.  0.
         24    2    1    2    0    0 -0.50803151583E+02  0.86051024747E+02  0.59882521915E+02  0.14336805131E+03  0.83562806533E+02 0.  0.
        -11    1    4    4    0    0  0.41734644067E+01  0.49097655020E+02 -0.63647885774E+01  0.49684082635E+02  0.00000000000E+00 0.  1.
         12    1    4    4    0    0 -0.54976615990E+02  0.36953369727E+02  0.66247310492E+02  0.93683968678E+02  0.00000000000E+00 0. -1.
        -11    1    3    3    0    0  0.30169441327E+02 -0.65369315940E+02  0.63448246401E+02  0.95963652639E+02  0.00000000000E+00 0.  1.
         11    1    3    3    0    0  0.10113476796E+02  0.30659884624E+02  0.36833660135E+02  0.48979888291E+02  0.00000000000E+00 0. -1.
          1    1    1    2  501    0  0.10520233460E+02 -0.51341593430E+02  0.18312631928E+03  0.19047803900E+03  0.00000000000E+00 0. -1.
<scales pt_clust_5="13000.00000" pt_clust_6="13000.00000" pt_clust_7="13000.00000" pt_clust_8="13000.00000" pt_clust_9="52.40837"></scales>
<clustering>
<clus scale="   52.408">  2  9  1 -1</clus>
<clus scale="   83.563">  5  6 -1 -1</clus>
<clus scale="   90.137">  7  8 -1 -1</clus>
<clus scale="  108.080">  2  5  1 -1</clus>
<clus scale="   52.408">  2  5  1 -1</clus>
</clustering>
</event>
<event>
 9    2  0.1592151E-004  0.1228313E+03  0.7546771E-02  0.1241019E+00
          2   -1    0    0  502    0 -0.00000000000E+00  0.00000000000E+00  0.52821911655E+03  0.52821911655E+03  0.00000000000E+00 0. -1.
         21   -1    0    0  501  502  0.00000000000E+00 -0.00000000000E+00 -0.94663210833E+02  0.94663210833E+02  0.00000000000E+00 0. -1.
         24    2    1    2    0    0  0.51909670649E+02  0.68802591807E+02  0.44180462304E+03  0.45728742676E+03  0.80573290795E+02 0.  0.
         23    2    1    2    0    0 -0.73685945224E+02 -0.29577216207E+02 -0.14429098473E+02  0.12030656508E+03  0.89224662937E+02 0.  0.
        -11    1    3    3    0    0  0.31667255219E+02  0.49149452283E+02  0.11258966236E+03  0.12686573921E+03  0.00000000000E+00 0.  1.
         12    1    3    3    0    0  0.20242415430E+02  0.19653139524E+02  0.32921496067E+03  0.33042168755E+03  0.00000000000E+00 0. -1.
        -13    1    4    4    0    0 -0.66590865731E+02 -0.72049643449E+01 -0.45790034878E+02  0.81135579151E+02  0.00000000000E+00 0. -1.
         13    1    4    4    0    0 -0.70950794929E+01 -0.22372251862E+02  0.31360936405E+02  0.39170985928E+02  0.00000000000E+00 0.  1.
          1    1    1    2  501    0  0.21776274575E+02 -0.39225375600E+02  0.61803811543E+01  0.45288335547E+02  0.00000000000E+00 0. -1.
<scales pt_clust_5="13000.00000" pt_clust_6="13000.00000" pt_clust_7="13000.00000" pt_clust_8="13000.00000" pt_clust_9="44.86464"></scales>
<clustering>
<clus scale="   44.865">  2  9  1 -1</clus>
<clus scale="   80.573">  5  6 -1 -1</clus>
<clus scale="   89.225">  7  8 -1 -1</clus>
<clus scale="  116.699">  1  5  2 -1</clus>
<clus scale="   44.865">  2  5  1 -1</clus>
</clustering>
</event>
<event>
 9    2  0.1678893E-004  0.1027409E+03  0.7546771E-02  0.1279210E+00
         21   -1    0    0  501  502  0.00000000000E+00  0.00000000000E+00  0.96924394757E+02  0.96924394757E+02  0.00000000000E+00 0.  1.
          2   -1    0    0  502    0 -0.00000000000E+00 -0.00000000000E+00 -0.75575805466E+03  0.75575805466E+03  0.00000000000E+00 0. -1.
         23    2    1    2    0    0 -0.14649136018E+01 -0.50510746634E+02 -0.46006216037E+03  0.47139518176E+03  0.89458059943E+02 0.  0.
         24    2    1    2    0    0  0.54700316246E+02  0.47183322027E+02  0.55931984083E+02  0.12105862892E+03  0.79425526866E+02 0.  0.
        -11    1    4    4    0    0  0.47113050231E+02  0.58788434542E+02  0.68886218641E+02  0.10208344947E+03  0.00000000000E+00 0.  1.
         12    1    4    4    0    0  0.75872660152E+01 -0.11605112515E+02 -0.12954234557E+02  0.18975179447E+02  0.00000000000E+00 0. -1.
        -13    1    3    3    0    0  0.43259743280E+02 -0.18409748479E+02 -0.18522286847E+03  0.19109640298E+03  0.00000000000E+00 0. -1.
         13    1    3    3    0    0 -0.44724656882E+02 -0.32100998154E+02 -0.27483929190E+03  0.28029877878E+03  0.00000000000E+00 0.  1.
          1    1    1    2  501    0 -0.53235402644E+02  0.33274246070E+01 -0.25470348361E+03  0.26022863873E+03  0.00000000000E+00 0. -1.
<scales pt_clust_5="13000.00000" pt_clust_6="13000.00000" pt_clust_7="13000.00000" pt_clust_8="13000.00000" pt_clust_9="53.33932"></scales>
<clustering>
<clus scale="   53.339">  1  9  2 -1</clus>
<clus scale="   79.426">  5  6 -1 -1</clus>
<clus scale="   89.458">  7  8 -1 -1</clus>
<clus scale="   94.135">  1  5  2 -1</clus>
<clus scale="   53.339">  1  5  2 -1</clus>
</clustering>
</event>
<event>
 9    2  0.1592151E-004  0.1239863E+03  0.7546771E-02  0.1251615E+00
          4   -1    0    0  502    0 -0.00000000000E+00  0.00000000000E+00  0.37132357754E+03  0.37132357754E+03  0.00000000000E+00 0. -1.
         21   -1    0    0  501  502  0.00000000000E+00 -0.00000000000E+00 -0.74549000916E+02  0.74549000916E+02  0.00000000000E+00 0.  1.
         23    2    1    2    0    0  0.72940450207E+01  0.11971060812E+01  0.48277262620E+02  0.10363315177E+03  0.91402953471E+02 0.  0.
         24    2    1    2    0    0  0.69514004804E+02 -0.55659963706E+02  0.20588710801E+03  0.23888900805E+03  0.82147601901E+02 0.  0.
        -11    1    4    4    0    0  0.87351472145E+02 -0.53140437927E+02  0.18439841906E+03  0.21084819843E+03  0.00000000000E+00 0.  1.
         12    1    4    4    0    0 -0.17837467342E+02 -0.25195257781E+01  0.21488688951E+02  0.28040809620E+02  0.00000000000E+00 0. -1.
        -11    1    3    3    0    0 -0.30765873062E+02  0.15276454098E+02  0.52600470444E+02  0.62822913702E+02  0.00000000000E+00 0. -1.
         11    1    3    3    0    0  0.38059918082E+02 -0.14079348017E+02 -0.43232078241E+01  0.40810238065E+02  0.00000000000E+00 0.  1.
          3    1    1    2  501    0 -0.76808049825E+02  0.54462857624E+02  0.42610205993E+02  0.10335041864E+03  0.00000000000E+00 0. -1.
<scales pt_clust_5="13000.00000" pt_clust_6="13000.00000" pt_clust_7="13000.00000" pt_clust_8="13000.00000" pt_clust_9="92.86755"></scales>
<clustering>
<clus scale="   82.148">  5  6 -1 -1</clus>
<clus scale="   91.403">  7  8 -1 -1</clus>
<clus scale="   91.701">  1  7  2 -1</clus>
<clus scale="   92.868">  2  9  1 -1</clus>
<clus scale="   92.868">  2  5  1 -1</clus>
</clustering>
</event>
<event>
 9    2  0.1592151E-004  0.2257244E+03  0.7546771E-02  0.1169673E+00
          2   -1    0    0  502    0 -0.00000000000E+00  0.00000000000E+00  0.10435147154E+04  0.10435147154E+04  0.00000000000E+00 0. -1.
         21   -1    0    0  501  502  0.00000000000E+00 -0.00000000000E+00 -0.78835571721E+02  0.78835571721E+02  0.00000000000E+00 0. -1.
         24    2    1    2    0    0  0.32930936783E+02  0.22214340555E+02  0.24974607725E+03  0.26461249136E+03  0.77902143481E+02 0.  0.
         23    2    1    2    0    0  0.11862150812E+03  0.13360778741E+03  0.54832732320E+03  0.58386528383E+03  0.91179565939E+02 0.  0.
        -13    1    3    3    0    0 -0.21107819972E+02  0.24680752808E+02  0.76225271680E+02  0.82855124560E+02  0.00000000000E+00 0.  1.
         14    1    3    3    0    0  0.54038756755E+02 -0.24664122523E+01  0.17352080557E+03  0.18175736680E+03  0.00000000000E+00 0. -1.
        -13    1    4    4    0    0  0.22551061739E+02  0.92942867666E+02  0.28536997811E+03  0.30097001751E+03  0.00000000000E+00 0. -1.
         13    1    4    4    0    0  0.96070446379E+02  0.40664919742E+02  0.26295734509E+03  0.28289526631E+03  0.00000000000E+00 0.  1.
          1    1    1    2  501    0 -0.15155244490E+03 -0.15582212796E+03  0.16660574324E+03  0.27387251195E+03  0.00000000000E+00 0. -1.
<scales pt_clust_5="13000.00000" pt_clust_6="13000.00000" pt_clust_7="13000.00000" pt_clust_8="13000.00000" pt_clust_9="206.48922"></scales>
<clustering>
<clus scale="   77.902">  5  6 -1 -1</clus>
<clus scale="   87.445">  1  5  2 -1</clus>
<clus scale="   91.180">  7  8 -1 -1</clus>
<clus scale="  206.489">  2  9  1 -1</clus>
<clus scale="  206.489">  2  5  1 -1</clus>
</clustering>
</event>
<event>
 9    2  0.1592151E-004  0.8347569E+02  0.7546771E-02  0.1337126E+00
          2   -1    0    0  502    0 -0.00000000000E+00  0.00000000000E+00  0.34264619894E+03  0.34264619894E+03  0.00000000000E+00 0. -1.
         21   -1    0    0  501  502  0.00000000000E+00 -0.00000000000E+00 -0.13816647306E+03  0.13816647306E+03  0.00000000000E+00 0. -1.
         23    2    1    2    0    0 -0.59139604475E+01 -0.10374282705E+02  0.17615594181E+03  0.18596275311E+03  0.58383465465E+02 0.  0.
         24    2    1    2    0    0  0.39789347198E+02  0.87033001918E+01  0.14616297123E+03  0.17222688664E+03  0.81483413883E+02 0.  0.
        -13    1    4    4    0    0  0.80060276512E+01  0.30192927133E+02  0.12409628915E+03  0.12796717668E+03  0.00000000000E+00 0.  1.
         14    1    4    4    0    0  0.31783319547E+02 -0.21489626941E+02  0.22066682084E+02  0.44259709959E+02  0.00000000000E+00 0. -1.
        -11    1    3    3    0    0  0.14162842920E+02  0.15114365004E+02  0.11380781651E+03  0.11567734976E+03  0.00000000000E+00 0. -1.
         11    1    3    3    0    0 -0.20076803368E+02 -0.25488647709E+02  0.62348125298E+02  0.70285403347E+02  0.00000000000E+00 0.  1.
          1    1    1    2  501    0 -0.33875386751E+02  0.16709825129E+01 -0.11783918715E+03  0.12262303225E+03  0.00000000000E+00 0. -1.
<scales pt_clust_5="13000.00000" pt_clust_6="13000.00000" pt_clust_7="13000.00000" pt_clust_8="13000.00000" pt_clust_9="33.91657"></scales>
<clustering>
<clus scale="   33.917">  2  9  1 -1</clus>
<clus scale="   58.383">  7  8 -1 -1</clus>
<clus scale="   61.133">  1  7  2 -1</clus>
<clus scale="   81.483">  5  6 -1 -1</clus>
<clus scale="   33.917">  2  5  1 -1</clus>
</clustering>
</event>
<event>
 9    2  0.1592151E-004  0.9947452E+02  0.7546771E-02  0.1287885E+00
         21   -1    0    0  501  502  0.00000000000E+00  0.00000000000E+00  0.30416626340E+02  0.30416626340E+02  0.00000000000E+00 0. -1.
          2   -1    0    0  502    0 -0.00000000000E+00 -0.00000000000E+00 -0.12199562522E+04  0.12199562522E+04  0.00000000000E+00 0. -1.
         24    2    1    2    0    0 -0.24440608440E+02  0.16659176266E+01 -0.73024224852E+03  0.73504758167E+03  0.80256384010E+02 0.  0.
         23    2    1    2    0    0  0.71763071548E+02 -0.19948145800E+02 -0.44778751630E+03  0.46330479818E+03  0.92681224115E+02 0.  0.
        -11    1    3    3    0    0 -0.37565256605E+02  0.80404032086E+01 -0.15742452405E+03  0.16204405994E+03  0.00000000000E+00 0.  1.
         12    1    3    3    0    0  0.13124648166E+02 -0.63744855820E+01 -0.57281772447E+03  0.57300352174E+03  0.00000000000E+00 0. -1.
        -13    1    4    4    0    0  0.88924964149E+02  0.11307011530E+01 -0.38006195873E+03  0.39032809303E+03  0.00000000000E+00 0. -1.
         13    1    4    4    0    0 -0.17161892601E+02 -0.21078846953E+02 -0.67725557570E+02  0.72976705151E+02  0.00000000000E+00 0.  1.
          1    1    1    2  501    0 -0.47322463108E+02  0.18282228174E+02 -0.11509861028E+02  0.52020498676E+02  0.00000000000E+00 0. -1.
<scales pt_clust_5="13000.00000" pt_clust_6="13000.00000" pt_clust_7="13000.00000" pt_clust_8="13000.00000" pt_clust_9="50.73121"></scales>
<clustering>
<clus scale="   50.731">  1  9  2 -1</clus>
<clus scale="   80.256">  5  6 -1 -1</clus>
<clus scale="   88.014">  2  5  1 -1</clus>
<clus scale="   92.681">  7  8 -1 -1</clus>
<clus scale="   50.731">  1  5  2 -1</clus>
</clustering>
</event>
<event>
 9    2  0.1592151E-004  0.1766440E+03  0.7546771E-02  0.1200793E+00
         21   -1    0    0  501  502  0.00000000000E+00  0.00000000000E+00  0.10070539160E+03  0.10070539160E+03  0.00000000000E+00 0. -1.
          2   -1    0    0  502    0 -0.00000000000E+00 -0.00000000000E+00 -0.43402067205E+03  0.43402067205E+03  0.00000000000E+00 0. -1.
         24    2    1    2    0    0  0.28759551884E+02 -0.35001431555E+02 -0.58257213078E+02  0.10822879044E+03  0.79166635461E+02 0.  0.
         23    2    1    2    0    0 -0.14119440450E+03  0.94900772532E+02 -0.14649792433E+03  0.24550766713E+03  0.99349666809E+02 0.  0.
        -13    1    3    3    0    0  0.21726688963E+02  0.21993750559E+02 -0.80448843558E+01  0.31945175555E+02  0.00000000000E+00 0.  1.
         14    1    3    3    0    0  0.70328629209E+01 -0.56995182113E+02 -0.50212328722E+02  0.76283614890E+02  0.00000000000E+00 0. -1.
        -13    1    4    4    0    0 -0.44838344553E+02  0.89879936945E+02 -0.78180663862E+02  0.12728352764E+03  0.00000000000E+00 0.  1.
         13    1    4    4    0    0 -0.96356059946E+02  0.50208355873E+01 -0.68317260470E+02  0.11822413948E+03  0.00000000000E+00 0. -1.
          1    1    1    2  501    0  0.11243485261E+03 -0.59899340977E+02 -0.12856014304E+03  0.18098960608E+03  0.00000000000E+00 0. -1.
<scales pt_clust_5="13000.00000" pt_clust_6="13000.00000" pt_clust_7="13000.00000" pt_clust_8="13000.00000" pt_clust_9="146.05731"></scales>
<clustering>
<clus scale="   79.167">  5  6 -1 -1</clus>
<clus scale="   91.212">  2  5  1 -1</clus>
<clus scale="   99.350">  7  8 -1 -1</clus>
<clus scale="  146.057">  1  9  2 -1</clus>
<clus scale="  146.057">  1  5  2 -1</clus>
</clustering>
</event>
<event>
 9    2  0.1592151E-004  0.2430176E+03  0.7546771E-02  0.1147100E+00
         21   -1    0    0  501  502  0.00000000000E+00  0.00000000000E+00  0.66515217080E+03  0.66515217080E+03  0.00000000000E+00 0.  1.
         -3   -1    0    0    0  501 -0.00000000000E+00 -0.00000000000E+00 -0.16717155503E+03  0.16717155503E+03  0.00000000000E+00 0.  1.
         24    2    1    2    0    0  0.21656862706E+02  0.82494611388E+02  0.93774894704E+02  0.15127096620E+03  0.82551763926E+02 0.  0.
         23    2    1    2    0    0  0.20444360334E+03 -0.15940837522E+02  0.12743248681E+02  0.22411327474E+03  0.89515765536E+02 0.  0.
        -11    1    3    3    0    0  0.42261470953E+02  0.81819143563E+02  0.54749669516E+02  0.10713510392E+03  0.00000000000E+00 0.  1.
         12    1    3    3    0    0 -0.20604608246E+02  0.67546782475E+00  0.39025225188E+02  0.44135862275E+02  0.00000000000E+00 0. -1.
        -11    1    4    4    0    0  0.17110196333E+03 -0.11856090784E+02  0.45237264851E+02  0.17737772936E+03  0.00000000000E+00 0.  1.
         11    1    4    4    0    0  0.33341640019E+02 -0.40847467376E+01 -0.32494016171E+02  0.46735545380E+02  0.00000000000E+00 0. -1.
         -4    1    1    2    0  502 -0.22610046605E+03 -0.66553773866E+02  0.39146247239E+03  0.45693948489E+03  0.00000000000E+00 0.  1.
<scales pt_clust_5="13000.00000" pt_clust_6="13000.00000" pt_clust_7="13000.00000" pt_clust_8="13000.00000" pt_clust_9="225.93030"></scales>
<clustering>
<clus scale="   82.552">  5  6 -1 -1</clus>
<clus scale="   89.516">  7  8 -1 -1</clus>
<clus scale="  118.698">  2  5  1 -1</clus>
<clus scale="  225.930">  1  9  2 -1</clus>
<clus scale="  225.930">  1  5  2 -1</clus>
</clustering>
</event>
<event>
 9    2  0.1592151E-004  0.1017315E+03  0.7546771E-02  0.1280450E+00
         21   -1    0    0  501  502  0.00000000000E+00  0.00000000000E+00  0.57855403903E+02  0.57855403903E+02  0.00000000000E+00 0. -1.
         -1   -1    0    0    0  501 -0.00000000000E+00 -0.00000000000E+00 -0.37377427321E+03  0.37377427321E+03  0.00000000000E+00 0.  1.
         23    2    1    2    0    0  0.47474929469E+02 -0.18046835065E+02 -0.16982679859E+03  0.19783196265E+03  0.87845243148E+02 0.  0.
         24    2    1    2    0    0 -0.25959864920E+02  0.62350518328E+02 -0.31452965383E+02  0.10902656866E+03  0.79599007024E+02 0.  0.
        -13    1    4    4    0    0  0.18653272862E+02 -0.77318371457E+01 -0.12715307591E+02  0.23862207384E+02  0.00000000000E+00 0.  1.
         14    1    4    4    0    0 -0.44613137782E+02  0.70082355474E+02 -0.18737657792E+02  0.85164361273E+02  0.00000000000E+00 0. -1.
        -11    1    3    3    0    0 -0.87392528033E+01 -0.39662998723E+02 -0.57809199526E+02  0.70650064098E+02  0.00000000000E+00 0.  1.
         11    1    3    3    0    0  0.56214182272E+02  0.21616163658E+02 -0.11201759907E+03  0.12718189856E+03  0.00000000000E+00 0. -1.
         -2    1    1    2    0  502 -0.21515064549E+02 -0.44303683264E+02 -0.11463910534E+03  0.12477114581E+03  0.00000000000E+00 0.  1.
<scales pt_clust_5="13000.00000" pt_clust_6="13000.00000" pt_clust_7="13000.00000" pt_clust_8="13000.00000" pt_clust_9="49.25157"></scales>
<clustering>
<clus scale="   49.252">  1  9  2 -1</clus>
<clus scale="   79.599">  5  6 -1 -1</clus>
<clus scale="   87.845">  7  8 -1 -1</clus>
<clus scale="   94.702">  1  5  2 -1</clus>
<clus scale="   49.252">  1  5  2 -1</clus>
</clustering>
</event>
<event>
 9    2  0.1592151E-004  0.1626775E+03  0.7546771E-02  0.1189421E+00
          2   -1    0    0  502    0 -0.00000000000E+00  0.00000000000E+00  0.11364953219E+04  0.11364953219E+04  0.00000000000E+00 0. -1.
         21   -1    0    0  501  502  0.00000000000E+00 -0.00000000000E+00 -0.76996938149E+02  0.76996938149E+02  0.00000000000E+00 0.  1.
         24    2    1    2    0    0  0.91100249979E+02 -0.77342187475E+02  0.79940123923E+03  0.81224794681E+03  0.80145594454E+02 0.  0.
         23    2    1    2    0    0 -0.17813247104E+03  0.58491134055E+02  0.20788458096E+03  0.29801582150E+03  0.10220098270E+03 0.  0.
        -13    1    3    3    0    0  0.40028478406E+02  0.58151011758E+01  0.14220600644E+03  0.14784668664E+03  0.00000000000E+00 0.  1.
         14    1    3    3    0    0  0.51071771574E+02 -0.83157288651E+02  0.65719523279E+03  0.66440126017E+03  0.00000000000E+00 0. -1.
        -13    1    4    4    0    0 -0.13952128217E+03  0.25740424156E+02  0.85685177838E+02  0.16574289522E+03  0.00000000000E+00 0.  1.
         13    1    4    4    0    0 -0.38611188868E+02  0.32750709899E+02  0.12219940312E+03  0.13227292629E+03  0.00000000000E+00 0. -1.
          1    1    1    2  501    0  0.87032221056E+02  0.18851053420E+02  0.52212563608E+02  0.10322849178E+03  0.00000000000E+00 0. -1.
<scales pt_clust_5="13000.00000" pt_clust_6="13000.00000" pt_clust_7="13000.00000" pt_clust_8="13000.00000" pt_clust_9="89.05038"></scales>
<clustering>
<clus scale="   80.146">  5  6 -1 -1</clus>
<clus scale="   89.050">  2  9  1 -1</clus>
<clus scale="  102.201">  7  8 -1 -1</clus>
<clus scale="  149.807">  1  5  2 -1</clus>
<clus scale="   89.050">  2  5  1 -1</clus>
</clustering>
</event>
<event>
 9    2  0.1592151E-004  0.9891213E+02  0.7546771E-02  0.1289011E+00
          4   -1    0    0  502    0 -0.00000000000E+00  0.00000000000E+00  0.10996448105E+03  0.10996448105E+03  0.00000000000E+00 0. -1.
         21   -1    0    0  501  502  0.00000000000E+00 -0.00000000000E+00 -0.26562687769E+03  0.26562687769E+03  0.00000000000E+00 0. -1.
         23    2    1    2    0    0  0.26087416841E+02 -0.36306722788E+02  0.49333820885E+02  0.11380188928E+03  0.92294705612E+02 0.  0.
         24    2    1    2    0    0 -0.22233738742E+02  0.38370891098E+01 -0.37765852260E+02  0.91392512282E+02  0.80107860494E+02 0.  0.
        -11    1    4    4    0    0 -0.44062068543E+02  0.98770417616E+01 -0.48553686140E+02  0.66305974663E+02  0.00000000000E+00 0.  1.
         12    1    4    4    0    0  0.21828329800E+02 -0.60399526517E+01  0.10787833879E+02  0.25086537619E+02  0.00000000000E+00 0. -1.
        -11    1    3    3    0    0  0.36052396036E+02 -0.63118201347E+02  0.27110993842E+02  0.77580207452E+02  0.00000000000E+00 0. -1.
         11    1    3    3    0    0 -0.99649791944E+01  0.26811478558E+02  0.22222827043E+02  0.36221681830E+02  0.00000000000E+00 0.  1.
          3    1    1    2  501    0 -0.38536780991E+01  0.32469633678E+02 -0.16723036527E+03  0.17039695717E+03  0.00000000000E+00 0. -1.
<scales pt_clust_5="13000.00000" pt_clust_6="13000.00000" pt_clust_7="13000.00000" pt_clust_8="13000.00000" pt_clust_9="32.69752"></scales>
<clustering>
<clus scale="   32.698">  2  9  1 -1</clus>
<clus scale="   80.108">  5  6 -1 -1</clus>
<clus scale="   87.650">  2  5  1 -1</clus>
<clus scale="   92.295">  7  8 -1 -1</clus>
<clus scale="   32.698">  2  5  1 -1</clus>
</clustering>
</event>
<event>
 9    2  0.1592151E-004  0.2913704E+03  0.7546771E-02  0.1089887E+00
          2   -1    0    0  502    0 -0.00000000000E+00  0.00000000000E+00  0.33037896606E+04  0.33037896606E+04  0.00000000000E+00 0. -1.
         21   -1    0    0  501  502  0.00000000000E+00 -0.00000000000E+00 -0.19575424167E+03  0.19575424167E+03  0.00000000000E+00 0. -1.
         24    2    1    2    0    0  0.34701187400E+02 -0.27663645951E+03  0.14140108918E+04  0.14434848516E+04  0.80559365769E+02 0.  0.
         23    2    1    2    0    0  0.24426449576E+03  0.29025373812E+03  0.54668246825E+02  0.39308091001E+03  0.87244531181E+02 0.  0.
        -11    1    3    3    0    0 -0.19116274813E+02 -0.16661626305E+03  0.80823961517E+03  0.82545604766E+03  0.00000000000E+00 0.  1.
         12    1    3    3    0    0  0.53817462213E+02 -0.11002019647E+03  0.60577127667E+03  0.61802880395E+03  0.00000000000E+00 0. -1.
        -13    1    4    4    0    0  0.33364748804E+02  0.50961102727E+02  0.41762143228E+02  0.73853348339E+02  0.00000000000E+00 0.  1.
         13    1    4    4    0    0  0.21089974695E+03  0.23929263540E+03  0.12906103597E+02  0.31922756167E+03  0.00000000000E+00 0. -1.
          1    1    1    2  501    0 -0.27896568316E+03 -0.13617278611E+02  0.16393562803E+04  0.16629781407E+04  0.00000000000E+00 0. -1.
<scales pt_clust_5="13000.00000" pt_clust_6="13000.00000" pt_clust_7="13000.00000" pt_clust_8="13000.00000" pt_clust_9="279.29798"></scales>
<clustering>
<clus scale="   80.559">  5  6 -1 -1</clus>
<clus scale="   87.245">  7  8 -1 -1</clus>
<clus scale="  279.298">  2  9  1 -1</clus>
<clus scale="  289.439">  1  5  2 -1</clus>
<clus scale="  279.298">  2  5  1 -1</clus>
</clustering>
</event>
<event>
 9    2  0.1592151E-004  0.2460631E+03  0.7546771E-02  0.1159937E+00
          2   -1    0    0  502    0 -0.00000000000E+00  0.00000000000E+00  0.20644600954E+04  0.20644600954E+04  0.00000000000E+00 0. -1.
         21   -1    0    0  501  502  0.00000000000E+00 -0.00000000000E+00 -0.40124077304E+02  0.40124077304E+02  0.00000000000E+00 0. -1.
         24    2    1    2    0    0 -0.21069182139E+02 -0.13488153792E+02  0.49793950786E+03  0.50506094093E+03  0.80727689440E+02 0.  0.
         23    2    1    2    0    0  0.20375700068E+03  0.12900774753E+03  0.71446455830E+03  0.75931307345E+03  0.89088855567E+02 0.  0.
        -13    1    3    3    0    0 -0.16960258282E+02 -0.26036373915E+02  0.66309718591E+02  0.73229242160E+02  0.00000000000E+00 0.  1.
         14    1    3    3    0    0 -0.41089238568E+01  0.12548220124E+02  0.43162978927E+03  0.43183169877E+03  0.00000000000E+00 0. -1.
        -11    1    4    4    0    0  0.14831004810E+03  0.13344778889E+03  0.51687673154E+03  0.55404488838E+03  0.00000000000E+00 0. -1.
         11    1    4    4    0    0  0.55446952582E+02 -0.44400413583E+01  0.19758782676E+03  0.20526818507E+03  0.00000000000E+00 0.  1.
          1    1    1    2  501    0 -0.18268781854E+03 -0.11551959374E+03  0.81193195195E+03  0.84021015834E+03  0.00000000000E+00 0. -1.
<scales pt_clust_5="13000.00000" pt_clust_6="13000.00000" pt_clust_7="13000.00000" pt_clust_8="13000.00000" pt_clust_9="229.36926"></scales>
<clustering>
<clus scale="   80.728">  5  6 -1 -1</clus>
<clus scale="   84.515">  1  5  2 -1</clus>
<clus scale="   89.089">  7  8 -1 -1</clus>
<clus scale="  229.369">  2  9  1 -1</clus>
<clus scale="  229.369">  2  5  1 -1</clus>
</clustering>
</event>
<event>
 9    2  0.1592151E-004  0.1506456E+03  0.7546771E-02  0.1225406E+00
         21   -1    0    0  501  502  0.00000000000E+00  0.00000000000E+00  0.66512733695E+03  0.66512733695E+03  0.00000000000E+00 0.  1.
         -1   -1    0    0    0  501 -0.00000000000E+00 -0.00000000000E+00 -0.13176844906E+03  0.13176844906E+03  0.00000000000E+00 0.  1.
         24    2    1    2    0    0  0.33781023355E+02 -0.36178302911E+01  0.10780172221E+03  0.13863879141E+03  0.80282357562E+02 0.  0.
         23    2    1    2    0    0 -0.12035705959E+03 -0.73454577320E+02 -0.43381902667E+02  0.17520480707E+03  0.94516338370E+02 0.  0.
        -13    1    3    3    0    0 -0.14154682981E+01 -0.27872507987E+02  0.86479880888E+02  0.90871613006E+02  0.00000000000E+00 0.  1.
         14    1    3    3    0    0  0.35196491653E+02  0.24254677696E+02  0.21321841325E+02  0.47767178400E+02  0.00000000000E+00 0. -1.
        -11    1    4    4    0    0 -0.72065303124E+02 -0.69527130903E+02 -0.67817324131E+02  0.12094056101E+03  0.00000000000E+00 0.  1.
         11    1    4    4    0    0 -0.48291756467E+02 -0.39274464173E+01  0.24435421464E+02  0.54264246057E+02  0.00000000000E+00 0. -1.
         -2    1    1    2    0  502  0.86576036236E+02  0.77072407611E+02  0.46893906834E+03  0.48305218754E+03  0.00000000000E+00 0.  1.
<scales pt_clust_5="13000.00000" pt_clust_6="13000.00000" pt_clust_7="13000.00000" pt_clust_8="13000.00000" pt_clust_9="117.30620"></scales>
<clustering>
<clus scale="   80.282">  5  6 -1 -1</clus>
<clus scale="   87.175">  2  5  1 -1</clus>
<clus scale="   94.516">  7  8 -1 -1</clus>
<clus scale="  117.306">  1  9  2 -1</clus>
<clus scale="  117.306">  1  5  2 -1</clus>
</clustering>
</event>
<event>
 9    2  0.1592151E-004  0.2423729E+03  0.7546771E-02  0.1118645E+00
          2   -1    0    0  502    0 -0.00000000000E+00  0.00000000000E+00  0.13769748714E+04  0.13769748714E+04  0.00000000000E+00 0. -1.
         21   -1    0    0  501  502  0.00000000000E+00 -0.00000000000E+00 -0.16469965839E+03  0.16469965839E+03  0.00000000000E+00 0.  1.
         23    2    1    2    0    0  0.20466637743E+03 -0.10706169824E+03  0.12444016968E+04  0.12689086446E+04  0.90791145294E+02 0.  0.
         24    2    1    2    0    0 -0.15110678097E+03  0.96403460336E+02  0.17991835494E+02  0.19864386183E+03  0.83718524111E+02 0.  0.
        -13    1    4    4    0    0 -0.88215433045E+02  0.99253571302E+02 -0.13062335561E+01  0.13279661249E+03  0.00000000000E+00 0.  1.
         14    1    4    4    0    0 -0.62891347928E+02 -0.28501109668E+01  0.19298069051E+02  0.65847249341E+02  0.00000000000E+00 0. -1.
        -11    1    3    3    0    0  0.18428444816E+03 -0.11913976752E+03  0.11812268329E+04  0.12014374194E+04  0.00000000000E+00 0. -1.
         11    1    3    3    0    0  0.20381929268E+02  0.12078069277E+02  0.63174863992E+02  0.67471225264E+02  0.00000000000E+00 0.  1.
          1    1    1    2  501    0 -0.53559596457E+02  0.10658237909E+02 -0.50118319323E+02  0.74122023311E+02  0.00000000000E+00 0. -1.
<scales pt_clust_5="13000.00000" pt_clust_6="13000.00000" pt_clust_7="13000.00000" pt_clust_8="13000.00000" pt_clust_9="54.60978"></scales>
<clustering>
<clus scale="   54.610">  2  9  1 -1</clus>
<clus scale="   83.719">  5  6 -1 -1</clus>
<clus scale="   90.791">  7  8 -1 -1</clus>
<clus scale="  239.813">  2  5  1 -1</clus>
<clus scale="   54.610">  2  5  1 -1</clus>
</clustering>
</event>
<event>
 9    2  0.1592151E-004  0.1061821E+03  0.7546771E-02  0.1270159E+00
          4   -1    0    0  502    0 -0.00000000000E+00  0.00000000000E+00  0.15660283760E+03  0.15660283760E+03  0.00000000000E+00 0. -1.
         21   -1    0    0  501  502  0.00000000000E+00 -0.00000000000E+00 -0.34560946403E+03  0.34560946403E+03  0.00000000000E+00 0. -1.
         23    2    1    2    0    0 -0.27535325064E+02 -0.44002109694E+02  0.66145873832E+02  0.12393939665E+03  0.91056672638E+02 0.  0.
         24    2    1    2    0    0  0.12134556285E+03  0.53661916516E+01 -0.23213601564E+03  0.27423996097E+03  0.81036317783E+02 0.  0.
        -11    1    4    4    0    0  0.89283383083E+02  0.40305279718E+02 -0.14408130683E+03  0.17422818671E+03  0.00000000000E+00 0.  1.
         12    1    4    4    0    0  0.32062179769E+02 -0.34939088067E+02 -0.88054708812E+02  0.10001177426E+03  0.00000000000E+00 0. -1.
        -13    1    3    3    0    0 -0.25145632899E+02 -0.72184586904E+02  0.50536595956E+02  0.91634409319E+02  0.00000000000E+00 0. -1.
         13    1    3    3    0    0 -0.23896921655E+01  0.28182477210E+02  0.15609277876E+02  0.32304987327E+02  0.00000000000E+00 0.  1.
          3    1    1    2  501    0 -0.93810237789E+02  0.38635918043E+02 -0.23016484625E+02  0.10403294402E+03  0.00000000000E+00 0. -1.
<scales pt_clust_5="13000.00000" pt_clust_6="13000.00000" pt_clust_7="13000.00000" pt_clust_8="13000.00000" pt_clust_9="101.45494"></scales>
<clustering>
<clus scale="   81.036">  5  6 -1 -1</clus>
<clus scale="   91.057">  7  8 -1 -1</clus>
<clus scale="  101.455">  2  9  1 -1</clus>
<clus scale="  101.455">  2  5  1 -1</clus>
<clus scale="  101.455">  2  5  1 -1</clus>
</clustering>
</event>
<event>
 9    2  0.1592151E-004  0.1485354E+03  0.7546771E-02  0.1211814E+00
         21   -1    0    0  501  502  0.00000000000E+00  0.00000000000E+00  0.46469895939E+03  0.46469895939E+03  0.00000000000E+00 0.  1.
         -1   -1    0    0    0  501 -0.00000000000E+00 -0.00000000000E+00 -0.14906772503E+03  0.14906772503E+03  0.00000000000E+00 0.  1.
         24    2    1    2    0    0  0.77386074046E+02 -0.50808868047E+02 -0.20484361806E+02  0.12278400812E+03  0.78013832377E+02 0.  0.
         23    2    1    2    0    0  0.21272841371E+02  0.12381556885E+03  0.33454723817E+03  0.36823896077E+03  0.88855212523E+02 0.  0.
        -11    1    3    3    0    0  0.79375101104E+02 -0.41774275908E+02  0.10629196113E+02  0.90324285842E+02  0.00000000000E+00 0.  1.
         12    1    3    3    0    0 -0.19890270577E+01 -0.90345921387E+01 -0.31113557919E+02  0.32459722275E+02  0.00000000000E+00 0. -1.
        -13    1    4    4    0    0  0.48898080677E+02  0.11462264850E+03  0.27726378150E+03  0.30398121385E+03  0.00000000000E+00 0.  1.
         13    1    4    4    0    0 -0.27625239305E+02  0.91929203576E+01  0.57283456668E+02  0.64257746920E+02  0.00000000000E+00 0. -1.
         -2    1    1    2    0  502 -0.98658915418E+02 -0.73006700807E+02  0.15683579984E+01  0.12274371553E+03  0.00000000000E+00 0.  1.
<scales pt_clust_5="13000.00000" pt_clust_6="13000.00000" pt_clust_7="13000.00000" pt_clust_8="13000.00000" pt_clust_9="119.02741"></scales>
<clustering>
<clus scale="   78.014">  5  6 -1 -1</clus>
<clus scale="   88.855">  7  8 -1 -1</clus>
<clus scale="  121.063">  2  5  1 -1</clus>
<clus scale="  119.027">  1  9  2 -1</clus>
<clus scale="  119.027">  1  5  2 -1</clus>
</clustering>
</event>
<event>
 9    2  0.1592151E-004  0.9890780E+02  0.7546771E-02  0.1291471E+00
         21   -1    0    0  501  502  0.00000000000E+00  0.00000000000E+00  0.26965790837E+02  0.26965790837E+02  0.00000000000E+00 0. -1.
          2   -1    0    0  502    0 -0.00000000000E+00 -0.00000000000E+00 -0.49413277322E+03  0.49413277322E+03  0.00000000000E+00 0. -1.
         23    2    1    2    0    0  0.24565789612E+01  0.11529914755E+02 -0.27851964508E+03  0.29498032810E+03  0.96442871985E+02 0.  0.
         24    2    1    2    0    0  0.16905770200E+02 -0.34426793276E+02 -0.16593936683E+03  0.18850414905E+03  0.80789427417E+02 0.  0.
        -11    1    4    4    0    0  0.20233982183E+02  0.22727561444E+02 -0.76275729943E+02  0.82121514005E+02  0.00000000000E+00 0.  1.
         12    1    4    4    0    0 -0.33282119826E+01 -0.57154354720E+02 -0.89663636888E+02  0.10638263504E+03  0.00000000000E+00 0. -1.
        -13    1    3    3    0    0 -0.42963377657E+02 -0.10539935018E+01 -0.78617542627E+02  0.89597325466E+02  0.00000000000E+00 0.  1.
         13    1    3    3    0    0  0.45419956618E+02  0.12583908257E+02 -0.19990210246E+03  0.20538300264E+03  0.00000000000E+00 0. -1.
          1    1    1    2  501    0 -0.19362349162E+02  0.22896878521E+02 -0.22707970472E+02  0.37614086909E+02  0.00000000000E+00 0. -1.
<scales pt_clust_5="13000.00000" pt_clust_6="13000.00000" pt_clust_7="13000.00000" pt_clust_8="13000.00000" pt_clust_9="29.98612"></scales>
<clustering>
<clus scale="   29.986">  1  9  2 -1</clus>
<clus scale="   80.789">  5  6 -1 -1</clus>
<clus scale="   83.717">  1  5  2 -1</clus>
<clus scale="   96.443">  7  8 -1 -1</clus>
<clus scale="   29.986">  1  5  2 -1</clus>
</clustering>
</event>
<event>
 9    2  0.1592151E-004  0.1974952E+03  0.7546771E-02  0.1165757E+00
         21   -1    0    0  501  502  0.00000000000E+00  0.00000000000E+00  0.14486499448E+03  0.14486499448E+03  0.00000000000E+00 0. -1.
          2   -1    0    0  502    0 -0.00000000000E+00 -0.00000000000E+00 -0.12128121264E+04  0.12128121264E+04  0.00000000000E+00 0. -1.
         23    2    1    2    0    0 -0.87606443983E+02 -0.61412387495E+02 -0.23944908844E+03  0.27881866226E+03  0.94644651753E+02 0.  0.
         24    2    1    2    0    0  0.11609050640E+03  0.23468287986E+03 -0.85833083338E+03  0.90074613256E+03  0.77837754408E+02 0.  0.
        -11    1    4    4    0    0  0.58842949586E+02  0.93953488280E+02 -0.24559891866E+03  0.26945979204E+03  0.00000000000E+00 0.  1.
         12    1    4    4    0    0  0.57247556815E+02  0.14072939158E+03 -0.61273191472E+03  0.63128634052E+03  0.00000000000E+00 0. -1.
        -11    1    3    3    0    0 -0.54301892378E+02 -0.79632316140E+02 -0.20899688255E+03  0.23015146796E+03  0.00000000000E+00 0.  1.
         11    1    3    3    0    0 -0.33304551606E+02  0.18219928645E+02 -0.30452205893E+02  0.48667194302E+02  0.00000000000E+00 0. -1.
          1    1    1    2  501    0 -0.28484062418E+02 -0.17327049236E+03  0.29832789922E+02  0.17811232605E+03  0.00000000000E+00 0. -1.
<scales pt_clust_5="13000.00000" pt_clust_6="13000.00000" pt_clust_7="13000.00000" pt_clust_8="13000.00000" pt_clust_9="181.50935"></scales>
<clustering>
<clus scale="   77.838">  5  6 -1 -1</clus>
<clus scale="   94.645">  7  8 -1 -1</clus>
<clus scale="  142.843">  2  7  1 -1</clus>
<clus scale="  181.509">  1  9  2 -1</clus>
<clus scale="  181.509">  1  5  2 -1</clus>
</clustering>
</event>
<event>
 9    2  0.1592151E-004  0.9844035E+02  0.7546771E-02  0.1288503E+00
          2   -1    0    0  502    0 -0.00000000000E+00  0.00000000000E+00  0.54406393322E+03  0.54406393322E+03  0.00000000000E+00 0. -1.
         21   -1    0    0  501  502  0.00000000000E+00 -0.00000000000E+00 -0.29191978638E+02  0.29191978638E+02  0.00000000000E+00 0. -1.
         24    2    1    2    0    0  0.25105336941E+02 -0.42213036463E+02  0.24269973109E+03  0.26091748060E+03  0.82234748246E+02 0.  0.
         23    2    1    2    0    0  0.25408946976E+02  0.25142317034E+02  0.15446555087E+03  0.18311783258E+03  0.91623051216E+02 0.  0.
        -13    1    3    3    0    0  0.83856433403E+01  0.20151668801E+02  0.22094645779E+02  0.31057722740E+02  0.00000000000E+00 0.  1.
         14    1    3    3    0    0  0.16719693601E+02 -0.62364705264E+02  0.22060508531E+03  0.22985975786E+03  0.00000000000E+00 0. -1.
        -11    1    4    4    0    0 -0.10716428119E+02  0.47415219384E+02  0.11626352429E+03  0.12601687165E+03  0.00000000000E+00 0.  1.
         11    1    4    4    0    0  0.36125375095E+02 -0.22272902350E+02  0.38202026574E+02  0.57100960931E+02  0.00000000000E+00 0. -1.
          1    1    1    2  501    0 -0.50514283917E+02  0.17070719429E+02  0.11770667263E+03  0.12922059868E+03  0.00000000000E+00 0. -1.
<scales pt_clust_5="13000.00000" pt_clust_6="13000.00000" pt_clust_7="13000.00000" pt_clust_8="13000.00000" pt_clust_9="53.32078"></scales>
<clustering>
<clus scale="   53.321">  2  9  1 -1</clus>
<clus scale="   82.235">  5  6 -1 -1</clus>
<clus scale="   89.768">  1  5  2 -1</clus>
<clus scale="   91.623">  7  8 -1 -1</clus>
<clus scale="   53.321">  2  5  1 -1</clus>
</clustering>
</event>
<event>
 9    2  0.1592151E-004  0.1020683E+03  0.7546771E-02  0.1281450E+00
          2   -1    0    0  502    0 -0.00000000000E+00  0.00000000000E+00  0.64503579480E+03  0.64503579480E+03  0.00000000000E+00 0. -1.
         21   -1    0    0  501  502  0.00000000000E+00 -0.00000000000E+00 -0.37950876602E+02  0.37950876602E+02  0.00000000000E+00 0. -1.
         24    2    1    2    0    0 -0.62812826782E+02  0.14837307955E+02  0.28384710272E+03  0.30201712317E+03  0.80495764155E+02 0.  0.
         23    2    1    2    0    0 -0.15588921449E+02 -0.30326848206E+02  0.85034069562E+02  0.12971711631E+03  0.91831394862E+02 0.  0.
        -13    1    3    3    0    0 -0.27133994241E+02 -0.26817118902E+02  0.18576598425E+03  0.18964285490E+03  0.00000000000E+00 0.  1.
         14    1    3    3    0    0 -0.35678832541E+02  0.41654426856E+02  0.98081118470E+02  0.11237426827E+03  0.00000000000E+00 0. -1.
        -11    1    4    4    0    0 -0.13713273959E+02 -0.61647403606E+02  0.39741417888E+02  0.74617937186E+02  0.00000000000E+00 0. -1.
         11    1    4    4    0    0 -0.18756474892E+01  0.31320555400E+02  0.45292651674E+02  0.55099179120E+02  0.00000000000E+00 0.  1.
          1    1    1    2  501    0  0.78401748231E+02  0.15489540252E+02  0.23820374591E+03  0.25125243193E+03  0.00000000000E+00 0. -1.
<scales pt_clust_5="13000.00000" pt_clust_6="13000.00000" pt_clust_7="13000.00000" pt_clust_8="13000.00000" pt_clust_9="79.91725"></scales>
<clustering>
<clus scale="   79.917">  2  9  1 -1</clus>
<clus scale="   80.496">  5  6 -1 -1</clus>
<clus scale="   91.831">  7  8 -1 -1</clus>
<clus scale="   92.003">  1  5  2 -1</clus>
<clus scale="   79.917">  2  5  1 -1</clus>
</clustering>
</event>
<event>
 9    2  0.1592151E-004  0.9238242E+02  0.7546771E-02  0.1298527E+00
         21   -1    0    0  501  502  0.00000000000E+00  0.00000000000E+00  0.18617168165E+03  0.18617168165E+03  0.00000000000E+00 0.  1.
          2   -1    0    0  502    0 -0.00000000000E+00 -0.00000000000E+00 -0.73939078880E+02  0.73939078880E+02  0.00000000000E+00 0. -1.
         24    2    1    2    0    0  0.27503030811E+02 -0.37683973926E+02 -0.12951864196E+02  0.93300813066E+02  0.79754575656E+02 0.  0.
         23    2    1    2    0    0 -0.66703066348E+01  0.29247690272E+02  0.10319637997E+03  0.13536715420E+03  0.82309496540E+02 0.  0.
        -13    1    3    3    0    0 -0.22170271578E+02  0.88295980902E+01  0.78657236525E+00  0.23876797113E+02  0.00000000000E+00 0.  1.
         14    1    3    3    0    0  0.49673302389E+02 -0.46513572016E+02 -0.13738436562E+02  0.69424015953E+02  0.00000000000E+00 0. -1.
        -13    1    4    4    0    0 -0.17332972682E+02 -0.25887622718E+02  0.42235621129E+02  0.52482841426E+02  0.00000000000E+00 0.  1.
         13    1    4    4    0    0  0.10662666048E+02  0.55135312990E+02  0.60960758840E+02  0.82884312774E+02  0.00000000000E+00 0. -1.
          1    1    1    2  501    0 -0.20832724176E+02  0.84362836542E+01  0.21988087000E+02  0.31442793266E+02  0.00000000000E+00 0. -1.
<scales pt_clust_5="13000.00000" pt_clust_6="13000.00000" pt_clust_7="13000.00000" pt_clust_8="13000.00000" pt_clust_9="22.47606"></scales>
<clustering>
<clus scale="   22.476">  1  9  2 -1</clus>
<clus scale="   79.755">  5  6 -1 -1</clus>
<clus scale="   82.309">  7  8 -1 -1</clus>
<clus scale="   90.114">  2  5  1 -1</clus>
<clus scale="   22.476">  1  5  2 -1</clus>
</clustering>
</event>
<event>
 9    2  0.1592151E-004  0.7315955E+03  0.7546771E-02  0.9664675E-01
         21   -1    0    0  501  502  0.00000000000E+00  0.00000000000E+00  0.43372315880E+03  0.43372315880E+03  0.00000000000E+00 0. -1.
          2   -1    0    0  502    0 -0.00000000000E+00 -0.00000000000E+00 -0.11421980554E+04  0.11421980554E+04  0.00000000000E+00 0. -1.
         24    2    1    2    0    0 -0.56957549726E+02  0.40719352849E+03 -0.14945545534E+03  0.44459976879E+03  0.79254584510E+02 0.  0.
         23    2    1    2    0    0  0.96491915828E+02  0.26699462263E+03 -0.24459527918E+03  0.38636830401E+03  0.94110559524E+02 0.  0.
        -11    1    3    3    0    0 -0.12246896877E+01  0.21700413357E+02 -0.30282616910E+02  0.37275255756E+02  0.00000000000E+00 0.  1.
         12    1    3    3    0    0 -0.55732860038E+02  0.38549311513E+03 -0.11917283843E+03  0.40732451304E+03  0.00000000000E+00 0. -1.
        -13    1    4    4    0    0  0.27362140866E+02  0.10557201362E+03 -0.38614307926E+02  0.11569443197E+03  0.00000000000E+00 0.  1.
         13    1    4    4    0    0  0.69129774962E+02  0.16142260901E+03 -0.20598097126E+03  0.27067387204E+03  0.00000000000E+00 0. -1.
          1    1    1    2  501    0 -0.39534366101E+02 -0.67418815111E+03 -0.31442416211E+03  0.74495314143E+03  0.00000000000E+00 0. -1.
<scales pt_clust_5="13000.00000" pt_clust_6="13000.00000" pt_clust_7="13000.00000" pt_clust_8="13000.00000" pt_clust_9="675.34630"></scales>
<clustering>
<clus scale="   79.255">  5  6 -1 -1</clus>
<clus scale="   94.111">  7  8 -1 -1</clus>
<clus scale="  203.575">  5  7 -1 -1</clus>
<clus scale="  675.346">  1  9  2 -1</clus>
<clus scale="  675.346">  1  5  2 -1</clus>
</clustering>
</event>
<event>
 9    2  0.1592151E-004  0.1706494E+03  0.7546771E-02  0.1178344E+00
          2   -1    0    0  502    0 -0.00000000000E+00  0.00000000000E+00  0.10921512698E+04  0.10921512698E+04  0.00000000000E+00 0. -1.
         21   -1    0    0  501  502  0.00000000000E+00 -0.00000000000E+00 -0.37493999675E+02  0.37493999675E+02  0.00000000000E+00 0.  1.
         23    2    1    2    0    0 -0.25025664060E+02  0.16196682930E+03  0.65415798305E+03  0.68033362235E+03  0.89842268753E+02 0.  0.
         24    2    1    2    0    0  0.45396479926E+01 -0.12453383825E+03  0.36389387844E+03  0.39309010663E+03  0.81066589258E+02 0.  0.
        -11    1    4    4    0    0 -0.22664435957E+02 -0.11868780429E+03  0.29430892593E+03  0.31814810298E+03  0.00000000000E+00 0.  1.
         12    1    4    4    0    0  0.27204083950E+02 -0.58460339612E+01  0.69584952506E+02  0.74942003655E+02  0.00000000000E+00 0. -1.
        -11    1    3    3    0    0 -0.18239044835E+02  0.66275904657E+02  0.12597057808E+03  0.14350520840E+03  0.00000000000E+00 0.  1.
         11    1    3    3    0    0 -0.67866192247E+01  0.95690924642E+02  0.52818740497E+03  0.53682841395E+03  0.00000000000E+00 0. -1.
          1    1    1    2  501    0  0.20486016067E+02 -0.37432991046E+02  0.36605408608E+02  0.56221540465E+02  0.00000000000E+00 0. -1.
<scales pt_clust_5="13000.00000" pt_clust_6="13000.00000" pt_clust_7="13000.00000" pt_clust_8="13000.00000" pt_clust_9="42.67207"></scales>
<clustering>
<clus scale="   42.672">  2  9  1 -1</clus>
<clus scale="   81.067">  5  6 -1 -1</clus>
<clus scale="   89.842">  7  8 -1 -1</clus>
<clus scale="  166.197">  2  5  1 -1</clus>
<clus scale="   42.672">  2  5  1 -1</clus>
</clustering>
</event>
<event>
 9    2  0.1592151E-004  0.9377094E+02  0.7546771E-02  0.1302197E+00
         21   -1    0    0  501  502  0.00000000000E+00  0.00000000000E+00  0.81449555691E+02  0.81449555691E+02  0.00000000000E+00 0.  1.
          2   -1    0    0  502    0 -0.00000000000E+00 -0.00000000000E+00 -0.23532165685E+03  0.23532165685E+03  0.00000000000E+00 0. -1.
         24    2    1    2    0    0 -0.22489278615E+02 -0.45521483301E+01 -0.16248419840E+03  0.18097464868E+03  0.76316571139E+02 0.  0.
         23    2    1    2    0    0  0.46085372965E+02 -0.16138417360E+02  0.15378455044E+02  0.10369268909E+03  0.90174091489E+02 0.  0.
        -13    1    3    3    0    0  0.18821775768E+02 -0.25747149123E+02 -0.50266165264E+02  0.59530347734E+02  0.00000000000E+00 0.  1.
         14    1    3    3    0    0 -0.41311054383E+02  0.21195000793E+02 -0.11221803313E+03  0.12144430095E+03  0.00000000000E+00 0. -1.
        -11    1    4    4    0    0  0.14749955956E+02 -0.45899839249E+02  0.31474644030E+02  0.57576120576E+02  0.00000000000E+00 0. -1.
         11    1    4    4    0    0  0.31335417008E+02  0.29761421889E+02 -0.16096188986E+02  0.46116568517E+02  0.00000000000E+00 0.  1.
          1    1    1    2  501    0 -0.23596094350E+02  0.20690565691E+02 -0.67663578115E+01  0.32103874769E+02  0.00000000000E+00 0. -1.
<scales pt_clust_5="13000.00000" pt_clust_6="13000.00000" pt_clust_7="13000.00000" pt_clust_8="13000.00000" pt_clust_9="31.38272"></scales>
<clustering>
<clus scale="   31.383">  1  9  2 -1</clus>
<clus scale="   76.317">  5  6 -1 -1</clus>
<clus scale="   80.535">  2  5  1 -1</clus>
<clus scale="   90.174">  7  8 -1 -1</clus>
<clus scale="   31.383">  1  5  2 -1</clus>
</clustering>
</event>
<event>
 9    2  0.2501609E-004  0.2087192E+03  0.7546771E-02  0.1168127E+00
          2   -1    0    0  502    0 -0.00000000000E+00  0.00000000000E+00  0.15568870675E+04  0.15568870675E+04  0.00000000000E+00 0. -1.
         21   -1    0    0  501  502  0.00000000000E+00 -0.00000000000E+00 -0.10650131493E+03  0.10650131493E+03  0.00000000000E+00 0. -1.
         23    2    1    2    0    0 -0.20477260788E+02 -0.62684222926E+02  0.29851261880E+03  0.31975345450E+03  0.93722238919E+02 0.  0.
         24    2    1    2    0    0 -0.53827894860E+02  0.18977269607E+03  0.34395832165E+02  0.21650216922E+03  0.82334668084E+02 0.  0.
        -13    1    4    4    0    0 -0.34863672814E+02  0.16803253483E+02 -0.19106709810E+01  0.38748879639E+02  0.00000000000E+00 0.  1.
         14    1    4    4    0    0 -0.18964222046E+02  0.17296944259E+03  0.36306503146E+02  0.17775328958E+03  0.00000000000E+00 0. -1.
        -13    1    3    3    0    0 -0.57455780526E+02 -0.38759387581E+02  0.20474400520E+03  0.21615634274E+03  0.00000000000E+00 0. -1.
         13    1    3    3    0    0  0.36978519738E+02 -0.23924835345E+02  0.93768613603E+02  0.10359711176E+03  0.00000000000E+00 0.  1.
          1    1    1    2  501    0  0.74305155648E+02 -0.12708847315E+03  0.11174773016E+04  0.11271327587E+04  0.00000000000E+00 0. -1.
<scales pt_clust_5="13000.00000" pt_clust_6="13000.00000" pt_clust_7="13000.00000" pt_clust_8="13000.00000" pt_clust_9="191.79353"></scales>
<clustering>
<clus scale="   82.335">  5  6 -1 -1</clus>
<clus scale="   93.722">  7  8 -1 -1</clus>
<clus scale="  114.597">  1  7  2 -1</clus>
<clus scale="  191.794">  2  9  1 -1</clus>
<clus scale="  191.794">  2  5  1 -1</clus>
</clustering>
</event>
<event>
 9    2  0.1592151E-004  0.9631367E+02  0.7546771E-02  0.1294524E+00
         21   -1    0    0  501  502  0.00000000000E+00  0.00000000000E+00  0.45629816634E+03  0.45629816634E+03  0.00000000000E+00 0. -1.
          4   -1    0    0  502    0 -0.00000000000E+00 -0.00000000000E+00 -0.30091829494E+02  0.30091829494E+02  0.00000000000E+00 0. -1.
         24    2    1    2    0    0 -0.37230550369E+02 -0.16313756845E+02  0.10900914549E+03  0.14148747215E+03  0.80519925679E+02 0.  0.
         23    2    1    2    0    0  0.15838437820E+02 -0.12890276413E+02  0.18087061822E+03  0.20385135361E+03  0.91783323610E+02 0.  0.
        -13    1    3    3    0    0  0.20354759894E+00 -0.41081010514E+02  0.73707119776E+02  0.84382642541E+02  0.00000000000E+00 0.  1.
         14    1    3    3    0    0 -0.37434097968E+02  0.24767253670E+02  0.35302025714E+02  0.57104829608E+02  0.00000000000E+00 0. -1.
        -13    1    4    4    0    0 -0.79604058257E+01 -0.43478450499E+02  0.14295759305E+03  0.14963494621E+03  0.00000000000E+00 0. -1.
         13    1    4    4    0    0  0.23798843646E+02  0.30588174086E+02  0.37913025179E+02  0.54216407397E+02  0.00000000000E+00 0.  1.
          3    1    1    2  501    0  0.21392112549E+02  0.29204033257E+02  0.13632657313E+03  0.14105117007E+03  0.00000000000E+00 0. -1.
<scales pt_clust_5="13000.00000" pt_clust_6="13000.00000" pt_clust_7="13000.00000" pt_clust_8="13000.00000" pt_clust_9="36.20080"></scales>
<clustering>
<clus scale="   36.201">  1  9  2 -1</clus>
<clus scale="   80.520">  5  6 -1 -1</clus>
<clus scale="   85.648">  2  5  1 -1</clus>
<clus scale="   91.783">  7  8 -1 -1</clus>
<clus scale="   36.201">  1  5  2 -1</clus>
</clustering>
</event>
<event>
 9    2  0.1592151E-004  0.2028333E+03  0.7546771E-02  0.1149173E+00
         -3   -1    0    0    0  501 -0.00000000000E+00  0.00000000000E+00  0.48956080442E+03  0.48956080442E+03  0.00000000000E+00 0.  1.
         21   -1    0    0  501  502  0.00000000000E+00 -0.00000000000E+00 -0.31699421515E+03  0.31699421515E+03  0.00000000000E+00 0. -1.
         24    2    1    2    0    0 -0.72931453267E+02  0.16086790909E+03  0.29429084663E+02  0.19654201101E+03  0.81025983591E+02 0.  0.
         23    2    1    2    0    0  0.17571718546E+03  0.58103119375E+02 -0.13272762147E+03  0.24311413170E+03  0.85060906327E+02 0.  0.
        -11    1    3    3    0    0 -0.63613377161E+02  0.52672272868E+02  0.30214987430E+02  0.87943024443E+02  0.00000000000E+00 0.  1.
         12    1    3    3    0    0 -0.93180761066E+01  0.10819563623E+03 -0.78590276696E+00  0.10859898657E+03  0.00000000000E+00 0. -1.
        -11    1    4    4    0    0  0.37881452710E+02  0.35102313855E+02 -0.18856025795E+01  0.51679129196E+02  0.00000000000E+00 0. -1.
         11    1    4    4    0    0  0.13783573275E+03  0.23000805520E+02 -0.13084201889E+03  0.19143500251E+03  0.00000000000E+00 0.  1.
         -4    1    1    2    0  502 -0.10278573220E+03 -0.21897102847E+03  0.27586512608E+03  0.36689887686E+03  0.00000000000E+00 0.  1.
<scales pt_clust_5="13000.00000" pt_clust_6="13000.00000" pt_clust_7="13000.00000" pt_clust_8="13000.00000" pt_clust_9="184.13586"></scales>
<clustering>
<clus scale="   81.026">  5  6 -1 -1</clus>
<clus scale="   85.061">  7  8 -1 -1</clus>
<clus scale="  194.326">  1  5  2 -1</clus>
<clus scale="  184.136">  2  9  1 -1</clus>
<clus scale="  184.136">  2  5  1 -1</clus>
</clustering>
</event>
<event>
 9    2  0.1592151E-004  0.1219720E+03  0.7546771E-02  0.1241131E+00
          2   -1    0    0  502    0 -0.00000000000E+00  0.00000000000E+00  0.77375808461E+03  0.77375808461E+03  0.00000000000E+00 0. -1.
         21   -1    0    0  501  502  0.00000000000E+00 -0.00000000000E+00 -0.58997851871E+02  0.58997851871E+02  0.00000000000E+00 0. -1.
         24    2    1    2    0    0  0.59806554873E+02 -0.84398008598E+02  0.36562791253E+03  0.38847812694E+03  0.80818542613E+02 0.  0.
         23    2    1    2    0    0  0.40711591402E+02  0.88452828379E+02  0.31071493868E+03  0.33659199572E+03  0.85258793927E+02 0.  0.
        -11    1    3    3    0    0  0.36698084902E+02 -0.47189476340E+01  0.19818725422E+03  0.20161152159E+03  0.00000000000E+00 0.  1.
         12    1    3    3    0    0  0.23108469970E+02 -0.79679060964E+02  0.16744065830E+03  0.18686660534E+03  0.00000000000E+00 0. -1.
        -13    1    4    4    0    0  0.30067625930E+02  0.19311661469E+02  0.28134922887E+02  0.45481603793E+02  0.00000000000E+00 0.  1.
         13    1    4    4    0    0  0.10643965472E+02  0.69141166910E+02  0.28258001580E+03  0.29111039193E+03  0.00000000000E+00 0. -1.
          1    1    1    2  501    0 -0.10051814627E+03 -0.40548197812E+01  0.38417381527E+02  0.10768581382E+03  0.00000000000E+00 0. -1.
<scales pt_clust_5="13000.00000" pt_clust_6="13000.00000" pt_clust_7="13000.00000" pt_clust_8="13000.00000" pt_clust_9="100.59990"></scales>
<clustering>
<clus scale="   80.819">  5  6 -1 -1</clus>
<clus scale="   85.259">  7  8 -1 -1</clus>
<clus scale="  100.600">  2  9  1 -1</clus>
<clus scale="  118.911">  1  5  2 -1</clus>
<clus scale="  100.600">  2  5  1 -1</clus>
</clustering>
</event>
<event>
 9    2  0.1592151E-004  0.9552775E+02  0.7546771E-02  0.1300188E+00
          2   -1    0    0  502    0 -0.00000000000E+00  0.00000000000E+00  0.58027111042E+03  0.58027111042E+03  0.00000000000E+00 0. -1.
         21   -1    0    0  501  502  0.00000000000E+00 -0.00000000000E+00 -0.33284612193E+02  0.33284612193E+02  0.00000000000E+00 0.  1.
         24    2    1    2    0    0 -0.27489197510E+02 -0.78604694418E+00  0.38229022493E+03  0.39004108907E+03  0.72318470943E+02 0.  0.
         23    2    1    2    0    0  0.51382676519E+02  0.34685787911E+02  0.12567926139E+03  0.16657239970E+03  0.90043346605E+02 0.  0.
        -13    1    3    3    0    0 -0.10522949319E+01  0.28879593018E+02  0.78261248596E+02  0.83426382213E+02  0.00000000000E+00 0.  1.
         14    1    3    3    0    0 -0.26436902578E+02 -0.29665639962E+02  0.30402897633E+03  0.30661470686E+03  0.00000000000E+00 0. -1.
        -13    1    4    4    0    0  0.53655901159E+02  0.58560662023E+02  0.11627293745E+03  0.14081087617E+03  0.00000000000E+00 0.  1.
         13    1    4    4    0    0 -0.22732246401E+01 -0.23874874111E+02  0.94063239383E+01  0.25761523521E+02  0.00000000000E+00 0. -1.
          1    1    1    2  501    0 -0.23893479010E+02 -0.33899740967E+02  0.39017011907E+02  0.56942233843E+02  0.00000000000E+00 0. -1.
<scales pt_clust_5="13000.00000" pt_clust_6="13000.00000" pt_clust_7="13000.00000" pt_clust_8="13000.00000" pt_clust_9="41.47398"></scales>
<clustering>
<clus scale="   41.474">  2  9  1 -1</clus>
<clus scale="   72.318">  5  6 -1 -1</clus>
<clus scale="   79.042">  1  5  2 -1</clus>
<clus scale="   90.043">  7  8 -1 -1</clus>
<clus scale="   41.474">  2  5  1 -1</clus>
</clustering>
</event>
<event>
 9    2  0.1592151E-004  0.1148320E+03  0.7546771E-02  0.1268274E+00
          2   -1    0    0  502    0 -0.00000000000E+00  0.00000000000E+00  0.20578098440E+03  0.20578098440E+03  0.00000000000E+00 0. -1.
         21   -1    0    0  501  502  0.00000000000E+00 -0.00000000000E+00 -0.15184186209E+03  0.15184186209E+03  0.00000000000E+00 0. -1.
         24    2    1    2    0    0  0.20010347459E+02 -0.81400894180E+01  0.10216492896E+03  0.13189085044E+03  0.80565803296E+02 0.  0.
         23    2    1    2    0    0  0.23447923636E+02  0.61781020109E+02 -0.75994144083E+02  0.15132063041E+03  0.11294301079E+03 0.  0.
        -11    1    3    3    0    0 -0.62723218427E+01 -0.39995207426E+02  0.37622343897E+02  0.55266621017E+02  0.00000000000E+00 0.  1.
         12    1    3    3    0    0  0.26282669302E+02  0.31855118008E+02  0.64542585062E+02  0.76624229428E+02  0.00000000000E+00 0. -1.
        -13    1    4    4    0    0  0.32460065083E+02  0.92852799077E+02 -0.54136949947E+02  0.11227692315E+03  0.00000000000E+00 0. -1.
         13    1    4    4    0    0 -0.90121414472E+01 -0.31071778968E+02 -0.21857194136E+02  0.39043707267E+02  0.00000000000E+00 0.  1.
          1    1    1    2  501    0 -0.43458271095E+02 -0.53640930691E+02  0.27768337426E+02  0.74411365633E+02  0.00000000000E+00 0. -1.
<scales pt_clust_5="13000.00000" pt_clust_6="13000.00000" pt_clust_7="13000.00000" pt_clust_8="13000.00000" pt_clust_9="69.03605"></scales>
<clustering>
<clus scale="   69.036">  2  9  1 -1</clus>
<clus scale="   80.566">  5  6 -1 -1</clus>
<clus scale="   83.193">  1  5  2 -1</clus>
<clus scale="  112.943">  7  8 -1 -1</clus>
<clus scale="   69.036">  2  5  1 -1</clus>
</clustering>
</event>
<event>
 9    2  0.1592151E-004  0.9811839E+02  0.7546771E-02  0.1289846E+00
         -1   -1    0    0    0  501 -0.00000000000E+00  0.00000000000E+00  0.20445952199E+02  0.20445952199E+02  0.00000000000E+00 0.  1.
         21   -1    0    0  501  502  0.00000000000E+00 -0.00000000000E+00 -0.77568147335E+03  0.77568147335E+03  0.00000000000E+00 0. -1.
         23    2    1    2    0    0 -0.13182416391E+02  0.38024774738E+02 -0.14131002235E+03  0.17301184567E+03  0.91350515749E+02 0.  0.
         24    2    1    2    0    0 -0.41147519569E+01 -0.24489949708E+02 -0.47558657852E+03  0.48304402536E+03  0.80822323352E+02 0.  0.
        -11    1    4    4    0    0  0.34522763920E+02 -0.27413262958E+02 -0.20411426064E+03  0.20882035248E+03  0.00000000000E+00 0.  1.
         12    1    4    4    0    0 -0.38637515877E+02  0.29233132501E+01 -0.27147231788E+03  0.27422367288E+03  0.00000000000E+00 0. -1.
        -11    1    3    3    0    0  0.29042244501E+02  0.41782454300E+02 -0.10697231525E+03  0.11845801654E+03  0.00000000000E+00 0.  1.
         11    1    3    3    0    0 -0.42224660893E+02 -0.37576795621E+01 -0.34337707108E+02  0.54553829129E+02  0.00000000000E+00 0. -1.
         -2    1    1    2    0  502  0.17297168348E+02 -0.13534825030E+02 -0.13833892028E+03  0.14007155453E+03  0.00000000000E+00 0.  1.
<scales pt_clust_5="13000.00000" pt_clust_6="13000.00000" pt_clust_7="13000.00000" pt_clust_8="13000.00000" pt_clust_9="21.96323"></scales>
<clustering>
<clus scale="   21.963">  2  9  1 -1</clus>
<clus scale="   80.822">  5  6 -1 -1</clus>
<clus scale="   88.400">  2  5  1 -1</clus>
<clus scale="   91.351">  7  8 -1 -1</clus>
<clus scale="   21.963">  2  5  1 -1</clus>
</clustering>
</event>
<event>
 9    2  0.1592151E-004  0.1354006E+03  0.7546771E-02  0.1222178E+00
         21   -1    0    0  501  502  0.00000000000E+00  0.00000000000E+00  0.50272980943E+03  0.50272980943E+03  0.00000000000E+00 0. -1.
          4   -1    0    0  502    0 -0.00000000000E+00 -0.00000000000E+00 -0.67296267721E+02  0.67296267721E+02  0.00000000000E+00 0. -1.
         23    2    1    2    0    0 -0.76431244588E+02 -0.49527503183E+02  0.10146090901E+03  0.16389164948E+03  0.90947501284E+02 0.  0.
         24    2    1    2    0    0  0.89037736766E+02  0.89734801124E+02  0.33172071875E+03  0.36393701580E+03  0.80196403410E+02 0.  0.
        -11    1    4    4    0    0  0.71537968348E+02  0.34287839807E+02  0.11610206898E+03  0.14061659680E+03  0.00000000000E+00 0.  1.
         12    1    4    4    0    0  0.17499768418E+02  0.55446961317E+02  0.21561864976E+03  0.22332041900E+03  0.00000000000E+00 0. -1.
        -13    1    3    3    0    0  0.38182031378E+01 -0.19711564563E+02  0.69775479959E+02  0.72606763158E+02  0.00000000000E+00 0.  1.
         13    1    3    3    0    0 -0.80249447726E+02 -0.29815938619E+02  0.31685429055E+02  0.91284886320E+02  0.00000000000E+00 0. -1.
          3    1    1    2  501    0 -0.12606492177E+02 -0.40207297941E+02  0.22519139492E+01  0.42197411878E+02  0.00000000000E+00 0. -1.
<scales pt_clust_5="13000.00000" pt_clust_6="13000.00000" pt_clust_7="13000.00000" pt_clust_8="13000.00000" pt_clust_9="42.13730"></scales>
<clustering>
<clus scale="   42.137">  1  9  2 -1</clus>
<clus scale="   80.196">  5  6 -1 -1</clus>
<clus scale="   90.948">  7  8 -1 -1</clus>
<clus scale="  128.426">  1  5  2 -1</clus>
<clus scale="   42.137">  1  5  2 -1</clus>
</clustering>
</event>
<event>
 9    2  0.1592151E-004  0.1501227E+03  0.7546771E-02  0.1202021E+00
         21   -1    0    0  501  502  0.00000000000E+00  0.00000000000E+00  0.18991319768E+03  0.18991319768E+03  0.00000000000E+00 0.  1.
         -3   -1    0    0    0  501 -0.00000000000E+00 -0.00000000000E+00 -0.16960403282E+03  0.16960403282E+03  0.00000000000E+00 0.  1.
         23    2    1    2    0    0 -0.98651401358E+02  0.59839201649E+02  0.89788829961E+01  0.14593210781E+03  0.88897304274E+02 0.  0.
         24    2    1    2    0    0  0.12030487011E+03 -0.48720187801E+02  0.56476845333E+02  0.16229460338E+03  0.79391345597E+02 0.  0.
        -11    1    4    4    0    0  0.11408634305E+03 -0.23940780466E+02  0.67238286047E+02  0.13457281208E+03  0.00000000000E+00 0.  1.
         12    1    4    4    0    0  0.62185270565E+01 -0.24779407335E+02 -0.10761440714E+02  0.27721791299E+02  0.00000000000E+00 0. -1.
        -11    1    3    3    0    0 -0.48116316550E+02  0.77805895615E+02  0.11712191711E+02  0.92228589632E+02  0.00000000000E+00 0.  1.
         11    1    3    3    0    0 -0.50535084807E+02 -0.17966693966E+02 -0.27333087149E+01  0.53703518182E+02  0.00000000000E+00 0. -1.
         -4    1    1    2    0  502 -0.21653468748E+02 -0.11119013848E+02 -0.45146563470E+02  0.51290519308E+02  0.00000000000E+00 0.  1.
<scales pt_clust_5="13000.00000" pt_clust_6="13000.00000" pt_clust_7="13000.00000" pt_clust_8="13000.00000" pt_clust_9="24.34144"></scales>
<clustering>
<clus scale="   24.341">  1  9  2 -1</clus>
<clus scale="   79.391">  5  6 -1 -1</clus>
<clus scale="   88.897">  7  8 -1 -1</clus>
<clus scale="  144.697">  1  5  2 -1</clus>
<clus scale="   24.341">  1  5  2 -1</clus>
</clustering>
</event>
<event>
 9    2  0.1592151E-004  0.1385288E+03  0.7546771E-02  0.1228448E+00
         21   -1    0    0  501  502  0.00000000000E+00  0.00000000000E+00  0.11177585560E+03  0.11177585560E+03  0.00000000000E+00 0.  1.
         -3   -1    0    0    0  501 -0.00000000000E+00 -0.00000000000E+00 -0.36806082751E+03  0.36806082751E+03  0.00000000000E+00 0.  1.
         23    2    1    2    0    0  0.23519949409E+02  0.46431943640E+02  0.35751727303E+01  0.10531027976E+03  0.91478739344E+02 0.  0.
         24    2    1    2    0    0 -0.60887136858E+02  0.75681400269E+02 -0.79892067986E+02  0.15385360468E+03  0.88618685186E+02 0.  0.
        -11    1    4    4    0    0 -0.15429686083E+02  0.76854977475E+02 -0.74357623107E+02  0.10804544826E+03  0.00000000000E+00 0.  1.
         12    1    4    4    0    0 -0.45457450775E+02 -0.11735772065E+01 -0.55344448790E+01  0.45808156419E+02  0.00000000000E+00 0. -1.
        -11    1    3    3    0    0 -0.22851599815E+02 -0.15280445606E+02  0.57589267662E+01  0.28086524696E+02  0.00000000000E+00 0. -1.
         11    1    3    3    0    0  0.46371549224E+02  0.61712389246E+02 -0.21837540360E+01  0.77223755060E+02  0.00000000000E+00 0.  1.
         -4    1    1    2    0  502  0.37367187449E+02 -0.12211334391E+03 -0.17996807665E+03  0.22067279867E+03  0.00000000000E+00 0.  1.
<scales pt_clust_5="13000.00000" pt_clust_6="13000.00000" pt_clust_7="13000.00000" pt_clust_8="13000.00000" pt_clust_9="106.47520"></scales>
<clustering>
<clus scale="   88.619">  5  6 -1 -1</clus>
<clus scale="   91.479">  7  8 -1 -1</clus>
<clus scale="  105.250">  2  7  1 -1</clus>
<clus scale="  106.475">  1  9  2 -1</clus>
<clus scale="  106.475">  1  5  2 -1</clus>
</clustering>
</event>
<event>
 9    2  0.1592151E-004  0.1867856E+03  0.7546771E-02  0.1163336E+00
          2   -1    0    0  502    0 -0.00000000000E+00  0.00000000000E+00  0.75030257218E+03  0.75030257218E+03  0.00000000000E+00 0. -1.
         21   -1    0    0  501  502  0.00000000000E+00 -0.00000000000E+00 -0.71723703313E+02  0.71723703313E+02  0.00000000000E+00 0.  1.
         24    2    1    2    0    0 -0.12733059005E+03 -0.81814688809E+02  0.18966478311E+03  0.25472591678E+03  0.77497356472E+02 0.  0.
         23    2    1    2    0    0  0.15861446177E+03  0.69387589352E+02  0.21728729134E+03  0.29359572069E+03  0.94928895440E+02 0.  0.
        -13    1    3    3    0    0 -0.62678587365E+02 -0.84641764505E+02  0.11714125136E+03  0.15752747819E+03  0.00000000000E+00 0.  1.
         14    1    3    3    0    0 -0.64652002687E+02  0.28270756965E+01  0.72523531744E+02  0.97198438593E+02  0.00000000000E+00 0. -1.
        -13    1    4    4    0    0  0.76734993300E+02  0.62449636776E+01  0.15451925087E+03  0.17263677956E+03  0.00000000000E+00 0.  1.
         13    1    4    4    0    0  0.81879468470E+02  0.63142625674E+02  0.62768040473E+02  0.12095894113E+03  0.00000000000E+00 0. -1.
          1    1    1    2  501    0 -0.31283871719E+02  0.12427099457E+02  0.27162679441E+03  0.27370463802E+03  0.00000000000E+00 0. -1.
<scales pt_clust_5="13000.00000" pt_clust_6="13000.00000" pt_clust_7="13000.00000" pt_clust_8="13000.00000" pt_clust_9="33.66177"></scales>
<clustering>
<clus scale="   33.662">  2  9  1 -1</clus>
<clus scale="   77.497">  5  6 -1 -1</clus>
<clus scale="   94.929">  7  8 -1 -1</clus>
<clus scale="  178.559">  1  5  2 -1</clus>
<clus scale="   33.662">  2  5  1 -1</clus>
</clustering>
</event>
<event>
 9    2  0.1592151E-004  0.8937995E+02  0.7546771E-02  0.1325862E+00
          4   -1    0    0  502    0 -0.00000000000E+00  0.00000000000E+00  0.61835581973E+02  0.61835581973E+02  0.00000000000E+00 0. -1.
         21   -1    0    0  501  502  0.00000000000E+00 -0.00000000000E+00 -0.47084826467E+03  0.47084826467E+03  0.00000000000E+00 0.  1.
         24    2    1    2    0    0 -0.90218558905E+01  0.15128704742E+02  0.26487395274E+02  0.67326409565E+02  0.59337945074E+02 0.  0.
         23    2    1    2    0    0 -0.66405890942E+01  0.41889254265E+02 -0.20313018666E+03  0.22558227944E+03  0.88468553842E+02 0.  0.
        -13    1    3    3    0    0 -0.32829826185E+02 -0.14382395206E+01  0.15131693664E+02  0.36177813275E+02  0.00000000000E+00 0.  1.
         14    1    3    3    0    0  0.23807970294E+02  0.16566944263E+02  0.11355701610E+02  0.31148596289E+02  0.00000000000E+00 0. -1.
        -11    1    4    4    0    0 -0.22118107137E+02  0.59958916316E+02 -0.18482801826E+03  0.19556502408E+03  0.00000000000E+00 0.  1.
         11    1    4    4    0    0  0.15477518042E+02 -0.18069662050E+02 -0.18302168401E+02  0.30017255363E+02  0.00000000000E+00 0. -1.
          3    1    1    2  501    0  0.15662444985E+02 -0.57017959007E+02 -0.23236989131E+03  0.23977515764E+03  0.00000000000E+00 0. -1.
<scales pt_clust_5="13000.00000" pt_clust_6="13000.00000" pt_clust_7="13000.00000" pt_clust_8="13000.00000" pt_clust_9="59.13002"></scales>
<clustering>
<clus scale="   59.130">  2  9  1 -1</clus>
<clus scale="   59.338">  5  6 -1 -1</clus>
<clus scale="   60.688">  1  5  2 -1</clus>
<clus scale="   88.469">  7  8 -1 -1</clus>
<clus scale="   59.130">  2  5  1 -1</clus>
</clustering>
</event>
<event>
 9    2  0.1592151E-004  0.1109382E+03  0.7546771E-02  0.1264006E+00
         21   -1    0    0  501  502  0.00000000000E+00  0.00000000000E+00  0.40634454057E+03  0.40634454057E+03  0.00000000000E+00 0. -1.
          2   -1    0    0  502    0 -0.00000000000E+00 -0.00000000000E+00 -0.25938041269E+03  0.25938041269E+03  0.00000000000E+00 0. -1.
         24    2    1    2    0    0 -0.30379920408E+02  0.59250861291E+02 -0.19955396484E+03  0.22518461155E+03  0.80328825884E+02 0.  0.
         23    2    1    2    0    0  0.50072094705E+02 -0.20294042330E+01  0.19171581021E+02  0.10764724235E+03  0.93322270213E+02 0.  0.
        -13    1    3    3    0    0 -0.44639611935E+02  0.35797418468E+01 -0.65651717588E+02  0.79471111278E+02  0.00000000000E+00 0.  1.
         14    1    3    3    0    0  0.14259691527E+02  0.55671119444E+02 -0.13390224725E+03  0.14571350027E+03  0.00000000000E+00 0. -1.
        -13    1    4    4    0    0  0.61470871578E+02  0.30316334552E+02  0.38048187785E+00  0.68541177111E+02  0.00000000000E+00 0. -1.
         13    1    4    4    0    0 -0.11398776872E+02 -0.32345738785E+02  0.18791099143E+02  0.39106065243E+02  0.00000000000E+00 0.  1.
          1    1    1    2  501    0 -0.19692174297E+02 -0.57221457058E+02  0.32734651170E+03  0.33289309935E+03  0.00000000000E+00 0. -1.
<scales pt_clust_5="13000.00000" pt_clust_6="13000.00000" pt_clust_7="13000.00000" pt_clust_8="13000.00000" pt_clust_9="60.51510"></scales>
<clustering>
<clus scale="   60.515">  1  9  2 -1</clus>
<clus scale="   80.329">  5  6 -1 -1</clus>
<clus scale="   93.322">  7  8 -1 -1</clus>
<clus scale="  100.255">  2  5  1 -1</clus>
<clus scale="   60.515">  1  5  2 -1</clus>
</clustering>
</event>
<event>
 9    2  0.1592151E-004  0.1035202E+03  0.7546771E-02  0.1280844E+00
         21   -1    0    0  501  502  0.00000000000E+00  0.00000000000E+00  0.61966850332E+02  0.61966850332E+02  0.00000000000E+00 0.  1.
          2   -1    0    0  502    0 -0.00000000000E+00 -0.00000000000E+00 -0.48393124225E+03  0.48393124225E+03  0.00000000000E+00 0. -1.
         23    2    1    2    0    0  0.46217754725E+01 -0.28340427277E+02 -0.16873817242E+03  0.19505754004E+03  0.93543211769E+02 0.  0.
         24    2    1    2    0    0  0.58801617988E+02  0.86325980978E+02 -0.68147816978E+02  0.14678451525E+03  0.77406483504E+02 0.  0.
        -13    1    4    4    0    0  0.47843798858E+02  0.76430560805E+02 -0.14731975313E+02  0.91365698217E+02  0.00000000000E+00 0.  1.
         14    1    4    4    0    0  0.10957819129E+02  0.98954201735E+01 -0.53415841666E+02  0.55418817033E+02  0.00000000000E+00 0. -1.
        -13    1    3    3    0    0  0.16144822158E+02  0.30151091169E+02 -0.36596232726E+02  0.50090196955E+02  0.00000000000E+00 0. -1.
         13    1    3    3    0    0 -0.11523046686E+02 -0.58491518447E+02 -0.13214193970E+03  0.14496734309E+03  0.00000000000E+00 0.  1.
          1    1    1    2  501    0 -0.63423393460E+02 -0.57985553701E+02 -0.18507840252E+03  0.20405603729E+03  0.00000000000E+00 0. -1.
<scales pt_clust_5="13000.00000" pt_clust_6="13000.00000" pt_clust_7="13000.00000" pt_clust_8="13000.00000" pt_clust_9="85.93520"></scales>
<clustering>
<clus scale="   77.406">  5  6 -1 -1</clus>
<clus scale="   85.935">  1  9  2 -1</clus>
<clus scale="   89.207">  1  5  2 -1</clus>
<clus scale="   93.543">  7  8 -1 -1</clus>
<clus scale="   85.935">  1  5  2 -1</clus>
</clustering>
</event>
<event>
 9    2  0.1592151E-004  0.9954827E+02  0.7546771E-02  0.1283450E+00
         21   -1    0    0  501  502  0.00000000000E+00  0.00000000000E+00  0.57991210791E+02  0.57991210791E+02  0.00000000000E+00 0.  1.
          2   -1    0    0  502    0 -0.00000000000E+00 -0.00000000000E+00 -0.30071846744E+03  0.30071846744E+03  0.00000000000E+00 0. -1.
         23    2    1    2    0    0  0.26747416890E+02 -0.24142565784E+02 -0.19998871175E+03  0.22279983876E+03  0.91356420318E+02 0.  0.
         24    2    1    2    0    0 -0.58484474098E+01  0.12417240264E+01 -0.42780038450E+02  0.10490633644E+03  0.95600530961E+02 0.  0.
        -11    1    4    4    0    0 -0.20252934537E+02  0.19944930679E+02  0.22009491640E+02  0.35949956042E+02  0.00000000000E+00 0.  1.
         12    1    4    4    0    0  0.14404487127E+02 -0.18703206653E+02 -0.64789530090E+02  0.68956380399E+02  0.00000000000E+00 0. -1.
        -13    1    3    3    0    0  0.53493079395E+02  0.36675150253E+01 -0.15226470947E+03  0.16142955726E+03  0.00000000000E+00 0. -1.
         13    1    3    3    0    0 -0.26745662506E+02 -0.27810080809E+02 -0.47724002282E+02  0.61370281499E+02  0.00000000000E+00 0.  1.
          1    1    1    2  501    0 -0.20898969480E+02  0.22900841757E+02  0.41493544408E-01  0.31003503032E+02  0.00000000000E+00 0. -1.
<scales pt_clust_5="13000.00000" pt_clust_6="13000.00000" pt_clust_7="13000.00000" pt_clust_8="13000.00000" pt_clust_9="31.00348"></scales>
<clustering>
<clus scale="   31.003">  1  9  2 -1</clus>
<clus scale="   91.356">  7  8 -1 -1</clus>
<clus scale="   95.480">  2  7  1 -1</clus>
<clus scale="   95.601">  5  6 -1 -1</clus>
<clus scale="   31.003">  1  5  2 -1</clus>
</clustering>
</event>
<event>
 9    2  0.1592151E-004  0.1288438E+03  0.7546771E-02  0.1250061E+00
          2   -1    0    0  502    0 -0.00000000000E+00  0.00000000000E+00  0.18983379579E+03  0.18983379579E+03  0.00000000000E+00 0. -1.
         21   -1    0    0  501  502  0.00000000000E+00 -0.00000000000E+00 -0.16313191585E+03  0.16313191585E+03  0.00000000000E+00 0.  1.
         24    2    1    2    0    0  0.24046455558E+02 -0.71979365411E+01  0.46732229052E+02  0.96377690414E+02  0.80465617887E+02 0.  0.
         23    2    1    2    0    0  0.45764937316E+02 -0.52080424859E+02 -0.78621503968E+02  0.14786599893E+03  0.10428908194E+03 0.  0.
        -13    1    3    3    0    0  0.36004670119E+02 -0.37334427000E+02  0.28629665067E+02  0.59244015999E+02  0.00000000000E+00 0.  1.
         14    1    3    3    0    0 -0.11958214562E+02  0.30136490459E+02  0.18102563985E+02  0.37133674415E+02  0.00000000000E+00 0. -1.
        -11    1    4    4    0    0  0.56446156267E+02 -0.30662672414E+02 -0.97927842759E+02  0.11711631152E+03  0.00000000000E+00 0.  1.
         11    1    4    4    0    0 -0.10681218951E+02 -0.21417752445E+02  0.19306338790E+02  0.30749687406E+02  0.00000000000E+00 0. -1.
          1    1    1    2  501    0 -0.69811392874E+02  0.59278361400E+02  0.58591154855E+02  0.10872202230E+03  0.00000000000E+00 0. -1.
<scales pt_clust_5="13000.00000" pt_clust_6="13000.00000" pt_clust_7="13000.00000" pt_clust_8="13000.00000" pt_clust_9="75.66052"></scales>
<clustering>
<clus scale="   80.466">  5  6 -1 -1</clus>
<clus scale="   84.290">  1  5  2 -1</clus>
<clus scale="   75.661">  2  9  1 -1</clus>
<clus scale="  104.289">  7  8 -1 -1</clus>
<clus scale="   75.661">  2  5  1 -1</clus>
</clustering>
</event>
<event>
 9    2  0.1592151E-004  0.1466100E+03  0.7546771E-02  0.1206676E+00
          2   -1    0    0  502    0 -0.00000000000E+00  0.00000000000E+00  0.37497481038E+03  0.37497481038E+03  0.00000000000E+00 0. -1.
         21   -1    0    0  501  502  0.00000000000E+00 -0.00000000000E+00 -0.14364615812E+03  0.14364615812E+03  0.00000000000E+00 0.  1.
         23    2    1    2    0    0  0.34568407422E+02  0.11271812946E+03  0.17005448353E+03  0.22614430535E+03  0.91227013403E+02 0.  0.
         24    2    1    2    0    0 -0.75800324429E+01 -0.10391140971E+03 -0.75980679155E+02  0.15231666898E+03  0.81069513903E+02 0.  0.
        -13    1    4    4    0    0 -0.25259673560E+01 -0.11468376863E+03 -0.79892481879E+02  0.13979111545E+03  0.00000000000E+00 0.  1.
         14    1    4    4    0    0 -0.50540650869E+01  0.10772358920E+02  0.39118027246E+01  0.12525553528E+02  0.00000000000E+00 0. -1.
        -13    1    3    3    0    0  0.46859894464E+02  0.92259029891E+02  0.17351497799E+03  0.20202728997E+03  0.00000000000E+00 0. -1.
         13    1    3    3    0    0 -0.12291487043E+02  0.20459099568E+02 -0.34604944649E+01  0.24117015379E+02  0.00000000000E+00 0.  1.
          1    1    1    2  501    0 -0.26988374979E+02 -0.88067197479E+01  0.13725484789E+03  0.14015999417E+03  0.00000000000E+00 0. -1.
<scales pt_clust_5="13000.00000" pt_clust_6="13000.00000" pt_clust_7="13000.00000" pt_clust_8="13000.00000" pt_clust_9="28.38893"></scales>
<clustering>
<clus scale="   28.389">  2  9  1 -1</clus>
<clus scale="   81.070">  5  6 -1 -1</clus>
<clus scale="   91.227">  7  8 -1 -1</clus>
<clus scale="  140.515">  2  5  1 -1</clus>
<clus scale="   28.389">  2  5  1 -1</clus>
</clustering>
</event>
<event>
 9    2  0.1592151E-004  0.1197167E+03  0.7546771E-02  0.1249297E+00
          2   -1    0    0  502    0 -0.00000000000E+00  0.00000000000E+00  0.16799176663E+03  0.16799176663E+03  0.00000000000E+00 0. -1.
         21   -1    0    0  501  502  0.00000000000E+00 -0.00000000000E+00 -0.22220136517E+03  0.22220136517E+03  0.00000000000E+00 0.  1.
         23    2    1    2    0    0  0.63490362235E+02  0.48466601823E+02  0.77994624883E+02  0.14729274809E+03  0.96083060629E+02 0.  0.
         24    2    1    2    0    0 -0.52261058132E+02  0.19153778562E+02 -0.14380281636E+03  0.17337959205E+03  0.79266307584E+02 0.  0.
        -11    1    4    4    0    0 -0.49297627068E+02  0.44905068946E+02 -0.12387676725E+03  0.14068466411E+03  0.00000000000E+00 0.  1.
         12    1    4    4    0    0 -0.29634310643E+01 -0.25751290384E+02 -0.19926049106E+02  0.32694927942E+02  0.00000000000E+00 0. -1.
        -11    1    3    3    0    0  0.61682501792E+02  0.70791489770E+02  0.37677715406E+02  0.10117201337E+03  0.00000000000E+00 0. -1.
         11    1    3    3    0    0  0.18078604430E+01 -0.22324887947E+02  0.40316909477E+02  0.46120734718E+02  0.00000000000E+00 0.  1.
          1    1    1    2  501    0 -0.11229304102E+02 -0.67620380385E+02  0.11598592934E+02  0.69520791653E+02  0.00000000000E+00 0. -1.
<scales pt_clust_5="13000.00000" pt_clust_6="13000.00000" pt_clust_7="13000.00000" pt_clust_8="13000.00000" pt_clust_9="68.54646"></scales>
<clustering>
<clus scale="   68.546">  2  9  1 -1</clus>
<clus scale="   79.266">  5  6 -1 -1</clus>
<clus scale="   96.083">  7  8 -1 -1</clus>
<clus scale="  106.692">  2  5  1 -1</clus>
<clus scale="   68.546">  2  5  1 -1</clus>
</clustering>
</event>
<event>
 9    2  0.1592151E-004  0.1368460E+03  0.7546771E-02  0.1221529E+00
         21   -1    0    0  501  502  0.00000000000E+00  0.00000000000E+00  0.76158760464E+03  0.76158760464E+03  0.00000000000E+00 0.  1.
         -3   -1    0    0    0  501 -0.00000000000E+00 -0.00000000000E+00 -0.40219698566E+02  0.40219698566E+02  0.00000000000E+00 0.  1.
         23    2    1    2    0    0  0.11626898190E+02  0.12660865457E+03  0.22100944236E+03  0.27235151624E+03  0.95735252720E+02 0.  0.
         24    2    1    2    0    0 -0.25892372975E+02 -0.56480571847E+02  0.31324810791E+03  0.32912671517E+03  0.79621275777E+02 0.  0.
        -13    1    4    4    0    0 -0.28243403184E+02  0.80314926192E+01  0.16259742662E+03  0.16522747302E+03  0.00000000000E+00 0.  1.
         14    1    4    4    0    0  0.23510302093E+01 -0.64512064467E+02  0.15065068128E+03  0.16389924215E+03  0.00000000000E+00 0. -1.
        -11    1    3    3    0    0 -0.29525593381E+02  0.48740504172E+02  0.35883017102E+02  0.67342321966E+02  0.00000000000E+00 0. -1.
         11    1    3    3    0    0  0.41152491571E+02  0.77868150393E+02  0.18512642525E+03  0.20500919427E+03  0.00000000000E+00 0.  1.
         -4    1    1    2    0  502  0.14265474785E+02 -0.70128082718E+02  0.18711035581E+03  0.20032907180E+03  0.00000000000E+00 0.  1.
<scales pt_clust_5="13000.00000" pt_clust_6="13000.00000" pt_clust_7="13000.00000" pt_clust_8="13000.00000" pt_clust_9="71.56432"></scales>
<clustering>
<clus scale="   71.564">  1  9  2 -1</clus>
<clus scale="   79.621">  5  6 -1 -1</clus>
<clus scale="   95.735">  7  8 -1 -1</clus>
<clus scale="  126.100">  1  5  2 -1</clus>
<clus scale="   71.564">  1  5  2 -1</clus>
</clustering>
</event>
<event>
 9    2  0.1592151E-004  0.2058970E+03  0.7546771E-02  0.1144857E+00
         21   -1    0    0  501  502  0.00000000000E+00  0.00000000000E+00  0.11936623697E+03  0.11936623697E+03  0.00000000000E+00 0.  1.
         -1   -1    0    0    0  501 -0.00000000000E+00 -0.00000000000E+00 -0.39152976046E+03  0.39152976046E+03  0.00000000000E+00 0.  1.
         24    2    1    2    0    0 -0.17544115944E+01  0.59106904348E+02 -0.13485216326E+03  0.16785990973E+03  0.80592426793E+02 0.  0.
         23    2    1    2    0    0 -0.23182238904E+02  0.45388395289E+02 -0.19508914000E+03  0.22105503991E+03  0.90598209126E+02 0.  0.
        -13    1    3    3    0    0 -0.12638682220E+02  0.70323208878E+02 -0.13441437206E+03  0.15222454931E+03  0.00000000000E+00 0.  1.
         14    1    3    3    0    0  0.10884270625E+02 -0.11216304530E+02 -0.43779119844E+00  0.15635360421E+02  0.00000000000E+00 0. -1.
        -13    1    4    4    0    0  0.27249856449E+02  0.65588881031E+01 -0.11701150259E+03  0.12032150858E+03  0.00000000000E+00 0.  1.
         13    1    4    4    0    0 -0.50432095354E+02  0.38829507186E+02 -0.78077637410E+02  0.10073353133E+03  0.00000000000E+00 0. -1.
         -2    1    1    2    0  502  0.24936650499E+02 -0.10449529964E+03  0.57777779774E+02  0.12198104779E+03  0.00000000000E+00 0.  1.
<scales pt_clust_5="13000.00000" pt_clust_6="13000.00000" pt_clust_7="13000.00000" pt_clust_8="13000.00000" pt_clust_9="107.42953"></scales>
<clustering>
<clus scale="   80.592">  5  6 -1 -1</clus>
<clus scale="   90.598">  7  8 -1 -1</clus>
<clus scale="   97.273">  5  7 -1 -1</clus>
<clus scale="  107.430">  1  9  2 -1</clus>
<clus scale="  107.430">  1  5  2 -1</clus>
</clustering>
</event>
<event>
 9    2  0.1592151E-004  0.2802005E+03  0.7546771E-02  0.1096021E+00
          2   -1    0    0  502    0 -0.00000000000E+00  0.00000000000E+00  0.13710061142E+04  0.13710061142E+04  0.00000000000E+00 0. -1.
         21   -1    0    0  501  502  0.00000000000E+00 -0.00000000000E+00 -0.22152509545E+03  0.22152509545E+03  0.00000000000E+00 0. -1.
         23    2    1    2    0    0 -0.21278063781E+03 -0.15357208648E+03  0.10953040619E+04  0.11299953634E+04  0.91315648587E+02 0.  0.
         24    2    1    2    0    0  0.30405208647E+03  0.67342069086E+02 -0.91853438909E+01  0.32189134977E+03  0.80913811918E+02 0.  0.
        -11    1    4    4    0    0  0.89800649183E+02  0.12162620938E+02 -0.38985080079E+02  0.98650506388E+02  0.00000000000E+00 0.  1.
         12    1    4    4    0    0  0.21425143728E+03  0.55179448148E+02  0.29799736188E+02  0.22324084338E+03  0.00000000000E+00 0. -1.
        -11    1    3    3    0    0 -0.35699764634E+02  0.91607849865E+01  0.12412565896E+03  0.12948193847E+03  0.00000000000E+00 0.  1.
         11    1    3    3    0    0 -0.17708087318E+03 -0.16273287147E+03  0.97117840294E+03  0.10005134249E+04  0.00000000000E+00 0. -1.
          1    1    1    2  501    0 -0.91271448654E+02  0.86230017398E+02  0.63362300734E+02  0.14064449649E+03  0.00000000000E+00 0. -1.
<scales pt_clust_5="13000.00000" pt_clust_6="13000.00000" pt_clust_7="13000.00000" pt_clust_8="13000.00000" pt_clust_9="125.56310"></scales>
<clustering>
<clus scale="   80.914">  5  6 -1 -1</clus>
<clus scale="   91.316">  7  8 -1 -1</clus>
<clus scale="  125.563">  2  9  1 -1</clus>
<clus scale="  276.985">  2  5  1 -1</clus>
<clus scale="  125.563">  2  5  1 -1</clus>
</clustering>
</event>
<event>
 9    2  0.1592151E-004  0.1361644E+03  0.7546771E-02  0.1223093E+00
         -1   -1    0    0    0  501 -0.00000000000E+00  0.00000000000E+00  0.14568137868E+03  0.14568137868E+03  0.00000000000E+00 0.  1.
         21   -1    0    0  501  502  0.00000000000E+00 -0.00000000000E+00 -0.21907788824E+03  0.21907788824E+03  0.00000000000E+00 0.  1.
         24    2    1    2    0    0 -0.86324407039E+02  0.52932046446E+01 -0.58937352188E+02  0.12795483377E+03  0.73613223914E+02 0.  0.
         23    2    1    2    0    0  0.11236913072E+03  0.44284438809E+02 -0.60910324646E+02  0.16404468259E+03  0.92804402791E+02 0.  0.
        -11    1    3    3    0    0 -0.81563476456E+02 -0.22333579061E+02 -0.36763065266E+02  0.92211237997E+02  0.00000000000E+00 0.  1.
         12    1    3    3    0    0 -0.47609305829E+01  0.27626783706E+02 -0.22174286923E+02  0.35743595768E+02  0.00000000000E+00 0. -1.
        -11    1    4    4    0    0  0.50252376982E+02  0.68562061581E+02 -0.26770583635E+02  0.89121949198E+02  0.00000000000E+00 0.  1.
         11    1    4    4    0    0  0.62116753736E+02 -0.24277622772E+02 -0.34139741011E+02  0.74922733389E+02  0.00000000000E+00 0. -1.
         -2    1    1    2    0  502 -0.26044723679E+02 -0.49577643454E+02  0.46451167278E+02  0.72759750573E+02  0.00000000000E+00 0.  1.
<scales pt_clust_5="13000.00000" pt_clust_6="13000.00000" pt_clust_7="13000.00000" pt_clust_8="13000.00000" pt_clust_9="56.00244"></scales>
<clustering>
<clus scale="   56.002">  2  9  1 -1</clus>
<clus scale="   73.613">  5  6 -1 -1</clus>
<clus scale="   92.804">  7  8 -1 -1</clus>
<clus scale="  123.883">  1  5  2 -1</clus>
<clus scale="   56.002">  2  5  1 -1</clus>
</clustering>
</event>
<event>
 9    2  0.1592151E-004  0.4002116E+03  0.7546771E-02  0.1043862E+00
         21   -1    0    0  501  502  0.00000000000E+00  0.00000000000E+00  0.22454604011E+03  0.22454604011E+03  0.00000000000E+00 0. -1.
          2   -1    0    0  502    0 -0.00000000000E+00 -0.00000000000E+00 -0.11749546428E+04  0.11749546428E+04  0.00000000000E+00 0. -1.
         23    2    1    2    0    0  0.39925484212E+03  0.74550636282E+02 -0.81408096340E+03  0.91435145533E+03  0.91370359364E+02 0.  0.
         24    2    1    2    0    0 -0.35343895776E+03  0.14414385049E+02 -0.12578191677E+03  0.38452575843E+03  0.83139021814E+02 0.  0.
        -11    1    4    4    0    0 -0.32103455997E+03 -0.58191626127E+01 -0.12933790933E+03  0.34615797858E+03  0.00000000000E+00 0.  1.
         12    1    4    4    0    0 -0.32404397790E+02  0.20233547662E+02  0.35559925511E+01  0.38367779844E+02  0.00000000000E+00 0. -1.
        -11    1    3    3    0    0  0.81342479018E+02 -0.15546335985E+02 -0.21118061706E+03  0.22683813718E+03  0.00000000000E+00 0.  1.
         11    1    3    3    0    0  0.31791236310E+03  0.90096972268E+02 -0.60290034634E+03  0.68751331815E+03  0.00000000000E+00 0. -1.
          1    1    1    2  501    0 -0.45815884362E+02 -0.88965021331E+02 -0.10545722516E+02  0.10062346915E+03  0.00000000000E+00 0. -1.
<scales pt_clust_5="13000.00000" pt_clust_6="13000.00000" pt_clust_7="13000.00000" pt_clust_8="13000.00000" pt_clust_9="100.06933"></scales>
<clustering>
<clus scale="   83.139">  5  6 -1 -1</clus>
<clus scale="   91.370">  7  8 -1 -1</clus>
<clus scale="  100.069">  1  9  2 -1</clus>
<clus scale="  398.413">  1  5  2 -1</clus>
<clus scale="  100.069">  1  5  2 -1</clus>
</clustering>
</event>
<event>
 9    2  0.1592151E-004  0.1301403E+03  0.7546771E-02  0.1229927E+00
          2   -1    0    0  502    0 -0.00000000000E+00  0.00000000000E+00  0.25891226442E+03  0.25891226442E+03  0.00000000000E+00 0. -1.
         21   -1    0    0  501  502  0.00000000000E+00 -0.00000000000E+00 -0.93480447245E+02  0.93480447245E+02  0.00000000000E+00 0.  1.
         23    2    1    2    0    0  0.91369189612E+02 -0.18171115933E+02  0.15625622795E+03  0.20304087443E+03  0.90172443952E+02 0.  0.
         24    2    1    2    0    0 -0.97324060634E+02 -0.21121286319E+01 -0.11595422225E+01  0.12582131576E+03  0.79707120738E+02 0.  0.
        -13    1    4    4    0    0 -0.89680603415E+02  0.25013236777E+02 -0.15199272002E+02  0.94336050969E+02  0.00000000000E+00 0.  1.
         14    1    4    4    0    0 -0.76434572190E+01 -0.27125365409E+02  0.14039729779E+02  0.31485264794E+02  0.00000000000E+00 0. -1.
        -13    1    3    3    0    0  0.61320319761E+02  0.30074341869E+02  0.11124909005E+03  0.13054121070E+03  0.00000000000E+00 0. -1.
         13    1    3    3    0    0  0.30048869851E+02 -0.48245457801E+02  0.45007137906E+02  0.72499663725E+02  0.00000000000E+00 0.  1.
          1    1    1    2  501    0  0.59548710222E+01  0.20283244565E+02  0.10335131441E+02  0.23530521475E+02  0.00000000000E+00 0. -1.
<scales pt_clust_5="13000.00000" pt_clust_6="13000.00000" pt_clust_7="13000.00000" pt_clust_8="13000.00000" pt_clust_9="21.13931"></scales>
<clustering>
<clus scale="   21.139">  2  9  1 -1</clus>
<clus scale="   79.707">  5  6 -1 -1</clus>
<clus scale="   90.172">  7  8 -1 -1</clus>
<clus scale="  123.120">  2  5  1 -1</clus>
<clus scale="   21.139">  2  5  1 -1</clus>
</clustering>
</event>
<event>
 9    2  0.1592151E-004  0.1024344E+03  0.7546771E-02  0.1284120E+00
          2   -1    0    0  502    0 -0.00000000000E+00  0.00000000000E+00  0.95619444360E+02  0.95619444360E+02  0.00000000000E+00 0. -1.
         21   -1    0    0  501  502  0.00000000000E+00 -0.00000000000E+00 -0.17334323892E+03  0.17334323892E+03  0.00000000000E+00 0.  1.
         24    2    1    2    0    0 -0.35161592698E+02 -0.21120049895E+02  0.36905256539E+02  0.92341000012E+02  0.74043691253E+02 0.  0.
         23    2    1    2    0    0  0.57022756843E+02  0.25232794535E+02 -0.10257902580E+03  0.15132290314E+03  0.92129668203E+02 0.  0.
        -11    1    3    3    0    0 -0.13602288434E+02  0.17901863430E+02 -0.12557222756E+02  0.25752335977E+02  0.00000000000E+00 0.  1.
         12    1    3    3    0    0 -0.21559304263E+02 -0.39021913325E+02  0.49462479295E+02  0.66588664034E+02  0.00000000000E+00 0. -1.
        -11    1    4    4    0    0  0.53939888060E+02  0.50417545755E+02 -0.40395090145E+02  0.84161771320E+02  0.00000000000E+00 0.  1.
         11    1    4    4    0    0  0.30828687821E+01 -0.25184751220E+02 -0.62183935655E+02  0.67161131821E+02  0.00000000000E+00 0. -1.
          1    1    1    2  501    0 -0.21861164145E+02 -0.41127446402E+01 -0.12050025300E+02  0.25298780129E+02  0.00000000000E+00 0. -1.
<scales pt_clust_5="13000.00000" pt_clust_6="13000.00000" pt_clust_7="13000.00000" pt_clust_8="13000.00000" pt_clust_9="22.24467"></scales>
<clustering>
<clus scale="   22.245">  2  9  1 -1</clus>
<clus scale="   74.044">  5  6 -1 -1</clus>
<clus scale="   86.530">  1  5  2 -1</clus>
<clus scale="   92.130">  7  8 -1 -1</clus>
<clus scale="   22.245">  2  5  1 -1</clus>
</clustering>
</event>
<event>
 9    2  0.1592151E-004  0.1005388E+03  0.7546771E-02  0.1287277E+00
          2   -1    0    0  502    0 -0.00000000000E+00  0.00000000000E+00  0.15922050532E+03  0.15922050532E+03  0.00000000000E+00 0. -1.
         21   -1    0    0  501  502  0.00000000000E+00 -0.00000000000E+00 -0.10064042732E+03  0.10064042732E+03  0.00000000000E+00 0. -1.
         24    2    1    2    0    0  0.41588897544E+02  0.41413219320E+01  0.81080743605E+02  0.11923377652E+03  0.76784240134E+02 0.  0.
         23    2    1    2    0    0 -0.28339166568E+02 -0.26819208444E+02  0.75246022787E+01  0.10073531963E+03  0.92566768757E+02 0.  0.
        -11    1    3    3    0    0 -0.13546333024E+02  0.24968365513E+02  0.28751825753E+02  0.40417692895E+02  0.00000000000E+00 0.  1.
         12    1    3    3    0    0  0.55135230569E+02 -0.20827043581E+02  0.52328917852E+02  0.78816083623E+02  0.00000000000E+00 0. -1.
        -13    1    4    4    0    0 -0.52089345586E+02 -0.25828766686E+02  0.32208457235E+02  0.66466606876E+02  0.00000000000E+00 0.  1.
         13    1    4    4    0    0  0.23750179018E+02 -0.99044175780E+00 -0.24683854957E+02  0.34268712754E+02  0.00000000000E+00 0. -1.
          1    1    1    2  501    0 -0.13249730976E+02  0.22677886512E+02 -0.30025267876E+02  0.39891836491E+02  0.00000000000E+00 0. -1.
<scales pt_clust_5="13000.00000" pt_clust_6="13000.00000" pt_clust_7="13000.00000" pt_clust_8="13000.00000" pt_clust_9="26.26484"></scales>
<clustering>
<clus scale="   26.265">  2  9  1 -1</clus>
<clus scale="   76.784">  5  6 -1 -1</clus>
<clus scale="   86.228">  1  5  2 -1</clus>
<clus scale="   92.567">  7  8 -1 -1</clus>
<clus scale="   26.265">  2  5  1 -1</clus>
</clustering>
</event>
<event>
 9    2  0.1592151E-004  0.2832081E+03  0.7546771E-02  0.1112439E+00
         21   -1    0    0  501  502  0.00000000000E+00  0.00000000000E+00  0.15852504055E+03  0.15852504055E+03  0.00000000000E+00 0.  1.
          2   -1    0    0  502    0 -0.00000000000E+00 -0.00000000000E+00 -0.11307154268E+04  0.11307154268E+04  0.00000000000E+00 0. -1.
         23    2    1    2    0    0 -0.46437196861E+02 -0.14254673619E+03 -0.10536178605E+03  0.20493969267E+03  0.91777919038E+02 0.  0.
         24    2    1    2    0    0  0.23746300825E+03  0.18711840304E+03 -0.16333636331E+03  0.35397288841E+03  0.84947401989E+02 0.  0.
        -13    1    4    4    0    0  0.92079793366E+02  0.26705003687E+02 -0.33641436821E+02  0.10160507782E+03  0.00000000000E+00 0.  1.
         14    1    4    4    0    0  0.14538321489E+03  0.16041339935E+03 -0.12969492649E+03  0.25236781058E+03  0.00000000000E+00 0. -1.
        -13    1    3    3    0    0 -0.72318666246E+02 -0.98180397600E+02 -0.57831991762E+02  0.13495895388E+03  0.00000000000E+00 0.  1.
         13    1    3    3    0    0  0.25881469384E+02 -0.44366338588E+02 -0.47529794292E+02  0.69980738797E+02  0.00000000000E+00 0. -1.
          1    1    1    2  501    0 -0.19102581139E+03 -0.44571666850E+02 -0.70349223692E+03  0.73032788630E+03  0.00000000000E+00 0. -1.
<scales pt_clust_5="13000.00000" pt_clust_6="13000.00000" pt_clust_7="13000.00000" pt_clust_8="13000.00000" pt_clust_9="270.16818"></scales>
<clustering>
<clus scale="   84.947">  5  6 -1 -1</clus>
<clus scale="   91.778">  7  8 -1 -1</clus>
<clus scale="  175.782">  2  7  1 -1</clus>
<clus scale="  270.168">  1  9  2 -1</clus>
<clus scale="  270.168">  1  5  2 -1</clus>
</clustering>
</event>
<event>
 9    2  0.1592151E-004  0.1458254E+03  0.7546771E-02  0.1221852E+00
         21   -1    0    0  501  502  0.00000000000E+00  0.00000000000E+00  0.43036640068E+02  0.43036640068E+02  0.00000000000E+00 0. -1.
          2   -1    0    0  502    0 -0.00000000000E+00 -0.00000000000E+00 -0.13267820828E+04  0.13267820828E+04  0.00000000000E+00 0. -1.
         24    2    1    2    0    0  0.56318242794E+02 -0.31896560245E+02 -0.83122835930E+03  0.83764840504E+03  0.80778277661E+02 0.  0.
         23    2    1    2    0    0 -0.51970285555E+02 -0.98589219828E+02 -0.17779059415E+03  0.22799916954E+03  0.89181730734E+02 0.  0.
        -11    1    3    3    0    0  0.29511217210E+02 -0.10100984723E+02 -0.83718147573E+02  0.89340192896E+02  0.00000000000E+00 0.  1.
         12    1    3    3    0    0  0.26807025584E+02 -0.21795575522E+02 -0.74751021173E+03  0.74830821215E+03  0.00000000000E+00 0. -1.
        -11    1    4    4    0    0 -0.20248348116E+02 -0.43923809813E+02 -0.15239347474E+03  0.15988454526E+03  0.00000000000E+00 0.  1.
         11    1    4    4    0    0 -0.31721937439E+02 -0.54665410015E+02 -0.25397119414E+02  0.68114624285E+02  0.00000000000E+00 0. -1.
          1    1    1    2  501    0 -0.43479572385E+01  0.13048578007E+03 -0.27472648927E+03  0.30417114827E+03  0.00000000000E+00 0. -1.
<scales pt_clust_5="13000.00000" pt_clust_6="13000.00000" pt_clust_7="13000.00000" pt_clust_8="13000.00000" pt_clust_9="115.37625"></scales>
<clustering>
<clus scale="   80.778">  5  6 -1 -1</clus>
<clus scale="   89.182">  7  8 -1 -1</clus>
<clus scale="  103.510">  2  5  1 -1</clus>
<clus scale="  115.376">  1  9  2 -1</clus>
<clus scale="  115.376">  1  5  2 -1</clus>
</clustering>
</event>
<event>
 9    2  0.1592151E-004  0.2638444E+03  0.7546771E-02  0.1104855E+00
         21   -1    0    0  501  502  0.00000000000E+00  0.00000000000E+00  0.12228063788E+03  0.12228063788E+03  0.00000000000E+00 0.  1.
         -1   -1    0    0    0  501 -0.00000000000E+00 -0.00000000000E+00 -0.40433751888E+03  0.40433751888E+03  0.00000000000E+00 0.  1.
         24    2    1    2    0    0  0.93971933161E+02 -0.10192285396E+03 -0.10905105695E+03  0.19453877295E+03  0.82062225041E+02 0.  0.
         23    2    1    2    0    0  0.24263898874E+02 -0.30204695081E+02 -0.26569047424E+02  0.10212040759E+03  0.90673055376E+02 0.  0.
        -11    1    3    3    0    0  0.35490127380E+02 -0.41335519024E+02 -0.94504532047E+02  0.10908382489E+03  0.00000000000E+00 0.  1.
         12    1    3    3    0    0  0.58481805781E+02 -0.60587334938E+02 -0.14546524901E+02  0.85454948066E+02  0.00000000000E+00 0. -1.
        -13    1    4    4    0    0  0.24420079298E+02  0.26812081901E+01 -0.53980639756E+02  0.59307997932E+02  0.00000000000E+00 0. -1.
         13    1    4    4    0    0 -0.15618042342E+00 -0.32885903271E+02  0.27411592332E+02  0.42812409655E+02  0.00000000000E+00 0.  1.
         -2    1    1    2    0  502 -0.11823583204E+03  0.13212754904E+03 -0.14643677663E+03  0.22995897621E+03  0.00000000000E+00 0.  1.
<scales pt_clust_5="13000.00000" pt_clust_6="13000.00000" pt_clust_7="13000.00000" pt_clust_8="13000.00000" pt_clust_9="177.30604"></scales>
<clustering>
<clus scale="   82.062">  5  6 -1 -1</clus>
<clus scale="   90.673">  7  8 -1 -1</clus>
<clus scale="   96.415">  5  7 -1 -1</clus>
<clus scale="  177.306">  1  9  2 -1</clus>
<clus scale="  177.306">  1  5  2 -1</clus>
</clustering>
</event>
<event>
 9    2  0.1592151E-004  0.1174639E+03  0.7546771E-02  0.1250453E+00
         -3   -1    0    0    0  501 -0.00000000000E+00  0.00000000000E+00  0.73449110155E+02  0.73449110155E+02  0.00000000000E+00 0.  1.
         21   -1    0    0  501  502  0.00000000000E+00 -0.00000000000E+00 -0.24461580774E+03  0.24461580774E+03  0.00000000000E+00 0.  1.
         24    2    1    2    0    0 -0.44421817355E+02 -0.61915388784E+02 -0.38978116831E+02  0.11911582296E+03  0.82840041421E+02 0.  0.
         23    2    1    2    0    0  0.22204460003E+02  0.64804964012E+02 -0.13404863188E+03  0.17646753799E+03  0.92081674886E+02 0.  0.
        -11    1    3    3    0    0 -0.50237288501E+02 -0.77828749047E+02 -0.42325372626E+02  0.10184565038E+03  0.00000000000E+00 0.  1.
         12    1    3    3    0    0  0.58154711459E+01  0.15913360263E+02  0.33472557950E+01  0.17270172577E+02  0.00000000000E+00 0. -1.
        -13    1    4    4    0    0  0.52903287035E+02  0.20885357222E+02 -0.44940499723E+02  0.72488650427E+02  0.00000000000E+00 0. -1.
         13    1    4    4    0    0 -0.30698827032E+02  0.43919606790E+02 -0.89108132157E+02  0.10397888756E+03  0.00000000000E+00 0.  1.
         -4    1    1    2    0  502  0.22217357352E+02 -0.28895752274E+01  0.18600511224E+01  0.22481556950E+02  0.00000000000E+00 0.  1.
<scales pt_clust_5="13000.00000" pt_clust_6="13000.00000" pt_clust_7="13000.00000" pt_clust_8="13000.00000" pt_clust_9="22.40449"></scales>
<clustering>
<clus scale="   22.404">  2  9  1 -1</clus>
<clus scale="   82.840">  5  6 -1 -1</clus>
<clus scale="   92.082">  7  8 -1 -1</clus>
<clus scale="  110.369">  1  5  2 -1</clus>
<clus scale="   22.404">  2  5  1 -1</clus>
</clustering>
</event>
<event>
 9    2  0.1592151E-004  0.1738191E+03  0.7546771E-02  0.1175353E+00
          4   -1    0    0  502    0 -0.00000000000E+00  0.00000000000E+00  0.24555326493E+03  0.24555326493E+03  0.00000000000E+00 0. -1.
         21   -1    0    0  501  502  0.00000000000E+00 -0.00000000000E+00 -0.36125079616E+03  0.36125079616E+03  0.00000000000E+00 0. -1.
         23    2    1    2    0    0  0.23830920551E+02 -0.14474048797E+03  0.15496591799E+03  0.23206690213E+03  0.91229872803E+02 0.  0.
         24    2    1    2    0    0  0.16860276764E+02  0.15680903933E+03 -0.10945039411E+03  0.20803061257E+03  0.80149879896E+02 0.  0.
        -11    1    4    4    0    0 -0.55962782965E+01  0.14822155482E+03 -0.10884807064E+03  0.18398056997E+03  0.00000000000E+00 0.  1.
         12    1    4    4    0    0  0.22456555060E+02  0.85874845100E+01 -0.60232346389E+00  0.24050042598E+02  0.00000000000E+00 0. -1.
        -13    1    3    3    0    0  0.31433040911E+02 -0.73899354697E+01  0.47823627701E+02  0.57703956308E+02  0.00000000000E+00 0.  1.
         13    1    3    3    0    0 -0.76021203597E+01 -0.13735055250E+03  0.10714229029E+03  0.17436294582E+03  0.00000000000E+00 0. -1.
          3    1    1    2  501    0 -0.40691197315E+02 -0.12068551369E+02 -0.16121305511E+03  0.16670654639E+03  0.00000000000E+00 0. -1.
<scales pt_clust_5="13000.00000" pt_clust_6="13000.00000" pt_clust_7="13000.00000" pt_clust_8="13000.00000" pt_clust_9="42.44318"></scales>
<clustering>
<clus scale="   42.443">  2  9  1 -1</clus>
<clus scale="   80.150">  5  6 -1 -1</clus>
<clus scale="   91.230">  7  8 -1 -1</clus>
<clus scale="  168.268">  2  5  1 -1</clus>
<clus scale="   42.443">  2  5  1 -1</clus>
</clustering>
</event>
<event>
 9    2  0.1592151E-004  0.2616202E+03  0.7546771E-02  0.1146891E+00
         21   -1    0    0  501  502  0.00000000000E+00  0.00000000000E+00  0.42745446490E+03  0.42745446490E+03  0.00000000000E+00 0.  1.
          2   -1    0    0  502    0 -0.00000000000E+00 -0.00000000000E+00 -0.23656157229E+03  0.23656157229E+03  0.00000000000E+00 0. -1.
         24    2    1    2    0    0  0.35033161604E+02  0.40413735847E+02  0.47456389392E+02  0.10673837299E+03  0.79248841739E+02 0.  0.
         23    2    1    2    0    0 -0.53987931939E+02  0.21543527606E+03 -0.37295073848E+02  0.24345939966E+03  0.92490549713E+02 0.  0.
        -13    1    3    3    0    0 -0.25172028866E+02  0.47348582911E+01  0.13459374991E+02  0.28934489721E+02  0.00000000000E+00 0.  1.
         14    1    3    3    0    0  0.60205190470E+02  0.35678877556E+02  0.33997014400E+02  0.77803883266E+02  0.00000000000E+00 0. -1.
        -11    1    4    4    0    0 -0.59912162583E+02  0.17926988092E+03  0.29359816549E+01  0.18903908966E+03  0.00000000000E+00 0.  1.
         11    1    4    4    0    0  0.59242306444E+01  0.36165395137E+02 -0.40231055503E+02  0.54420310005E+02  0.00000000000E+00 0. -1.
          1    1    1    2  501    0  0.18954770335E+02 -0.25584901191E+03  0.18073157706E+03  0.31381826454E+03  0.00000000000E+00 0. -1.
<scales pt_clust_5="13000.00000" pt_clust_6="13000.00000" pt_clust_7="13000.00000" pt_clust_8="13000.00000" pt_clust_9="244.72557"></scales>
<clustering>
<clus scale="   79.249">  5  6 -1 -1</clus>
<clus scale="   92.491">  7  8 -1 -1</clus>
<clus scale="   95.608">  2  5  1 -1</clus>
<clus scale="  244.726">  1  9  2 -1</clus>
<clus scale="  244.726">  1  5  2 -1</clus>
</clustering>
</event>
<event>
 9    2  0.1592151E-004  0.2141855E+03  0.7546771E-02  0.1165170E+00
         21   -1    0    0  501  502  0.00000000000E+00  0.00000000000E+00  0.10923622922E+03  0.10923622922E+03  0.00000000000E+00 0.  1.
          2   -1    0    0  502    0 -0.00000000000E+00 -0.00000000000E+00 -0.90419840275E+03  0.90419840275E+03  0.00000000000E+00 0. -1.
         23    2    1    2    0    0  0.60792982653E+02 -0.23457807278E+02 -0.14010072628E+03  0.18031376258E+03  0.92945059092E+02 0.  0.
         24    2    1    2    0    0  0.51164073069E+02  0.19309068104E+03 -0.90750814689E+02  0.23351224707E+03  0.79940513448E+02 0.  0.
        -11    1    4    4    0    0  0.66317193401E+02  0.16702996031E+03 -0.57633157298E+02  0.18872879643E+03  0.00000000000E+00 0.  1.
         12    1    4    4    0    0 -0.15153120331E+02  0.26060720731E+02 -0.33117657392E+02  0.44783450648E+02  0.00000000000E+00 0. -1.
        -13    1    3    3    0    0  0.81130984925E+02 -0.36226994916E+02 -0.10195551621E+03  0.13523889662E+03  0.00000000000E+00 0. -1.
         13    1    3    3    0    0 -0.20338002272E+02  0.12769187638E+02 -0.38145210075E+02  0.45074865956E+02  0.00000000000E+00 0.  1.
          1    1    1    2  501    0 -0.11195705572E+03 -0.16963287376E+03 -0.56411063256E+03  0.59960862231E+03  0.00000000000E+00 0. -1.
<scales pt_clust_5="13000.00000" pt_clust_6="13000.00000" pt_clust_7="13000.00000" pt_clust_8="13000.00000" pt_clust_9="198.70825"></scales>
<clustering>
<clus scale="   79.941">  5  6 -1 -1</clus>
<clus scale="   92.945">  7  8 -1 -1</clus>
<clus scale="  113.511">  2  7  1 -1</clus>
<clus scale="  198.708">  1  9  2 -1</clus>
<clus scale="  198.708">  1  5  2 -1</clus>
</clustering>
</event>
<event>
 9    2  0.1592151E-004  0.1493651E+03  0.7546771E-02  0.1206563E+00
          2   -1    0    0  502    0 -0.00000000000E+00  0.00000000000E+00  0.25745210415E+03  0.25745210415E+03  0.00000000000E+00 0. -1.
         21   -1    0    0  501  502  0.00000000000E+00 -0.00000000000E+00 -0.17935660168E+03  0.17935660168E+03  0.00000000000E+00 0. -1.
         24    2    1    2    0    0 -0.29340085424E+02  0.82538323641E+02  0.19656473470E+02  0.13464628836E+03  0.10034854527E+03 0.  0.
         23    2    1    2    0    0  0.13857706338E+03 -0.26887437525E+01  0.56168743199E+02  0.16683382863E+03  0.73944349496E+02 0.  0.
        -13    1    3    3    0    0 -0.59736041186E+02  0.44805814034E+02 -0.13570236065E+02  0.75895368072E+02  0.00000000000E+00 0.  1.
         14    1    3    3    0    0  0.30395955762E+02  0.37732509607E+02  0.33226709535E+02  0.58750920286E+02  0.00000000000E+00 0. -1.
        -11    1    4    4    0    0  0.35927598270E+02 -0.20373321994E+02 -0.11188668293E+02  0.42790780136E+02  0.00000000000E+00 0. -1.
         11    1    4    4    0    0  0.10264946511E+03  0.17684578241E+02  0.67357411491E+02  0.12404304849E+03  0.00000000000E+00 0.  1.
          1    1    1    2  501    0 -0.10923697796E+03 -0.79849579889E+02  0.22702857975E+01  0.13532858885E+03  0.00000000000E+00 0. -1.
<scales pt_clust_5="13000.00000" pt_clust_6="13000.00000" pt_clust_7="13000.00000" pt_clust_8="13000.00000" pt_clust_9="129.77739"></scales>
<clustering>
<clus scale="   73.944">  7  8 -1 -1</clus>
<clus scale="  100.349">  5  6 -1 -1</clus>
<clus scale="  133.204">  1  5  2 -1</clus>
<clus scale="  129.777">  2  9  1 -1</clus>
<clus scale="  129.777">  2  5  1 -1</clus>
</clustering>
</event>
<event>
 9    2  0.1592151E-004  0.1945128E+03  0.7546771E-02  0.1189405E+00
         -3   -1    0    0    0  501 -0.00000000000E+00  0.00000000000E+00  0.28561069845E+03  0.28561069845E+03  0.00000000000E+00 0.  1.
         21   -1    0    0  501  502  0.00000000000E+00 -0.00000000000E+00 -0.31963254041E+03  0.31963254041E+03  0.00000000000E+00 0.  1.
         24    2    1    2    0    0 -0.33831228251E+02  0.22500501911E+01  0.16074928991E+03  0.18309961543E+03  0.80842564492E+02 0.  0.
         23    2    1    2    0    0 -0.12185133416E+03 -0.10491296238E+03 -0.12369863697E+03  0.22257400321E+03  0.91560672812E+02 0.  0.
        -13    1    3    3    0    0 -0.23706326051E+02 -0.37847486515E+02  0.10101117003E+03  0.11044310119E+03  0.00000000000E+00 0.  1.
         14    1    3    3    0    0 -0.10124902200E+02  0.40097536706E+02  0.59738119876E+02  0.72656514235E+02  0.00000000000E+00 0. -1.
        -11    1    4    4    0    0 -0.22209555009E+02  0.16419873015E+02 -0.13399309266E+02  0.30698828191E+02  0.00000000000E+00 0. -1.
         11    1    4    4    0    0 -0.99641779156E+02 -0.12133283540E+03 -0.11029932770E+03  0.19187517502E+03  0.00000000000E+00 0.  1.
         -4    1    1    2    0  502  0.15568256242E+03  0.10266291219E+03 -0.71072494899E+02  0.19956962021E+03  0.00000000000E+00 0.  1.
<scales pt_clust_5="13000.00000" pt_clust_6="13000.00000" pt_clust_7="13000.00000" pt_clust_8="13000.00000" pt_clust_9="171.61562"></scales>
<clustering>
<clus scale="   80.843">  5  6 -1 -1</clus>
<clus scale="   87.665">  1  5  2 -1</clus>
<clus scale="   91.561">  7  8 -1 -1</clus>
<clus scale="  171.616">  2  9  1 -1</clus>
<clus scale="  171.616">  2  5  1 -1</clus>
</clustering>
</event>
<event>
 9    2  0.1592151E-004  0.1626850E+03  0.7546771E-02  0.1187352E+00
          2   -1    0    0  502    0 -0.00000000000E+00  0.00000000000E+00  0.47812707628E+03  0.47812707628E+03  0.00000000000E+00 0. -1.
         21   -1    0    0  501  502  0.00000000000E+00 -0.00000000000E+00 -0.11235440386E+03  0.11235440386E+03  0.00000000000E+00 0.  1.
         24    2    1    2    0    0 -0.12076050517E+03 -0.42386898955E+02  0.22968246620E+03  0.27487028951E+03  0.80124228313E+02 0.  0.
         23    2    1    2    0    0  0.16711508892E+03 -0.52903932389E+01  0.33449607141E+02  0.19331252259E+03  0.91079163185E+02 0.  0.
        -13    1    3    3    0    0 -0.45421740662E+02 -0.34964414178E+02  0.37979801594E+02  0.68761254444E+02  0.00000000000E+00 0.  1.
         14    1    3    3    0    0 -0.75338764508E+02 -0.74224847766E+01  0.19170266461E+03  0.20610903507E+03  0.00000000000E+00 0. -1.
        -11    1    4    4    0    0  0.11755278647E+03  0.31817159405E+02  0.45924369200E+02  0.13015389708E+03  0.00000000000E+00 0. -1.
         11    1    4    4    0    0  0.49562302451E+02 -0.37107552644E+02 -0.12474762059E+02  0.63158625507E+02  0.00000000000E+00 0.  1.
          1    1    1    2  501    0 -0.46354583749E+02  0.47677292194E+02  0.10264059908E+03  0.12229866804E+03  0.00000000000E+00 0. -1.
<scales pt_clust_5="13000.00000" pt_clust_6="13000.00000" pt_clust_7="13000.00000" pt_clust_8="13000.00000" pt_clust_9="66.49719"></scales>
<clustering>
<clus scale="   66.497">  2  9  1 -1</clus>
<clus scale="   80.124">  5  6 -1 -1</clus>
<clus scale="   91.079">  7  8 -1 -1</clus>
<clus scale="  156.815">  1  5  2 -1</clus>
<clus scale="   66.497">  2  5  1 -1</clus>
</clustering>
</event>
<event>
 9    2  0.1592151E-004  0.2610454E+03  0.7546771E-02  0.1126512E+00
          2   -1    0    0  502    0 -0.00000000000E+00  0.00000000000E+00  0.25670916023E+04  0.25670916023E+04  0.00000000000E+00 0. -1.
         21   -1    0    0  501  502  0.00000000000E+00 -0.00000000000E+00 -0.15765689217E+03  0.15765689217E+03  0.00000000000E+00 0. -1.
         23    2    1    2    0    0  0.41344533778E+02  0.11713727050E+03 -0.78558339918E+02  0.17628206902E+03  0.97331621132E+02 0.  0.
         24    2    1    2    0    0 -0.11845989087E+03  0.15227919025E+03  0.16857286464E+04  0.16986663425E+04  0.81022073013E+02 0.  0.
        -11    1    4    4    0    0 -0.25962533192E+02  0.10206830015E+01  0.11162016749E+03  0.11460434858E+03  0.00000000000E+00 0.  1.
         12    1    4    4    0    0 -0.92497357675E+02  0.15125850725E+03  0.15741084789E+04  0.15840619939E+04  0.00000000000E+00 0. -1.
        -13    1    3    3    0    0  0.57519859431E+02  0.57251543494E+02 -0.68174643721E+01  0.81441704807E+02  0.00000000000E+00 0.  1.
         13    1    3    3    0    0 -0.16175325654E+02  0.59885727007E+02 -0.71740875546E+02  0.94840364209E+02  0.00000000000E+00 0. -1.
          1    1    1    2  501    0  0.77115357089E+02 -0.26941646075E+03  0.80226440369E+03  0.84980008299E+03  0.00000000000E+00 0. -1.
<scales pt_clust_5="13000.00000" pt_clust_6="13000.00000" pt_clust_7="13000.00000" pt_clust_8="13000.00000" pt_clust_9="248.15341"></scales>
<clustering>
<clus scale="   81.022">  5  6 -1 -1</clus>
<clus scale="   97.332">  7  8 -1 -1</clus>
<clus scale="  157.810">  1  7  2 -1</clus>
<clus scale="  248.153">  2  9  1 -1</clus>
<clus scale="  248.153">  2  5  1 -1</clus>
</clustering>
</event>
<event>
 9    2  0.1592151E-004  0.1549258E+03  0.7546771E-02  0.1196500E+00
         21   -1    0    0  501  502  0.00000000000E+00  0.00000000000E+00  0.10138493068E+03  0.10138493068E+03  0.00000000000E+00 0. -1.
          2   -1    0    0  502    0 -0.00000000000E+00 -0.00000000000E+00 -0.10202280240E+04  0.10202280240E+04  0.00000000000E+00 0. -1.
         24    2    1    2    0    0  0.10703795033E+03  0.35344491012E+02 -0.23249334687E+03  0.27062176119E+03  0.80477484033E+02 0.  0.
         23    2    1    2    0    0 -0.14639104929E+03 -0.10701240800E+03 -0.49911116771E+02  0.20932220867E+03  0.91884017569E+02 0.  0.
        -13    1    3    3    0    0  0.11954493657E+03  0.30042955736E+02 -0.19445933958E+03  0.23023467549E+03  0.00000000000E+00 0.  1.
         14    1    3    3    0    0 -0.12506986237E+02  0.53015352763E+01 -0.38034007284E+02  0.40387085697E+02  0.00000000000E+00 0. -1.
        -11    1    4    4    0    0 -0.12163303740E+03 -0.39322934074E+02 -0.49958662880E+02  0.13724706528E+03  0.00000000000E+00 0. -1.
         11    1    4    4    0    0 -0.24758011890E+02 -0.67689473926E+02  0.47546108596E-01  0.72075143383E+02  0.00000000000E+00 0.  1.
          1    1    1    2  501    0  0.39353098962E+02  0.71667916988E+02 -0.63643862965E+03  0.64166898479E+03  0.00000000000E+00 0. -1.
<scales pt_clust_5="13000.00000" pt_clust_6="13000.00000" pt_clust_7="13000.00000" pt_clust_8="13000.00000" pt_clust_9="81.76163"></scales>
<clustering>
<clus scale="   80.477">  5  6 -1 -1</clus>
<clus scale="   81.762">  1  9  2 -1</clus>
<clus scale="   91.884">  7  8 -1 -1</clus>
<clus scale="  148.445">  2  5  1 -1</clus>
<clus scale="   81.762">  1  5  2 -1</clus>
</clustering>
</event>
<event>
 9    2  0.1592151E-004  0.1991726E+03  0.7546771E-02  0.1151622E+00
         21   -1    0    0  501  502  0.00000000000E+00  0.00000000000E+00  0.11830951974E+03  0.11830951974E+03  0.00000000000E+00 0.  1.
          2   -1    0    0  502    0 -0.00000000000E+00 -0.00000000000E+00 -0.86318817900E+03  0.86318817900E+03  0.00000000000E+00 0. -1.
         24    2    1    2    0    0 -0.17327631349E+03 -0.47621479761E+02 -0.74007219798E+03  0.76564190527E+03  0.78792022013E+02 0.  0.
         23    2    1    2    0    0  0.15536762334E+03  0.36860329175E+02 -0.26283729174E+02  0.18589253963E+03  0.91473600677E+02 0.  0.
        -13    1    3    3    0    0 -0.46451372192E+02  0.17808010134E+02 -0.13240342311E+03  0.14144087688E+03  0.00000000000E+00 0.  1.
         14    1    3    3    0    0 -0.12682494130E+03 -0.65429489895E+02 -0.60766877487E+03  0.62420102839E+03  0.00000000000E+00 0. -1.
        -11    1    4    4    0    0  0.72678152755E+01  0.32355230444E+02  0.73238691163E+01  0.33960582074E+02  0.00000000000E+00 0. -1.
         11    1    4    4    0    0  0.14809980806E+03  0.45050987313E+01 -0.33607598290E+02  0.15193195755E+03  0.00000000000E+00 0.  1.
          1    1    1    2  501    0  0.17908690149E+02  0.10761150586E+02  0.21477267897E+02  0.29963253847E+02  0.00000000000E+00 0. -1.
<scales pt_clust_5="13000.00000" pt_clust_6="13000.00000" pt_clust_7="13000.00000" pt_clust_8="13000.00000" pt_clust_9="20.89315"></scales>
<clustering>
<clus scale="   20.893">  1  9  2 -1</clus>
<clus scale="   78.792">  5  6 -1 -1</clus>
<clus scale="   91.474">  7  8 -1 -1</clus>
<clus scale="  193.676">  2  5  1 -1</clus>
<clus scale="   20.893">  1  5  2 -1</clus>
</clustering>
</event>
<event>
 9    2  0.1592151E-004  0.1694539E+03  0.7546771E-02  0.1179971E+00
          2   -1    0    0  502    0 -0.00000000000E+00  0.00000000000E+00  0.43655245944E+03  0.43655245944E+03  0.00000000000E+00 0. -1.
         21   -1    0    0  501  502  0.00000000000E+00 -0.00000000000E+00 -0.75523897581E+02  0.75523897581E+02  0.00000000000E+00 0. -1.
         23    2    1    2    0    0 -0.15025223781E+03 -0.24593147958E+02  0.22399413677E+03  0.28556129902E+03  0.90505935131E+02 0.  0.
         24    2    1    2    0    0  0.13096830855E+03  0.11263350605E+02  0.10149365288E+03  0.18393924428E+03  0.79076691265E+02 0.  0.
        -13    1    4    4    0    0  0.13387672333E+02 -0.19170647656E+02 -0.31854340871E+01  0.23598527335E+02  0.00000000000E+00 0.  1.
         14    1    4    4    0    0  0.11758063622E+03  0.30433998261E+02  0.10467908697E+03  0.16034071695E+03  0.00000000000E+00 0. -1.
        -13    1    3    3    0    0 -0.13177565929E+03 -0.47663784567E+02  0.14700768611E+03  0.20309584072E+03  0.00000000000E+00 0. -1.
         13    1    3    3    0    0 -0.18476578522E+02  0.23070636609E+02  0.76986450660E+02  0.82465458300E+02  0.00000000000E+00 0.  1.
          1    1    1    2  501    0  0.19283929259E+02  0.13329797353E+02  0.35540772203E+02  0.42575813720E+02  0.00000000000E+00 0. -1.
<scales pt_clust_5="13000.00000" pt_clust_6="13000.00000" pt_clust_7="13000.00000" pt_clust_8="13000.00000" pt_clust_9="23.44257"></scales>
<clustering>
<clus scale="   23.443">  2  9  1 -1</clus>
<clus scale="   79.077">  5  6 -1 -1</clus>
<clus scale="   90.506">  7  8 -1 -1</clus>
<clus scale="  163.635">  2  5  1 -1</clus>
<clus scale="   23.443">  2  5  1 -1</clus>
</clustering>
</event>
<event>
 9    2  0.1592151E-004  0.1008096E+03  0.7546771E-02  0.1283489E+00
          2   -1    0    0  502    0 -0.00000000000E+00  0.00000000000E+00  0.47584597282E+02  0.47584597282E+02  0.00000000000E+00 0. -1.
         21   -1    0    0  501  502  0.00000000000E+00 -0.00000000000E+00 -0.30810653373E+03  0.30810653373E+03  0.00000000000E+00 0.  1.
         24    2    1    2    0    0 -0.23962566132E+02 -0.39371626444E+02 -0.79573522168E+02  0.12191937952E+03  0.80050359954E+02 0.  0.
         23    2    1    2    0    0  0.49954700585E+02  0.14351234159E+02 -0.16320895012E+03  0.19356852186E+03  0.90167517573E+02 0.  0.
        -11    1    3    3    0    0 -0.18319086504E+02 -0.59094193251E+02 -0.80327505103E+02  0.10139142312E+03  0.00000000000E+00 0.  1.
         12    1    3    3    0    0 -0.56434796283E+01  0.19722566808E+02  0.75398293522E+00  0.20527956403E+02  0.00000000000E+00 0. -1.
        -11    1    4    4    0    0  0.21502956781E+02 -0.14955777675E+01  0.50898258056E+01  0.22147691300E+02  0.00000000000E+00 0. -1.
         11    1    4    4    0    0  0.28451743804E+02  0.15846811927E+02 -0.16829877592E+03  0.17142083056E+03  0.00000000000E+00 0.  1.
          1    1    1    2  501    0 -0.25992134453E+02  0.25020392284E+02 -0.17739464162E+02  0.40203229625E+02  0.00000000000E+00 0. -1.
<scales pt_clust_5="13000.00000" pt_clust_6="13000.00000" pt_clust_7="13000.00000" pt_clust_8="13000.00000" pt_clust_9="36.07787"></scales>
<clustering>
<clus scale="   36.078">  2  9  1 -1</clus>
<clus scale="   80.050">  5  6 -1 -1</clus>
<clus scale="   90.168">  7  8 -1 -1</clus>
<clus scale="   91.872">  1  5  2 -1</clus>
<clus scale="   36.078">  2  5  1 -1</clus>
</clustering>
</event>
<event>
 9    2  0.1592151E-004  0.9208953E+02  0.7546771E-02  0.1304996E+00
         21   -1    0    0  501  502  0.00000000000E+00  0.00000000000E+00  0.41501492694E+02  0.41501492694E+02  0.00000000000E+00 0.  1.
          2   -1    0    0  502    0 -0.00000000000E+00 -0.00000000000E+00 -0.38535474190E+03  0.38535474190E+03  0.00000000000E+00 0. -1.
         23    2    1    2    0    0 -0.22283067660E+02 -0.44895720643E+02 -0.25549058868E+03  0.26772015163E+03  0.62341622126E+02 0.  0.
         24    2    1    2    0    0  0.53441340095E+02  0.34558622243E+02 -0.68478689992E+02  0.12075554325E+03  0.76434907204E+02 0.  0.
        -13    1    4    4    0    0  0.31703636776E+02  0.36952113362E+02  0.18960905952E+00  0.48688964030E+02  0.00000000000E+00 0.  1.
         14    1    4    4    0    0  0.21737703319E+02 -0.23934911194E+01 -0.68668299052E+02  0.72066579217E+02  0.00000000000E+00 0. -1.
        -13    1    3    3    0    0  0.14071548603E+02 -0.34540550375E+02 -0.80888043800E+02  0.89072631768E+02  0.00000000000E+00 0.  1.
         13    1    3    3    0    0 -0.36354616262E+02 -0.10355170267E+02 -0.17460254488E+03  0.17864751987E+03  0.00000000000E+00 0. -1.
          1    1    1    2  501    0 -0.31158272435E+02  0.10337098400E+02 -0.19883970530E+02  0.38380539711E+02  0.00000000000E+00 0. -1.
<scales pt_clust_5="13000.00000" pt_clust_6="13000.00000" pt_clust_7="13000.00000" pt_clust_8="13000.00000" pt_clust_9="32.82824"></scales>
<clustering>
<clus scale="   32.828">  1  9  2 -1</clus>
<clus scale="   62.342">  7  8 -1 -1</clus>
<clus scale="   76.435">  5  6 -1 -1</clus>
<clus scale="   80.775">  2  7  1 -1</clus>
<clus scale="   32.828">  1  5  2 -1</clus>
</clustering>
</event>
<event>
 9    2  0.1592151E-004  0.1512078E+03  0.7546771E-02  0.1201147E+00
         -3   -1    0    0    0  501 -0.00000000000E+00  0.00000000000E+00  0.47699505226E+03  0.47699505226E+03  0.00000000000E+00 0.  1.
         21   -1    0    0  501  502  0.00000000000E+00 -0.00000000000E+00 -0.76724376217E+02  0.76724376217E+02  0.00000000000E+00 0.  1.
         23    2    1    2    0    0  0.79519088267E+02 -0.90988851082E+02  0.33246868448E+03  0.36566459910E+03  0.92590045132E+02 0.  0.
         24    2    1    2    0    0 -0.55953255432E+02  0.10328512049E+03  0.36895214675E+02  0.14728994772E+03  0.80836185746E+02 0.  0.
        -11    1    4    4    0    0 -0.70459329114E+02  0.10001112009E+03  0.18649976412E+02  0.12375202148E+03  0.00000000000E+00 0.  1.
         12    1    4    4    0    0  0.14506073682E+02  0.32740003968E+01  0.18245238263E+02  0.23537926237E+02  0.00000000000E+00 0. -1.
        -13    1    3    3    0    0  0.59697285725E+02 -0.10319208438E+03  0.31425671988E+03  0.33610959253E+03  0.00000000000E+00 0.  1.
         13    1    3    3    0    0  0.19821802541E+02  0.12203233298E+02  0.18211964600E+02  0.29555006573E+02  0.00000000000E+00 0. -1.
         -4    1    1    2    0  502 -0.23565832835E+02 -0.12296269407E+02  0.30906776886E+02  0.40764881651E+02  0.00000000000E+00 0.  1.
<scales pt_clust_5="13000.00000" pt_clust_6="13000.00000" pt_clust_7="13000.00000" pt_clust_8="13000.00000" pt_clust_9="26.58096"></scales>
<clustering>
<clus scale="   26.581">  2  9  1 -1</clus>
<clus scale="   80.836">  5  6 -1 -1</clus>
<clus scale="   92.590">  7  8 -1 -1</clus>
<clus scale="  144.310">  2  5  1 -1</clus>
<clus scale="   26.581">  2  5  1 -1</clus>
</clustering>
</event>
<event>
 9    2  0.1592151E-004  0.1745019E+03  0.7546771E-02  0.1175250E+00
         21   -1    0    0  501  502  0.00000000000E+00  0.00000000000E+00  0.43207060913E+03  0.43207060913E+03  0.00000000000E+00 0. -1.
          2   -1    0    0  502    0 -0.00000000000E+00 -0.00000000000E+00 -0.17116242641E+03  0.17116242641E+03  0.00000000000E+00 0. -1.
         23    2    1    2    0    0 -0.14320466604E+03 -0.60450112181E+02 -0.74854427860E+02  0.19646090181E+03  0.93978232211E+02 0.  0.
         24    2    1    2    0    0  0.11168631731E+03  0.56705240751E+02  0.12490632671E+03  0.19354032837E+03  0.78529933467E+02 0.  0.
        -11    1    4    4    0    0  0.11342163710E+03  0.64919670481E+02  0.12949012947E+03  0.18397479450E+03  0.00000000000E+00 0.  1.
         12    1    4    4    0    0 -0.17353197949E+01 -0.82144297305E+01 -0.45838027597E+01  0.95655338758E+01  0.00000000000E+00 0. -1.
        -11    1    3    3    0    0 -0.10459668694E+03 -0.44930650033E+02 -0.35387279036E+01  0.11389360310E+03  0.00000000000E+00 0.  1.
         11    1    3    3    0    0 -0.38607979099E+02 -0.15519462148E+02 -0.71315699956E+02  0.82567298707E+02  0.00000000000E+00 0. -1.
          1    1    1    2  501    0  0.31518348734E+02  0.37448714303E+01  0.21085628387E+03  0.21323180536E+03  0.00000000000E+00 0. -1.
<scales pt_clust_5="13000.00000" pt_clust_6="13000.00000" pt_clust_7="13000.00000" pt_clust_8="13000.00000" pt_clust_9="31.74004"></scales>
<clustering>
<clus scale="   31.740">  1  9  2 -1</clus>
<clus scale="   78.530">  5  6 -1 -1</clus>
<clus scale="   93.978">  7  8 -1 -1</clus>
<clus scale="  166.691">  1  5  2 -1</clus>
<clus scale="   31.740">  1  5  2 -1</clus>
</clustering>
</event>
<event>
 9    2  0.1592151E-004  0.1578923E+03  0.7546771E-02  0.1192802E+00
         21   -1    0    0  501  502  0.00000000000E+00  0.00000000000E+00  0.21869379208E+02  0.21869379208E+02  0.00000000000E+00 0. -1.
          2   -1    0    0  502    0 -0.00000000000E+00 -0.00000000000E+00 -0.20393968502E+04  0.20393968502E+04  0.00000000000E+00 0. -1.
         24    2    1    2    0    0 -0.12053660631E+03  0.42786262919E+02 -0.12860558434E+04  0.12948462793E+04  0.79545690762E+02 0.  0.
         23    2    1    2    0    0  0.10540059866E+03 -0.93871435027E+02 -0.62909422293E+03  0.65100796406E+03  0.90170368971E+02 0.  0.
        -11    1    3    3    0    0 -0.13316747103E+02 -0.20404218365E+02 -0.14622551575E+03  0.14824159111E+03  0.00000000000E+00 0.  1.
         12    1    3    3    0    0 -0.10721985921E+03  0.63190481284E+02 -0.11398303276E+04  0.11466046881E+04  0.00000000000E+00 0. -1.
        -11    1    4    4    0    0  0.83392122469E+02 -0.20644765731E+02 -0.25204719857E+03  0.26628601681E+03  0.00000000000E+00 0.  1.
         11    1    4    4    0    0  0.22008476190E+02 -0.73226669297E+02 -0.37704702436E+03  0.38472194725E+03  0.00000000000E+00 0. -1.
          1    1    1    2  501    0  0.15136007651E+02  0.51085172108E+02 -0.10237740466E+03  0.11541198604E+03  0.00000000000E+00 0. -1.
<scales pt_clust_5="13000.00000" pt_clust_6="13000.00000" pt_clust_7="13000.00000" pt_clust_8="13000.00000" pt_clust_9="53.28033"></scales>
<clustering>
<clus scale="   53.280">  1  9  2 -1</clus>
<clus scale="   79.546">  5  6 -1 -1</clus>
<clus scale="   90.170">  7  8 -1 -1</clus>
<clus scale="  152.075">  2  5  1 -1</clus>
<clus scale="   53.280">  1  5  2 -1</clus>
</clustering>
</event>
<event>
 9    2  0.1642011E-004  0.9610255E+02  0.7546771E-02  0.1294775E+00
         -3   -1    0    0    0  501 -0.00000000000E+00  0.00000000000E+00  0.49800640538E+03  0.49800640538E+03  0.00000000000E+00 0.  1.
         21   -1    0    0  501  502  0.00000000000E+00 -0.00000000000E+00 -0.39758817910E+02  0.39758817910E+02  0.00000000000E+00 0. -1.
         23    2    1    2    0    0 -0.45340066608E+01  0.35631924210E+02  0.36320832362E+03  0.37602413631E+03  0.90463658452E+02 0.  0.
         24    2    1    2    0    0 -0.16916764415E+02 -0.17126465856E+02  0.25800574404E+02  0.86930768943E+02  0.79446813645E+02 0.  0.
        -13    1    4    4    0    0  0.16839161648E+02 -0.10952548230E+02  0.43795731212E+02  0.48182795167E+02  0.00000000000E+00 0.  1.
         14    1    4    4    0    0 -0.33755926063E+02 -0.61739176258E+01 -0.17995156808E+02  0.38747973776E+02  0.00000000000E+00 0. -1.
        -13    1    3    3    0    0 -0.31378528148E+02 -0.13559476518E+02  0.75060638678E+02  0.82477699477E+02  0.00000000000E+00 0. -1.
         13    1    3    3    0    0  0.26844521487E+02  0.49191400728E+02  0.28814768494E+03  0.29354643683E+03  0.00000000000E+00 0.  1.
         -4    1    1    2    0  502  0.21450771076E+02 -0.18505458354E+02  0.69238689441E+02  0.74810318033E+02  0.00000000000E+00 0.  1.
<scales pt_clust_5="13000.00000" pt_clust_6="13000.00000" pt_clust_7="13000.00000" pt_clust_8="13000.00000" pt_clust_9="28.32999"></scales>
<clustering>
<clus scale="   28.330">  2  9  1 -1</clus>
<clus scale="   79.447">  5  6 -1 -1</clus>
<clus scale="   85.813">  2  5  1 -1</clus>
<clus scale="   90.464">  7  8 -1 -1</clus>
<clus scale="   28.330">  2  5  1 -1</clus>
</clustering>
</event>
<event>
 9    2  0.1592151E-004  0.1554420E+03  0.7546771E-02  0.1195569E+00
         -1   -1    0    0    0  501 -0.00000000000E+00  0.00000000000E+00  0.42789593161E+03  0.42789593161E+03  0.00000000000E+00 0.  1.
         21   -1    0    0  501  502  0.00000000000E+00 -0.00000000000E+00 -0.20569763465E+03  0.20569763465E+03  0.00000000000E+00 0. -1.
         24    2    1    2    0    0  0.11996795659E+03  0.13816404288E+02  0.31558815514E+03  0.34759566248E+03  0.81508633103E+02 0.  0.
         23    2    1    2    0    0 -0.15379607250E+03 -0.53998595752E+01  0.77439543124E+01  0.17902488064E+03  0.91145755027E+02 0.  0.
        -11    1    3    3    0    0  0.19830722130E+02  0.23088276569E+02  0.15616943001E+03  0.15910756401E+03  0.00000000000E+00 0.  1.
         12    1    3    3    0    0  0.10013723446E+03 -0.92718722810E+01  0.15941872513E+03  0.18848809847E+03  0.00000000000E+00 0. -1.
        -13    1    4    4    0    0 -0.38515815796E+02  0.36544449626E+02  0.17652535850E+02  0.55951558395E+02  0.00000000000E+00 0.  1.
         13    1    4    4    0    0 -0.11528025670E+03 -0.41944309201E+02 -0.99085815372E+01  0.12307332224E+03  0.00000000000E+00 0. -1.
         -2    1    1    2    0  502  0.33828115905E+02 -0.84165447129E+01 -0.10113381249E+03  0.10697302314E+03  0.00000000000E+00 0.  1.
<scales pt_clust_5="13000.00000" pt_clust_6="13000.00000" pt_clust_7="13000.00000" pt_clust_8="13000.00000" pt_clust_9="34.85943"></scales>
<clustering>
<clus scale="   34.859">  2  9  1 -1</clus>
<clus scale="   81.509">  5  6 -1 -1</clus>
<clus scale="   91.146">  7  8 -1 -1</clus>
<clus scale="  149.994">  1  5  2 -1</clus>
<clus scale="   34.859">  2  5  1 -1</clus>
</clustering>
</event>
<event>
 9    2  0.1592151E-004  0.2099520E+03  0.7546771E-02  0.1180762E+00
          2   -1    0    0  502    0 -0.00000000000E+00  0.00000000000E+00  0.45588375045E+03  0.45588375045E+03  0.00000000000E+00 0. -1.
         21   -1    0    0  501  502  0.00000000000E+00 -0.00000000000E+00 -0.19805623594E+03  0.19805623594E+03  0.00000000000E+00 0. -1.
         24    2    1    2    0    0  0.11507823655E+02 -0.19899642566E+02  0.21181913759E+03  0.22805852757E+03  0.81332153348E+02 0.  0.
         23    2    1    2    0    0 -0.18035746229E+03  0.87390157194E+02  0.89288637259E+02  0.23896342608E+03  0.94684763734E+02 0.  0.
        -13    1    3    3    0    0 -0.62782356528E+01 -0.37149601535E+02  0.19378398574E+03  0.19741261932E+03  0.00000000000E+00 0.  1.
         14    1    3    3    0    0  0.17786059308E+02  0.17249958969E+02  0.18035151846E+02  0.30645908247E+02  0.00000000000E+00 0. -1.
        -11    1    4    4    0    0 -0.47079446256E+02  0.69531312141E+02  0.14876658275E+02  0.85278324264E+02  0.00000000000E+00 0.  1.
         11    1    4    4    0    0 -0.13327801603E+03  0.17858845053E+02  0.74411978984E+02  0.15368510182E+03  0.00000000000E+00 0. -1.
          1    1    1    2  501    0  0.16884963863E+03 -0.67490514628E+02 -0.43280260339E+02  0.18691803275E+03  0.00000000000E+00 0. -1.
<scales pt_clust_5="13000.00000" pt_clust_6="13000.00000" pt_clust_7="13000.00000" pt_clust_8="13000.00000" pt_clust_9="187.38903"></scales>
<clustering>
<clus scale="   81.332">  5  6 -1 -1</clus>
<clus scale="   84.518">  1  5  2 -1</clus>
<clus scale="   94.685">  7  8 -1 -1</clus>
<clus scale="  187.389">  2  9  1 -1</clus>
<clus scale="  187.389">  2  5  1 -1</clus>
</clustering>
</event>
<event>
 9    2  0.1592151E-004  0.1972957E+03  0.7546771E-02  0.1152941E+00
         21   -1    0    0  501  502  0.00000000000E+00  0.00000000000E+00  0.57478098964E+03  0.57478098964E+03  0.00000000000E+00 0. -1.
          2   -1    0    0  502    0 -0.00000000000E+00 -0.00000000000E+00 -0.99436451058E+03  0.99436451058E+03  0.00000000000E+00 0. -1.
         24    2    1    2    0    0  0.16140919206E+03  0.85760516129E+02 -0.90257018926E+03  0.92446723747E+03  0.81233818135E+02 0.  0.
         23    2    1    2    0    0 -0.73276599971E+02 -0.10980201938E+03  0.73028015463E+01  0.16030187112E+03  0.90649960888E+02 0.  0.
        -13    1    3    3    0    0  0.46718962137E+02  0.74616446004E+01 -0.10880334400E+03  0.11864444879E+03  0.00000000000E+00 0.  1.
         14    1    3    3    0    0  0.11469022992E+03  0.78298871529E+02 -0.79376684526E+03  0.80582278868E+03  0.00000000000E+00 0. -1.
        -11    1    4    4    0    0 -0.38088782291E+02 -0.11799851502E+03  0.64762486922E+01  0.12416258165E+03  0.00000000000E+00 0. -1.
         11    1    4    4    0    0 -0.35187817680E+02  0.81964956386E+01  0.82655285417E+00  0.36139289471E+02  0.00000000000E+00 0.  1.
          1    1    1    2  501    0 -0.88132592085E+02  0.24041503255E+02  0.47568386678E+03  0.48437639164E+03  0.00000000000E+00 0. -1.
<scales pt_clust_5="13000.00000" pt_clust_6="13000.00000" pt_clust_7="13000.00000" pt_clust_8="13000.00000" pt_clust_9="91.35287"></scales>
<clustering>
<clus scale="   81.234">  5  6 -1 -1</clus>
<clus scale="   90.650">  7  8 -1 -1</clus>
<clus scale="   91.353">  1  9  2 -1</clus>
<clus scale="  193.151">  2  5  1 -1</clus>
<clus scale="   91.353">  1  5  2 -1</clus>
</clustering>
</event>
<event>
 9    2  0.1592151E-004  0.1436815E+03  0.7546771E-02  0.1210732E+00
          2   -1    0    0  502    0 -0.00000000000E+00  0.00000000000E+00  0.91539963581E+03  0.91539963581E+03  0.00000000000E+00 0. -1.
         21   -1    0    0  501  502  0.00000000000E+00 -0.00000000000E+00 -0.38632522019E+02  0.38632522019E+02  0.00000000000E+00 0. -1.
         24    2    1    2    0    0 -0.13195003965E+02  0.12033043484E+03  0.50495131607E+03  0.52538367179E+03  0.79991557683E+02 0.  0.
         23    2    1    2    0    0 -0.34010224030E+02 -0.88527500612E+02  0.14936413634E+03  0.19903032076E+03  0.91157060366E+02 0.  0.
        -11    1    3    3    0    0  0.32987873648E+02  0.51583736418E+02  0.18405789740E+03  0.19397523364E+03  0.00000000000E+00 0.  1.
         12    1    3    3    0    0 -0.46182877613E+02  0.68746698423E+02  0.32089341867E+03  0.33140843814E+03  0.00000000000E+00 0. -1.
        -11    1    4    4    0    0 -0.62808686425E+02 -0.44150187510E+02  0.71615888290E+02  0.10499050244E+03  0.00000000000E+00 0.  1.
         11    1    4    4    0    0  0.28798462396E+02 -0.44377313102E+02  0.77748248051E+02  0.94039818320E+02  0.00000000000E+00 0. -1.
          1    1    1    2  501    0  0.47205227995E+02 -0.31802934229E+02  0.22245166138E+03  0.22961816528E+03  0.00000000000E+00 0. -1.
<scales pt_clust_5="13000.00000" pt_clust_6="13000.00000" pt_clust_7="13000.00000" pt_clust_8="13000.00000" pt_clust_9="56.91892"></scales>
<clustering>
<clus scale="   56.919">  2  9  1 -1</clus>
<clus scale="   79.992">  5  6 -1 -1</clus>
<clus scale="   91.157">  7  8 -1 -1</clus>
<clus scale="  136.870">  1  5  2 -1</clus>
<clus scale="   56.919">  2  5  1 -1</clus>
</clustering>
</event>
<event>
 9    2  0.1592151E-004  0.1285421E+03  0.7546771E-02  0.1232126E+00
         -1   -1    0    0    0  501 -0.00000000000E+00  0.00000000000E+00  0.33303660464E+03  0.33303660464E+03  0.00000000000E+00 0.  1.
         21   -1    0    0  501  502  0.00000000000E+00 -0.00000000000E+00 -0.81843555747E+02  0.81843555747E+02  0.00000000000E+00 0.  1.
         24    2    1    2    0    0 -0.78944776448E+02 -0.44795930985E+02  0.18775921868E+03  0.22269502505E+03  0.78106317414E+02 0.  0.
         23    2    1    2    0    0  0.67247188957E+02  0.82841759516E+02  0.64184069060E+02  0.15237456538E+03  0.87826373673E+02 0.  0.
        -13    1    3    3    0    0 -0.63369026706E+02 -0.43452369913E+02  0.19174026823E+03  0.20656251465E+03  0.00000000000E+00 0.  1.
         14    1    3    3    0    0 -0.15575749742E+02 -0.13435610719E+01 -0.39810495462E+01  0.16132510402E+02  0.00000000000E+00 0. -1.
        -13    1    4    4    0    0 -0.83204824386E+01  0.50869258119E+02  0.62337304478E+01  0.51920817067E+02  0.00000000000E+00 0.  1.
         13    1    4    4    0    0  0.75567671396E+02  0.31972501397E+02  0.57950338612E+02  0.10045374832E+03  0.00000000000E+00 0. -1.
         -2    1    1    2    0  502  0.11697587491E+02 -0.38045828531E+02 -0.75023885056E+00  0.39810569954E+02  0.00000000000E+00 0.  1.
<scales pt_clust_5="13000.00000" pt_clust_6="13000.00000" pt_clust_7="13000.00000" pt_clust_8="13000.00000" pt_clust_9="39.80350"></scales>
<clustering>
<clus scale="   39.804">  2  9  1 -1</clus>
<clus scale="   78.106">  5  6 -1 -1</clus>
<clus scale="   87.826">  7  8 -1 -1</clus>
<clus scale="  122.107">  1  5  2 -1</clus>
<clus scale="   39.804">  2  5  1 -1</clus>
</clustering>
</event>
<event>
 9    2  0.1592151E-004  0.2072921E+03  0.7546771E-02  0.1143728E+00
          2   -1    0    0  502    0 -0.00000000000E+00  0.00000000000E+00  0.12251073305E+04  0.12251073305E+04  0.00000000000E+00 0. -1.
         21   -1    0    0  501  502  0.00000000000E+00 -0.00000000000E+00 -0.20830306244E+02  0.20830306244E+02  0.00000000000E+00 0. -1.
         24    2    1    2    0    0 -0.55660647751E+02 -0.16954036406E+02  0.30749303460E+03  0.32365932325E+03  0.82570237607E+02 0.  0.
         23    2    1    2    0    0 -0.49853021934E+02  0.27789806933E+01  0.36969415348E+03  0.38454439966E+03  0.93314423639E+02 0.  0.
        -13    1    3    3    0    0 -0.33874951900E+02 -0.47867071906E+02  0.13700811811E+03  0.14903017603E+03  0.00000000000E+00 0.  1.
         14    1    3    3    0    0 -0.21785695852E+02  0.30913035500E+02  0.17048491649E+03  0.17462914721E+03  0.00000000000E+00 0. -1.
        -11    1    4    4    0    0  0.27708424695E+02  0.29288849087E+01  0.11328168226E+03  0.11665793887E+03  0.00000000000E+00 0.  1.
         11    1    4    4    0    0 -0.77561446629E+02 -0.14990421536E+00  0.25641247122E+03  0.26788646079E+03  0.00000000000E+00 0. -1.
          1    1    1    2  501    0  0.10551366969E+03  0.14175055712E+02  0.52708983618E+03  0.53773391384E+03  0.00000000000E+00 0. -1.
<scales pt_clust_5="13000.00000" pt_clust_6="13000.00000" pt_clust_7="13000.00000" pt_clust_8="13000.00000" pt_clust_9="106.46163"></scales>
<clustering>
<clus scale="   82.570">  5  6 -1 -1</clus>
<clus scale="   93.314">  7  8 -1 -1</clus>
<clus scale="   95.437">  5  7 -1 -1</clus>
<clus scale="  106.462">  2  9  1 -1</clus>
<clus scale="  106.462">  2  5  1 -1</clus>
</clustering>
</event>
<event>
 9    2  0.1733037E-004  0.1357853E+03  0.7546771E-02  0.1230391E+00
         21   -1    0    0  501  502  0.00000000000E+00  0.00000000000E+00  0.12877206555E+03  0.12877206555E+03  0.00000000000E+00 0. -1.
          2   -1    0    0  502    0 -0.00000000000E+00 -0.00000000000E+00 -0.11651702594E+04  0.11651702594E+04  0.00000000000E+00 0. -1.
         24    2    1    2    0    0 -0.44659049651E+02 -0.54663048027E+02 -0.10356047149E+04  0.10411549387E+04  0.80895002253E+02 0.  0.
         23    2    1    2    0    0 -0.69681895282E+02  0.29888281046E+02 -0.46110047637E+02  0.12732331903E+03  0.91302876197E+02 0.  0.
        -11    1    3    3    0    0  0.10692703380E+02 -0.37021957602E+02 -0.20982593151E+03  0.21333513725E+03  0.00000000000E+00 0.  1.
         12    1    3    3    0    0 -0.55351753031E+02 -0.17641090425E+02 -0.82577878336E+03  0.82781980146E+03  0.00000000000E+00 0. -1.
        -11    1    4    4    0    0 -0.83837564944E+02  0.54605414964E+01 -0.51552157892E+02  0.98570684245E+02  0.00000000000E+00 0. -1.
         11    1    4    4    0    0  0.14155669662E+02  0.24427739549E+02  0.54421102546E+01  0.28752634785E+02  0.00000000000E+00 0.  1.
          1    1    1    2  501    0  0.11434094493E+03  0.24774766982E+02  0.45316568656E+02  0.12546406721E+03  0.00000000000E+00 0. -1.
<scales pt_clust_5="13000.00000" pt_clust_6="13000.00000" pt_clust_7="13000.00000" pt_clust_8="13000.00000" pt_clust_9="100.50594"></scales>
<clustering>
<clus scale="   80.895">  5  6 -1 -1</clus>
<clus scale="   91.303">  7  8 -1 -1</clus>
<clus scale="  107.361">  2  5  1 -1</clus>
<clus scale="  100.506">  1  9  2 -1</clus>
<clus scale="  100.506">  1  5  2 -1</clus>
</clustering>
</event>
<event>
 9    2  0.1592151E-004  0.1526870E+03  0.7546771E-02  0.1225263E+00
         21   -1    0    0  501  502  0.00000000000E+00  0.00000000000E+00  0.69530867061E+02  0.69530867061E+02  0.00000000000E+00 0. -1.
          4   -1    0    0  502    0 -0.00000000000E+00 -0.00000000000E+00 -0.54228349205E+03  0.54228349205E+03  0.00000000000E+00 0. -1.
         24    2    1    2    0    0 -0.24970131505E+02  0.48650732438E+01 -0.28769377934E+02  0.88766511802E+02  0.80028995407E+02 0.  0.
         23    2    1    2    0    0 -0.10220955452E+03 -0.40744497713E+02 -0.25765932691E+03  0.29462147217E+03  0.91140419096E+02 0.  0.
        -13    1    3    3    0    0 -0.84203617923E+00 -0.21435502300E+02 -0.44776368566E+02  0.49649903986E+02  0.00000000000E+00 0.  1.
         14    1    3    3    0    0 -0.24128095326E+02  0.26300575544E+02  0.16006990632E+02  0.39116607817E+02  0.00000000000E+00 0. -1.
        -13    1    4    4    0    0 -0.47634007693E+02 -0.65487346229E+02 -0.12341526378E+03  0.14761069927E+03  0.00000000000E+00 0. -1.
         13    1    4    4    0    0 -0.54575546831E+02  0.24742848516E+02 -0.13424406312E+03  0.14701077290E+03  0.00000000000E+00 0.  1.
          3    1    1    2  501    0  0.12717968603E+03  0.35879424469E+02 -0.18632392015E+03  0.22842637514E+03  0.00000000000E+00 0. -1.
<scales pt_clust_5="13000.00000" pt_clust_6="13000.00000" pt_clust_7="13000.00000" pt_clust_8="13000.00000" pt_clust_9="122.50198"></scales>
<clustering>
<clus scale="   80.029">  5  6 -1 -1</clus>
<clus scale="   83.975">  2  5  1 -1</clus>
<clus scale="   91.140">  7  8 -1 -1</clus>
<clus scale="  122.502">  1  9  2 -1</clus>
<clus scale="  122.502">  1  5  2 -1</clus>
</clustering>
</event>
<event>
 9    2  0.1592151E-004  0.2508595E+03  0.7546771E-02  0.1146691E+00
         21   -1    0    0  501  502  0.00000000000E+00  0.00000000000E+00  0.85378150078E+02  0.85378150078E+02  0.00000000000E+00 0. -1.
          2   -1    0    0  502    0 -0.00000000000E+00 -0.00000000000E+00 -0.15650625445E+04  0.15650625445E+04  0.00000000000E+00 0. -1.
         24    2    1    2    0    0  0.61723492762E+02 -0.41431230387E+02 -0.21333711707E+03  0.23955451064E+03  0.79669954401E+02 0.  0.
         23    2    1    2    0    0  0.68964098395E+02 -0.16891608867E+03 -0.10857549689E+04  0.11043917746E+04  0.86767778420E+02 0.  0.
        -11    1    3    3    0    0 -0.12820158919E+02 -0.30078378573E+02 -0.79063623758E+02  0.85557711132E+02  0.00000000000E+00 0.  1.
         12    1    3    3    0    0  0.74543651681E+02 -0.11352851814E+02 -0.13427349332E+03  0.15399679950E+03  0.00000000000E+00 0. -1.
        -11    1    4    4    0    0 -0.18068710539E+02 -0.16511533409E+02 -0.89037034355E+02  0.92340145781E+02  0.00000000000E+00 0.  1.
         11    1    4    4    0    0  0.87032808934E+02 -0.15240455526E+03 -0.99671793452E+03  0.10120516288E+04  0.00000000000E+00 0. -1.
          1    1    1    2  501    0 -0.13068759116E+03  0.21034731906E+03 -0.18059230850E+03  0.30649440942E+03  0.00000000000E+00 0. -1.
<scales pt_clust_5="13000.00000" pt_clust_6="13000.00000" pt_clust_7="13000.00000" pt_clust_8="13000.00000" pt_clust_9="235.37598"></scales>
<clustering>
<clus scale="   79.670">  5  6 -1 -1</clus>
<clus scale="   86.768">  7  8 -1 -1</clus>
<clus scale="  108.966">  2  5  1 -1</clus>
<clus scale="  235.376">  1  9  2 -1</clus>
<clus scale="  235.376">  1  5  2 -1</clus>
</clustering>
</event>
<event>
 9    2  0.1592151E-004  0.1099037E+03  0.7546771E-02  0.1265601E+00
          2   -1    0    0  502    0 -0.00000000000E+00  0.00000000000E+00  0.95294538939E+03  0.95294538939E+03  0.00000000000E+00 0. -1.
         21   -1    0    0  501  502  0.00000000000E+00 -0.00000000000E+00 -0.77271453752E+02  0.77271453752E+02  0.00000000000E+00 0. -1.
         24    2    1    2    0    0  0.59945356941E+02 -0.30816845583E+02  0.80605254863E+03  0.81286397081E+03  0.80523289113E+02 0.  0.
         23    2    1    2    0    0 -0.18415647632E+02 -0.42562111193E+02  0.82063059011E+02  0.13212386755E+03  0.92583483061E+02 0.  0.
        -13    1    3    3    0    0  0.43852321866E+02  0.18342869769E+02  0.25528420957E+03  0.25967193661E+03  0.00000000000E+00 0.  1.
         14    1    3    3    0    0  0.16093035075E+02 -0.49159715352E+02  0.55076833906E+03  0.55319203420E+03  0.00000000000E+00 0. -1.
        -13    1    4    4    0    0 -0.49605457340E+02 -0.44831590213E+02  0.74194420071E+02  0.99876848411E+02  0.00000000000E+00 0.  1.
         13    1    4    4    0    0  0.31189809708E+02  0.22694790201E+01  0.78686389404E+01  0.32247019140E+02  0.00000000000E+00 0. -1.
          1    1    1    2  501    0 -0.41529709310E+02  0.73378956776E+02 -0.12441672011E+02  0.85229004777E+02  0.00000000000E+00 0. -1.
<scales pt_clust_5="13000.00000" pt_clust_6="13000.00000" pt_clust_7="13000.00000" pt_clust_8="13000.00000" pt_clust_9="84.31600"></scales>
<clustering>
<clus scale="   80.523">  5  6 -1 -1</clus>
<clus scale="   84.316">  2  9  1 -1</clus>
<clus scale="   92.583">  7  8 -1 -1</clus>
<clus scale="   99.956">  1  5  2 -1</clus>
<clus scale="   84.316">  2  5  1 -1</clus>
</clustering>
</event>
<event>
 9    2  0.1592151E-004  0.1283974E+03  0.7546771E-02  0.1232389E+00
          4   -1    0    0  502    0 -0.00000000000E+00  0.00000000000E+00  0.23016161443E+03  0.23016161443E+03  0.00000000000E+00 0. -1.
         21   -1    0    0  501  502  0.00000000000E+00 -0.00000000000E+00 -0.19752301371E+03  0.19752301371E+03  0.00000000000E+00 0. -1.
         24    2    1    2    0    0  0.79267368331E+02  0.38353261694E+02  0.14998904627E+03  0.19122657512E+03  0.79477044894E+02 0.  0.
         23    2    1    2    0    0 -0.10370293744E+03 -0.39674945802E+02 -0.29725504644E+02  0.14548017573E+03  0.89176652472E+02 0.  0.
        -11    1    3    3    0    0  0.38265554326E+02  0.49193754855E+02  0.41857737969E+02  0.75075617830E+02  0.00000000000E+00 0.  1.
         12    1    3    3    0    0  0.41001814005E+02 -0.10840493161E+02  0.10813130830E+03  0.11615095729E+03  0.00000000000E+00 0. -1.
        -11    1    4    4    0    0 -0.75468851937E+02 -0.18676167868E+02 -0.60674506311E+02  0.98619179549E+02  0.00000000000E+00 0.  1.
         11    1    4    4    0    0 -0.28234085503E+02 -0.20998777934E+02  0.30949001667E+02  0.46860996181E+02  0.00000000000E+00 0. -1.
          3    1    1    2  501    0  0.24435569109E+02  0.13216841083E+01 -0.87624940910E+02  0.90977877289E+02  0.00000000000E+00 0. -1.
<scales pt_clust_5="13000.00000" pt_clust_6="13000.00000" pt_clust_7="13000.00000" pt_clust_8="13000.00000" pt_clust_9="24.47129"></scales>
<clustering>
<clus scale="   24.471">  2  9  1 -1</clus>
<clus scale="   79.477">  5  6 -1 -1</clus>
<clus scale="   89.177">  7  8 -1 -1</clus>
<clus scale="  121.861">  1  5  2 -1</clus>
<clus scale="   24.471">  2  5  1 -1</clus>
</clustering>
</event>
<event>
 9    2  0.1592151E-004  0.1902311E+03  0.7546771E-02  0.1170977E+00
         21   -1    0    0  501  502  0.00000000000E+00  0.00000000000E+00  0.54579466441E+02  0.54579466441E+02  0.00000000000E+00 0. -1.
          2   -1    0    0  502    0 -0.00000000000E+00 -0.00000000000E+00 -0.12533947545E+04  0.12533947545E+04  0.00000000000E+00 0. -1.
         23    2    1    2    0    0  0.30531712246E+02 -0.10305151544E+03 -0.32570557891E+03  0.35523540816E+03  0.92500112402E+02 0.  0.
         24    2    1    2    0    0  0.13615308543E+03 -0.16598542167E+02 -0.52636827019E+03  0.54983735640E+03  0.80276947858E+02 0.  0.
        -11    1    4    4    0    0  0.31546872726E+02 -0.48671302532E+01 -0.35205639561E+02  0.47521902240E+02  0.00000000000E+00 0.  1.
         12    1    4    4    0    0  0.10460621270E+03 -0.11731411914E+02 -0.49116263063E+03  0.50231545416E+03  0.00000000000E+00 0. -1.
        -11    1    3    3    0    0 -0.20977053352E+02  0.33291812049E+01 -0.29774129937E+02  0.36573474382E+02  0.00000000000E+00 0.  1.
         11    1    3    3    0    0  0.51508765597E+02 -0.10638069664E+03 -0.29593144897E+03  0.31866193378E+03  0.00000000000E+00 0. -1.
          1    1    1    2  501    0 -0.16668479767E+03  0.11965005760E+03 -0.34674143896E+03  0.40290145638E+03  0.00000000000E+00 0. -1.
<scales pt_clust_5="13000.00000" pt_clust_6="13000.00000" pt_clust_7="13000.00000" pt_clust_8="13000.00000" pt_clust_9="172.46299"></scales>
<clustering>
<clus scale="   80.277">  5  6 -1 -1</clus>
<clus scale="   92.500">  7  8 -1 -1</clus>
<clus scale="  141.803">  2  7  1 -1</clus>
<clus scale="  172.463">  1  9  2 -1</clus>
<clus scale="  172.463">  1  5  2 -1</clus>
</clustering>
</event>
<event>
 9    2  0.1592151E-004  0.9925715E+02  0.7546771E-02  0.1284963E+00
         21   -1    0    0  501  502  0.00000000000E+00  0.00000000000E+00  0.58796185610E+02  0.58796185610E+02  0.00000000000E+00 0. -1.
          2   -1    0    0  502    0 -0.00000000000E+00 -0.00000000000E+00 -0.93919234582E+03  0.93919234582E+03  0.00000000000E+00 0. -1.
         24    2    1    2    0    0  0.48132008766E+02 -0.19400788515E+02 -0.80289303336E+03  0.80868613631E+03  0.81504375239E+02 0.  0.
         23    2    1    2    0    0 -0.16917247544E+02 -0.10583454379E+02 -0.10470423238E+03  0.13818178986E+03  0.87937637002E+02 0.  0.
        -11    1    3    3    0    0  0.60908993579E+02 -0.71191706045E+01 -0.34213050877E+03  0.34758290108E+03  0.00000000000E+00 0.  1.
         12    1    3    3    0    0 -0.12776984812E+02 -0.12281617910E+02 -0.46076252459E+03  0.46110323524E+03  0.00000000000E+00 0. -1.
        -13    1    4    4    0    0 -0.22036354419E+01 -0.31800778217E+02 -0.16254687401E+01  0.31918453173E+02  0.00000000000E+00 0. -1.
         13    1    4    4    0    0 -0.14713612102E+02  0.21217323838E+02 -0.10307876364E+03  0.10626333669E+03  0.00000000000E+00 0.  1.
          1    1    1    2  501    0 -0.31214761222E+02  0.29984242894E+02  0.27201105523E+02  0.51120605256E+02  0.00000000000E+00 0. -1.
<scales pt_clust_5="13000.00000" pt_clust_6="13000.00000" pt_clust_7="13000.00000" pt_clust_8="13000.00000" pt_clust_9="43.28298"></scales>
<clustering>
<clus scale="   43.283">  1  9  2 -1</clus>
<clus scale="   81.504">  5  6 -1 -1</clus>
<clus scale="   87.938">  7  8 -1 -1</clus>
<clus scale="   93.605">  2  5  1 -1</clus>
<clus scale="   43.283">  1  5  2 -1</clus>
</clustering>
</event>
<event>
 9    2  0.1592151E-004  0.1593245E+03  0.7546771E-02  0.1213975E+00
          2   -1    0    0  502    0 -0.00000000000E+00  0.00000000000E+00  0.59945645019E+03  0.59945645019E+03  0.00000000000E+00 0. -1.
         21   -1    0    0  501  502  0.00000000000E+00 -0.00000000000E+00 -0.10076227635E+03  0.10076227635E+03  0.00000000000E+00 0.  1.
         24    2    1    2    0    0  0.96325697962E+01  0.46525190418E+02  0.29859928173E+03  0.31295361421E+03  0.80753042368E+02 0.  0.
         23    2    1    2    0    0 -0.99401735626E+02  0.50696071944E+02  0.20761673693E+03  0.25472434450E+03  0.96586673355E+02 0.  0.
        -13    1    3    3    0    0 -0.17948299114E+02  0.60214063593E+02  0.20600623387E+03  0.21537512226E+03  0.00000000000E+00 0.  1.
         14    1    3    3    0    0  0.27580868911E+02 -0.13688873175E+02  0.92593047861E+02  0.97578491948E+02  0.00000000000E+00 0. -1.
        -11    1    4    4    0    0 -0.37401902461E+02 -0.28484554254E+02  0.66027369740E+02  0.81054831402E+02  0.00000000000E+00 0.  1.
         11    1    4    4    0    0 -0.61999833165E+02  0.79180626198E+02  0.14158936719E+03  0.17366951310E+03  0.00000000000E+00 0. -1.
          1    1    1    2  501    0  0.89769165830E+02 -0.97221262362E+02 -0.75218448238E+01  0.13254076784E+03  0.00000000000E+00 0. -1.
<scales pt_clust_5="13000.00000" pt_clust_6="13000.00000" pt_clust_7="13000.00000" pt_clust_8="13000.00000" pt_clust_9="126.70958"></scales>
<clustering>
<clus scale="   80.753">  5  6 -1 -1</clus>
<clus scale="   93.693">  1  5  2 -1</clus>
<clus scale="   96.587">  7  8 -1 -1</clus>
<clus scale="  126.710">  2  9  1 -1</clus>
<clus scale="  126.710">  2  5  1 -1</clus>
</clustering>
</event>
<event>
 9    2  0.1592151E-004  0.1157812E+03  0.7546771E-02  0.1253639E+00
         21   -1    0    0  501  502  0.00000000000E+00  0.00000000000E+00  0.45959036790E+03  0.45959036790E+03  0.00000000000E+00 0. -1.
          2   -1    0    0  502    0 -0.00000000000E+00 -0.00000000000E+00 -0.59625568386E+02  0.59625568386E+02  0.00000000000E+00 0. -1.
         24    2    1    2    0    0  0.44133236514E+02  0.44014334704E+02  0.55976427832E+02  0.11506730834E+03  0.78880420586E+02 0.  0.
         23    2    1    2    0    0 -0.10970201010E+03 -0.37650278650E+02  0.23272600369E+03  0.27484634718E+03  0.89033966904E+02 0.  0.
        -11    1    3    3    0    0 -0.19166855031E+02  0.30156520769E+02  0.20310981914E+02  0.41101338944E+02  0.00000000000E+00 0.  1.
         12    1    3    3    0    0  0.63300091545E+02  0.13857813935E+02  0.35665445918E+02  0.73965969399E+02  0.00000000000E+00 0. -1.
        -13    1    4    4    0    0 -0.10854114532E+03 -0.31723702753E+01  0.14967685520E+03  0.18491729271E+03  0.00000000000E+00 0. -1.
         13    1    4    4    0    0 -0.11608647799E+01 -0.34477908375E+02  0.83049148498E+02  0.89929054477E+02  0.00000000000E+00 0.  1.
          1    1    1    2  501    0  0.65568773588E+02 -0.63640560541E+01  0.11126236799E+03  0.12930228076E+03  0.00000000000E+00 0. -1.
<scales pt_clust_5="13000.00000" pt_clust_6="13000.00000" pt_clust_7="13000.00000" pt_clust_8="13000.00000" pt_clust_9="65.87689"></scales>
<clustering>
<clus scale="   65.877">  1  9  2 -1</clus>
<clus scale="   78.880">  5  6 -1 -1</clus>
<clus scale="   89.034">  7  8 -1 -1</clus>
<clus scale="  108.168">  2  5  1 -1</clus>
<clus scale="   65.877">  1  5  2 -1</clus>
</clustering>
</event>
<event>
 9    2  0.1592151E-004  0.1306210E+03  0.7546771E-02  0.1229957E+00
         21   -1    0    0  501  502  0.00000000000E+00  0.00000000000E+00  0.21436969506E+03  0.21436969506E+03  0.00000000000E+00 0.  1.
         -1   -1    0    0    0  501 -0.00000000000E+00 -0.00000000000E+00 -0.17938033344E+03  0.17938033344E+03  0.00000000000E+00 0.  1.
         24    2    1    2    0    0 -0.10203954407E+03  0.22887878205E+02  0.36020224162E+02  0.13629705991E+03  0.79646145343E+02 0.  0.
         23    2    1    2    0    0  0.51997861597E+02 -0.73079008375E+02  0.78433740821E+02  0.15097319248E+03  0.92718574587E+02 0.  0.
        -11    1    3    3    0    0 -0.45669549802E+02  0.41992496015E+02 -0.76002450392E+01  0.62504729623E+02  0.00000000000E+00 0.  1.
         12    1    3    3    0    0 -0.56369994273E+02 -0.19104617809E+02  0.43620469202E+02  0.73792330288E+02  0.00000000000E+00 0. -1.
        -11    1    4    4    0    0  0.79089960235E+02 -0.53389746048E+02  0.55622431971E+02  0.11045153567E+03  0.00000000000E+00 0.  1.
         11    1    4    4    0    0 -0.27092098638E+02 -0.19689262327E+02  0.22811308850E+02  0.40521656815E+02  0.00000000000E+00 0. -1.
         -2    1    1    2    0  502  0.50041682477E+02  0.50191130170E+02 -0.79464603366E+02  0.10647977611E+03  0.00000000000E+00 0.  1.
<scales pt_clust_5="13000.00000" pt_clust_6="13000.00000" pt_clust_7="13000.00000" pt_clust_8="13000.00000" pt_clust_9="70.87542"></scales>
<clustering>
<clus scale="   70.875">  1  9  2 -1</clus>
<clus scale="   79.646">  5  6 -1 -1</clus>
<clus scale="   92.719">  7  8 -1 -1</clus>
<clus scale="  121.691">  2  5  1 -1</clus>
<clus scale="   70.875">  1  5  2 -1</clus>
</clustering>
</event>
<event>
 9    2  0.1592151E-004  0.1021148E+03  0.7546771E-02  0.1286547E+00
          2   -1    0    0  502    0 -0.00000000000E+00  0.00000000000E+00  0.47653519829E+03  0.47653519829E+03  0.00000000000E+00 0. -1.
         21   -1    0    0  501  502  0.00000000000E+00 -0.00000000000E+00 -0.37348787637E+02  0.37348787637E+02  0.00000000000E+00 0.  1.
         24    2    1    2    0    0 -0.48367383047E+01 -0.51334422024E+00  0.25446768861E+03  0.26782920314E+03  0.83396762240E+02 0.  0.
         23    2    1    2    0    0 -0.16501389157E+02 -0.15099618840E+02  0.64155194263E+02  0.12262608057E+03  0.10208316390E+03 0.  0.
        -11    1    3    3    0    0 -0.27391506555E+02  0.29568784022E+02  0.82761579106E+02  0.92054802134E+02  0.00000000000E+00 0.  1.
         12    1    3    3    0    0  0.22554768250E+02 -0.30082128242E+02  0.17170610950E+03  0.17577440101E+03  0.00000000000E+00 0. -1.
        -11    1    4    4    0    0 -0.43101009228E+02 -0.10577434349E+02  0.79891938027E+02  0.91390923376E+02  0.00000000000E+00 0. -1.
         11    1    4    4    0    0  0.26599620071E+02 -0.45221844912E+01 -0.15736743764E+02  0.31235157192E+02  0.00000000000E+00 0.  1.
          1    1    1    2  501    0  0.21338127462E+02  0.15612963060E+02  0.12056352778E+03  0.12342870221E+03  0.00000000000E+00 0. -1.
<scales pt_clust_5="13000.00000" pt_clust_6="13000.00000" pt_clust_7="13000.00000" pt_clust_8="13000.00000" pt_clust_9="26.44014"></scales>
<clustering>
<clus scale="   26.440">  2  9  1 -1</clus>
<clus scale="   83.397">  5  6 -1 -1</clus>
<clus scale="   83.436">  1  5  2 -1</clus>
<clus scale="  102.083">  7  8 -1 -1</clus>
<clus scale="   26.440">  2  5  1 -1</clus>
</clustering>
</event>
<event>
 9    2  0.1592151E-004  0.1474990E+03  0.7546771E-02  0.1205347E+00
          2   -1    0    0  502    0 -0.00000000000E+00  0.00000000000E+00  0.16994719235E+03  0.16994719235E+03  0.00000000000E+00 0. -1.
         21   -1    0    0  501  502  0.00000000000E+00 -0.00000000000E+00 -0.60890466564E+03  0.60890466564E+03  0.00000000000E+00 0. -1.
         24    2    1    2    0    0 -0.48248246543E+02  0.11502675745E+03  0.11737090047E+03  0.18984029369E+03  0.81880160036E+02 0.  0.
         23    2    1    2    0    0  0.26240981801E+02 -0.56049962641E+02 -0.21121767219E+03  0.23820680611E+03  0.91100987881E+02 0.  0.
        -13    1    3    3    0    0 -0.41156353683E+02  0.70800912048E+02  0.22501800505E+02  0.84929062289E+02  0.00000000000E+00 0.  1.
         14    1    3    3    0    0 -0.70918928602E+01  0.44225845403E+02  0.94869099969E+02  0.10491123141E+03  0.00000000000E+00 0. -1.
        -11    1    4    4    0    0  0.17431302515E+02  0.21250683688E+02 -0.28396463594E+02  0.39519628151E+02  0.00000000000E+00 0.  1.
         11    1    4    4    0    0  0.88096792860E+01 -0.77300646329E+02 -0.18282120860E+03  0.19868717796E+03  0.00000000000E+00 0. -1.
          1    1    1    2  501    0  0.22007264742E+02 -0.58976794809E+02 -0.34511070157E+03  0.35080475819E+03  0.00000000000E+00 0. -1.
<scales pt_clust_5="13000.00000" pt_clust_6="13000.00000" pt_clust_7="13000.00000" pt_clust_8="13000.00000" pt_clust_9="62.94904"></scales>
<clustering>
<clus scale="   62.949">  2  9  1 -1</clus>
<clus scale="   81.880">  5  6 -1 -1</clus>
<clus scale="   91.101">  7  8 -1 -1</clus>
<clus scale="  141.989">  1  5  2 -1</clus>
<clus scale="   62.949">  2  5  1 -1</clus>
</clustering>
</event>
<event>
 9    2  0.1592151E-004  0.1550723E+03  0.7546771E-02  0.1196296E+00
         21   -1    0    0  501  502  0.00000000000E+00  0.00000000000E+00  0.88909506777E+03  0.88909506777E+03  0.00000000000E+00 0.  1.
         -3   -1    0    0    0  501 -0.00000000000E+00 -0.00000000000E+00 -0.43120665344E+02  0.43120665344E+02  0.00000000000E+00 0.  1.
         23    2    1    2    0    0  0.12772509845E+03 -0.14553794147E+02  0.16651534546E+03  0.22952570146E+03  0.91810531304E+02 0.  0.
         24    2    1    2    0    0 -0.10987558134E+03  0.32256509707E+02  0.64508736021E+03  0.66010593911E+03  0.80554470767E+02 0.  0.
        -13    1    4    4    0    0 -0.86122555308E+02  0.58769047214E+02  0.46737204189E+03  0.47886064882E+03  0.00000000000E+00 0.  1.
         14    1    4    4    0    0 -0.23753026028E+02 -0.26512537507E+02  0.17771531832E+03  0.18124529030E+03  0.00000000000E+00 0. -1.
        -13    1    3    3    0    0  0.65931195378E+01  0.24886346911E+02  0.97576626030E+01  0.27532008050E+02  0.00000000000E+00 0. -1.
         13    1    3    3    0    0  0.12113197891E+03 -0.39440141058E+02  0.15675768286E+03  0.20199369341E+03  0.00000000000E+00 0.  1.
         -4    1    1    2    0  502 -0.17849517117E+02 -0.17702715560E+02  0.34371696753E+02  0.42584092536E+02  0.00000000000E+00 0.  1.
<scales pt_clust_5="13000.00000" pt_clust_6="13000.00000" pt_clust_7="13000.00000" pt_clust_8="13000.00000" pt_clust_9="25.13945"></scales>
<clustering>
<clus scale="   25.139">  1  9  2 -1</clus>
<clus scale="   80.554">  5  6 -1 -1</clus>
<clus scale="   91.811">  7  8 -1 -1</clus>
<clus scale="  148.685">  1  5  2 -1</clus>
<clus scale="   25.139">  1  5  2 -1</clus>
</clustering>
</event>
<event>
 9    2  0.1592151E-004  0.2323296E+03  0.7546771E-02  0.1125670E+00
          2   -1    0    0  502    0 -0.00000000000E+00  0.00000000000E+00  0.15973099220E+04  0.15973099220E+04  0.00000000000E+00 0. -1.
         21   -1    0    0  501  502  0.00000000000E+00 -0.00000000000E+00 -0.71644342927E+02  0.71644342927E+02  0.00000000000E+00 0. -1.
         23    2    1    2    0    0  0.15606681396E+03  0.97499656699E+02  0.79027521974E+03  0.81643372047E+03  0.90366274161E+02 0.  0.
         24    2    1    2    0    0 -0.24655498434E+03 -0.15290630874E+03  0.65004673137E+03  0.71635321762E+03  0.80196507904E+02 0.  0.
        -11    1    4    4    0    0 -0.70907865711E+02 -0.46157041608E+01  0.14708248103E+03  0.16334774676E+03  0.00000000000E+00 0.  1.
         12    1    4    4    0    0 -0.17564711863E+03 -0.14829060458E+03  0.50296425034E+03  0.55300547086E+03  0.00000000000E+00 0. -1.
        -11    1    3    3    0    0  0.28786079802E+02  0.13586493091E+02  0.41530148360E+02  0.52325752815E+02  0.00000000000E+00 0.  1.
         11    1    3    3    0    0  0.12728073416E+03  0.83913163608E+02  0.74874507138E+03  0.76410796765E+03  0.00000000000E+00 0. -1.
          1    1    1    2  501    0  0.90488170375E+02  0.55406652037E+02  0.85343628003E+02  0.13616732688E+03  0.00000000000E+00 0. -1.
<scales pt_clust_5="13000.00000" pt_clust_6="13000.00000" pt_clust_7="13000.00000" pt_clust_8="13000.00000" pt_clust_9="106.10375"></scales>
<clustering>
<clus scale="   80.197">  5  6 -1 -1</clus>
<clus scale="   90.366">  7  8 -1 -1</clus>
<clus scale="  106.104">  2  9  1 -1</clus>
<clus scale="  228.566">  2  5  1 -1</clus>
<clus scale="  106.104">  2  5  1 -1</clus>
</clustering>
</event>
<event>
 9    2  0.1894754E-004  0.1261512E+03  0.7546771E-02  0.1241721E+00
         21   -1    0    0  501  502  0.00000000000E+00  0.00000000000E+00  0.64654340382E+03  0.64654340382E+03  0.00000000000E+00 0.  1.
         -1   -1    0    0    0  501 -0.00000000000E+00 -0.00000000000E+00 -0.33572941697E+03  0.33572941697E+03  0.00000000000E+00 0.  1.
         23    2    1    2    0    0 -0.47593164690E+02 -0.30976392393E+02 -0.19166701633E+03  0.21912410965E+03  0.89746777495E+02 0.  0.
         24    2    1    2    0    0 -0.67622727811E+02 -0.67819644819E+02  0.57973553382E+03  0.59284421513E+03  0.78731421298E+02 0.  0.
        -13    1    4    4    0    0 -0.50083506420E+02 -0.80451040598E+02  0.53291469129E+03  0.54127515714E+03  0.00000000000E+00 0.  1.
         14    1    4    4    0    0 -0.17539221392E+02  0.12631395779E+02  0.46820842532E+02  0.51569057988E+02  0.00000000000E+00 0. -1.
        -11    1    3    3    0    0 -0.55532942244E+02  0.16605677742E+02 -0.10419633454E+03  0.11923310085E+03  0.00000000000E+00 0.  1.
         11    1    3    3    0    0  0.79397775538E+01 -0.47582070135E+02 -0.87470681795E+02  0.99891008803E+02  0.00000000000E+00 0. -1.
         -2    1    1    2    0  502  0.11521589250E+03  0.98796037212E+02 -0.77254530640E+02  0.17030449600E+03  0.00000000000E+00 0.  1.
<scales pt_clust_5="13000.00000" pt_clust_6="13000.00000" pt_clust_7="13000.00000" pt_clust_8="13000.00000" pt_clust_9="98.56721"></scales>
<clustering>
<clus scale="   78.731">  5  6 -1 -1</clus>
<clus scale="   89.747">  7  8 -1 -1</clus>
<clus scale="  106.203">  2  7  1 -1</clus>
<clus scale="   98.567">  1  9  2 -1</clus>
<clus scale="   98.567">  1  5  2 -1</clus>
</clustering>
</event>
<event>
 9    2  0.1592151E-004  0.1074186E+03  0.7546771E-02  0.1270048E+00
          2   -1    0    0  502    0 -0.00000000000E+00  0.00000000000E+00  0.91312476913E+02  0.91312476913E+02  0.00000000000E+00 0. -1.
         21   -1    0    0  501  502  0.00000000000E+00 -0.00000000000E+00 -0.19778055857E+03  0.19778055857E+03  0.00000000000E+00 0.  1.
         23    2    1    2    0    0 -0.62184497600E+02 -0.24211052228E+02 -0.47374787468E+02  0.12263954603E+03  0.91340029395E+02 0.  0.
         24    2    1    2    0    0  0.45044413919E+02  0.25775968565E+01 -0.87360304890E+02  0.12694636663E+03  0.80298903474E+02 0.  0.
        -13    1    4    4    0    0  0.31139001909E+02  0.29968940873E+02 -0.85939795203E+02  0.96194715325E+02  0.00000000000E+00 0.  1.
         14    1    4    4    0    0  0.13905412010E+02 -0.27391344017E+02 -0.14205096877E+01  0.30751651305E+02  0.00000000000E+00 0. -1.
        -11    1    3    3    0    0 -0.62634955662E+02  0.21607087993E+02 -0.19758957015E+02  0.69140583630E+02  0.00000000000E+00 0.  1.
         11    1    3    3    0    0  0.45045806282E+00 -0.45818140221E+02 -0.27615830453E+02  0.53498962395E+02  0.00000000000E+00 0. -1.
          1    1    1    2  501    0  0.17140083681E+02  0.21633455372E+02  0.28267010704E+02  0.39507122827E+02  0.00000000000E+00 0. -1.
<scales pt_clust_5="13000.00000" pt_clust_6="13000.00000" pt_clust_7="13000.00000" pt_clust_8="13000.00000" pt_clust_9="27.60054"></scales>
<clustering>
<clus scale="   27.601">  2  9  1 -1</clus>
<clus scale="   80.299">  5  6 -1 -1</clus>
<clus scale="   91.340">  7  8 -1 -1</clus>
<clus scale="   98.202">  2  5  1 -1</clus>
<clus scale="   27.601">  2  5  1 -1</clus>
</clustering>
</event>
<event>
 9    2  0.1592151E-004  0.1153476E+03  0.7546771E-02  0.1255649E+00
          4   -1    0    0  502    0 -0.00000000000E+00  0.00000000000E+00  0.23355903247E+02  0.23355903247E+02  0.00000000000E+00 0. -1.
         21   -1    0    0  501  502  0.00000000000E+00 -0.00000000000E+00 -0.96564484987E+03  0.96564484987E+03  0.00000000000E+00 0. -1.
         23    2    1    2    0    0  0.46599976022E+02  0.40479008036E+02 -0.25859376665E+03  0.28074874569E+03  0.90216485180E+02 0.  0.
         24    2    1    2    0    0 -0.53670587218E+02 -0.81478994689E+02 -0.61910110793E+03  0.63141850828E+03  0.76705881467E+02 0.  0.
        -13    1    4    4    0    0 -0.52824566684E+02 -0.23800462919E+02 -0.19540574530E+03  0.20381438167E+03  0.00000000000E+00 0.  1.
         14    1    4    4    0    0 -0.84602053384E+00 -0.57678531769E+02 -0.42369536263E+03  0.42760412660E+03  0.00000000000E+00 0. -1.
        -13    1    3    3    0    0 -0.91225617389E+01 -0.22848239137E+02 -0.49355303705E+02  0.55147159203E+02  0.00000000000E+00 0.  1.
         13    1    3    3    0    0  0.55722537761E+02  0.63327247173E+02 -0.20923846295E+03  0.22560158649E+03  0.00000000000E+00 0. -1.
          3    1    1    2  501    0  0.70706111960E+01  0.40999986653E+02 -0.64594072041E+02  0.76833499147E+02  0.00000000000E+00 0. -1.
<scales pt_clust_5="13000.00000" pt_clust_6="13000.00000" pt_clust_7="13000.00000" pt_clust_8="13000.00000" pt_clust_9="41.60522"></scales>
<clustering>
<clus scale="   41.605">  2  9  1 -1</clus>
<clus scale="   76.706">  5  6 -1 -1</clus>
<clus scale="   90.216">  7  8 -1 -1</clus>
<clus scale="  105.118">  2  5  1 -1</clus>
<clus scale="   41.605">  2  5  1 -1</clus>
</clustering>
</event>
<event>
 9    2  0.1592151E-004  0.2406489E+03  0.7546771E-02  0.1150542E+00
          2   -1    0    0  502    0 -0.00000000000E+00  0.00000000000E+00  0.27390775238E+03  0.27390775238E+03  0.00000000000E+00 0. -1.
         21   -1    0    0  501  502  0.00000000000E+00 -0.00000000000E+00 -0.57528652694E+03  0.57528652694E+03  0.00000000000E+00 0. -1.
         23    2    1    2    0    0 -0.31105708637E+02 -0.58846492172E+02  0.19379584719E+02  0.11429899025E+03  0.90874727603E+02 0.  0.
         24    2    1    2    0    0  0.29024830370E+02  0.27756789568E+03  0.59421773334E+02  0.29628348390E+03  0.79790840279E+02 0.  0.
        -11    1    4    4    0    0 -0.24799799928E+02  0.11857167148E+03  0.38592547812E+02  0.12713636813E+03  0.00000000000E+00 0.  1.
         12    1    4    4    0    0  0.53824630298E+02  0.15899622420E+03  0.20829225523E+02  0.16914711577E+03  0.00000000000E+00 0. -1.
        -11    1    3    3    0    0  0.15974655133E+02 -0.57647598134E+02  0.28606324379E+02  0.66308046056E+02  0.00000000000E+00 0.  1.
         11    1    3    3    0    0 -0.47080363770E+02 -0.11988940377E+01 -0.92267396605E+01  0.47990944191E+02  0.00000000000E+00 0. -1.
          1    1    1    2  501    0  0.20808782664E+01 -0.21872140351E+03 -0.38018013261E+03  0.43861180517E+03  0.00000000000E+00 0. -1.
<scales pt_clust_5="13000.00000" pt_clust_6="13000.00000" pt_clust_7="13000.00000" pt_clust_8="13000.00000" pt_clust_9="227.03594"></scales>
<clustering>
<clus scale="   79.791">  5  6 -1 -1</clus>
<clus scale="   90.875">  7  8 -1 -1</clus>
<clus scale="  112.644">  1  7  2 -1</clus>
<clus scale="  227.036">  2  9  1 -1</clus>
<clus scale="  227.036">  2  5  1 -1</clus>
</clustering>
</event>
<event>
 9    2  0.1592151E-004  0.1355750E+03  0.7546771E-02  0.1232786E+00
         -1   -1    0    0    0  501 -0.00000000000E+00  0.00000000000E+00  0.55466946481E+03  0.55466946481E+03  0.00000000000E+00 0.  1.
         21   -1    0    0  501  502  0.00000000000E+00 -0.00000000000E+00 -0.76891865905E+02  0.76891865905E+02  0.00000000000E+00 0.  1.
         24    2    1    2    0    0  0.64802463595E+02 -0.12996103239E+02  0.24327743262E+03  0.26405461476E+03  0.78566356461E+02 0.  0.
         23    2    1    2    0    0  0.47995074534E+02  0.73023968894E+02  0.41140182858E+02  0.13574236914E+03  0.95380547922E+02 0.  0.
        -11    1    3    3    0    0  0.66825678946E+02 -0.78594543611E+01  0.24789055236E+03  0.25686021167E+03  0.00000000000E+00 0.  1.
         12    1    3    3    0    0 -0.20232153519E+01 -0.51366488782E+01 -0.46131197427E+01  0.71944030898E+01  0.00000000000E+00 0. -1.
        -13    1    4    4    0    0 -0.27419858301E+02  0.33875122720E+02  0.21193490058E+02  0.48461702295E+02  0.00000000000E+00 0.  1.
         13    1    4    4    0    0  0.75414932836E+02  0.39148846174E+02  0.19946692801E+02  0.87280666846E+02  0.00000000000E+00 0. -1.
         -2    1    1    2    0  502 -0.11279753813E+03 -0.60027865654E+02  0.19335998343E+03  0.23176434682E+03  0.00000000000E+00 0.  1.
<scales pt_clust_5="13000.00000" pt_clust_6="13000.00000" pt_clust_7="13000.00000" pt_clust_8="13000.00000" pt_clust_9="96.34911"></scales>
<clustering>
<clus scale="   78.566">  5  6 -1 -1</clus>
<clus scale="   95.381">  7  8 -1 -1</clus>
<clus scale="  102.669">  1  5  2 -1</clus>
<clus scale="   96.349">  2  9  1 -1</clus>
<clus scale="   96.349">  2  5  1 -1</clus>
</clustering>
</event>
<event>
 9    2  0.1592151E-004  0.1241790E+03  0.7546771E-02  0.1238579E+00
          2   -1    0    0  502    0 -0.00000000000E+00  0.00000000000E+00  0.16316170744E+04  0.16316170744E+04  0.00000000000E+00 0. -1.
         21   -1    0    0  501  502  0.00000000000E+00 -0.00000000000E+00 -0.13709169745E+02  0.13709169745E+02  0.00000000000E+00 0.  1.
         23    2    1    2    0    0 -0.31788377467E+02 -0.62196987671E+02  0.59760047422E+03  0.60835347057E+03  0.89936934302E+02 0.  0.
         24    2    1    2    0    0  0.99241931340E+01  0.10688640943E+03  0.72278437781E+03  0.73531874357E+03  0.82177878465E+02 0.  0.
        -11    1    4    4    0    0  0.35228868520E+02  0.81913779757E+02  0.36338449880E+03  0.37416471568E+03  0.00000000000E+00 0.  1.
         12    1    4    4    0    0 -0.25304675386E+02  0.24972629673E+02  0.35939987902E+03  0.36115402790E+03  0.00000000000E+00 0. -1.
        -13    1    3    3    0    0  0.29557762544E+02 -0.33092781907E+02  0.18814996058E+03  0.19331115127E+03  0.00000000000E+00 0.  1.
         13    1    3    3    0    0 -0.61346140011E+02 -0.29104205764E+02  0.40945051364E+03  0.41504231930E+03  0.00000000000E+00 0. -1.
          1    1    1    2  501    0  0.21864184334E+02 -0.44689421760E+02  0.29752305263E+03  0.30165403000E+03  0.00000000000E+00 0. -1.
<scales pt_clust_5="13000.00000" pt_clust_6="13000.00000" pt_clust_7="13000.00000" pt_clust_8="13000.00000" pt_clust_9="49.75128"></scales>
<clustering>
<clus scale="   49.751">  2  9  1 -1</clus>
<clus scale="   82.178">  5  6 -1 -1</clus>
<clus scale="   89.937">  7  8 -1 -1</clus>
<clus scale="  118.680">  2  5  1 -1</clus>
<clus scale="   49.751">  2  5  1 -1</clus>
</clustering>
</event>
<event>
 9    2  0.1592151E-004  0.1468946E+03  0.7546771E-02  0.1207128E+00
          4   -1    0    0  502    0 -0.00000000000E+00  0.00000000000E+00  0.65183581220E+02  0.65183581220E+02  0.00000000000E+00 0. -1.
         21   -1    0    0  501  502  0.00000000000E+00 -0.00000000000E+00 -0.40489652011E+03  0.40489652011E+03  0.00000000000E+00 0. -1.
         23    2    1    2    0    0  0.57785147372E+02 -0.11339137666E+03 -0.14837790589E+03  0.21667078280E+03  0.93453184021E+02 0.  0.
         24    2    1    2    0    0 -0.43736309838E+02  0.87471076591E+02 -0.18409540484E+03  0.22305072818E+03  0.79350206190E+02 0.  0.
        -11    1    4    4    0    0 -0.50515895442E+02  0.22073895084E+02 -0.53406049183E+02  0.76754925743E+02  0.00000000000E+00 0.  1.
         12    1    4    4    0    0  0.67795856045E+01  0.65397181508E+02 -0.13068935566E+03  0.14629580244E+03  0.00000000000E+00 0. -1.
        -13    1    3    3    0    0  0.25613471326E+02  0.11772700446E+02 -0.20428288239E+02  0.34813235264E+02  0.00000000000E+00 0.  1.
         13    1    3    3    0    0  0.32171676046E+02 -0.12516407711E+03 -0.12794961765E+03  0.18185754753E+03  0.00000000000E+00 0. -1.
          3    1    1    2  501    0 -0.14048837534E+02  0.25920300070E+02 -0.72396281546E+01  0.30358590343E+02  0.00000000000E+00 0. -1.
<scales pt_clust_5="13000.00000" pt_clust_6="13000.00000" pt_clust_7="13000.00000" pt_clust_8="13000.00000" pt_clust_9="29.48275"></scales>
<clustering>
<clus scale="   29.483">  2  9  1 -1</clus>
<clus scale="   79.350">  5  6 -1 -1</clus>
<clus scale="   93.453">  7  8 -1 -1</clus>
<clus scale="  138.351">  2  5  1 -1</clus>
<clus scale="   29.483">  2  5  1 -1</clus>
</clustering>
</event>
<event>
 9    2  0.1592151E-004  0.2104371E+03  0.7546771E-02  0.1142071E+00
         21   -1    0    0  501  502  0.00000000000E+00  0.00000000000E+00  0.57845043951E+02  0.57845043951E+02  0.00000000000E+00 0.  1.
          2   -1    0    0  502    0 -0.00000000000E+00 -0.00000000000E+00 -0.14407985305E+04  0.14407985305E+04  0.00000000000E+00 0. -1.
         24    2    1    2    0    0 -0.28744053461E+02  0.16943445648E+03 -0.55247847462E+03  0.58417463641E+03  0.80580923613E+02 0.  0.
         23    2    1    2    0    0  0.28234892460E+02 -0.23331100998E+03 -0.35856751974E+03  0.43825768816E+03  0.90927985169E+02 0.  0.
        -11    1    3    3    0    0  0.51251266243E+01  0.14381084286E+03 -0.37441482163E+03  0.40111629748E+03  0.00000000000E+00 0.  1.
         12    1    3    3    0    0 -0.33869180085E+02  0.25623613618E+02 -0.17806365299E+03  0.18305833893E+03  0.00000000000E+00 0. -1.
        -13    1    4    4    0    0  0.43713789424E+02 -0.10588021713E+03 -0.22799212205E+03  0.25515078578E+03  0.00000000000E+00 0.  1.
         13    1    4    4    0    0 -0.15478896964E+02 -0.12743079285E+03 -0.13057539769E+03  0.18310690238E+03  0.00000000000E+00 0. -1.
          1    1    1    2  501    0  0.50916100131E+00  0.63876553503E+02 -0.47190749214E+03  0.47621124984E+03  0.00000000000E+00 0. -1.
<scales pt_clust_5="13000.00000" pt_clust_6="13000.00000" pt_clust_7="13000.00000" pt_clust_8="13000.00000" pt_clust_9="63.87861"></scales>
<clustering>
<clus scale="   63.879">  1  9  2 -1</clus>
<clus scale="   80.581">  5  6 -1 -1</clus>
<clus scale="   90.928">  7  8 -1 -1</clus>
<clus scale="  206.178">  2  5  1 -1</clus>
<clus scale="   63.879">  1  5  2 -1</clus>
</clustering>
</event>
<event>
 9    2  0.1592151E-004  0.1923387E+03  0.7546771E-02  0.1167031E+00
         21   -1    0    0  501  502  0.00000000000E+00  0.00000000000E+00  0.15261903020E+04  0.15261903020E+04  0.00000000000E+00 0.  1.
         -1   -1    0    0    0  501 -0.00000000000E+00 -0.00000000000E+00 -0.53028357082E+02  0.53028357082E+02  0.00000000000E+00 0.  1.
         23    2    1    2    0    0 -0.99515200065E+02  0.67851448330E+02  0.41999432787E+03  0.44603480110E+03  0.89692331137E+02 0.  0.
         24    2    1    2    0    0 -0.48334538547E+02 -0.17745520124E+03  0.76862076131E+03  0.79430417288E+03  0.79464887063E+02 0.  0.
        -11    1    4    4    0    0 -0.47365483930E+02 -0.18474353945E+03  0.70794969283E+03  0.73318921979E+03  0.00000000000E+00 0.  1.
         12    1    4    4    0    0 -0.96905461742E+00  0.72883382156E+01  0.60671068485E+02  0.61114953096E+02  0.00000000000E+00 0. -1.
        -13    1    3    3    0    0 -0.28988615354E+02 -0.19143983768E+02  0.14515083344E+03  0.14925011351E+03  0.00000000000E+00 0. -1.
         13    1    3    3    0    0 -0.70526584711E+02  0.86995432098E+02  0.27484349443E+03  0.29678468759E+03  0.00000000000E+00 0.  1.
         -2    1    1    2    0  502  0.14784973861E+03  0.10960375291E+03  0.28454685570E+03  0.33887968506E+03  0.00000000000E+00 0.  1.
<scales pt_clust_5="13000.00000" pt_clust_6="13000.00000" pt_clust_7="13000.00000" pt_clust_8="13000.00000" pt_clust_9="175.15571"></scales>
<clustering>
<clus scale="   79.465">  5  6 -1 -1</clus>
<clus scale="   89.692">  7  8 -1 -1</clus>
<clus scale="  150.173">  2  7  1 -1</clus>
<clus scale="  175.156">  1  9  2 -1</clus>
<clus scale="  175.156">  1  5  2 -1</clus>
</clustering>
</event>
<event>
 9    2  0.1592151E-004  0.9510072E+02  0.7546771E-02  0.1295838E+00
         21   -1    0    0  501  502  0.00000000000E+00  0.00000000000E+00  0.70144132705E+02  0.70144132705E+02  0.00000000000E+00 0. -1.
          2   -1    0    0  502    0 -0.00000000000E+00 -0.00000000000E+00 -0.38072416481E+03  0.38072416481E+03  0.00000000000E+00 0. -1.
         24    2    1    2    0    0 -0.20126090874E+02  0.17712445154E+02 -0.29742837136E+03  0.30970882502E+03  0.82080021673E+02 0.  0.
         23    2    1    2    0    0  0.41572039285E+02 -0.17461525483E+02  0.18380946115E+02  0.10302422687E+03  0.90790929165E+02 0.  0.
        -11    1    3    3    0    0 -0.55273396167E+01  0.44705536092E+02 -0.24375060997E+03  0.24787798672E+03  0.00000000000E+00 0.  1.
         12    1    3    3    0    0 -0.14598751258E+02 -0.26993090938E+02 -0.53677761384E+02  0.61830838292E+02  0.00000000000E+00 0. -1.
        -11    1    4    4    0    0 -0.91082189255E+01 -0.41935941740E+02 -0.25212710073E+01  0.42987668803E+02  0.00000000000E+00 0.  1.
         11    1    4    4    0    0  0.50680258211E+02  0.24474416257E+02  0.20902217123E+02  0.60036558063E+02  0.00000000000E+00 0. -1.
          1    1    1    2  501    0 -0.21445948411E+02 -0.25091967104E+00 -0.31532606868E+02  0.38135245637E+02  0.00000000000E+00 0. -1.
<scales pt_clust_5="13000.00000" pt_clust_6="13000.00000" pt_clust_7="13000.00000" pt_clust_8="13000.00000" pt_clust_9="21.44743"></scales>
<clustering>
<clus scale="   21.447">  1  9  2 -1</clus>
<clus scale="   82.080">  5  6 -1 -1</clus>
<clus scale="   86.823">  2  5  1 -1</clus>
<clus scale="   90.791">  7  8 -1 -1</clus>
<clus scale="   21.447">  1  5  2 -1</clus>
</clustering>
</event>
<event>
 9    2  0.1592151E-004  0.1550914E+03  0.7546771E-02  0.1195866E+00
         21   -1    0    0  501  502  0.00000000000E+00  0.00000000000E+00  0.49670554176E+03  0.49670554176E+03  0.00000000000E+00 0.  1.
         -3   -1    0    0    0  501 -0.00000000000E+00 -0.00000000000E+00 -0.13621139025E+03  0.13621139025E+03  0.00000000000E+00 0.  1.
         24    2    1    2    0    0  0.11411228806E+03 -0.65695008285E+02 -0.65615630198E+02  0.16753580134E+03  0.80158501758E+02 0.  0.
         23    2    1    2    0    0 -0.63689789583E+02  0.78068705148E+02  0.32339793242E+03  0.35029307434E+03  0.89263112297E+02 0.  0.
        -11    1    3    3    0    0  0.77554388764E+02  0.99709322855E+00 -0.40109571179E+02  0.87318125905E+02  0.00000000000E+00 0.  1.
         12    1    3    3    0    0  0.36557899294E+02 -0.66692101513E+02 -0.25506059020E+02  0.80217675432E+02  0.00000000000E+00 0. -1.
        -11    1    4    4    0    0  0.92873399128E+01  0.40371352010E+02  0.18302388173E+03  0.18765351590E+03  0.00000000000E+00 0.  1.
         11    1    4    4    0    0 -0.72977129496E+02  0.37697353138E+02  0.14037405069E+03  0.16263955844E+03  0.00000000000E+00 0. -1.
         -4    1    1    2    0  502 -0.50422498475E+02 -0.12373696863E+02  0.10271184930E+03  0.11508805634E+03  0.00000000000E+00 0.  1.
<scales pt_clust_5="13000.00000" pt_clust_6="13000.00000" pt_clust_7="13000.00000" pt_clust_8="13000.00000" pt_clust_9="51.91856"></scales>
<clustering>
<clus scale="   51.919">  1  9  2 -1</clus>
<clus scale="   80.159">  5  6 -1 -1</clus>
<clus scale="   89.263">  7  8 -1 -1</clus>
<clus scale="  150.036">  2  5  1 -1</clus>
<clus scale="   51.919">  1  5  2 -1</clus>
</clustering>
</event>
<event>
 9    2  0.1592151E-004  0.9386822E+02  0.7546771E-02  0.1297644E+00
          2   -1    0    0  502    0 -0.00000000000E+00  0.00000000000E+00  0.32758724715E+03  0.32758724715E+03  0.00000000000E+00 0. -1.
         21   -1    0    0  501  502  0.00000000000E+00 -0.00000000000E+00 -0.98035354828E+02  0.98035354828E+02  0.00000000000E+00 0.  1.
         23    2    1    2    0    0  0.26212240541E+02  0.15793359746E+02  0.19647639196E+03  0.21868525416E+03  0.91015141715E+02 0.  0.
         24    2    1    2    0    0  0.41553274121E+02 -0.98468094264E+01 -0.43951317181E+02  0.10417229024E+03  0.84240806777E+02 0.  0.
        -13    1    4    4    0    0  0.50031745119E+02 -0.13575114005E+02 -0.63837169375E+02  0.82235293115E+02  0.00000000000E+00 0.  1.
         14    1    4    4    0    0 -0.84784709980E+01  0.37283045787E+01  0.19885852194E+02  0.21936997128E+02  0.00000000000E+00 0. -1.
        -13    1    3    3    0    0  0.54465867699E+01  0.51512853551E+02  0.82105084359E+02  0.97079782993E+02  0.00000000000E+00 0.  1.
         13    1    3    3    0    0  0.20765653771E+02 -0.35719493805E+02  0.11437130760E+03  0.12160547116E+03  0.00000000000E+00 0. -1.
          1    1    1    2  501    0 -0.67765514662E+02 -0.59465503197E+01  0.77026817538E+02  0.10276505757E+03  0.00000000000E+00 0. -1.
<scales pt_clust_5="13000.00000" pt_clust_6="13000.00000" pt_clust_7="13000.00000" pt_clust_8="13000.00000" pt_clust_9="68.02596"></scales>
<clustering>
<clus scale="   68.026">  2  9  1 -1</clus>
<clus scale="   84.241">  5  6 -1 -1</clus>
<clus scale="   87.316">  2  5  1 -1</clus>
<clus scale="   91.015">  7  8 -1 -1</clus>
<clus scale="   68.026">  2  5  1 -1</clus>
</clustering>
</event>
<event>
 9    2  0.1592151E-004  0.1905913E+03  0.7546771E-02  0.1158996E+00
          2   -1    0    0  502    0 -0.00000000000E+00  0.00000000000E+00  0.21575908611E+03  0.21575908611E+03  0.00000000000E+00 0. -1.
         21   -1    0    0  501  502  0.00000000000E+00 -0.00000000000E+00 -0.38263094038E+03  0.38263094038E+03  0.00000000000E+00 0. -1.
         24    2    1    2    0    0  0.12547964827E+03 -0.84138305212E+01 -0.19187035857E+02  0.14954177444E+03  0.78604486405E+02 0.  0.
         23    2    1    2    0    0 -0.25818178072E+03  0.61499634907E+02 -0.83396769336E+02  0.29212903869E+03  0.89130898821E+02 0.  0.
        -13    1    3    3    0    0  0.85631319331E+02  0.15394965737E+02  0.19444105710E+02  0.89150440646E+02  0.00000000000E+00 0.  1.
         14    1    3    3    0    0  0.39848328942E+02 -0.23808796259E+02 -0.38631141567E+02  0.60391333795E+02  0.00000000000E+00 0. -1.
        -13    1    4    4    0    0 -0.12354686007E+03  0.32380851829E+02  0.60918387877E+01  0.12786499403E+03  0.00000000000E+00 0.  1.
         13    1    4    4    0    0 -0.13463492065E+03  0.29118783078E+02 -0.89488608124E+02  0.16426404466E+03  0.00000000000E+00 0. -1.
          1    1    1    2  501    0  0.13270213244E+03 -0.53085804386E+02 -0.64288049075E+02  0.15671921336E+03  0.00000000000E+00 0. -1.
<scales pt_clust_5="13000.00000" pt_clust_6="13000.00000" pt_clust_7="13000.00000" pt_clust_8="13000.00000" pt_clust_9="142.92641"></scales>
<clustering>
<clus scale="   78.604">  5  6 -1 -1</clus>
<clus scale="   89.131">  7  8 -1 -1</clus>
<clus scale="  142.926">  2  9  1 -1</clus>
<clus scale="  185.902">  1  5  2 -1</clus>
<clus scale="  142.926">  2  5  1 -1</clus>
</clustering>
</event>
<event>
 9    2  0.1592151E-004  0.1017472E+03  0.7546771E-02  0.1278870E+00
         21   -1    0    0  501  502  0.00000000000E+00  0.00000000000E+00  0.16834482136E+02  0.16834482136E+02  0.00000000000E+00 0.  1.
          2   -1    0    0  502    0 -0.00000000000E+00 -0.00000000000E+00 -0.96261537104E+03  0.96261537104E+03  0.00000000000E+00 0. -1.
         24    2    1    2    0    0  0.41150703377E+02 -0.51304462182E+02 -0.37783601469E+03  0.39200419673E+03  0.81127726633E+02 0.  0.
         23    2    1    2    0    0  0.26320055007E+01  0.48786662447E+02 -0.29957856903E+03  0.31551967632E+03  0.86129444639E+02 0.  0.
        -13    1    3    3    0    0 -0.16972263130E+01 -0.59123544831E+02 -0.18148228683E+03  0.19087769530E+03  0.00000000000E+00 0.  1.
         14    1    3    3    0    0  0.42847929690E+02  0.78190826493E+01 -0.19635372786E+03  0.20112650143E+03  0.00000000000E+00 0. -1.
        -13    1    4    4    0    0 -0.31706198964E+02 -0.64637042631E+01 -0.74379573481E+02  0.81113398873E+02  0.00000000000E+00 0. -1.
         13    1    4    4    0    0  0.34338204465E+02  0.55250366710E+02 -0.22519899555E+03  0.23440627744E+03  0.00000000000E+00 0.  1.
          1    1    1    2  501    0 -0.43782708878E+02  0.25177997348E+01 -0.26836630519E+03  0.27192598013E+03  0.00000000000E+00 0. -1.
<scales pt_clust_5="13000.00000" pt_clust_6="13000.00000" pt_clust_7="13000.00000" pt_clust_8="13000.00000" pt_clust_9="43.85507"></scales>
<clustering>
<clus scale="   43.855">  1  9  2 -1</clus>
<clus scale="   81.128">  5  6 -1 -1</clus>
<clus scale="   86.129">  7  8 -1 -1</clus>
<clus scale="   97.550">  2  5  1 -1</clus>
<clus scale="   43.855">  1  5  2 -1</clus>
</clustering>
</event>
<event>
 9    2  0.1592151E-004  0.1130901E+03  0.7546771E-02  0.1258591E+00
          2   -1    0    0  502    0 -0.00000000000E+00  0.00000000000E+00  0.10429141968E+04  0.10429141968E+04  0.00000000000E+00 0. -1.
         21   -1    0    0  501  502  0.00000000000E+00 -0.00000000000E+00 -0.30970895763E+02  0.30970895763E+02  0.00000000000E+00 0. -1.
         23    2    1    2    0    0 -0.52063489782E+02  0.17101966484E+02  0.45792875297E+03  0.47024733178E+03  0.91818985079E+02 0.  0.
         24    2    1    2    0    0  0.83098313794E+02  0.59415878858E+02  0.46107699466E+03  0.47931748973E+03  0.81961482104E+02 0.  0.
        -13    1    4    4    0    0  0.32511630804E+02  0.69768719722E+02  0.31879867024E+03  0.32795925439E+03  0.00000000000E+00 0.  1.
         14    1    4    4    0    0  0.50586682990E+02 -0.10352840864E+02  0.14227832441E+03  0.15135823535E+03  0.00000000000E+00 0. -1.
        -13    1    3    3    0    0 -0.34595728863E+00 -0.32697114583E+02  0.19358169399E+03  0.19632394973E+03  0.00000000000E+00 0.  1.
         13    1    3    3    0    0 -0.51717532493E+02  0.49799081067E+02  0.26434705898E+03  0.27392338205E+03  0.00000000000E+00 0. -1.
          1    1    1    2  501    0 -0.31034824012E+02 -0.76517845342E+02  0.92937553364E+02  0.12432027100E+03  0.00000000000E+00 0. -1.
<scales pt_clust_5="13000.00000" pt_clust_6="13000.00000" pt_clust_7="13000.00000" pt_clust_8="13000.00000" pt_clust_9="82.57203"></scales>
<clustering>
<clus scale="   81.961">  5  6 -1 -1</clus>
<clus scale="   82.572">  2  9  1 -1</clus>
<clus scale="   91.819">  7  8 -1 -1</clus>
<clus scale="  105.244">  2  5  1 -1</clus>
<clus scale="   82.572">  2  5  1 -1</clus>
</clustering>
</event>
<event>
 9    2  0.1592151E-004  0.2907287E+03  0.7546771E-02  0.1090849E+00
          2   -1    0    0  502    0 -0.00000000000E+00  0.00000000000E+00  0.10220456632E+04  0.10220456632E+04  0.00000000000E+00 0. -1.
         21   -1    0    0  501  502  0.00000000000E+00 -0.00000000000E+00 -0.15138744726E+03  0.15138744726E+03  0.00000000000E+00 0.  1.
         24    2    1    2    0    0  0.17497128220E+02  0.26983116270E+03  0.39481055975E+03  0.48590417539E+03  0.84335542399E+02 0.  0.
         23    2    1    2    0    0 -0.78510584471E+02 -0.26653006002E+03  0.11002053483E+03  0.31663404181E+03  0.10464422383E+03 0.  0.
        -13    1    3    3    0    0 -0.30105516743E+02  0.95773842242E+02  0.11180371720E+03  0.15026324293E+03  0.00000000000E+00 0.  1.
         14    1    3    3    0    0  0.47602644963E+02  0.17405732045E+03  0.28300684255E+03  0.33564093246E+03  0.00000000000E+00 0. -1.
        -13    1    4    4    0    0 -0.31653042716E+02 -0.23174129286E+03  0.10953773929E+03  0.25827206248E+03  0.00000000000E+00 0.  1.
         13    1    4    4    0    0 -0.46857541756E+02 -0.34788767152E+02  0.48279554527E+00  0.58361979326E+02  0.00000000000E+00 0. -1.
          1    1    1    2  501    0  0.61013456251E+02 -0.33011026791E+01  0.36582712137E+03  0.37089489327E+03  0.00000000000E+00 0. -1.
<scales pt_clust_5="13000.00000" pt_clust_6="13000.00000" pt_clust_7="13000.00000" pt_clust_8="13000.00000" pt_clust_9="61.10272"></scales>
<clustering>
<clus scale="   61.103">  2  9  1 -1</clus>
<clus scale="   84.336">  5  6 -1 -1</clus>
<clus scale="  104.644">  7  8 -1 -1</clus>
<clus scale="  284.052">  1  5  2 -1</clus>
<clus scale="   61.103">  2  5  1 -1</clus>
</clustering>
</event>
<event>
 9    2  0.1592151E-004  0.1018108E+03  0.7546771E-02  0.1278556E+00
         -3   -1    0    0    0  501 -0.00000000000E+00  0.00000000000E+00  0.15046285504E+03  0.15046285504E+03  0.00000000000E+00 0.  1.
         21   -1    0    0  501  502  0.00000000000E+00 -0.00000000000E+00 -0.10249390049E+03  0.10249390049E+03  0.00000000000E+00 0. -1.
         23    2    1    2    0    0 -0.31201204787E+02 -0.45435305191E+02  0.61293443281E+02  0.12242655240E+03  0.90517912070E+02 0.  0.
         24    2    1    2    0    0  0.19081684496E+01  0.33202958027E+02 -0.26625988507E+02  0.96111571668E+02  0.86153429508E+02 0.  0.
        -11    1    4    4    0    0 -0.38247238916E+02  0.23979934069E+02  0.31873211434E+01  0.45255359227E+02  0.00000000000E+00 0.  1.
         12    1    4    4    0    0  0.40155407366E+02  0.92230239572E+01 -0.29813309650E+02  0.50856212442E+02  0.00000000000E+00 0. -1.
        -13    1    3    3    0    0 -0.61451312722E+02 -0.33307906398E+02  0.55662375698E+02  0.89353122677E+02  0.00000000000E+00 0.  1.
         13    1    3    3    0    0  0.30250107935E+02 -0.12127398793E+02  0.56310675830E+01  0.33073429723E+02  0.00000000000E+00 0. -1.
         -4    1    1    2    0  502  0.29293036338E+02  0.12232347165E+02  0.13301499778E+02  0.34418631457E+02  0.00000000000E+00 0.  1.
<scales pt_clust_5="13000.00000" pt_clust_6="13000.00000" pt_clust_7="13000.00000" pt_clust_8="13000.00000" pt_clust_9="31.74450"></scales>
<clustering>
<clus scale="   31.745">  2  9  1 -1</clus>
<clus scale="   86.153">  5  6 -1 -1</clus>
<clus scale="   90.518">  7  8 -1 -1</clus>
<clus scale="   97.951">  2  5  1 -1</clus>
<clus scale="   31.745">  2  5  1 -1</clus>
</clustering>
</event>
<event>
 9    2  0.1592151E-004  0.2730104E+03  0.7546771E-02  0.1134332E+00
          2   -1    0    0  502    0 -0.00000000000E+00  0.00000000000E+00  0.27747498321E+04  0.27747498321E+04  0.00000000000E+00 0. -1.
         21   -1    0    0  501  502  0.00000000000E+00 -0.00000000000E+00 -0.61681921770E+02  0.61681921770E+02  0.00000000000E+00 0. -1.
         23    2    1    2    0    0 -0.43883969769E+02 -0.53115380411E+02  0.60572492720E+02  0.12897493687E+03  0.90655728047E+02 0.  0.
         24    2    1    2    0    0  0.18378289488E+03 -0.17625495746E+03  0.15363723968E+04  0.15594528716E+04  0.81309006374E+02 0.  0.
        -13    1    4    4    0    0  0.15789297154E+02 -0.62220629966E+02  0.35366721381E+03  0.35944569384E+03  0.00000000000E+00 0.  1.
         14    1    4    4    0    0  0.16799359773E+03 -0.11403432749E+03  0.11827051830E+04  0.12000071777E+04  0.00000000000E+00 0. -1.
        -13    1    3    3    0    0 -0.17682784494E+02  0.17406554712E+02  0.46114722922E+02  0.52366369786E+02  0.00000000000E+00 0.  1.
         13    1    3    3    0    0 -0.26201185276E+02 -0.70521935123E+02  0.14457769798E+02  0.76608567085E+02  0.00000000000E+00 0. -1.
          1    1    1    2  501    0 -0.13989892511E+03  0.22937033787E+03  0.11161230208E+04  0.11480039454E+04  0.00000000000E+00 0. -1.
<scales pt_clust_5="13000.00000" pt_clust_6="13000.00000" pt_clust_7="13000.00000" pt_clust_8="13000.00000" pt_clust_9="260.62144"></scales>
<clustering>
<clus scale="   81.309">  5  6 -1 -1</clus>
<clus scale="   90.656">  7  8 -1 -1</clus>
<clus scale="  113.866">  1  7  2 -1</clus>
<clus scale="  260.621">  2  9  1 -1</clus>
<clus scale="  260.621">  2  5  1 -1</clus>
</clustering>
</event>
<event>
 9    2  0.1592151E-004  0.1032908E+03  0.7546771E-02  0.1278153E+00
         21   -1    0    0  501  502  0.00000000000E+00  0.00000000000E+00  0.12357266174E+03  0.12357266174E+03  0.00000000000E+00 0.  1.
         -1   -1    0    0    0  501 -0.00000000000E+00 -0.00000000000E+00 -0.14983458996E+03  0.14983458996E+03  0.00000000000E+00 0.  1.
         24    2    1    2    0    0 -0.85263864251E+01 -0.22667419283E+02 -0.89984173513E+01  0.84529345885E+02  0.80484331634E+02 0.  0.
         23    2    1    2    0    0  0.52851585417E+02  0.65020554033E+02 -0.28206134408E+02  0.12660229021E+03  0.90617831254E+02 0.  0.
        -13    1    3    3    0    0 -0.20058097177E+02  0.24475137481E+02 -0.16059068068E+02  0.35485958974E+02  0.00000000000E+00 0.  1.
         14    1    3    3    0    0  0.11531710752E+02 -0.47142556765E+02  0.70606507171E+01  0.49043386911E+02  0.00000000000E+00 0. -1.
        -11    1    4    4    0    0 -0.10097086393E+02  0.46261186414E+02  0.12950002313E+02  0.49089215536E+02  0.00000000000E+00 0. -1.
         11    1    4    4    0    0  0.62948671810E+02  0.18759367619E+02 -0.41156136721E+02  0.77513074677E+02  0.00000000000E+00 0.  1.
         -2    1    1    2    0  502 -0.44325198992E+02 -0.42353134749E+02  0.10942623536E+02  0.62275615602E+02  0.00000000000E+00 0.  1.
<scales pt_clust_5="13000.00000" pt_clust_6="13000.00000" pt_clust_7="13000.00000" pt_clust_8="13000.00000" pt_clust_9="61.30670"></scales>
<clustering>
<clus scale="   61.307">  1  9  2 -1</clus>
<clus scale="   80.484">  5  6 -1 -1</clus>
<clus scale="   90.618">  7  8 -1 -1</clus>
<clus scale="   94.526">  2  5  1 -1</clus>
<clus scale="   61.307">  1  5  2 -1</clus>
</clustering>
</event>
<event>
 9    2  0.1592151E-004  0.3783892E+03  0.7546771E-02  0.1051531E+00
         21   -1    0    0  501  502  0.00000000000E+00  0.00000000000E+00  0.27286588554E+03  0.27286588554E+03  0.00000000000E+00 0. -1.
          2   -1    0    0  502    0 -0.00000000000E+00 -0.00000000000E+00 -0.44219141239E+03  0.44219141239E+03  0.00000000000E+00 0. -1.
         24    2    1    2    0    0 -0.54938574578E+02  0.32697340311E+02 -0.38333839258E+02  0.10930894137E+03  0.79947472695E+02 0.  0.
         23    2    1    2    0    0 -0.25676469557E+03  0.16941729571E+02 -0.37992635574E+02  0.27670156725E+03  0.94367292371E+02 0.  0.
        -13    1    3    3    0    0 -0.35009693497E+02  0.58417832071E+02 -0.16348725940E+02  0.70040007014E+02  0.00000000000E+00 0.  1.
         14    1    3    3    0    0 -0.19928881081E+02 -0.25720491761E+02 -0.21985113319E+02  0.39268934353E+02  0.00000000000E+00 0. -1.
        -11    1    4    4    0    0 -0.23358559208E+03  0.21047603694E+02 -0.30283685205E+01  0.23455149001E+03  0.00000000000E+00 0. -1.
         11    1    4    4    0    0 -0.23179103485E+02 -0.41058741233E+01 -0.34964267053E+02  0.42150077239E+02  0.00000000000E+00 0.  1.
          1    1    1    2  501    0  0.31170327015E+03 -0.49639069881E+02 -0.92999052023E+02  0.32904678931E+03  0.00000000000E+00 0. -1.
<scales pt_clust_5="13000.00000" pt_clust_6="13000.00000" pt_clust_7="13000.00000" pt_clust_8="13000.00000" pt_clust_9="315.63122"></scales>
<clustering>
<clus scale="   79.947">  5  6 -1 -1</clus>
<clus scale="   94.367">  7  8 -1 -1</clus>
<clus scale="  100.938">  5  7 -1 -1</clus>
<clus scale="  315.631">  1  9  2 -1</clus>
<clus scale="  315.631">  1  5  2 -1</clus>
</clustering>
</event>
<event>
 9    2  0.1592151E-004  0.1178756E+03  0.7546771E-02  0.1252569E+00
         21   -1    0    0  501  502  0.00000000000E+00  0.00000000000E+00  0.84757634712E+03  0.84757634712E+03  0.00000000000E+00 0.  1.
         -3   -1    0    0    0  501 -0.00000000000E+00 -0.00000000000E+00 -0.26179521131E+02  0.26179521131E+02  0.00000000000E+00 0.  1.
         23    2    1    2    0    0 -0.53895159438E+02 -0.70284027926E+01  0.19804785642E+03  0.22647704672E+03  0.95471527706E+02 0.  0.
         24    2    1    2    0    0  0.95620454817E+02 -0.48539320855E+00  0.36376300530E+03  0.38425348007E+03  0.78636543254E+02 0.  0.
        -13    1    4    4    0    0  0.86764217422E+02  0.29802746370E+02  0.25476136317E+03  0.27077589494E+03  0.00000000000E+00 0.  1.
         14    1    4    4    0    0  0.88562373943E+01 -0.30288139579E+02  0.10900164213E+03  0.11347758513E+03  0.00000000000E+00 0. -1.
        -11    1    3    3    0    0 -0.63758419959E+01 -0.29079709249E+02  0.10212706118E+02  0.31473484355E+02  0.00000000000E+00 0.  1.
         11    1    3    3    0    0 -0.47519317442E+02  0.22051306457E+02  0.18783515030E+03  0.19500356237E+03  0.00000000000E+00 0. -1.
         -4    1    1    2    0  502 -0.41725295379E+02  0.75137960011E+01  0.25958596426E+03  0.26302534146E+03  0.00000000000E+00 0.  1.
<scales pt_clust_5="13000.00000" pt_clust_6="13000.00000" pt_clust_7="13000.00000" pt_clust_8="13000.00000" pt_clust_9="42.39643"></scales>
<clustering>
<clus scale="   42.396">  1  9  2 -1</clus>
<clus scale="   78.637">  5  6 -1 -1</clus>
<clus scale="   95.472">  7  8 -1 -1</clus>
<clus scale="  104.707">  1  5  2 -1</clus>
<clus scale="   42.396">  1  5  2 -1</clus>
</clustering>
</event>
<event>
 9    2  0.1592151E-004  0.1030911E+03  0.7546771E-02  0.1278768E+00
         21   -1    0    0  501  502  0.00000000000E+00  0.00000000000E+00  0.11001932310E+03  0.11001932310E+03  0.00000000000E+00 0. -1.
          4   -1    0    0  502    0 -0.00000000000E+00 -0.00000000000E+00 -0.16925667582E+03  0.16925667582E+03  0.00000000000E+00 0. -1.
         23    2    1    2    0    0  0.30086841773E+02 -0.48058354541E+02 -0.68397223473E+02  0.12817127743E+03  0.92384374710E+02 0.  0.
         24    2    1    2    0    0 -0.20227635438E+02  0.28740887847E+02 -0.39649757406E+02  0.97693596528E+02  0.82077644157E+02 0.  0.
        -11    1    4    4    0    0  0.20205252669E+02  0.36951400681E+02 -0.25232108981E+01  0.42190340612E+02  0.00000000000E+00 0.  1.
         12    1    4    4    0    0 -0.40432888107E+02 -0.82105128333E+01 -0.37126546508E+02  0.55503255916E+02  0.00000000000E+00 0. -1.
        -11    1    3    3    0    0 -0.67380150033E+00 -0.53474546190E+02 -0.55188590943E+00  0.53481638688E+02  0.00000000000E+00 0.  1.
         11    1    3    3    0    0  0.30760643273E+02  0.54161916488E+01 -0.67845337564E+02  0.74689638744E+02  0.00000000000E+00 0. -1.
          3    1    1    2  501    0 -0.98592063341E+01  0.19317466693E+02  0.48809628157E+02  0.53411124963E+02  0.00000000000E+00 0. -1.
<scales pt_clust_5="13000.00000" pt_clust_6="13000.00000" pt_clust_7="13000.00000" pt_clust_8="13000.00000" pt_clust_9="21.68798"></scales>
<clustering>
<clus scale="   21.688">  1  9  2 -1</clus>
<clus scale="   82.078">  5  6 -1 -1</clus>
<clus scale="   92.384">  7  8 -1 -1</clus>
<clus scale="   93.966">  1  5  2 -1</clus>
<clus scale="   21.688">  1  5  2 -1</clus>
</clustering>
</event>
<event>
 9    2  0.1592151E-004  0.4516359E+03  0.7546771E-02  0.1027380E+00
          2   -1    0    0  502    0 -0.00000000000E+00  0.00000000000E+00  0.26725058977E+04  0.26725058977E+04  0.00000000000E+00 0. -1.
         21   -1    0    0  501  502  0.00000000000E+00 -0.00000000000E+00 -0.16234426043E+03  0.16234426043E+03  0.00000000000E+00 0. -1.
         24    2    1    2    0    0 -0.48112079710E+03 -0.13675505523E+03  0.11377479986E+04  0.12454390986E+04  0.80429306882E+02 0.  0.
         23    2    1    2    0    0  0.29522341668E+03  0.17342614897E+03  0.21025150031E+03  0.41190375979E+03  0.90694647259E+02 0.  0.
        -13    1    3    3    0    0 -0.19162136656E+03 -0.95685993513E+02  0.48690703016E+03  0.53193327918E+03  0.00000000000E+00 0.  1.
         14    1    3    3    0    0 -0.28949943053E+03 -0.41069061713E+02  0.65084096842E+03  0.71350581937E+03  0.00000000000E+00 0. -1.
        -13    1    4    4    0    0  0.10482698408E+03  0.87211150211E+02  0.12883971401E+03  0.18760104802E+03  0.00000000000E+00 0.  1.
         13    1    4    4    0    0  0.19039643260E+03  0.86214998761E+02  0.81411786307E+02  0.22430271177E+03  0.00000000000E+00 0. -1.
          1    1    1    2  501    0  0.18589738042E+03 -0.36671093747E+02  0.11621621384E+04  0.11775072998E+04  0.00000000000E+00 0. -1.
<scales pt_clust_5="13000.00000" pt_clust_6="13000.00000" pt_clust_7="13000.00000" pt_clust_8="13000.00000" pt_clust_9="189.47992"></scales>
<clustering>
<clus scale="   80.429">  5  6 -1 -1</clus>
<clus scale="   90.695">  7  8 -1 -1</clus>
<clus scale="  189.480">  2  9  1 -1</clus>
<clus scale="  449.687">  1  5  2 -1</clus>
<clus scale="  189.480">  2  5  1 -1</clus>
</clustering>
</event>
<event>
 9    2  0.1592151E-004  0.1366412E+03  0.7546771E-02  0.1236605E+00
         21   -1    0    0  501  502  0.00000000000E+00  0.00000000000E+00  0.87015479112E+02  0.87015479112E+02  0.00000000000E+00 0. -1.
          2   -1    0    0  502    0 -0.00000000000E+00 -0.00000000000E+00 -0.37512172337E+03  0.37512172337E+03  0.00000000000E+00 0. -1.
         23    2    1    2    0    0 -0.16387943286E+01  0.28755548334E+02 -0.14545273655E+03  0.17250152472E+03  0.88151632168E+02 0.  0.
         24    2    1    2    0    0  0.33048456033E+01 -0.12881230581E+03 -0.93265612022E+02  0.17804134689E+03  0.79979464149E+02 0.  0.
        -13    1    4    4    0    0 -0.32895150542E+02 -0.41463498873E+02 -0.14231846736E+02  0.54807464177E+02  0.00000000000E+00 0.  1.
         14    1    4    4    0    0  0.36199996146E+02 -0.87348806934E+02 -0.79033765286E+02  0.12323388271E+03  0.00000000000E+00 0. -1.
        -13    1    3    3    0    0  0.16665760386E+02  0.54240421918E+02 -0.65776609623E+02  0.86869634007E+02  0.00000000000E+00 0.  1.
         13    1    3    3    0    0 -0.18304554714E+02 -0.25484873584E+02 -0.79676126925E+02  0.85631890711E+02  0.00000000000E+00 0. -1.
          1    1    1    2  501    0 -0.16660512747E+01  0.10005675747E+03 -0.49387895691E+02  0.11159433088E+03  0.00000000000E+00 0. -1.
<scales pt_clust_5="13000.00000" pt_clust_6="13000.00000" pt_clust_7="13000.00000" pt_clust_8="13000.00000" pt_clust_9="110.78856"></scales>
<clustering>
<clus scale="   79.979">  5  6 -1 -1</clus>
<clus scale="   88.152">  7  8 -1 -1</clus>
<clus scale="   92.738">  2  7  1 -1</clus>
<clus scale="  110.789">  1  9  2 -1</clus>
<clus scale="  110.789">  1  5  2 -1</clus>
</clustering>
</event>
<event>
 9    2  0.1592151E-004  0.1520418E+03  0.7546771E-02  0.1200244E+00
          2   -1    0    0  502    0 -0.00000000000E+00  0.00000000000E+00  0.29092099125E+03  0.29092099125E+03  0.00000000000E+00 0. -1.
         21   -1    0    0  501  502  0.00000000000E+00 -0.00000000000E+00 -0.18490913728E+03  0.18490913728E+03  0.00000000000E+00 0.  1.
         24    2    1    2    0    0  0.13485716190E+02  0.12196960836E+03  0.18940331125E+03  0.23833535059E+03  0.76626856405E+02 0.  0.
         23    2    1    2    0    0  0.12657445178E+02 -0.12460968785E+03 -0.42204388787E+01  0.15407724345E+03  0.89633696900E+02 0.  0.
        -13    1    3    3    0    0  0.34874743169E+02  0.30125109662E+02  0.91218804348E+02  0.10219902255E+03  0.00000000000E+00 0.  1.
         14    1    3    3    0    0 -0.21389026979E+02  0.91844498700E+02  0.98184506902E+02  0.13613632804E+03  0.00000000000E+00 0. -1.
        -13    1    4    4    0    0  0.30731031210E+02 -0.53716063706E+02 -0.38917567876E+02  0.73105327225E+02  0.00000000000E+00 0.  1.
         13    1    4    4    0    0 -0.18073586032E+02 -0.70893624140E+02  0.34697128998E+02  0.80971916221E+02  0.00000000000E+00 0. -1.
          1    1    1    2  501    0 -0.26143161368E+02  0.26400794842E+01 -0.79171018408E+02  0.83417534498E+02  0.00000000000E+00 0. -1.
<scales pt_clust_5="13000.00000" pt_clust_6="13000.00000" pt_clust_7="13000.00000" pt_clust_8="13000.00000" pt_clust_9="26.27613"></scales>
<clustering>
<clus scale="   26.276">  2  9  1 -1</clus>
<clus scale="   76.627">  5  6 -1 -1</clus>
<clus scale="   89.634">  7  8 -1 -1</clus>
<clus scale="  144.756">  1  5  2 -1</clus>
<clus scale="   26.276">  2  5  1 -1</clus>
</clustering>
</event>
<event>
 9    2  0.1592151E-004  0.1363446E+03  0.7546771E-02  0.1234516E+00
         -3   -1    0    0    0  501 -0.00000000000E+00  0.00000000000E+00  0.56872209469E+02  0.56872209469E+02  0.00000000000E+00 0.  1.
         21   -1    0    0  501  502  0.00000000000E+00 -0.00000000000E+00 -0.62406248819E+03  0.62406248819E+03  0.00000000000E+00 0. -1.
         23    2    1    2    0    0  0.34672484157E+02 -0.17605441980E+02 -0.78017585187E+02  0.12480889710E+03  0.89321802786E+02 0.  0.
         24    2    1    2    0    0 -0.52330448394E+01 -0.10271754323E+03 -0.32563272363E+03  0.35096824375E+03  0.81017028940E+02 0.  0.
        -11    1    4    4    0    0 -0.26204378012E+02 -0.51741642011E+01 -0.37422304381E+02  0.45976844905E+02  0.00000000000E+00 0.  1.
         12    1    4    4    0    0  0.20971333173E+02 -0.97543379028E+02 -0.28821041925E+03  0.30499139885E+03  0.00000000000E+00 0. -1.
        -11    1    3    3    0    0  0.53389589360E+02  0.14175669959E+02 -0.65892467620E+02  0.85983807545E+02  0.00000000000E+00 0.  1.
         11    1    3    3    0    0 -0.18717105203E+02 -0.31781111939E+02 -0.12125117567E+02  0.38825089559E+02  0.00000000000E+00 0. -1.
         -4    1    1    2    0  502 -0.29439439318E+02  0.12032298521E+03 -0.16353996990E+03  0.20515755680E+03  0.00000000000E+00 0.  1.
<scales pt_clust_5="13000.00000" pt_clust_6="13000.00000" pt_clust_7="13000.00000" pt_clust_8="13000.00000" pt_clust_9="109.66362"></scales>
<clustering>
<clus scale="   81.017">  5  6 -1 -1</clus>
<clus scale="   89.322">  7  8 -1 -1</clus>
<clus scale="   97.419">  1  7  2 -1</clus>
<clus scale="  109.664">  2  9  1 -1</clus>
<clus scale="  109.664">  2  5  1 -1</clus>
</clustering>
</event>
<event>
 9    2  0.1592151E-004  0.1130415E+03  0.7546771E-02  0.1257670E+00
          2   -1    0    0  502    0 -0.00000000000E+00  0.00000000000E+00  0.86619891571E+02  0.86619891571E+02  0.00000000000E+00 0. -1.
         21   -1    0    0  501  502  0.00000000000E+00 -0.00000000000E+00 -0.22828160336E+03  0.22828160336E+03  0.00000000000E+00 0.  1.
         24    2    1    2    0    0  0.95991058826E+01  0.79153431349E+02  0.22571224863E+00  0.11188493953E+03  0.78490637780E+02 0.  0.
         23    2    1    2    0    0  0.20216926279E+01 -0.62275989714E+02 -0.67700083332E+02  0.12605128716E+03  0.86158224079E+02 0.  0.
        -13    1    3    3    0    0 -0.51419484020E+00  0.89142537761E+02  0.16089329953E+02  0.90584341765E+02  0.00000000000E+00 0.  1.
         14    1    3    3    0    0  0.10113300723E+02 -0.99891064111E+01 -0.15863617704E+02  0.21300597763E+02  0.00000000000E+00 0. -1.
        -11    1    4    4    0    0 -0.26023341574E+02 -0.16028389340E+02 -0.65082078358E+02  0.71901324709E+02  0.00000000000E+00 0.  1.
         11    1    4    4    0    0  0.28045034202E+02 -0.46247600374E+02 -0.26180049743E+01  0.54149962454E+02  0.00000000000E+00 0. -1.
          1    1    1    2  501    0 -0.11620798511E+02 -0.16877441635E+02 -0.74187340703E+02  0.76965268237E+02  0.00000000000E+00 0. -1.
<scales pt_clust_5="13000.00000" pt_clust_6="13000.00000" pt_clust_7="13000.00000" pt_clust_8="13000.00000" pt_clust_9="20.49124"></scales>
<clustering>
<clus scale="   20.491">  2  9  1 -1</clus>
<clus scale="   78.491">  5  6 -1 -1</clus>
<clus scale="   86.158">  7  8 -1 -1</clus>
<clus scale="  107.312">  1  5  2 -1</clus>
<clus scale="   20.491">  2  5  1 -1</clus>
</clustering>
</event>
<event>
 9    2  0.1592151E-004  0.1153673E+03  0.7546771E-02  0.1255653E+00
          2   -1    0    0  502    0 -0.00000000000E+00  0.00000000000E+00  0.29911645974E+03  0.29911645974E+03  0.00000000000E+00 0. -1.
         21   -1    0    0  501  502  0.00000000000E+00 -0.00000000000E+00 -0.16925612958E+03  0.16925612958E+03  0.00000000000E+00 0.  1.
         23    2    1    2    0    0  0.65321501060E+02 -0.20214449652E+02  0.25559314493E+03  0.28037542899E+03  0.92773934768E+02 0.  0.
         24    2    1    2    0    0 -0.75591821773E+02 -0.71820338858E+01 -0.10558369884E+03  0.15247204709E+03  0.79587075297E+02 0.  0.
        -13    1    4    4    0    0 -0.90496155002E+02 -0.13299360473E+02 -0.99747651938E+02  0.13533669542E+03  0.00000000000E+00 0.  1.
         14    1    4    4    0    0  0.14904333230E+02  0.61173265867E+01 -0.58360468989E+01  0.17135351674E+02  0.00000000000E+00 0. -1.
        -11    1    3    3    0    0  0.13651163736E+02  0.29137065830E+02  0.30961140937E+02  0.44653276752E+02  0.00000000000E+00 0. -1.
         11    1    3    3    0    0  0.51670337324E+02 -0.49351515482E+02  0.22463200399E+03  0.23572215224E+03  0.00000000000E+00 0.  1.
          1    1    1    2  501    0  0.10270320712E+02  0.27396483538E+02 -0.20149115936E+02  0.35525113241E+02  0.00000000000E+00 0. -1.
<scales pt_clust_5="13000.00000" pt_clust_6="13000.00000" pt_clust_7="13000.00000" pt_clust_8="13000.00000" pt_clust_9="29.25828"></scales>
<clustering>
<clus scale="   29.258">  2  9  1 -1</clus>
<clus scale="   79.587">  5  6 -1 -1</clus>
<clus scale="   92.774">  7  8 -1 -1</clus>
<clus scale="  105.056">  2  5  1 -1</clus>
<clus scale="   29.258">  2  5  1 -1</clus>
</clustering>
</event>
<event>
 9    2  0.1592151E-004  0.1000313E+03  0.7546771E-02  0.1285465E+00
         -1   -1    0    0    0  501 -0.00000000000E+00  0.00000000000E+00  0.47517784269E+02  0.47517784269E+02  0.00000000000E+00 0.  1.
         21   -1    0    0  501  502  0.00000000000E+00 -0.00000000000E+00 -0.53712614428E+03  0.53712614428E+03  0.00000000000E+00 0. -1.
         23    2    1    2    0    0 -0.45473138915E+02  0.66729651521E+01 -0.31817926160E+02  0.10651475211E+03  0.90667950039E+02 0.  0.
         24    2    1    2    0    0  0.19507684821E+02  0.35022626115E+01 -0.43305764756E+03  0.44085383897E+03  0.80127183968E+02 0.  0.
        -11    1    4    4    0    0 -0.32899833618E+01  0.39400990026E+02 -0.18506441767E+03  0.18924085365E+03  0.00000000000E+00 0.  1.
         12    1    4    4    0    0  0.22797668183E+02 -0.35898727415E+02 -0.24799322989E+03  0.25161298531E+03  0.00000000000E+00 0. -1.
        -13    1    3    3    0    0 -0.20172005598E+02 -0.62732163133E+01 -0.61735390976E+02  0.65249686219E+02  0.00000000000E+00 0. -1.
         13    1    3    3    0    0 -0.25301133317E+02  0.12946181465E+02  0.29917464815E+02  0.41265065887E+02  0.00000000000E+00 0.  1.
         -2    1    1    2    0  502  0.25965454094E+02 -0.10175227764E+02 -0.24732786294E+02  0.37275337480E+02  0.00000000000E+00 0.  1.
<scales pt_clust_5="13000.00000" pt_clust_6="13000.00000" pt_clust_7="13000.00000" pt_clust_8="13000.00000" pt_clust_9="27.88801"></scales>
<clustering>
<clus scale="   27.888">  2  9  1 -1</clus>
<clus scale="   80.127">  5  6 -1 -1</clus>
<clus scale="   90.587">  2  5  1 -1</clus>
<clus scale="   90.668">  7  8 -1 -1</clus>
<clus scale="   27.888">  2  5  1 -1</clus>
</clustering>
</event>
<event>
 9    2  0.1592151E-004  0.1221520E+03  0.7546771E-02  0.1241216E+00
         21   -1    0    0  501  502  0.00000000000E+00  0.00000000000E+00  0.30914785970E+02  0.30914785970E+02  0.00000000000E+00 0.  1.
          2   -1    0    0  502    0 -0.00000000000E+00 -0.00000000000E+00 -0.95771108129E+03  0.95771108129E+03  0.00000000000E+00 0. -1.
         24    2    1    2    0    0  0.80669558163E+02 -0.37237422067E+02 -0.67116872202E+03  0.68283998930E+03  0.88931402546E+02 0.  0.
         23    2    1    2    0    0 -0.25122577268E+02  0.41411386650E+02 -0.12521254042E+03  0.16397272670E+03  0.94142593927E+02 0.  0.
        -11    1    3    3    0    0 -0.83114678885E+01 -0.35727521438E+02 -0.18869253497E+03  0.19222489183E+03  0.00000000000E+00 0.  1.
         12    1    3    3    0    0  0.88981026051E+02 -0.15099006283E+01 -0.48247618705E+03  0.49061509747E+03  0.00000000000E+00 0. -1.
        -13    1    4    4    0    0 -0.22933569494E+02  0.12507897835E+02  0.82533188316E+01  0.27395499442E+02  0.00000000000E+00 0.  1.
         13    1    4    4    0    0 -0.21890077743E+01  0.28903488815E+02 -0.13346585925E+03  0.13657722726E+03  0.00000000000E+00 0. -1.
          1    1    1    2  501    0 -0.55546980895E+02 -0.41739645833E+01 -0.13041503288E+03  0.14181315126E+03  0.00000000000E+00 0. -1.
<scales pt_clust_5="13000.00000" pt_clust_6="13000.00000" pt_clust_7="13000.00000" pt_clust_8="13000.00000" pt_clust_9="55.70358"></scales>
<clustering>
<clus scale="   55.704">  1  9  2 -1</clus>
<clus scale="   88.931">  5  6 -1 -1</clus>
<clus scale="   94.143">  7  8 -1 -1</clus>
<clus scale="  118.182">  2  5  1 -1</clus>
<clus scale="   55.704">  1  5  2 -1</clus>
</clustering>
</event>
<event>
 9    2  0.1592151E-004  0.1775909E+03  0.7546771E-02  0.1186472E+00
         21   -1    0    0  501  502  0.00000000000E+00  0.00000000000E+00  0.30411015827E+03  0.30411015827E+03  0.00000000000E+00 0. -1.
          2   -1    0    0  502    0 -0.00000000000E+00 -0.00000000000E+00 -0.18481988324E+03  0.18481988324E+03  0.00000000000E+00 0. -1.
         24    2    1    2    0    0  0.26537892727E+02 -0.69703967068E+02  0.50672602745E+02  0.13296374357E+03  0.97717662983E+02 0.  0.
         23    2    1    2    0    0  0.13651689509E+03  0.47914066028E+02 -0.16922762807E+02  0.17055100825E+03  0.88705389611E+02 0.  0.
        -13    1    3    3    0    0  0.29191535400E+02 -0.31320203362E+02 -0.23912172780E+02  0.49039707225E+02  0.00000000000E+00 0.  1.
         14    1    3    3    0    0 -0.26536426724E+01 -0.38383763706E+02  0.74584775525E+02  0.83924036341E+02  0.00000000000E+00 0. -1.
        -13    1    4    4    0    0  0.39962375693E+02  0.45976140952E+02  0.24251188679E+02  0.65566128148E+02  0.00000000000E+00 0. -1.
         13    1    4    4    0    0  0.96554519392E+02  0.19379250759E+01 -0.41173951486E+02  0.10498488010E+03  0.00000000000E+00 0.  1.
          1    1    1    2  501    0 -0.16305478781E+03  0.21789901040E+02  0.85540435100E+02  0.18541528970E+03  0.00000000000E+00 0. -1.
<scales pt_clust_5="13000.00000" pt_clust_6="13000.00000" pt_clust_7="13000.00000" pt_clust_8="13000.00000" pt_clust_9="153.85022"></scales>
<clustering>
<clus scale="   88.705">  7  8 -1 -1</clus>
<clus scale="   97.718">  5  6 -1 -1</clus>
<clus scale="  122.929">  2  5  1 -1</clus>
<clus scale="  153.850">  1  9  2 -1</clus>
<clus scale="  153.850">  1  5  2 -1</clus>
</clustering>
</event>
<event>
 9    2  0.1592151E-004  0.1013354E+03  0.7546771E-02  0.1282199E+00
          2   -1    0    0  502    0 -0.00000000000E+00  0.00000000000E+00  0.51608691912E+03  0.51608691912E+03  0.00000000000E+00 0. -1.
         21   -1    0    0  501  502  0.00000000000E+00 -0.00000000000E+00 -0.38863480896E+02  0.38863480896E+02  0.00000000000E+00 0. -1.
         24    2    1    2    0    0 -0.39494909443E+02  0.75403258613E+01  0.25924914240E+03  0.27464651813E+03  0.81264307659E+02 0.  0.
         23    2    1    2    0    0  0.42555274041E+02 -0.58312549425E+02  0.10573530811E+03  0.15707736331E+03  0.91005702651E+02 0.  0.
        -13    1    3    3    0    0  0.24012591682E+02 -0.44533665920E+01  0.96293990763E+02  0.99342688158E+02  0.00000000000E+00 0.  1.
         14    1    3    3    0    0 -0.63507501125E+02  0.11993692453E+02  0.16295515164E+03  0.17530382998E+03  0.00000000000E+00 0. -1.
        -13    1    4    4    0    0  0.21160061344E+02 -0.80367815063E+02  0.90188624052E+02  0.12264062052E+03  0.00000000000E+00 0. -1.
         13    1    4    4    0    0  0.21395212697E+02  0.22055265638E+02  0.15546684059E+02  0.34436742790E+02  0.00000000000E+00 0.  1.
          1    1    1    2  501    0 -0.30603645980E+01  0.50772223564E+02  0.11223898771E+03  0.12322651857E+03  0.00000000000E+00 0. -1.
<scales pt_clust_5="13000.00000" pt_clust_6="13000.00000" pt_clust_7="13000.00000" pt_clust_8="13000.00000" pt_clust_9="50.86440"></scales>
<clustering>
<clus scale="   50.864">  2  9  1 -1</clus>
<clus scale="   81.264">  5  6 -1 -1</clus>
<clus scale="   91.006">  7  8 -1 -1</clus>
<clus scale="   92.686">  1  5  2 -1</clus>
<clus scale="   50.864">  2  5  1 -1</clus>
</clustering>
</event>
<event>
 9    2  0.1592151E-004  0.1236037E+03  0.7546771E-02  0.1249786E+00
          2   -1    0    0  502    0 -0.00000000000E+00  0.00000000000E+00  0.41400898268E+03  0.41400898268E+03  0.00000000000E+00 0. -1.
         21   -1    0    0  501  502  0.00000000000E+00 -0.00000000000E+00 -0.63223608634E+02  0.63223608634E+02  0.00000000000E+00 0.  1.
         23    2    1    2    0    0  0.89048209161E+00 -0.29013995632E+02  0.64137886615E+02  0.11545024693E+03  0.91501290240E+02 0.  0.
         24    2    1    2    0    0  0.47477949409E+01 -0.78968120205E+02  0.14928494234E+03  0.18696702383E+03  0.80076016533E+02 0.  0.
        -13    1    4    4    0    0  0.26174192228E+02 -0.72813594268E+02  0.14487427630E+03  0.16424208895E+03  0.00000000000E+00 0.  1.
         14    1    4    4    0    0 -0.21426397287E+02 -0.61545259371E+01  0.44106660382E+01  0.22724934876E+02  0.00000000000E+00 0. -1.
        -11    1    3    3    0    0  0.56612218481E+00 -0.56950105863E+02  0.14950844939E+02  0.58882618968E+02  0.00000000000E+00 0.  1.
         11    1    3    3    0    0  0.32435990680E+00  0.27936110232E+02  0.49187041676E+02  0.56567627960E+02  0.00000000000E+00 0. -1.
          1    1    1    2  501    0 -0.56382770325E+01  0.10798211584E+03  0.13736254509E+03  0.17481532056E+03  0.00000000000E+00 0. -1.
<scales pt_clust_5="13000.00000" pt_clust_6="13000.00000" pt_clust_7="13000.00000" pt_clust_8="13000.00000" pt_clust_9="94.15799"></scales>
<clustering>
<clus scale="   80.076">  5  6 -1 -1</clus>
<clus scale="   91.501">  7  8 -1 -1</clus>
<clus scale="   95.995">  1  7  2 -1</clus>
<clus scale="   94.158">  2  9  1 -1</clus>
<clus scale="   94.158">  2  5  1 -1</clus>
</clustering>
</event>
<event>
 9    2  0.1592151E-004  0.1017772E+03  0.7546771E-02  0.1278543E+00
         21   -1    0    0  501  502  0.00000000000E+00  0.00000000000E+00  0.84078183781E+02  0.84078183781E+02  0.00000000000E+00 0.  1.
          2   -1    0    0  502    0 -0.00000000000E+00 -0.00000000000E+00 -0.38749398631E+03  0.38749398631E+03  0.00000000000E+00 0. -1.
         24    2    1    2    0    0 -0.34265967575E+02  0.32032876807E+02 -0.32328072735E+03  0.33807300283E+03  0.87078498159E+02 0.  0.
         23    2    1    2    0    0  0.31152641414E+02 -0.74984668054E+01  0.36871090046E+02  0.10348517503E+03  0.91230423091E+02 0.  0.
        -13    1    3    3    0    0  0.22184569557E+02  0.58281723141E+01 -0.27474931493E+02  0.35790984612E+02  0.00000000000E+00 0.  1.
         14    1    3    3    0    0 -0.56450537132E+02  0.26204704493E+02 -0.29580579585E+03  0.30228201822E+03  0.00000000000E+00 0. -1.
        -11    1    4    4    0    0  0.21456607237E+02 -0.49275085383E+02  0.18651476756E+02  0.56888466483E+02  0.00000000000E+00 0. -1.
         11    1    4    4    0    0  0.96960341774E+01  0.41776618578E+02  0.18219613289E+02  0.46596708542E+02  0.00000000000E+00 0.  1.
          1    1    1    2  501    0  0.31133261603E+01 -0.24534410002E+02 -0.17006165231E+02  0.30013992234E+02  0.00000000000E+00 0. -1.
<scales pt_clust_5="13000.00000" pt_clust_6="13000.00000" pt_clust_7="13000.00000" pt_clust_8="13000.00000" pt_clust_9="24.73116"></scales>
<clustering>
<clus scale="   24.731">  1  9  2 -1</clus>
<clus scale="   87.078">  5  6 -1 -1</clus>
<clus scale="   91.230">  7  8 -1 -1</clus>
<clus scale="   98.073">  2  5  1 -1</clus>
<clus scale="   24.731">  1  5  2 -1</clus>
</clustering>
</event>
<event>
 9    2  0.1592151E-004  0.1034139E+03  0.7546771E-02  0.1278341E+00
         21   -1    0    0  501  502  0.00000000000E+00  0.00000000000E+00  0.12743421563E+03  0.12743421563E+03  0.00000000000E+00 0.  1.
         -3   -1    0    0    0  501 -0.00000000000E+00 -0.00000000000E+00 -0.15665225105E+03  0.15665225105E+03  0.00000000000E+00 0.  1.
         24    2    1    2    0    0  0.15540281851E+02  0.36901587323E+02 -0.28314411778E+02  0.93705160543E+02  0.79848128914E+02 0.  0.
         23    2    1    2    0    0 -0.64397290391E+02 -0.46477999744E+02  0.38709242594E+02  0.12675824326E+03  0.90895716630E+02 0.  0.
        -13    1    3    3    0    0  0.30612771496E+02  0.31556254063E+02 -0.50115698347E+02  0.66667249606E+02  0.00000000000E+00 0.  1.
         14    1    3    3    0    0 -0.15072489645E+02  0.53453332596E+01  0.21801286569E+02  0.27037910937E+02  0.00000000000E+00 0. -1.
        -13    1    4    4    0    0  0.22782875133E+02 -0.94322501386E+01  0.15854536204E+02  0.29315406534E+02  0.00000000000E+00 0. -1.
         13    1    4    4    0    0 -0.87180165524E+02 -0.37045749605E+02  0.22854706390E+02  0.97442836723E+02  0.00000000000E+00 0.  1.
         -4    1    1    2    0  502  0.48857008540E+02  0.95764124209E+01 -0.39612866235E+02  0.63623062876E+02  0.00000000000E+00 0.  1.
<scales pt_clust_5="13000.00000" pt_clust_6="13000.00000" pt_clust_7="13000.00000" pt_clust_8="13000.00000" pt_clust_9="49.78672"></scales>
<clustering>
<clus scale="   49.787">  1  9  2 -1</clus>
<clus scale="   79.848">  5  6 -1 -1</clus>
<clus scale="   90.896">  7  8 -1 -1</clus>
<clus scale="   93.852">  2  5  1 -1</clus>
<clus scale="   49.787">  1  5  2 -1</clus>
</clustering>
</event>
<event>
 9    2  0.1592151E-004  0.1116742E+03  0.7546771E-02  0.1260891E+00
         21   -1    0    0  501  502  0.00000000000E+00  0.00000000000E+00  0.27931253353E+02  0.27931253353E+02  0.00000000000E+00 0. -1.
          4   -1    0    0  502    0 -0.00000000000E+00 -0.00000000000E+00 -0.60604739439E+03  0.60604739439E+03  0.00000000000E+00 0. -1.
         23    2    1    2    0    0 -0.33763494589E+02  0.44917117259E+02 -0.27362033537E+03  0.29420811034E+03  0.92373173986E+02 0.  0.
         24    2    1    2    0    0  0.63281702642E+02 -0.40885597744E+02 -0.18406978116E+03  0.21571407794E+03  0.83514508274E+02 0.  0.
        -13    1    4    4    0    0  0.46202156528E+02 -0.63541487783E+02 -0.10115991701E+03  0.12808391291E+03  0.00000000000E+00 0.  1.
         14    1    4    4    0    0  0.17079546114E+02  0.22655890040E+02 -0.82909864152E+02  0.87630165027E+02  0.00000000000E+00 0. -1.
        -11    1    3    3    0    0 -0.63619238994E+02  0.45387579227E+02 -0.20384611944E+03  0.21831326192E+03  0.00000000000E+00 0.  1.
         11    1    3    3    0    0  0.29855744405E+02 -0.47046196810E+00 -0.69774215928E+02  0.75894848421E+02  0.00000000000E+00 0. -1.
          3    1    1    2  501    0 -0.29518208053E+02 -0.40315195152E+01 -0.12042602451E+03  0.12405645947E+03  0.00000000000E+00 0. -1.
<scales pt_clust_5="13000.00000" pt_clust_6="13000.00000" pt_clust_7="13000.00000" pt_clust_8="13000.00000" pt_clust_9="29.79226"></scales>
<clustering>
<clus scale="   29.792">  1  9  2 -1</clus>
<clus scale="   83.515">  5  6 -1 -1</clus>
<clus scale="   92.373">  7  8 -1 -1</clus>
<clus scale="  104.465">  1  5  2 -1</clus>
<clus scale="   29.792">  1  5  2 -1</clus>
</clustering>
</event>
<event>
 9    2  0.1592151E-004  0.1069935E+03  0.7546771E-02  0.1270932E+00
         21   -1    0    0  501  502  0.00000000000E+00  0.00000000000E+00  0.56486601244E+02  0.56486601244E+02  0.00000000000E+00 0.  1.
          2   -1    0    0  502    0 -0.00000000000E+00 -0.00000000000E+00 -0.68480258692E+03  0.68480258692E+03  0.00000000000E+00 0. -1.
         23    2    1    2    0    0  0.20482625798E+02  0.48457022258E+02 -0.55151506967E+03  0.56162914383E+03  0.92145548824E+02 0.  0.
         24    2    1    2    0    0 -0.15647177542E+01 -0.65739998933E+02 -0.10035606409E+03  0.14485439064E+03  0.81161931266E+02 0.  0.
        -13    1    4    4    0    0 -0.11178647351E+02 -0.73310499223E+02 -0.41992573877E+02  0.85221873447E+02  0.00000000000E+00 0.  1.
         14    1    4    4    0    0  0.96139295969E+01  0.75705002906E+01 -0.58363490214E+02  0.59632517194E+02  0.00000000000E+00 0. -1.
        -13    1    3    3    0    0  0.10417572935E+02 -0.26923525177E+02 -0.11698672420E+03  0.12049604007E+03  0.00000000000E+00 0.  1.
         13    1    3    3    0    0  0.10065052863E+02  0.75380547435E+02 -0.43452834547E+03  0.44113310376E+03  0.00000000000E+00 0. -1.
          1    1    1    2  501    0 -0.18917908043E+02  0.17282976675E+02  0.23555148082E+02  0.34805653688E+02  0.00000000000E+00 0. -1.
<scales pt_clust_5="13000.00000" pt_clust_6="13000.00000" pt_clust_7="13000.00000" pt_clust_8="13000.00000" pt_clust_9="25.62398"></scales>
<clustering>
<clus scale="   25.624">  1  9  2 -1</clus>
<clus scale="   81.162">  5  6 -1 -1</clus>
<clus scale="   92.146">  7  8 -1 -1</clus>
<clus scale="   97.694">  1  5  2 -1</clus>
<clus scale="   25.624">  1  5  2 -1</clus>
</clustering>
</event>
<event>
 9    2  0.1592151E-004  0.2970151E+03  0.7546771E-02  0.1136254E+00
         21   -1    0    0  501  502  0.00000000000E+00  0.00000000000E+00  0.87305263032E+03  0.87305263032E+03  0.00000000000E+00 0. -1.
          2   -1    0    0  502    0 -0.00000000000E+00 -0.00000000000E+00 -0.40419895902E+03  0.40419895902E+03  0.00000000000E+00 0. -1.
         24    2    1    2    0    0  0.98582515562E+01  0.23658568818E+02 -0.79364795251E+02  0.11584798388E+03  0.80405669207E+02 0.  0.
         23    2    1    2    0    0 -0.56946582797E+02 -0.30016988478E+03 -0.19032531037E+03  0.37138922000E+03  0.91440450273E+02 0.  0.
        -11    1    3    3    0    0  0.43459946093E+02  0.21673185687E+02 -0.33672798254E+02  0.59096118607E+02  0.00000000000E+00 0.  1.
         12    1    3    3    0    0 -0.33601694536E+02  0.19853831305E+01 -0.45691996997E+02  0.56751865269E+02  0.00000000000E+00 0. -1.
        -11    1    4    4    0    0 -0.16607550419E+02 -0.13564299800E+03 -0.13770726607E+03  0.19400547612E+03  0.00000000000E+00 0. -1.
         11    1    4    4    0    0 -0.40339032378E+02 -0.16452688678E+03 -0.52618044301E+02  0.17738374388E+03  0.00000000000E+00 0.  1.
          1    1    1    2  501    0  0.47088331240E+02  0.27651131596E+03  0.73854377693E+03  0.79001438546E+03  0.00000000000E+00 0. -1.
<scales pt_clust_5="13000.00000" pt_clust_6="13000.00000" pt_clust_7="13000.00000" pt_clust_8="13000.00000" pt_clust_9="282.58914"></scales>
<clustering>
<clus scale="   80.406">  5  6 -1 -1</clus>
<clus scale="   84.392">  2  5  1 -1</clus>
<clus scale="   91.440">  7  8 -1 -1</clus>
<clus scale="  282.589">  1  9  2 -1</clus>
<clus scale="  282.589">  1  5  2 -1</clus>
</clustering>
</event>
<event>
 9    2  0.1592151E-004  0.9015875E+02  0.7546771E-02  0.1313650E+00
          2   -1    0    0  502    0 -0.00000000000E+00  0.00000000000E+00  0.14163288191E+03  0.14163288191E+03  0.00000000000E+00 0. -1.
         21   -1    0    0  501  502  0.00000000000E+00 -0.00000000000E+00 -0.13877132369E+03  0.13877132369E+03  0.00000000000E+00 0.  1.
         23    2    1    2    0    0 -0.41576952871E+01 -0.17200261032E+02  0.94189149861E+02  0.13114512112E+03  0.89522686695E+02 0.  0.
         24    2    1    2    0    0 -0.20610296803E+01 -0.22641881482E+02 -0.70645204473E+02  0.10393988325E+03  0.72772603191E+02 0.  0.
        -13    1    4    4    0    0 -0.14334668779E+02  0.15166449449E+02 -0.58904038505E+02  0.62491516786E+02  0.00000000000E+00 0.  1.
         14    1    4    4    0    0  0.12273639099E+02 -0.37808330931E+02 -0.11741165968E+02  0.41448366467E+02  0.00000000000E+00 0. -1.
        -11    1    3    3    0    0 -0.27636793924E+02  0.26710542722E+02  0.58042878032E+02  0.69614805617E+02  0.00000000000E+00 0.  1.
         11    1    3    3    0    0  0.23479098637E+02 -0.43910803754E+02  0.36146271828E+02  0.61530315505E+02  0.00000000000E+00 0. -1.
          1    1    1    2  501    0  0.62187249674E+01  0.39842142514E+02 -0.20682387173E+02  0.45319201223E+02  0.00000000000E+00 0. -1.
<scales pt_clust_5="13000.00000" pt_clust_6="13000.00000" pt_clust_7="13000.00000" pt_clust_8="13000.00000" pt_clust_9="40.32454"></scales>
<clustering>
<clus scale="   40.325">  2  9  1 -1</clus>
<clus scale="   72.773">  5  6 -1 -1</clus>
<clus scale="   73.554">  2  5  1 -1</clus>
<clus scale="   89.523">  7  8 -1 -1</clus>
<clus scale="   40.325">  2  5  1 -1</clus>
</clustering>
</event>
<event>
 9    2  0.5580209E-004  0.1555303E+03  0.7546771E-02  0.1194813E+00
         21   -1    0    0  501  502  0.00000000000E+00  0.00000000000E+00  0.31346567759E+03  0.31346567759E+03  0.00000000000E+00 0.  1.
          2   -1    0    0  502    0 -0.00000000000E+00 -0.00000000000E+00 -0.12106299690E+04  0.12106299690E+04  0.00000000000E+00 0. -1.
         24    2    1    2    0    0  0.10451160822E+03  0.73397794480E+02 -0.11801646475E+04  0.11899956141E+04  0.83612522700E+02 0.  0.
         23    2    1    2    0    0 -0.93640347921E+02 -0.40406183035E+02  0.25734491016E+03  0.29091632449E+03  0.89469160507E+02 0.  0.
        -13    1    3    3    0    0  0.38185436898E+02 -0.12577654413E+02 -0.21359255130E+03  0.21734328366E+03  0.00000000000E+00 0.  1.
         14    1    3    3    0    0  0.66326171326E+02  0.85975448893E+02 -0.96657209617E+03  0.97265233044E+03  0.00000000000E+00 0. -1.
        -13    1    4    4    0    0 -0.63557340677E+02 -0.90437323284E+01  0.23175854965E+03  0.24048565442E+03  0.00000000000E+00 0.  1.
         13    1    4    4    0    0 -0.30083007243E+02 -0.31362450707E+02  0.25586360518E+02  0.50430670070E+02  0.00000000000E+00 0. -1.
          1    1    1    2  501    0 -0.10871260303E+02 -0.32991611446E+02  0.25655445936E+02  0.43183707953E+02  0.00000000000E+00 0. -1.
<scales pt_clust_5="13000.00000" pt_clust_6="13000.00000" pt_clust_7="13000.00000" pt_clust_8="13000.00000" pt_clust_9="34.73659"></scales>
<clustering>
<clus scale="   34.737">  1  9  2 -1</clus>
<clus scale="   83.613">  5  6 -1 -1</clus>
<clus scale="   89.469">  7  8 -1 -1</clus>
<clus scale="  152.237">  2  5  1 -1</clus>
<clus scale="   34.737">  1  5  2 -1</clus>
</clustering>
</event>
<event>
 9    2  0.1592151E-004  0.9286813E+02  0.7546771E-02  0.1302284E+00
          2   -1    0    0  502    0 -0.00000000000E+00  0.00000000000E+00  0.14060292212E+03  0.14060292212E+03  0.00000000000E+00 0. -1.
         21   -1    0    0  501  502  0.00000000000E+00 -0.00000000000E+00 -0.28258216914E+03  0.28258216914E+03  0.00000000000E+00 0. -1.
         24    2    1    2    0    0  0.21776151838E+02  0.40628970793E+01  0.95449581117E+02  0.12605624692E+03  0.79302250473E+02 0.  0.
         23    2    1    2    0    0 -0.25811802221E+02 -0.27549595027E+02 -0.52457332398E+02  0.11062853417E+03  0.89786811563E+02 0.  0.
        -11    1    3    3    0    0  0.28307214983E+02 -0.15857245440E+02  0.45415456060E+01  0.32762421912E+02  0.00000000000E+00 0.  1.
         12    1    3    3    0    0 -0.65310631449E+01  0.19920142519E+02  0.90908035511E+02  0.93293825006E+02  0.00000000000E+00 0. -1.
        -11    1    4    4    0    0 -0.66583861593E+01 -0.34783761124E+02  0.16228253355E+02  0.38956390376E+02  0.00000000000E+00 0. -1.
         11    1    4    4    0    0 -0.19153416062E+02  0.72341660975E+01 -0.68685585754E+02  0.71672143796E+02  0.00000000000E+00 0.  1.
          1    1    1    2  501    0  0.40356503837E+01  0.23486697947E+02 -0.18497149574E+03  0.18650031016E+03  0.00000000000E+00 0. -1.
<scales pt_clust_5="13000.00000" pt_clust_6="13000.00000" pt_clust_7="13000.00000" pt_clust_8="13000.00000" pt_clust_9="23.83089"></scales>
<clustering>
<clus scale="   23.831">  2  9  1 -1</clus>
<clus scale="   79.302">  5  6 -1 -1</clus>
<clus scale="   82.775">  1  5  2 -1</clus>
<clus scale="   89.787">  7  8 -1 -1</clus>
<clus scale="   23.831">  2  5  1 -1</clus>
</clustering>
</event>
<event>
 9    2  0.1592151E-004  0.9574941E+02  0.7546771E-02  0.1297056E+00
         21   -1    0    0  501  502  0.00000000000E+00  0.00000000000E+00  0.10309519731E+03  0.10309519731E+03  0.00000000000E+00 0. -1.
          2   -1    0    0  502    0 -0.00000000000E+00 -0.00000000000E+00 -0.31412405349E+03  0.31412405349E+03  0.00000000000E+00 0. -1.
         23    2    1    2    0    0 -0.17580017459E+02 -0.31767749317E+02 -0.25535950367E+03  0.27353889503E+03  0.91086794134E+02 0.  0.
         24    2    1    2    0    0 -0.26833579374E+02  0.47815568941E+01  0.14208673058E+02  0.83612431638E+02  0.77757623845E+02 0.  0.
        -11    1    4    4    0    0 -0.16122279258E+02  0.36464917533E+02 -0.11424167436E+02  0.41474446359E+02  0.00000000000E+00 0.  1.
         12    1    4    4    0    0 -0.10711300116E+02 -0.31683360639E+02  0.25632840494E+02  0.42137985279E+02  0.00000000000E+00 0. -1.
        -13    1    3    3    0    0 -0.21700428871E+02  0.23380393688E+02 -0.39838396610E+02  0.51035764584E+02  0.00000000000E+00 0.  1.
         13    1    3    3    0    0  0.41204114122E+01 -0.55148143005E+02 -0.21552110706E+03  0.22250313044E+03  0.00000000000E+00 0. -1.
          1    1    1    2  501    0  0.44413596833E+02  0.26986192423E+02  0.30121974443E+02  0.60067924131E+02  0.00000000000E+00 0. -1.
<scales pt_clust_5="13000.00000" pt_clust_6="13000.00000" pt_clust_7="13000.00000" pt_clust_8="13000.00000" pt_clust_9="51.96943"></scales>
<clustering>
<clus scale="   51.969">  1  9  2 -1</clus>
<clus scale="   77.758">  5  6 -1 -1</clus>
<clus scale="   83.171">  1  5  2 -1</clus>
<clus scale="   91.087">  7  8 -1 -1</clus>
<clus scale="   51.969">  1  5  2 -1</clus>
</clustering>
</event>
<event>
 9    2  0.1592151E-004  0.9253877E+02  0.7546771E-02  0.1302122E+00
          2   -1    0    0  502    0 -0.00000000000E+00  0.00000000000E+00  0.12637241107E+03  0.12637241107E+03  0.00000000000E+00 0. -1.
         21   -1    0    0  501  502  0.00000000000E+00 -0.00000000000E+00 -0.13827553723E+03  0.13827553723E+03  0.00000000000E+00 0.  1.
         24    2    1    2    0    0  0.74412567254E+01 -0.76569834175E+01  0.73719187386E+02  0.11127125243E+03  0.82660579064E+02 0.  0.
         23    2    1    2    0    0 -0.34377459749E+02  0.59263947940E+01 -0.53818571755E+02  0.11166300552E+03  0.91407090762E+02 0.  0.
        -11    1    3    3    0    0 -0.16975925961E+02 -0.33088319118E+02  0.10099397700E+02  0.38535915173E+02  0.00000000000E+00 0.  1.
         12    1    3    3    0    0  0.24417182687E+02  0.25431335701E+02  0.63619789686E+02  0.72735337255E+02  0.00000000000E+00 0. -1.
        -13    1    4    4    0    0 -0.60356639642E+02 -0.20582477925E+01 -0.58505150848E+02  0.84083369394E+02  0.00000000000E+00 0.  1.
         13    1    4    4    0    0  0.25979179893E+02  0.79846425865E+01  0.46865790932E+01  0.27579636124E+02  0.00000000000E+00 0. -1.
          1    1    1    2  501    0  0.26936203024E+02  0.17305886235E+01 -0.31803741793E+02  0.41713690347E+02  0.00000000000E+00 0. -1.
<scales pt_clust_5="13000.00000" pt_clust_6="13000.00000" pt_clust_7="13000.00000" pt_clust_8="13000.00000" pt_clust_9="26.99174"></scales>
<clustering>
<clus scale="   26.992">  2  9  1 -1</clus>
<clus scale="   82.661">  5  6 -1 -1</clus>
<clus scale="   83.910">  1  5  2 -1</clus>
<clus scale="   91.407">  7  8 -1 -1</clus>
<clus scale="   26.992">  2  5  1 -1</clus>
</clustering>
</event>
<event>
 9    2  0.1592151E-004  0.2983926E+03  0.7546771E-02  0.1086435E+00
         21   -1    0    0  501  502  0.00000000000E+00  0.00000000000E+00  0.70973590616E+03  0.70973590616E+03  0.00000000000E+00 0.  1.
          4   -1    0    0  502    0 -0.00000000000E+00 -0.00000000000E+00 -0.16417764708E+03  0.16417764708E+03  0.00000000000E+00 0. -1.
         24    2    1    2    0    0  0.21372323301E+03  0.19876796685E+03  0.10860855667E+03  0.32156414033E+03  0.80133343810E+02 0.  0.
         23    2    1    2    0    0 -0.22069190226E+03 -0.15512322999E+03  0.41440653342E+03  0.50273469862E+03  0.90781441124E+02 0.  0.
        -13    1    3    3    0    0  0.10932402274E+02  0.45528840196E+02  0.50308689117E+01  0.47092487204E+02  0.00000000000E+00 0.  1.
         14    1    3    3    0    0  0.20279083073E+03  0.15323912665E+03  0.10357768776E+03  0.27447165312E+03  0.00000000000E+00 0. -1.
        -11    1    4    4    0    0 -0.19978174499E+03 -0.15214566640E+03  0.32416082657E+03  0.41005035169E+03  0.00000000000E+00 0.  1.
         11    1    4    4    0    0 -0.20910157262E+02 -0.29775635914E+01  0.90245706849E+02  0.92684346933E+02  0.00000000000E+00 0. -1.
          3    1    1    2  501    0  0.69686692479E+01 -0.43644736860E+02  0.22543168987E+02  0.49614714296E+02  0.00000000000E+00 0. -1.
<scales pt_clust_5="13000.00000" pt_clust_6="13000.00000" pt_clust_7="13000.00000" pt_clust_8="13000.00000" pt_clust_9="44.19759"></scales>
<clustering>
<clus scale="   44.198">  1  9  2 -1</clus>
<clus scale="   80.133">  5  6 -1 -1</clus>
<clus scale="   90.781">  7  8 -1 -1</clus>
<clus scale="  295.327">  2  5  1 -1</clus>
<clus scale="   44.198">  1  5  2 -1</clus>
</clustering>
</event>
<event>
 9    2  0.1592151E-004  0.1430760E+03  0.7546771E-02  0.1220034E+00
          2   -1    0    0  502    0 -0.00000000000E+00  0.00000000000E+00  0.68196922076E+03  0.68196922076E+03  0.00000000000E+00 0. -1.
         21   -1    0    0  501  502  0.00000000000E+00 -0.00000000000E+00 -0.55687512693E+02  0.55687512693E+02  0.00000000000E+00 0.  1.
         24    2    1    2    0    0  0.79789819208E+02 -0.92531455051E+01  0.11872421455E+03  0.16449071178E+03  0.80682830826E+02 0.  0.
         23    2    1    2    0    0 -0.21582667854E+02 -0.10310031496E+03  0.26362820286E+03  0.29836996751E+03  0.91811337369E+02 0.  0.
        -13    1    3    3    0    0  0.27750494514E+02 -0.40052841448E+02  0.30343187268E+02  0.57402343745E+02  0.00000000000E+00 0.  1.
         14    1    3    3    0    0  0.52039324694E+02  0.30799695943E+02  0.88381027281E+02  0.10708836803E+03  0.00000000000E+00 0. -1.
        -11    1    4    4    0    0  0.33516381648E+02 -0.47681268967E+02  0.14542105891E+03  0.15666568107E+03  0.00000000000E+00 0.  1.
         11    1    4    4    0    0 -0.55099049502E+02 -0.55419045991E+02  0.11820714395E+03  0.14170428644E+03  0.00000000000E+00 0. -1.
          1    1    1    2  501    0 -0.58207151353E+02  0.11235346046E+03  0.24392929066E+03  0.27479605417E+03  0.00000000000E+00 0. -1.
<scales pt_clust_5="13000.00000" pt_clust_6="13000.00000" pt_clust_7="13000.00000" pt_clust_8="13000.00000" pt_clust_9="109.73348"></scales>
<clustering>
<clus scale="   80.683">  5  6 -1 -1</clus>
<clus scale="   91.811">  7  8 -1 -1</clus>
<clus scale="  113.850">  1  5  2 -1</clus>
<clus scale="  109.733">  2  9  1 -1</clus>
<clus scale="  109.733">  2  5  1 -1</clus>
</clustering>
</event>
<event>
 9    2  0.1592151E-004  0.1153919E+03  0.7546771E-02  0.1255226E+00
         -3   -1    0    0    0  501 -0.00000000000E+00  0.00000000000E+00  0.32712561386E+03  0.32712561386E+03  0.00000000000E+00 0.  1.
         21   -1    0    0  501  502  0.00000000000E+00 -0.00000000000E+00 -0.73599500917E+02  0.73599500917E+02  0.00000000000E+00 0. -1.
         23    2    1    2    0    0 -0.59345371597E+02 -0.16795795124E+02  0.19351355997E+03  0.22299953553E+03  0.92072379638E+02 0.  0.
         24    2    1    2    0    0  0.87626611558E+02  0.56010039079E+01  0.78357368533E+02  0.14220538581E+03  0.79829194237E+02 0.  0.
        -13    1    4    4    0    0  0.54521273325E+02  0.42463863302E+02  0.44462215056E+02  0.82174433367E+02  0.00000000000E+00 0.  1.
         14    1    4    4    0    0  0.33105338233E+02 -0.36862859394E+02  0.33895153477E+02  0.60030952445E+02  0.00000000000E+00 0. -1.
        -11    1    3    3    0    0 -0.62667023170E+02 -0.47167784099E+02  0.15608565175E+03  0.17468453375E+03  0.00000000000E+00 0.  1.
         11    1    3    3    0    0  0.33216515727E+01  0.30371988975E+02  0.37427908218E+02  0.48315001780E+02  0.00000000000E+00 0. -1.
         -4    1    1    2    0  502 -0.28281239960E+02  0.11194791216E+02 -0.18344815554E+02  0.35520193437E+02  0.00000000000E+00 0.  1.
<scales pt_clust_5="13000.00000" pt_clust_6="13000.00000" pt_clust_7="13000.00000" pt_clust_8="13000.00000" pt_clust_9="30.41631"></scales>
<clustering>
<clus scale="   30.416">  2  9  1 -1</clus>
<clus scale="   79.829">  5  6 -1 -1</clus>
<clus scale="   92.072">  7  8 -1 -1</clus>
<clus scale="  105.880">  2  5  1 -1</clus>
<clus scale="   30.416">  2  5  1 -1</clus>
</clustering>
</event>
<event>
 9    2  0.1592151E-004  0.1010082E+03  0.7546771E-02  0.1283953E+00
         21   -1    0    0  501  502  0.00000000000E+00  0.00000000000E+00  0.84332682993E+02  0.84332682993E+02  0.00000000000E+00 0. -1.
         -1   -1    0    0    0  501 -0.00000000000E+00 -0.00000000000E+00 -0.39637114248E+03  0.39637114248E+03  0.00000000000E+00 0.  1.
         23    2    1    2    0    0  0.39374892448E+02  0.39117414547E+02 -0.49556504262E+02  0.11864418050E+03  0.92412337788E+02 0.  0.
         24    2    1    2    0    0  0.14430880992E+02 -0.34681071612E+02  0.49142556024E+01  0.89267643699E+02  0.80830286707E+02 0.  0.
        -13    1    4    4    0    0  0.37081782695E+02 -0.33385689461E+02 -0.21600217588E+02  0.54371244868E+02  0.00000000000E+00 0.  1.
         14    1    4    4    0    0 -0.22650901703E+02 -0.12953821508E+01  0.26514473190E+02  0.34896398831E+02  0.00000000000E+00 0. -1.
        -11    1    3    3    0    0  0.68905481868E+02  0.36474090113E+02 -0.32745711751E+02  0.84561257791E+02  0.00000000000E+00 0. -1.
         11    1    3    3    0    0 -0.29530589419E+02  0.26433244335E+01 -0.16810792510E+02  0.34082922708E+02  0.00000000000E+00 0.  1.
         -2    1    1    2    0  502 -0.53805773441E+02 -0.44363429347E+01 -0.26739621083E+03  0.27279200127E+03  0.00000000000E+00 0.  1.
<scales pt_clust_5="13000.00000" pt_clust_6="13000.00000" pt_clust_7="13000.00000" pt_clust_8="13000.00000" pt_clust_9="53.98838"></scales>
<clustering>
<clus scale="   53.988">  1  9  2 -1</clus>
<clus scale="   80.830">  5  6 -1 -1</clus>
<clus scale="   90.533">  1  5  2 -1</clus>
<clus scale="   92.412">  7  8 -1 -1</clus>
<clus scale="   53.988">  1  5  2 -1</clus>
</clustering>
</event>
<event>
 9    2  0.2725611E-004  0.1162384E+03  0.7546771E-02  0.1251216E+00
         -1   -1    0    0    0  501 -0.00000000000E+00  0.00000000000E+00  0.46710878347E+03  0.46710878347E+03  0.00000000000E+00 0.  1.
         21   -1    0    0  501  502  0.00000000000E+00 -0.00000000000E+00 -0.19930878198E+03  0.19930878198E+03  0.00000000000E+00 0. -1.
         24    2    1    2    0    0  0.57349810309E+02  0.44542414392E+02  0.42367647896E+03  0.43832830200E+03  0.85772455308E+02 0.  0.
         23    2    1    2    0    0 -0.73272777971E+02 -0.10760267822E+02 -0.14974145251E+03  0.19024203294E+03  0.91021124704E+02 0.  0.
        -13    1    3    3    0    0  0.63153958394E+02  0.65040335578E+02  0.35701178355E+03  0.36834234254E+03  0.00000000000E+00 0.  1.
         14    1    3    3    0    0 -0.58041480850E+01 -0.20497921186E+02  0.66664695406E+02  0.69985959460E+02  0.00000000000E+00 0. -1.
        -11    1    4    4    0    0 -0.50904927219E+02  0.18350424698E+02 -0.23899271060E+02  0.59154246331E+02  0.00000000000E+00 0.  1.
         11    1    4    4    0    0 -0.22367850752E+02 -0.29110692520E+02 -0.12584218145E+03  0.13108778661E+03  0.00000000000E+00 0. -1.
         -2    1    1    2    0  502  0.15922967661E+02 -0.33782146570E+02 -0.61350249602E+01  0.37847230510E+02  0.00000000000E+00 0.  1.
<scales pt_clust_5="13000.00000" pt_clust_6="13000.00000" pt_clust_7="13000.00000" pt_clust_8="13000.00000" pt_clust_9="37.34668"></scales>
<clustering>
<clus scale="   37.347">  2  9  1 -1</clus>
<clus scale="   85.772">  5  6 -1 -1</clus>
<clus scale="   91.021">  7  8 -1 -1</clus>
<clus scale="  112.176">  1  5  2 -1</clus>
<clus scale="   37.347">  2  5  1 -1</clus>
</clustering>
</event>
<event>
 9    2  0.1592151E-004  0.2562039E+03  0.7546771E-02  0.1125753E+00
         21   -1    0    0  501  502  0.00000000000E+00  0.00000000000E+00  0.38988898437E+03  0.38988898437E+03  0.00000000000E+00 0. -1.
          2   -1    0    0  502    0 -0.00000000000E+00 -0.00000000000E+00 -0.56964807793E+03  0.56964807793E+03  0.00000000000E+00 0. -1.
         23    2    1    2    0    0  0.81762147434E+01 -0.14454866985E+03  0.91349994712E+02  0.19306797536E+03  0.89270673427E+02 0.  0.
         24    2    1    2    0    0  0.22423365869E+03 -0.68277318997E+02  0.11054706639E+03  0.27152396757E+03  0.81006697872E+02 0.  0.
        -11    1    4    4    0    0  0.19656188732E+02 -0.30907581151E+02  0.13909527443E+01  0.36654864310E+02  0.00000000000E+00 0.  1.
         12    1    4    4    0    0  0.20457746996E+03 -0.37369737846E+02  0.10915611365E+03  0.23486910326E+03  0.00000000000E+00 0. -1.
        -11    1    3    3    0    0  0.40654694044E+02 -0.11922972293E+03  0.83536867043E+02  0.15115203979E+03  0.00000000000E+00 0. -1.
         11    1    3    3    0    0 -0.32478479300E+02 -0.25318946911E+02  0.78131276694E+01  0.41915935565E+02  0.00000000000E+00 0.  1.
          1    1    1    2  501    0 -0.23240987344E+03  0.21282598884E+03 -0.38165615466E+03  0.49494511937E+03  0.00000000000E+00 0. -1.
<scales pt_clust_5="13000.00000" pt_clust_6="13000.00000" pt_clust_7="13000.00000" pt_clust_8="13000.00000" pt_clust_9="243.06054"></scales>
<clustering>
<clus scale="   81.007">  5  6 -1 -1</clus>
<clus scale="   89.271">  7  8 -1 -1</clus>
<clus scale="  170.090">  2  7  1 -1</clus>
<clus scale="  243.061">  1  9  2 -1</clus>
<clus scale="  243.061">  1  5  2 -1</clus>
</clustering>
</event>
<event>
 9    2  0.1592151E-004  0.9300292E+02  0.7546771E-02  0.1296847E+00
          2   -1    0    0  502    0 -0.00000000000E+00  0.00000000000E+00  0.70240304975E+03  0.70240304975E+03  0.00000000000E+00 0. -1.
         21   -1    0    0  501  502  0.00000000000E+00 -0.00000000000E+00 -0.28447346037E+03  0.28447346037E+03  0.00000000000E+00 0. -1.
         24    2    1    2    0    0 -0.16652177279E+02  0.41303901181E+01  0.49161635790E+03  0.50001090765E+03  0.89609761098E+02 0.  0.
         23    2    1    2    0    0  0.89006417849E+01  0.41700963563E+02  0.19211161544E+03  0.21703346910E+03  0.91533939795E+02 0.  0.
        -13    1    3    3    0    0  0.30074561751E+02 -0.13180860175E+02  0.10038581005E+03  0.10561971974E+03  0.00000000000E+00 0.  1.
         14    1    3    3    0    0 -0.46726739030E+02  0.17311250293E+02  0.39123054785E+03  0.39439118791E+03  0.00000000000E+00 0. -1.
        -11    1    4    4    0    0  0.44128657039E+02 -0.10129833073E+01  0.67189582591E+02  0.80391569931E+02  0.00000000000E+00 0.  1.
         11    1    4    4    0    0 -0.35228015254E+02  0.42713946871E+02  0.12492203285E+03  0.13664189917E+03  0.00000000000E+00 0. -1.
          1    1    1    2  501    0  0.77515354941E+01 -0.45831353681E+02 -0.26579838397E+03  0.26983213337E+03  0.00000000000E+00 0. -1.
<scales pt_clust_5="13000.00000" pt_clust_6="13000.00000" pt_clust_7="13000.00000" pt_clust_8="13000.00000" pt_clust_9="46.48225"></scales>
<clustering>
<clus scale="   46.482">  2  9  1 -1</clus>
<clus scale="   89.610">  5  6 -1 -1</clus>
<clus scale="   91.110">  1  5  2 -1</clus>
<clus scale="   91.534">  7  8 -1 -1</clus>
<clus scale="   46.482">  2  5  1 -1</clus>
</clustering>
</event>
<event>
 9    2  0.1592151E-004  0.1639126E+03  0.7546771E-02  0.1185962E+00
         21   -1    0    0  501  502  0.00000000000E+00  0.00000000000E+00  0.69182409587E+02  0.69182409587E+02  0.00000000000E+00 0. -1.
          2   -1    0    0  502    0 -0.00000000000E+00 -0.00000000000E+00 -0.62919539483E+03  0.62919539483E+03  0.00000000000E+00 0. -1.
         23    2    1    2    0    0 -0.12159320352E+03  0.91002141121E+02 -0.36974251568E+03  0.40973822940E+03  0.90053272580E+02 0.  0.
         24    2    1    2    0    0  0.54771381785E+02 -0.10173477125E+03 -0.85878825833E+02  0.16422912332E+03  0.79032678536E+02 0.  0.
        -13    1    4    4    0    0  0.74761275016E+02 -0.74751859118E+02 -0.71904126033E+02  0.12785652906E+03  0.00000000000E+00 0.  1.
         14    1    4    4    0    0 -0.19989893231E+02 -0.26982912136E+02 -0.13974699800E+02  0.36372594260E+02  0.00000000000E+00 0. -1.
        -13    1    3    3    0    0  0.55017159954E+00  0.37502100185E+02 -0.44351179232E+02  0.58083881640E+02  0.00000000000E+00 0.  1.
         13    1    3    3    0    0 -0.12214337512E+03  0.53500040935E+02 -0.32539133644E+03  0.35165434776E+03  0.00000000000E+00 0. -1.
          1    1    1    2  501    0  0.66821821732E+02  0.10732630133E+02 -0.10439164374E+03  0.12441045170E+03  0.00000000000E+00 0. -1.
<scales pt_clust_5="13000.00000" pt_clust_6="13000.00000" pt_clust_7="13000.00000" pt_clust_8="13000.00000" pt_clust_9="67.67828"></scales>
<clustering>
<clus scale="   67.678">  1  9  2 -1</clus>
<clus scale="   79.033">  5  6 -1 -1</clus>
<clus scale="   90.053">  7  8 -1 -1</clus>
<clus scale="  158.126">  1  5  2 -1</clus>
<clus scale="   67.678">  1  5  2 -1</clus>
</clustering>
</event>
<event>
 9    2  0.1592151E-004  0.1780000E+03  0.7546771E-02  0.1171350E+00
         21   -1    0    0  501  502  0.00000000000E+00  0.00000000000E+00  0.18425467420E+03  0.18425467420E+03  0.00000000000E+00 0. -1.
          2   -1    0    0  502    0 -0.00000000000E+00 -0.00000000000E+00 -0.25857562899E+03  0.25857562899E+03  0.00000000000E+00 0. -1.
         23    2    1    2    0    0  0.10800820160E+03 -0.12771605508E+03 -0.12173283411E+03  0.22708720522E+03  0.93661910817E+02 0.  0.
         24    2    1    2    0    0 -0.10412950362E+03  0.68016640971E+02  0.47939233684E+02  0.15591549192E+03  0.80884198221E+02 0.  0.
        -13    1    4    4    0    0 -0.96131791884E+02  0.44740129627E+02  0.46696216769E+01  0.10613579027E+03  0.00000000000E+00 0.  1.
         14    1    4    4    0    0 -0.79977117401E+01  0.23276511344E+02  0.43269612007E+02  0.49779701653E+02  0.00000000000E+00 0. -1.
        -13    1    3    3    0    0  0.32717789826E+02  0.14089191482E+01  0.23373321746E+01  0.32831417056E+02  0.00000000000E+00 0.  1.
         13    1    3    3    0    0  0.75290411770E+02 -0.12912497423E+03 -0.12407016628E+03  0.19425578817E+03  0.00000000000E+00 0. -1.
          1    1    1    2  501    0 -0.38786979714E+01  0.59699414111E+02 -0.52735436521E+00  0.59827606051E+02  0.00000000000E+00 0. -1.
<scales pt_clust_5="13000.00000" pt_clust_6="13000.00000" pt_clust_7="13000.00000" pt_clust_8="13000.00000" pt_clust_9="59.82528"></scales>
<clustering>
<clus scale="   59.825">  1  9  2 -1</clus>
<clus scale="   80.884">  5  6 -1 -1</clus>
<clus scale="   93.662">  7  8 -1 -1</clus>
<clus scale="  171.621">  1  5  2 -1</clus>
<clus scale="   59.825">  1  5  2 -1</clus>
</clustering>
</event>
<event>
 9    2  0.1592151E-004  0.1430542E+03  0.7546771E-02  0.1229935E+00
         21   -1    0    0  501  502  0.00000000000E+00  0.00000000000E+00  0.11469861493E+03  0.11469861493E+03  0.00000000000E+00 0.  1.
         -1   -1    0    0    0  501 -0.00000000000E+00 -0.00000000000E+00 -0.42863721583E+03  0.42863721583E+03  0.00000000000E+00 0.  1.
         23    2    1    2    0    0 -0.15787201511E+02 -0.13848839546E+02 -0.28829821627E+02  0.97061437126E+02  0.90270359883E+02 0.  0.
         24    2    1    2    0    0  0.13177279778E+03  0.23983653969E+02 -0.29064164739E+03  0.32971545732E+03  0.79375246158E+02 0.  0.
        -13    1    4    4    0    0  0.13142547947E+03  0.31931021311E+01 -0.22212499300E+03  0.25811308581E+03  0.00000000000E+00 0.  1.
         14    1    4    4    0    0  0.34731831797E+00  0.20790551838E+02 -0.68516654394E+02  0.71602371504E+02  0.00000000000E+00 0. -1.
        -13    1    3    3    0    0 -0.28344831162E+02  0.17507333822E+02 -0.47843444259E+02  0.58300354628E+02  0.00000000000E+00 0. -1.
         13    1    3    3    0    0  0.12557629651E+02 -0.31356173368E+02  0.19013622632E+02  0.38761082497E+02  0.00000000000E+00 0.  1.
         -2    1    1    2    0  502 -0.11598559627E+03 -0.10134814423E+02  0.55328681062E+01  0.11655893632E+03  0.00000000000E+00 0.  1.
<scales pt_clust_5="13000.00000" pt_clust_6="13000.00000" pt_clust_7="13000.00000" pt_clust_8="13000.00000" pt_clust_9="119.01293"></scales>
<clustering>
<clus scale="   79.375">  5  6 -1 -1</clus>
<clus scale="   90.270">  7  8 -1 -1</clus>
<clus scale="   92.681">  2  7  1 -1</clus>
<clus scale="  119.013">  1  9  2 -1</clus>
<clus scale="  119.013">  1  5  2 -1</clus>
</clustering>
</event>
<event>
 9    2  0.1592151E-004  0.1514621E+03  0.7546771E-02  0.1222098E+00
          2   -1    0    0  502    0 -0.00000000000E+00  0.00000000000E+00  0.72831367398E+03  0.72831367398E+03  0.00000000000E+00 0. -1.
         21   -1    0    0  501  502  0.00000000000E+00 -0.00000000000E+00 -0.54237877847E+02  0.54237877847E+02  0.00000000000E+00 0. -1.
         23    2    1    2    0    0 -0.43803652574E+01 -0.12388377025E+02  0.10029662567E+03  0.13603505574E+03  0.90958582795E+02 0.  0.
         24    2    1    2    0    0 -0.53138552772E+01  0.14160922480E+03  0.39515007503E+03  0.42583491746E+03  0.71486960503E+02 0.  0.
        -13    1    4    4    0    0  0.26204243421E+02  0.30392339772E+02  0.69198317223E+02  0.79992273355E+02  0.00000000000E+00 0.  1.
         14    1    4    4    0    0 -0.31518098698E+02  0.11121688503E+03  0.32595175781E+03  0.34584264410E+03  0.00000000000E+00 0. -1.
        -13    1    3    3    0    0  0.15072849085E+02 -0.21857343282E+02  0.10939027959E+03  0.11256628049E+03  0.00000000000E+00 0.  1.
         13    1    3    3    0    0 -0.19453214342E+02  0.94689662567E+01 -0.90936539166E+01  0.23468775251E+02  0.00000000000E+00 0. -1.
          1    1    1    2  501    0  0.96942205346E+01 -0.12922084778E+03  0.17862909544E+03  0.22068157863E+03  0.00000000000E+00 0. -1.
<scales pt_clust_5="13000.00000" pt_clust_6="13000.00000" pt_clust_7="13000.00000" pt_clust_8="13000.00000" pt_clust_9="133.53040"></scales>
<clustering>
<clus scale="   71.487">  5  6 -1 -1</clus>
<clus scale="   90.959">  7  8 -1 -1</clus>
<clus scale="   91.903">  1  7  2 -1</clus>
<clus scale="  133.530">  2  9  1 -1</clus>
<clus scale="  133.530">  2  5  1 -1</clus>
</clustering>
</event>
<event>
 9    2  0.1592151E-004  0.1276963E+03  0.7546771E-02  0.1233671E+00
         21   -1    0    0  501  502  0.00000000000E+00  0.00000000000E+00  0.13122413287E+03  0.13122413287E+03  0.00000000000E+00 0. -1.
         -1   -1    0    0    0  501 -0.00000000000E+00 -0.00000000000E+00 -0.20725855202E+03  0.20725855202E+03  0.00000000000E+00 0.  1.
         24    2    1    2    0    0 -0.73712633434E+02  0.66458117237E+02 -0.57142759675E+02  0.13922366795E+03  0.79168813684E+02 0.  0.
         23    2    1    2    0    0  0.93853187935E+02 -0.86899728579E+00 -0.10485069526E+02  0.13013416361E+03  0.89530932165E+02 0.  0.
        -11    1    3    3    0    0 -0.49042912458E+02  0.52336463064E+01  0.36900040103E+01  0.49459220026E+02  0.00000000000E+00 0.  1.
         12    1    3    3    0    0 -0.24669720976E+02  0.61224470931E+02 -0.60832763686E+02  0.89764447926E+02  0.00000000000E+00 0. -1.
        -13    1    4    4    0    0  0.83184355178E+02 -0.21258351835E+02 -0.38317844309E+02  0.94020272609E+02  0.00000000000E+00 0.  1.
         13    1    4    4    0    0  0.10668832758E+02  0.20389354549E+02  0.27832774783E+02  0.36113891004E+02  0.00000000000E+00 0. -1.
         -2    1    1    2    0  502 -0.20140554501E+02 -0.65589119952E+02 -0.84065899502E+01  0.69124853318E+02  0.00000000000E+00 0.  1.
<scales pt_clust_5="13000.00000" pt_clust_6="13000.00000" pt_clust_7="13000.00000" pt_clust_8="13000.00000" pt_clust_9="68.61177"></scales>
<clustering>
<clus scale="   68.612">  1  9  2 -1</clus>
<clus scale="   79.169">  5  6 -1 -1</clus>
<clus scale="   89.531">  7  8 -1 -1</clus>
<clus scale="  120.658">  2  5  1 -1</clus>
<clus scale="   68.612">  1  5  2 -1</clus>
</clustering>
</event>
<event>
 9    2  0.1592151E-004  0.1172387E+03  0.7546771E-02  0.1254814E+00
         21   -1    0    0  501  502  0.00000000000E+00  0.00000000000E+00  0.11336847043E+03  0.11336847043E+03  0.00000000000E+00 0.  1.
          2   -1    0    0  502    0 -0.00000000000E+00 -0.00000000000E+00 -0.23713913150E+03  0.23713913150E+03  0.00000000000E+00 0. -1.
         24    2    1    2    0    0 -0.66200966324E+01  0.59771773590E+02 -0.62575349694E+02  0.11948062715E+03  0.82118544057E+02 0.  0.
         23    2    1    2    0    0 -0.38172819166E+02  0.43225747863E+02 -0.49407578353E+01  0.10541061627E+03  0.88098567148E+02 0.  0.
        -11    1    3    3    0    0  0.18627210840E+01  0.62242285155E+02 -0.79143534092E+02  0.10070387669E+03  0.00000000000E+00 0.  1.
         12    1    3    3    0    0 -0.84828177164E+01 -0.24705115654E+01  0.16568184398E+02  0.18776750466E+02  0.00000000000E+00 0. -1.
        -11    1    4    4    0    0 -0.19897922458E+02  0.66096130019E+02  0.14148945647E+02  0.70461467374E+02  0.00000000000E+00 0.  1.
         11    1    4    4    0    0 -0.18274896709E+02 -0.22870382156E+02 -0.19089703482E+02  0.34949148898E+02  0.00000000000E+00 0. -1.
          1    1    1    2  501    0  0.44792915799E+02 -0.10299752145E+03 -0.56254553544E+02  0.12561635851E+03  0.00000000000E+00 0. -1.
<scales pt_clust_5="13000.00000" pt_clust_6="13000.00000" pt_clust_7="13000.00000" pt_clust_8="13000.00000" pt_clust_9="77.35346"></scales>
<clustering>
<clus scale="   82.119">  5  6 -1 -1</clus>
<clus scale="   88.099">  7  8 -1 -1</clus>
<clus scale="  101.784">  2  5  1 -1</clus>
<clus scale="   77.353">  1  9  2 -1</clus>
<clus scale="   77.353">  1  5  2 -1</clus>
</clustering>
</event>
<event>
 9    2  0.1592151E-004  0.2703397E+03  0.7546771E-02  0.1101085E+00
         -1   -1    0    0    0  501 -0.00000000000E+00  0.00000000000E+00  0.47408519171E+02  0.47408519171E+02  0.00000000000E+00 0.  1.
         21   -1    0    0  501  502  0.00000000000E+00 -0.00000000000E+00 -0.14165850434E+04  0.14165850434E+04  0.00000000000E+00 0. -1.
         24    2    1    2    0    0  0.72951096076E+02  0.46796116459E+01 -0.46561328550E+03  0.47792836315E+03  0.79221382752E+02 0.  0.
         23    2    1    2    0    0  0.11931395713E+03  0.61859400926E+02 -0.59401605991E+03  0.61564280973E+03  0.89992132379E+02 0.  0.
        -13    1    3    3    0    0  0.36183237168E+02 -0.21592199654E+02 -0.87420096741E+02  0.97044953769E+02  0.00000000000E+00 0.  1.
         14    1    3    3    0    0  0.36767858907E+02  0.26271811300E+02 -0.37819318876E+03  0.38088340938E+03  0.00000000000E+00 0. -1.
        -11    1    4    4    0    0  0.29926160326E+02  0.65776676192E+02 -0.26286476786E+03  0.27261700678E+03  0.00000000000E+00 0.  1.
         11    1    4    4    0    0  0.89387796801E+02 -0.39172752669E+01 -0.33115129205E+03  0.34302580295E+03  0.00000000000E+00 0. -1.
         -2    1    1    2    0  502 -0.19226505320E+03 -0.66539012571E+02 -0.30954717886E+03  0.37042238974E+03  0.00000000000E+00 0.  1.
<scales pt_clust_5="13000.00000" pt_clust_6="13000.00000" pt_clust_7="13000.00000" pt_clust_8="13000.00000" pt_clust_9="203.45351"></scales>
<clustering>
<clus scale="   79.221">  5  6 -1 -1</clus>
<clus scale="   89.992">  7  8 -1 -1</clus>
<clus scale="   97.310">  5  7 -1 -1</clus>
<clus scale="  203.454">  2  9  1 -1</clus>
<clus scale="  203.454">  2  5  1 -1</clus>
</clustering>
</event>
<event>
 9    2  0.1592151E-004  0.1298641E+03  0.7546771E-02  0.1231427E+00
         -1   -1    0    0    0  501 -0.00000000000E+00  0.00000000000E+00  0.12010391583E+03  0.12010391583E+03  0.00000000000E+00 0.  1.
         21   -1    0    0  501  502  0.00000000000E+00 -0.00000000000E+00 -0.24184926572E+03  0.24184926572E+03  0.00000000000E+00 0.  1.
         23    2    1    2    0    0  0.71109968009E+02 -0.40728377672E+02 -0.70149178599E+02  0.14146136670E+03  0.91514931635E+02 0.  0.
         24    2    1    2    0    0 -0.37020934168E+02  0.10695825696E+03 -0.50621936543E+02  0.14599746425E+03  0.77084763799E+02 0.  0.
        -13    1    4    4    0    0 -0.14941417457E+02  0.10885396922E+03 -0.26073395783E+02  0.11292588073E+03  0.00000000000E+00 0.  1.
         14    1    4    4    0    0 -0.22079516711E+02 -0.18957122631E+01 -0.24548540760E+02  0.33071583521E+02  0.00000000000E+00 0. -1.
        -11    1    3    3    0    0  0.47832908812E+01 -0.21150879065E+02  0.18863546546E+02  0.28741484742E+02  0.00000000000E+00 0. -1.
         11    1    3    3    0    0  0.66326677128E+02 -0.19577498607E+02 -0.89012725145E+02  0.11271988196E+03  0.00000000000E+00 0.  1.
         -2    1    1    2    0  502 -0.34089033840E+02 -0.66229879285E+02 -0.97423474046E+00  0.74494350602E+02  0.00000000000E+00 0.  1.
<scales pt_clust_5="13000.00000" pt_clust_6="13000.00000" pt_clust_7="13000.00000" pt_clust_8="13000.00000" pt_clust_9="74.48802"></scales>
<clustering>
<clus scale="   74.488">  2  9  1 -1</clus>
<clus scale="   77.085">  5  6 -1 -1</clus>
<clus scale="   91.515">  7  8 -1 -1</clus>
<clus scale="  120.132">  2  5  1 -1</clus>
<clus scale="   74.488">  2  5  1 -1</clus>
</clustering>
</event>
<event>
 9    2  0.1592151E-004  0.1191444E+03  0.7546771E-02  0.1255177E+00
          2   -1    0    0  502    0 -0.00000000000E+00  0.00000000000E+00  0.20089649510E+03  0.20089649510E+03  0.00000000000E+00 0. -1.
         21   -1    0    0  501  502  0.00000000000E+00 -0.00000000000E+00 -0.29922250062E+03  0.29922250062E+03  0.00000000000E+00 0. -1.
         23    2    1    2    0    0  0.14474061968E+01  0.51619524464E+02  0.14873072782E+03  0.18979426555E+03  0.10599228060E+03 0.  0.
         24    2    1    2    0    0  0.17383232479E+02 -0.66343962897E+02 -0.58276570908E+02  0.12003717995E+03  0.79429639734E+02 0.  0.
        -11    1    4    4    0    0 -0.29382598562E+02 -0.10826466530E+02 -0.25534873231E+02  0.40405188116E+02  0.00000000000E+00 0.  1.
         12    1    4    4    0    0  0.46765831042E+02 -0.55517496367E+02 -0.32741697677E+02  0.79631991829E+02  0.00000000000E+00 0. -1.
        -13    1    3    3    0    0  0.24179499184E+02 -0.23178458212E+02  0.75846269609E+02  0.82912880299E+02  0.00000000000E+00 0. -1.
         13    1    3    3    0    0 -0.22732092987E+02  0.74797982676E+02  0.72884458212E+02  0.10688138525E+03  0.00000000000E+00 0.  1.
          1    1    1    2  501    0 -0.18830638676E+02  0.14724438433E+02 -0.18878016243E+03  0.19028755022E+03  0.00000000000E+00 0. -1.
<scales pt_clust_5="13000.00000" pt_clust_6="13000.00000" pt_clust_7="13000.00000" pt_clust_8="13000.00000" pt_clust_9="23.90402"></scales>
<clustering>
<clus scale="   23.904">  2  9  1 -1</clus>
<clus scale="   79.430">  5  6 -1 -1</clus>
<clus scale="   96.281">  2  5  1 -1</clus>
<clus scale="  105.992">  7  8 -1 -1</clus>
<clus scale="   23.904">  2  5  1 -1</clus>
</clustering>
</event>
<event>
 9    2  0.1592151E-004  0.1826640E+03  0.7546771E-02  0.1179476E+00
         21   -1    0    0  501  502  0.00000000000E+00  0.00000000000E+00  0.51880030946E+02  0.51880030946E+02  0.00000000000E+00 0. -1.
          2   -1    0    0  502    0 -0.00000000000E+00 -0.00000000000E+00 -0.13121529229E+04  0.13121529229E+04  0.00000000000E+00 0. -1.
         24    2    1    2    0    0  0.10482361659E+03 -0.10517736197E+02 -0.59198991281E+03  0.60654995661E+03  0.79700562233E+02 0.  0.
         23    2    1    2    0    0 -0.80866378616E+02  0.16198483078E+03 -0.37410667982E+03  0.42573621868E+03  0.92287937582E+02 0.  0.
        -13    1    3    3    0    0  0.13351328380E+02 -0.29361737979E+02 -0.82695610403E+02  0.88763357342E+02  0.00000000000E+00 0.  1.
         14    1    3    3    0    0  0.91472288208E+02  0.18844001782E+02 -0.50929430241E+03  0.51778659926E+03  0.00000000000E+00 0. -1.
        -11    1    4    4    0    0 -0.41715978941E+02  0.13959689298E+03 -0.21033199008E+03  0.25586531903E+03  0.00000000000E+00 0. -1.
         11    1    4    4    0    0 -0.39150399675E+02  0.22387937803E+02 -0.16377468973E+03  0.16987089966E+03  0.00000000000E+00 0.  1.
          1    1    1    2  501    0 -0.23957237973E+02 -0.15146709458E+03 -0.29417629928E+03  0.33174677851E+03  0.00000000000E+00 0. -1.
<scales pt_clust_5="13000.00000" pt_clust_6="13000.00000" pt_clust_7="13000.00000" pt_clust_8="13000.00000" pt_clust_9="157.63584"></scales>
<clustering>
<clus scale="   79.701">  5  6 -1 -1</clus>
<clus scale="   92.288">  7  8 -1 -1</clus>
<clus scale="  132.101">  2  5  1 -1</clus>
<clus scale="  157.636">  1  9  2 -1</clus>
<clus scale="  157.636">  1  5  2 -1</clus>
</clustering>
</event>
<event>
 9    2  0.1592151E-004  0.9270253E+02  0.7546771E-02  0.1302229E+00
          2   -1    0    0  502    0 -0.00000000000E+00  0.00000000000E+00  0.10737697756E+03  0.10737697756E+03  0.00000000000E+00 0. -1.
         21   -1    0    0  501  502  0.00000000000E+00 -0.00000000000E+00 -0.13588968036E+03  0.13588968036E+03  0.00000000000E+00 0. -1.
         23    2    1    2    0    0  0.17402287914E+02  0.19505047196E+02  0.30828262031E+02  0.99359639837E+02  0.90767118484E+02 0.  0.
         24    2    1    2    0    0  0.18795340613E+02 -0.12343763372E+02 -0.65266895201E+02  0.10653498378E+03  0.81143711016E+02 0.  0.
        -13    1    4    4    0    0  0.11622316186E+02 -0.22685386103E+02  0.12054466304E+02  0.28196012733E+02  0.00000000000E+00 0.  1.
         14    1    4    4    0    0  0.71730244274E+01  0.10341622731E+02 -0.77321361505E+02  0.78338971050E+02  0.00000000000E+00 0. -1.
        -13    1    3    3    0    0  0.12154368141E+02  0.54035669107E+02  0.43993824627E+01  0.55560208485E+02  0.00000000000E+00 0.  1.
         13    1    3    3    0    0  0.52479197732E+01 -0.34530621911E+02  0.26428879569E+02  0.43799431352E+02  0.00000000000E+00 0. -1.
          1    1    1    2  501    0 -0.36197628528E+02 -0.71612838239E+01  0.59259303774E+01  0.37372034302E+02  0.00000000000E+00 0. -1.
<scales pt_clust_5="13000.00000" pt_clust_6="13000.00000" pt_clust_7="13000.00000" pt_clust_8="13000.00000" pt_clust_9="36.89924"></scales>
<clustering>
<clus scale="   36.899">  2  9  1 -1</clus>
<clus scale="   81.144">  5  6 -1 -1</clus>
<clus scale="   83.303">  2  5  1 -1</clus>
<clus scale="   90.767">  7  8 -1 -1</clus>
<clus scale="   36.899">  2  5  1 -1</clus>
</clustering>
</event>
<event>
 9    2  0.1592151E-004  0.1538617E+03  0.7546771E-02  0.1213909E+00
         21   -1    0    0  501  502  0.00000000000E+00  0.00000000000E+00  0.10980921328E+03  0.10980921328E+03  0.00000000000E+00 0. -1.
          2   -1    0    0  502    0 -0.00000000000E+00 -0.00000000000E+00 -0.96084218805E+03  0.96084218805E+03  0.00000000000E+00 0. -1.
         23    2    1    2    0    0  0.11941270294E+02  0.46679603475E+02 -0.41446664707E+02  0.11211888588E+03  0.92364707756E+02 0.  0.
         24    2    1    2    0    0  0.27869856877E+02 -0.16924004642E+03 -0.80785609217E+03  0.82965667723E+03  0.79245278638E+02 0.  0.
        -13    1    4    4    0    0 -0.23621695893E+02 -0.31414527734E+02 -0.12117047854E+03  0.12738579960E+03  0.00000000000E+00 0.  1.
         14    1    4    4    0    0  0.51491552770E+02 -0.13782551869E+03 -0.68668561363E+03  0.70227087763E+03  0.00000000000E+00 0. -1.
        -11    1    3    3    0    0  0.25094430540E+02  0.64079967139E+02 -0.53527326340E+02  0.87184558827E+02  0.00000000000E+00 0. -1.
         11    1    3    3    0    0 -0.13153160246E+02 -0.17400363664E+02  0.12080661633E+02  0.24934327053E+02  0.00000000000E+00 0.  1.
          1    1    1    2  501    0 -0.39811127171E+02  0.12256044295E+03 -0.17302178919E+01  0.12887583822E+03  0.00000000000E+00 0. -1.
<scales pt_clust_5="13000.00000" pt_clust_6="13000.00000" pt_clust_7="13000.00000" pt_clust_8="13000.00000" pt_clust_9="131.88488"></scales>
<clustering>
<clus scale="   79.245">  5  6 -1 -1</clus>
<clus scale="   92.365">  7  8 -1 -1</clus>
<clus scale="  104.177">  2  7  1 -1</clus>
<clus scale="  131.885">  1  9  2 -1</clus>
<clus scale="  131.885">  1  5  2 -1</clus>
</clustering>
</event>
<event>
 9    2  0.1592151E-004  0.1002738E+03  0.7546771E-02  0.1286505E+00
         21   -1    0    0  501  502  0.00000000000E+00  0.00000000000E+00  0.12461329267E+03  0.12461329267E+03  0.00000000000E+00 0. -1.
          2   -1    0    0  502    0 -0.00000000000E+00 -0.00000000000E+00 -0.30548694899E+03  0.30548694899E+03  0.00000000000E+00 0. -1.
         24    2    1    2    0    0 -0.49452827671E+02  0.24438053190E+02 -0.19809496501E+03  0.21945867428E+03  0.76666119945E+02 0.  0.
         23    2    1    2    0    0  0.85277947658E+01 -0.21421001201E+02 -0.68455481192E+02  0.11564433981E+03  0.90309898954E+02 0.  0.
        -11    1    3    3    0    0 -0.24732303596E+02 -0.27294430899E+02 -0.85850304723E+02  0.93418133252E+02  0.00000000000E+00 0.  1.
         12    1    3    3    0    0 -0.24720524075E+02  0.51732484088E+02 -0.11224466028E+03  0.12604054103E+03  0.00000000000E+00 0. -1.
        -11    1    4    4    0    0 -0.15797593759E+02  0.22519871019E+02 -0.58213829384E+02  0.64386011609E+02  0.00000000000E+00 0. -1.
         11    1    4    4    0    0  0.24325388524E+02 -0.43940872220E+02 -0.10241651807E+02  0.51258328202E+02  0.00000000000E+00 0.  1.
          1    1    1    2  501    0  0.40925032905E+02 -0.30170519893E+01  0.85676789880E+02  0.94997227566E+02  0.00000000000E+00 0. -1.
<scales pt_clust_5="13000.00000" pt_clust_6="13000.00000" pt_clust_7="13000.00000" pt_clust_8="13000.00000" pt_clust_9="41.03609"></scales>
<clustering>
<clus scale="   41.036">  1  9  2 -1</clus>
<clus scale="   76.666">  5  6 -1 -1</clus>
<clus scale="   88.185">  2  5  1 -1</clus>
<clus scale="   90.310">  7  8 -1 -1</clus>
<clus scale="   41.036">  1  5  2 -1</clus>
</clustering>
</event>
<event>
 9    2  0.1592151E-004  0.1191814E+03  0.7546771E-02  0.1253788E+00
          2   -1    0    0  502    0 -0.00000000000E+00  0.00000000000E+00  0.68648296120E+02  0.68648296120E+02  0.00000000000E+00 0. -1.
         21   -1    0    0  501  502  0.00000000000E+00 -0.00000000000E+00 -0.73026583041E+03  0.73026583041E+03  0.00000000000E+00 0. -1.
         24    2    1    2    0    0 -0.65161763393E+02 -0.11607847550E+02  0.99738398617E+01  0.10399592483E+03  0.79591942853E+02 0.  0.
         23    2    1    2    0    0  0.11084169576E+02 -0.21539921331E+02 -0.30969657763E+03  0.32750698183E+03  0.10374018472E+03 0.  0.
        -13    1    3    3    0    0 -0.22762824433E+01 -0.34723590431E+02 -0.55072298450E+01  0.35231218752E+02  0.00000000000E+00 0.  1.
         14    1    3    3    0    0 -0.62885480950E+02  0.23115742880E+02  0.15481069707E+02  0.68764706082E+02  0.00000000000E+00 0. -1.
        -13    1    4    4    0    0 -0.43017811570E+02 -0.18765951598E+02 -0.19633150958E+03  0.20186320790E+03  0.00000000000E+00 0. -1.
         13    1    4    4    0    0  0.54101981146E+02 -0.27739697329E+01 -0.11336506805E+03  0.12564377393E+03  0.00000000000E+00 0.  1.
          1    1    1    2  501    0  0.54077593817E+02  0.33147768882E+02 -0.36189479652E+03  0.36741121987E+03  0.00000000000E+00 0. -1.
<scales pt_clust_5="13000.00000" pt_clust_6="13000.00000" pt_clust_7="13000.00000" pt_clust_8="13000.00000" pt_clust_9="63.42839"></scales>
<clustering>
<clus scale="   63.428">  2  9  1 -1</clus>
<clus scale="   79.592">  5  6 -1 -1</clus>
<clus scale="   98.879">  1  5  2 -1</clus>
<clus scale="  103.740">  7  8 -1 -1</clus>
<clus scale="   63.428">  2  5  1 -1</clus>
</clustering>
</event>
<event>
 9    2  0.1592151E-004  0.1025571E+03  0.7546771E-02  0.1278282E+00
          2   -1    0    0  502    0 -0.00000000000E+00  0.00000000000E+00  0.41483996963E+02  0.41483996963E+02  0.00000000000E+00 0. -1.
         21   -1    0    0  501  502  0.00000000000E+00 -0.00000000000E+00 -0.40129775198E+03  0.40129775198E+03  0.00000000000E+00 0. -1.
         23    2    1    2    0    0  0.33956419066E+02  0.41018467061E+02 -0.14096183246E+03  0.17431706131E+03  0.87639298369E+02 0.  0.
         24    2    1    2    0    0 -0.63929489985E+02 -0.36192122694E+01 -0.17798859587E+03  0.20548135089E+03  0.80265602321E+02 0.  0.
        -11    1    4    4    0    0  0.18284084292E+01  0.26866967335E+02 -0.73811594296E+02  0.78570531776E+02  0.00000000000E+00 0.  1.
         12    1    4    4    0    0 -0.65757898414E+02 -0.30486179604E+02 -0.10417700157E+03  0.12691081911E+03  0.00000000000E+00 0. -1.
        -11    1    3    3    0    0 -0.26260599740E+02 -0.80395784831E+00 -0.57554526968E+02  0.63267598511E+02  0.00000000000E+00 0.  1.
         11    1    3    3    0    0  0.60217018806E+02  0.41822424909E+02 -0.83407305491E+02  0.11104946280E+03  0.00000000000E+00 0. -1.
          1    1    1    2  501    0  0.29973070919E+02 -0.37399254791E+02 -0.40863326692E+02  0.62983336745E+02  0.00000000000E+00 0. -1.
<scales pt_clust_5="13000.00000" pt_clust_6="13000.00000" pt_clust_7="13000.00000" pt_clust_8="13000.00000" pt_clust_9="47.92798"></scales>
<clustering>
<clus scale="   47.928">  2  9  1 -1</clus>
<clus scale="   80.266">  5  6 -1 -1</clus>
<clus scale="   87.639">  7  8 -1 -1</clus>
<clus scale="   96.332">  2  5  1 -1</clus>
<clus scale="   47.928">  2  5  1 -1</clus>
</clustering>
</event>
<event>
 9    2  0.1592151E-004  0.1381424E+03  0.7546771E-02  0.1219075E+00
          4   -1    0    0  502    0 -0.00000000000E+00  0.00000000000E+00  0.36469541475E+03  0.36469541475E+03  0.00000000000E+00 0. -1.
         21   -1    0    0  501  502  0.00000000000E+00 -0.00000000000E+00 -0.88740691393E+02  0.88740691393E+02  0.00000000000E+00 0. -1.
         24    2    1    2    0    0 -0.40001798943E+02  0.70183611389E+02  0.19228623075E+03  0.23320050862E+03  0.10431969832E+03 0.  0.
         23    2    1    2    0    0  0.41883500425E+02 -0.98810341218E+02  0.11168753718E+03  0.18013450876E+03  0.91959905096E+02 0.  0.
        -11    1    3    3    0    0 -0.43437912245E+00  0.71344012453E+02  0.54327622620E+02  0.89675232800E+02  0.00000000000E+00 0.  1.
         12    1    3    3    0    0 -0.39567419821E+02 -0.11604010640E+01  0.13795860813E+03  0.14352527582E+03  0.00000000000E+00 0. -1.
        -11    1    4    4    0    0  0.71217776708E+02 -0.70797155489E+02  0.73707835969E+02  0.12456746777E+03  0.00000000000E+00 0. -1.
         11    1    4    4    0    0 -0.29334276283E+02 -0.28013185729E+02  0.37979701210E+02  0.55567040985E+02  0.00000000000E+00 0.  1.
          3    1    1    2  501    0 -0.18817014820E+01  0.28626729829E+02 -0.28019044574E+02  0.40101088763E+02  0.00000000000E+00 0. -1.
<scales pt_clust_5="13000.00000" pt_clust_6="13000.00000" pt_clust_7="13000.00000" pt_clust_8="13000.00000" pt_clust_9="28.68851"></scales>
<clustering>
<clus scale="   28.689">  2  9  1 -1</clus>
<clus scale="   91.960">  7  8 -1 -1</clus>
<clus scale="  104.320">  5  6 -1 -1</clus>
<clus scale="  129.063">  2  7  1 -1</clus>
<clus scale="   28.689">  2  5  1 -1</clus>
</clustering>
</event>
<event>
 9    2  0.1592151E-004  0.2873574E+03  0.7546771E-02  0.1137479E+00
          2   -1    0    0  502    0 -0.00000000000E+00  0.00000000000E+00  0.18139156185E+04  0.18139156185E+04  0.00000000000E+00 0. -1.
         21   -1    0    0  501  502  0.00000000000E+00 -0.00000000000E+00 -0.85458539836E+02  0.85458539836E+02  0.00000000000E+00 0. -1.
         24    2    1    2    0    0  0.16109753542E+02 -0.36858540117E+02  0.63932857130E+03  0.64569676912E+03  0.81026041714E+02 0.  0.
         23    2    1    2    0    0  0.14289888122E+03  0.25085700307E+03  0.82290147761E+03  0.87690700895E+03  0.91922436085E+02 0.  0.
        -13    1    3    3    0    0 -0.29642295319E+02 -0.24034758227E+01  0.14198461266E+03  0.14506575268E+03  0.00000000000E+00 0.  1.
         14    1    3    3    0    0  0.45752048861E+02 -0.34455064295E+02  0.49734395864E+03  0.50063101644E+03  0.00000000000E+00 0. -1.
        -13    1    4    4    0    0  0.15621924888E+03  0.23537889839E+03  0.77167853124E+03  0.82176361267E+03  0.00000000000E+00 0. -1.
         13    1    4    4    0    0 -0.13320367660E+02  0.15478104680E+02  0.51222946362E+02  0.55143396278E+02  0.00000000000E+00 0.  1.
          1    1    1    2  501    0 -0.15900863477E+03 -0.21399846296E+03  0.26622702980E+03  0.37677038030E+03  0.00000000000E+00 0. -1.
<scales pt_clust_5="13000.00000" pt_clust_6="13000.00000" pt_clust_7="13000.00000" pt_clust_8="13000.00000" pt_clust_9="272.25819"></scales>
<clustering>
<clus scale="   81.026">  5  6 -1 -1</clus>
<clus scale="   90.462">  1  5  2 -1</clus>
<clus scale="   91.922">  7  8 -1 -1</clus>
<clus scale="  272.258">  2  9  1 -1</clus>
<clus scale="  272.258">  2  5  1 -1</clus>
</clustering>
</event>
<event>
 9    2  0.1592151E-004  0.1603538E+03  0.7546771E-02  0.1190059E+00
          2   -1    0    0  502    0 -0.00000000000E+00  0.00000000000E+00  0.11092670143E+04  0.11092670143E+04  0.00000000000E+00 0. -1.
         21   -1    0    0  501  502  0.00000000000E+00 -0.00000000000E+00 -0.11115803993E+03  0.11115803993E+03  0.00000000000E+00 0. -1.
         24    2    1    2    0    0  0.97038884380E+02  0.98002477788E+02  0.94949397754E+03  0.96282376550E+03  0.80434814016E+02 0.  0.
         23    2    1    2    0    0 -0.10357428289E+03 -0.31263191360E+02  0.99677763892E+02  0.17331457579E+03  0.91636599438E+02 0.  0.
        -13    1    3    3    0    0 -0.87542276574E+01  0.33821196119E+02  0.16798215654E+03  0.17157655645E+03  0.00000000000E+00 0.  1.
         14    1    3    3    0    0  0.10579311204E+03  0.64181281669E+02  0.78151182100E+03  0.79124720905E+03  0.00000000000E+00 0. -1.
        -13    1    4    4    0    0 -0.52982407205E+02  0.31022927236E+02  0.39379883357E+02  0.72940610779E+02  0.00000000000E+00 0. -1.
         13    1    4    4    0    0 -0.50591875680E+02 -0.62286118596E+02  0.60297880535E+02  0.10037396501E+03  0.00000000000E+00 0.  1.
          1    1    1    2  501    0  0.65353985054E+01 -0.66739286428E+02 -0.51062767102E+02  0.84286712895E+02  0.00000000000E+00 0. -1.
<scales pt_clust_5="13000.00000" pt_clust_6="13000.00000" pt_clust_7="13000.00000" pt_clust_8="13000.00000" pt_clust_9="67.05851"></scales>
<clustering>
<clus scale="   67.059">  2  9  1 -1</clus>
<clus scale="   80.435">  5  6 -1 -1</clus>
<clus scale="   91.637">  7  8 -1 -1</clus>
<clus scale="  154.227">  1  5  2 -1</clus>
<clus scale="   67.059">  2  5  1 -1</clus>
</clustering>
</event>
<event>
 9    2  0.1592151E-004  0.1933422E+03  0.7546771E-02  0.1157427E+00
          2   -1    0    0  502    0 -0.00000000000E+00  0.00000000000E+00  0.84276462780E+03  0.84276462780E+03  0.00000000000E+00 0. -1.
         21   -1    0    0  501  502  0.00000000000E+00 -0.00000000000E+00 -0.11293836726E+03  0.11293836726E+03  0.00000000000E+00 0. -1.
         23    2    1    2    0    0 -0.11102075740E+03  0.83542982666E+02  0.17655799915E+03  0.24174029644E+03  0.89222224428E+02 0.  0.
         24    2    1    2    0    0  0.19209442682E+03 -0.15217983033E+03  0.14668772571E+03  0.29373455972E+03  0.68583767208E+02 0.  0.
        -11    1    4    4    0    0  0.90477573322E+02 -0.68167573062E+02  0.28842530945E+02  0.11689696695E+03  0.00000000000E+00 0.  1.
         12    1    4    4    0    0  0.10161685350E+03 -0.84012257272E+02  0.11784519476E+03  0.17683759277E+03  0.00000000000E+00 0. -1.
        -11    1    3    3    0    0 -0.21451760101E+02 -0.85783653507E+01  0.73448762292E+02  0.76996669056E+02  0.00000000000E+00 0.  1.
         11    1    3    3    0    0 -0.89568997299E+02  0.92121348017E+02  0.10310923686E+03  0.16474362738E+03  0.00000000000E+00 0. -1.
          1    1    1    2  501    0 -0.81073669419E+02  0.68636847669E+02  0.40658053569E+03  0.42022813891E+03  0.00000000000E+00 0. -1.
<scales pt_clust_5="13000.00000" pt_clust_6="13000.00000" pt_clust_7="13000.00000" pt_clust_8="13000.00000" pt_clust_9="106.22602"></scales>
<clustering>
<clus scale="   68.584">  5  6 -1 -1</clus>
<clus scale="   89.222">  7  8 -1 -1</clus>
<clus scale="  106.226">  2  9  1 -1</clus>
<clus scale="  184.728">  2  5  1 -1</clus>
<clus scale="  106.226">  2  5  1 -1</clus>
</clustering>
</event>
<event>
 9    2  0.1606753E-004  0.1627809E+03  0.7546771E-02  0.1212999E+00
          2   -1    0    0  502    0 -0.00000000000E+00  0.00000000000E+00  0.44385240753E+03  0.44385240753E+03  0.00000000000E+00 0. -1.
         21   -1    0    0  501  502  0.00000000000E+00 -0.00000000000E+00 -0.23922524179E+03  0.23922524179E+03  0.00000000000E+00 0.  1.
         24    2    1    2    0    0 -0.35899806272E+02  0.14924321569E+02  0.31676928432E+03  0.32922214397E+03  0.80826413529E+02 0.  0.
         23    2    1    2    0    0 -0.12388728208E+03 -0.53012241192E+01 -0.11789859630E+03  0.19367543591E+03  0.90741026144E+02 0.  0.
        -11    1    3    3    0    0  0.22675728816E+02 -0.11115405805E+02  0.77234286778E+02  0.81258082537E+02  0.00000000000E+00 0.  1.
         12    1    3    3    0    0 -0.58575535088E+02  0.26039727375E+02  0.23953499754E+03  0.24796406143E+03  0.00000000000E+00 0. -1.
        -13    1    4    4    0    0 -0.85026036894E+02 -0.43870387311E+02 -0.93349324090E+02  0.13367174025E+03  0.00000000000E+00 0.  1.
         13    1    4    4    0    0 -0.38861245190E+02  0.38569163192E+02 -0.24549272214E+02  0.60003695664E+02  0.00000000000E+00 0. -1.
          1    1    1    2  501    0  0.15978708836E+03 -0.96230974501E+01  0.57564777275E+01  0.16018006944E+03  0.00000000000E+00 0. -1.
<scales pt_clust_5="13000.00000" pt_clust_6="13000.00000" pt_clust_7="13000.00000" pt_clust_8="13000.00000" pt_clust_9="135.14333"></scales>
<clustering>
<clus scale="   80.826">  5  6 -1 -1</clus>
<clus scale="   89.691">  1  5  2 -1</clus>
<clus scale="   90.741">  7  8 -1 -1</clus>
<clus scale="  135.143">  2  9  1 -1</clus>
<clus scale="  135.143">  2  5  1 -1</clus>
</clustering>
</event>
<event>
 9    2  0.1592151E-004  0.3842704E+03  0.7546771E-02  0.1049674E+00
          2   -1    0    0  502    0 -0.00000000000E+00  0.00000000000E+00  0.96612184813E+03  0.96612184813E+03  0.00000000000E+00 0. -1.
         21   -1    0    0  501  502  0.00000000000E+00 -0.00000000000E+00 -0.47505874816E+03  0.47505874816E+03  0.00000000000E+00 0. -1.
         24    2    1    2    0    0  0.25682886424E+03 -0.28590523592E+03  0.82227385046E+03  0.91121642008E+03  0.80487325991E+02 0.  0.
         23    2    1    2    0    0 -0.20970376047E+03  0.18620748137E+03 -0.28299167519E+03  0.40960846638E+03  0.95110011182E+02 0.  0.
        -13    1    3    3    0    0  0.61210767755E+02 -0.12055869004E+03  0.24950104755E+03  0.28378148030E+03  0.00000000000E+00 0.  1.
         14    1    3    3    0    0  0.19561809648E+03 -0.16534654588E+03  0.57277280291E+03  0.62743493978E+03  0.00000000000E+00 0. -1.
        -13    1    4    4    0    0 -0.91690848983E+02  0.13290675784E+03 -0.11860820860E+03  0.20034801026E+03  0.00000000000E+00 0.  1.
         13    1    4    4    0    0 -0.11801291149E+03  0.53300723529E+02 -0.16438346659E+03  0.20926045612E+03  0.00000000000E+00 0. -1.
          1    1    1    2  501    0 -0.47125103763E+02  0.99697754546E+02 -0.48219075291E+02  0.12035570983E+03  0.00000000000E+00 0. -1.
<scales pt_clust_5="13000.00000" pt_clust_6="13000.00000" pt_clust_7="13000.00000" pt_clust_8="13000.00000" pt_clust_9="110.27428"></scales>
<clustering>
<clus scale="   80.487">  5  6 -1 -1</clus>
<clus scale="   95.110">  7  8 -1 -1</clus>
<clus scale="  110.274">  2  9  1 -1</clus>
<clus scale="  380.915">  1  5  2 -1</clus>
<clus scale="  110.274">  2  5  1 -1</clus>
</clustering>
</event>
<event>
 9    2  0.1592151E-004  0.1264972E+03  0.7546771E-02  0.1237811E+00
         21   -1    0    0  501  502  0.00000000000E+00  0.00000000000E+00  0.84185381153E+02  0.84185381153E+02  0.00000000000E+00 0. -1.
          2   -1    0    0  502    0 -0.00000000000E+00 -0.00000000000E+00 -0.37284125883E+03  0.37284125883E+03  0.00000000000E+00 0. -1.
         24    2    1    2    0    0  0.82254840992E+02 -0.18073068011E+02 -0.16442060432E+03  0.20157224501E+03  0.80651969491E+02 0.  0.
         23    2    1    2    0    0 -0.59141274769E+02  0.43675365675E+02  0.45074056952E+01  0.12217126775E+03  0.97469349082E+02 0.  0.
        -13    1    3    3    0    0  0.37522586647E+02  0.26169057636E+02 -0.34763455176E+02  0.57456608863E+02  0.00000000000E+00 0.  1.
         14    1    3    3    0    0  0.44732254345E+02 -0.44242125646E+02 -0.12965714914E+03  0.14411563615E+03  0.00000000000E+00 0. -1.
        -13    1    4    4    0    0  0.15677383528E+02 -0.16052649266E+02 -0.11327328348E+02  0.25135160040E+02  0.00000000000E+00 0.  1.
         13    1    4    4    0    0 -0.74818658297E+02  0.59728014941E+02  0.15834734043E+02  0.97036107714E+02  0.00000000000E+00 0. -1.
          1    1    1    2  501    0 -0.23113566223E+02 -0.25602297664E+02 -0.12874267905E+03  0.13328312721E+03  0.00000000000E+00 0. -1.
<scales pt_clust_5="13000.00000" pt_clust_6="13000.00000" pt_clust_7="13000.00000" pt_clust_8="13000.00000" pt_clust_9="34.49226"></scales>
<clustering>
<clus scale="   34.492">  1  9  2 -1</clus>
<clus scale="   80.652">  5  6 -1 -1</clus>
<clus scale="   97.469">  7  8 -1 -1</clus>
<clus scale="  114.044">  2  5  1 -1</clus>
<clus scale="   34.492">  1  5  2 -1</clus>
</clustering>
</event>
<event>
 9    2  0.1592151E-004  0.1360724E+03  0.7546771E-02  0.1236505E+00
         21   -1    0    0  501  502  0.00000000000E+00  0.00000000000E+00  0.12858071903E+03  0.12858071903E+03  0.00000000000E+00 0.  1.
         -1   -1    0    0    0  501 -0.00000000000E+00 -0.00000000000E+00 -0.41039799679E+03  0.41039799679E+03  0.00000000000E+00 0.  1.
         24    2    1    2    0    0 -0.42088476767E+02  0.25169504818E+02 -0.54108598725E+02  0.10854504766E+03  0.80307802032E+02 0.  0.
         23    2    1    2    0    0  0.13773662661E+03 -0.41945995298E+02 -0.27423103910E+03  0.32275660845E+03  0.90765195228E+02 0.  0.
        -13    1    3    3    0    0 -0.13692034982E+02  0.49784771348E+02 -0.47948897707E+02  0.70463409451E+02  0.00000000000E+00 0.  1.
         14    1    3    3    0    0 -0.28396441785E+02 -0.24615266530E+02 -0.61597010175E+01  0.38081638213E+02  0.00000000000E+00 0. -1.
        -13    1    4    4    0    0  0.11124316707E+03 -0.66749321628E+02 -0.18083725086E+03  0.22255926279E+03  0.00000000000E+00 0.  1.
         13    1    4    4    0    0  0.26493459537E+02  0.24803326330E+02 -0.93393788240E+02  0.10019734566E+03  0.00000000000E+00 0. -1.
         -2    1    1    2    0  502 -0.95648149840E+02  0.16776490480E+02  0.46522360066E+02  0.10767705970E+03  0.00000000000E+00 0.  1.
<scales pt_clust_5="13000.00000" pt_clust_6="13000.00000" pt_clust_7="13000.00000" pt_clust_8="13000.00000" pt_clust_9="101.37747"></scales>
<clustering>
<clus scale="   80.308">  5  6 -1 -1</clus>
<clus scale="   90.765">  7  8 -1 -1</clus>
<clus scale="   94.097">  2  5  1 -1</clus>
<clus scale="  101.377">  1  9  2 -1</clus>
<clus scale="  101.377">  1  5  2 -1</clus>
</clustering>
</event>
<event>
 9    2  0.1592151E-004  0.1117357E+03  0.7546771E-02  0.1260855E+00
         21   -1    0    0  501  502  0.00000000000E+00  0.00000000000E+00  0.43313124117E+03  0.43313124117E+03  0.00000000000E+00 0.  1.
         -3   -1    0    0    0  501 -0.00000000000E+00 -0.00000000000E+00 -0.73307155512E+02  0.73307155512E+02  0.00000000000E+00 0.  1.
         24    2    1    2    0    0 -0.13933694888E+02  0.84761964660E+02  0.16535300403E+02  0.11706945817E+03  0.77801692599E+02 0.  0.
         23    2    1    2    0    0  0.34317970068E+02 -0.36533934951E+01  0.23071479179E+03  0.24912977495E+03  0.87437173233E+02 0.  0.
        -11    1    3    3    0    0 -0.29989906044E+02  0.68001154296E+02  0.39715167426E+02  0.84266517513E+02  0.00000000000E+00 0.  1.
         12    1    3    3    0    0  0.16056211156E+02  0.16760810364E+02 -0.23179867023E+02  0.32802940660E+02  0.00000000000E+00 0. -1.
        -11    1    4    4    0    0 -0.11357916313E+02  0.30070000889E+02  0.12575287780E+03  0.12979596870E+03  0.00000000000E+00 0. -1.
         11    1    4    4    0    0  0.45675886380E+02 -0.33723394384E+02  0.10496191399E+03  0.11933380625E+03  0.00000000000E+00 0.  1.
         -4    1    1    2    0  502 -0.20384275179E+02 -0.81108571165E+02  0.11257399346E+03  0.14023916356E+03  0.00000000000E+00 0.  1.
<scales pt_clust_5="13000.00000" pt_clust_6="13000.00000" pt_clust_7="13000.00000" pt_clust_8="13000.00000" pt_clust_9="83.63085"></scales>
<clustering>
<clus scale="   77.802">  5  6 -1 -1</clus>
<clus scale="   83.631">  1  9  2 -1</clus>
<clus scale="   87.437">  7  8 -1 -1</clus>
<clus scale="  104.368">  2  5  1 -1</clus>
<clus scale="   83.631">  1  5  2 -1</clus>
</clustering>
</event>
<event>
 9    2  0.1592151E-004  0.9063706E+02  0.7546771E-02  0.1307308E+00
         -1   -1    0    0    0  501 -0.00000000000E+00  0.00000000000E+00  0.30764304930E+02  0.30764304930E+02  0.00000000000E+00 0.  1.
         21   -1    0    0  501  502  0.00000000000E+00 -0.00000000000E+00 -0.69189155767E+03  0.69189155767E+03  0.00000000000E+00 0. -1.
         23    2    1    2    0    0 -0.13279365617E+02  0.21832281277E+02 -0.80063717679E+02  0.12248180898E+03  0.89098847268E+02 0.  0.
         24    2    1    2    0    0 -0.58728751823E+01  0.26458257703E+02 -0.47144896199E+03  0.47887220239E+03  0.79498002483E+02 0.  0.
        -13    1    4    4    0    0 -0.38217898971E+02 -0.46309859127E+01 -0.18880888911E+03  0.19269366995E+03  0.00000000000E+00 0.  1.
         14    1    4    4    0    0  0.32345023789E+02  0.31089243616E+02 -0.28264007288E+03  0.28617853244E+03  0.00000000000E+00 0. -1.
        -11    1    3    3    0    0 -0.44632402930E+02  0.30263627714E+02 -0.27082594807E+02  0.60344059320E+02  0.00000000000E+00 0.  1.
         11    1    3    3    0    0  0.31353037313E+02 -0.84313464378E+01 -0.52981122872E+02  0.62137749656E+02  0.00000000000E+00 0. -1.
         -2    1    1    2    0  502  0.19152240799E+02 -0.48290538980E+02 -0.10961457307E+03  0.12130185123E+03  0.00000000000E+00 0.  1.
<scales pt_clust_5="13000.00000" pt_clust_6="13000.00000" pt_clust_7="13000.00000" pt_clust_8="13000.00000" pt_clust_9="51.94985"></scales>
<clustering>
<clus scale="   51.950">  2  9  1 -1</clus>
<clus scale="   79.498">  5  6 -1 -1</clus>
<clus scale="   81.218">  2  5  1 -1</clus>
<clus scale="   89.099">  7  8 -1 -1</clus>
<clus scale="   51.950">  2  5  1 -1</clus>
</clustering>
</event>
<event>
 9    2  0.1592151E-004  0.2183785E+03  0.7546771E-02  0.1149610E+00
          2   -1    0    0  502    0 -0.00000000000E+00  0.00000000000E+00  0.52619957809E+03  0.52619957809E+03  0.00000000000E+00 0. -1.
         21   -1    0    0  501  502  0.00000000000E+00 -0.00000000000E+00 -0.40771651669E+03  0.40771651669E+03  0.00000000000E+00 0. -1.
         24    2    1    2    0    0 -0.75489571691E+02 -0.10836240602E+03  0.35433357662E+03  0.38639412067E+03  0.79416915675E+02 0.  0.
         23    2    1    2    0    0 -0.13512391663E+03  0.29631543673E+02  0.60630621557E+02  0.17542298915E+03  0.89222483849E+02 0.  0.
        -11    1    3    3    0    0 -0.13965481176E+02 -0.29463107655E+02  0.22017059337E+02  0.39342855502E+02  0.00000000000E+00 0.  1.
         12    1    3    3    0    0 -0.61524090515E+02 -0.78899298369E+02  0.33231651728E+03  0.34705126517E+03  0.00000000000E+00 0. -1.
        -13    1    4    4    0    0 -0.98638386902E+01  0.22217504574E+02 -0.15333775297E+02  0.28740867907E+02  0.00000000000E+00 0.  1.
         13    1    4    4    0    0 -0.12526007794E+03  0.74140390997E+01  0.75964396854E+02  0.14668212124E+03  0.00000000000E+00 0. -1.
          1    1    1    2  501    0  0.21061348832E+03  0.78730862350E+02 -0.29648113677E+03  0.37209898496E+03  0.00000000000E+00 0. -1.
<scales pt_clust_5="13000.00000" pt_clust_6="13000.00000" pt_clust_7="13000.00000" pt_clust_8="13000.00000" pt_clust_9="199.32019"></scales>
<clustering>
<clus scale="   79.417">  5  6 -1 -1</clus>
<clus scale="   89.222">  7  8 -1 -1</clus>
<clus scale="  154.104">  1  5  2 -1</clus>
<clus scale="  199.320">  2  9  1 -1</clus>
<clus scale="  199.320">  2  5  1 -1</clus>
</clustering>
</event>
<event>
 9    2  0.1592151E-004  0.9863917E+02  0.7546771E-02  0.1289063E+00
          2   -1    0    0  502    0 -0.00000000000E+00  0.00000000000E+00  0.38836270628E+03  0.38836270628E+03  0.00000000000E+00 0. -1.
         21   -1    0    0  501  502  0.00000000000E+00 -0.00000000000E+00 -0.49327296169E+02  0.49327296169E+02  0.00000000000E+00 0.  1.
         23    2    1    2    0    0 -0.30845813528E+02  0.35526908602E+01  0.26896374800E+03  0.28603879296E+03  0.92263793081E+02 0.  0.
         24    2    1    2    0    0  0.52301824668E+02  0.13084550861E+02  0.27575183438E+02  0.10122196276E+03  0.81109855559E+02 0.  0.
        -11    1    4    4    0    0 -0.23871562668E+01  0.29565355434E+02 -0.11719104695E+02  0.31892729137E+02  0.00000000000E+00 0.  1.
         12    1    4    4    0    0  0.54688980935E+02 -0.16480804572E+02  0.39294288133E+02  0.69329233625E+02  0.00000000000E+00 0. -1.
        -11    1    3    3    0    0 -0.40173119102E+02 -0.34907356843E+02  0.19525134094E+03  0.20237462588E+03  0.00000000000E+00 0. -1.
         11    1    3    3    0    0  0.93273055733E+01  0.38460047703E+02  0.73712407062E+02  0.83664167082E+02  0.00000000000E+00 0.  1.
          1    1    1    2  501    0 -0.21456011140E+02 -0.16637241722E+02  0.42496478672E+02  0.50429246729E+02  0.00000000000E+00 0. -1.
<scales pt_clust_5="13000.00000" pt_clust_6="13000.00000" pt_clust_7="13000.00000" pt_clust_8="13000.00000" pt_clust_9="27.15067"></scales>
<clustering>
<clus scale="   27.151">  2  9  1 -1</clus>
<clus scale="   81.110">  5  6 -1 -1</clus>
<clus scale="   88.294">  2  5  1 -1</clus>
<clus scale="   92.264">  7  8 -1 -1</clus>
<clus scale="   27.151">  2  5  1 -1</clus>
</clustering>
</event>
<event>
 9    2  0.1592151E-004  0.1041127E+03  0.7546771E-02  0.1278021E+00
         21   -1    0    0  501  502  0.00000000000E+00  0.00000000000E+00  0.18040974333E+03  0.18040974333E+03  0.00000000000E+00 0.  1.
          2   -1    0    0  502    0 -0.00000000000E+00 -0.00000000000E+00 -0.14469436505E+03  0.14469436505E+03  0.00000000000E+00 0. -1.
         23    2    1    2    0    0 -0.31098477252E+02  0.35197076100E+02 -0.79034732375E+02  0.13147184728E+03  0.93980893017E+02 0.  0.
         24    2    1    2    0    0  0.48452808078E+02  0.14270575585E+01  0.12011268714E+03  0.15275124850E+03  0.80970211813E+02 0.  0.
        -13    1    4    4    0    0  0.27516868182E+02  0.27688890778E+02  0.11141774287E+03  0.11805831666E+03  0.00000000000E+00 0.  1.
         14    1    4    4    0    0  0.20935939896E+02 -0.26261833220E+02  0.86949442727E+01  0.34692931835E+02  0.00000000000E+00 0. -1.
        -13    1    3    3    0    0  0.33174167998E+02  0.34821925394E+01 -0.26705130544E+02  0.42729557505E+02  0.00000000000E+00 0. -1.
         13    1    3    3    0    0 -0.64272645250E+02  0.31714883561E+02 -0.52329601831E+02  0.88742289775E+02  0.00000000000E+00 0.  1.
          1    1    1    2  501    0 -0.17354330826E+02 -0.36624133659E+02 -0.53625764812E+01  0.40881012600E+02  0.00000000000E+00 0. -1.
<scales pt_clust_5="13000.00000" pt_clust_6="13000.00000" pt_clust_7="13000.00000" pt_clust_8="13000.00000" pt_clust_9="40.52779"></scales>
<clustering>
<clus scale="   40.528">  1  9  2 -1</clus>
<clus scale="   80.970">  5  6 -1 -1</clus>
<clus scale="   92.538">  1  5  2 -1</clus>
<clus scale="   93.981">  7  8 -1 -1</clus>
<clus scale="   40.528">  1  5  2 -1</clus>
</clustering>
</event>
<event>
 9    2  0.1592151E-004  0.9778502E+02  0.7546771E-02  0.1291909E+00
         21   -1    0    0  501  502  0.00000000000E+00  0.00000000000E+00  0.46522986307E+02  0.46522986307E+02  0.00000000000E+00 0.  1.
         -1   -1    0    0    0  501 -0.00000000000E+00 -0.00000000000E+00 -0.29698117246E+03  0.29698117246E+03  0.00000000000E+00 0.  1.
         23    2    1    2    0    0 -0.91761310094E+01 -0.11533385436E+02 -0.11581173963E+03  0.14903836506E+03  0.92643698447E+02 0.  0.
         24    2    1    2    0    0  0.50936483039E+02  0.95810160034E+01 -0.11139965329E+03  0.14663116041E+03  0.80028078046E+02 0.  0.
        -13    1    4    4    0    0  0.47897646321E+02  0.41202791975E+02 -0.67663099243E+02  0.92575102424E+02  0.00000000000E+00 0.  1.
         14    1    4    4    0    0  0.30388367178E+01 -0.31621775972E+02 -0.43736554051E+02  0.54056057981E+02  0.00000000000E+00 0. -1.
        -11    1    3    3    0    0 -0.80861478879E+01  0.38506651507E+02 -0.74041162185E+02  0.83846536575E+02  0.00000000000E+00 0. -1.
         11    1    3    3    0    0 -0.10899831215E+01 -0.50040036943E+02 -0.41770577448E+02  0.65191828481E+02  0.00000000000E+00 0.  1.
         -2    1    1    2    0  502 -0.41760352030E+02  0.19523694325E+01 -0.23246793225E+02  0.47834633304E+02  0.00000000000E+00 0.  1.
<scales pt_clust_5="13000.00000" pt_clust_6="13000.00000" pt_clust_7="13000.00000" pt_clust_8="13000.00000" pt_clust_9="41.80597"></scales>
<clustering>
<clus scale="   41.806">  1  9  2 -1</clus>
<clus scale="   80.028">  5  6 -1 -1</clus>
<clus scale="   85.928">  1  5  2 -1</clus>
<clus scale="   92.644">  7  8 -1 -1</clus>
<clus scale="   41.806">  1  5  2 -1</clus>
</clustering>
</event>
<event>
 9    2  0.1592151E-004  0.3323686E+03  0.7546771E-02  0.1070434E+00
         21   -1    0    0  501  502  0.00000000000E+00  0.00000000000E+00  0.41401421627E+03  0.41401421627E+03  0.00000000000E+00 0. -1.
          2   -1    0    0  502    0 -0.00000000000E+00 -0.00000000000E+00 -0.37692738882E+03  0.37692738882E+03  0.00000000000E+00 0. -1.
         23    2    1    2    0    0 -0.28450079275E+03  0.16345743379E+03  0.16390663028E+00  0.34039583395E+03  0.90610502523E+02 0.  0.
         24    2    1    2    0    0  0.30605129918E+03 -0.77524637192E+02  0.10162771113E+03  0.34083898125E+03  0.78521031378E+02 0.  0.
        -13    1    4    4    0    0  0.66271337554E+02  0.15153206781E+02  0.15490744405E+02  0.69724264207E+02  0.00000000000E+00 0.  1.
         14    1    4    4    0    0  0.23977996163E+03 -0.92677843973E+02  0.86136966729E+02  0.27111471704E+03  0.00000000000E+00 0. -1.
        -13    1    3    3    0    0 -0.20964148170E+03  0.13107703382E+03 -0.38340904651E+02  0.25020144806E+03  0.00000000000E+00 0. -1.
         13    1    3    3    0    0 -0.74859311058E+02  0.32380399970E+02  0.38504811281E+02  0.90194385890E+02  0.00000000000E+00 0.  1.
          1    1    1    2  501    0 -0.21550506427E+02 -0.85932796597E+02 -0.64704790308E+02  0.10970678989E+03  0.00000000000E+00 0. -1.
<scales pt_clust_5="13000.00000" pt_clust_6="13000.00000" pt_clust_7="13000.00000" pt_clust_8="13000.00000" pt_clust_9="88.59389"></scales>
<clustering>
<clus scale="   78.521">  5  6 -1 -1</clus>
<clus scale="   88.594">  1  9  2 -1</clus>
<clus scale="   90.611">  7  8 -1 -1</clus>
<clus scale="  329.278">  1  5  2 -1</clus>
<clus scale="   88.594">  1  5  2 -1</clus>
</clustering>
</event>
<event>
 9    2  0.1592151E-004  0.1507296E+03  0.7546771E-02  0.1230034E+00
          4   -1    0    0  502    0 -0.00000000000E+00  0.00000000000E+00  0.36560028952E+03  0.36560028952E+03  0.00000000000E+00 0. -1.
         21   -1    0    0  501  502  0.00000000000E+00 -0.00000000000E+00 -0.87562195930E+02  0.87562195930E+02  0.00000000000E+00 0. -1.
         24    2    1    2    0    0  0.98669896620E+01  0.10323681575E+01  0.27454346166E+02  0.83699759214E+02  0.78444154021E+02 0.  0.
         23    2    1    2    0    0  0.82378963243E+02  0.70326547386E+02  0.98463317612E+02  0.17778060443E+03  0.10089004680E+03 0.  0.
        -13    1    3    3    0    0 -0.21194214368E+02 -0.42074795840E+01 -0.18187430950E+02  0.28243233733E+02  0.00000000000E+00 0.  1.
         14    1    3    3    0    0  0.31061204030E+02  0.52398477415E+01  0.45641777116E+02  0.55456525481E+02  0.00000000000E+00 0. -1.
        -13    1    4    4    0    0  0.54997579390E+02  0.92104036386E+02  0.50905204551E+02  0.11874016636E+03  0.00000000000E+00 0. -1.
         13    1    4    4    0    0  0.27381383853E+02 -0.21777489000E+02  0.47558113061E+02  0.59040438063E+02  0.00000000000E+00 0.  1.
          3    1    1    2  501    0 -0.92245952905E+02 -0.71358915544E+02  0.15212042981E+03  0.19168212181E+03  0.00000000000E+00 0. -1.
<scales pt_clust_5="13000.00000" pt_clust_6="13000.00000" pt_clust_7="13000.00000" pt_clust_8="13000.00000" pt_clust_9="111.98494"></scales>
<clustering>
<clus scale="   78.444">  5  6 -1 -1</clus>
<clus scale="   79.069">  1  5  2 -1</clus>
<clus scale="  100.890">  7  8 -1 -1</clus>
<clus scale="  111.985">  2  9  1 -1</clus>
<clus scale="  111.985">  2  5  1 -1</clus>
</clustering>
</event>
<event>
 9    2  0.1592151E-004  0.1621791E+03  0.7546771E-02  0.1203666E+00
          2   -1    0    0  502    0 -0.00000000000E+00  0.00000000000E+00  0.70909817635E+03  0.70909817635E+03  0.00000000000E+00 0. -1.
         21   -1    0    0  501  502  0.00000000000E+00 -0.00000000000E+00 -0.61589037050E+02  0.61589037050E+02  0.00000000000E+00 0. -1.
         24    2    1    2    0    0  0.42915154044E+02 -0.60889076847E+02  0.26134833026E+03  0.28384821324E+03  0.81961383005E+02 0.  0.
         23    2    1    2    0    0  0.88902889378E+02 -0.12308224152E+02  0.24139733824E+03  0.27781674316E+03  0.10418374032E+03 0.  0.
        -11    1    3    3    0    0 -0.18518149610E+02 -0.15395153103E+02  0.22105821915E+02  0.32689447328E+02  0.00000000000E+00 0.  1.
         12    1    3    3    0    0  0.61433303655E+02 -0.45493923744E+02  0.23924250834E+03  0.25115876591E+03  0.00000000000E+00 0. -1.
        -11    1    4    4    0    0  0.67358386899E+02 -0.10538536813E+02  0.24637480846E+03  0.25563403390E+03  0.00000000000E+00 0.  1.
         11    1    4    4    0    0  0.21544502479E+02 -0.17696873387E+01 -0.49774702159E+01  0.22182709259E+02  0.00000000000E+00 0. -1.
          1    1    1    2  501    0 -0.13181804342E+03  0.73197300999E+02  0.14476347079E+03  0.20902225700E+03  0.00000000000E+00 0. -1.
<scales pt_clust_5="13000.00000" pt_clust_6="13000.00000" pt_clust_7="13000.00000" pt_clust_8="13000.00000" pt_clust_9="124.28919"></scales>
<clustering>
<clus scale="   81.961">  5  6 -1 -1</clus>
<clus scale="  104.184">  7  8 -1 -1</clus>
<clus scale="  110.756">  1  5  2 -1</clus>
<clus scale="  124.289">  2  9  1 -1</clus>
<clus scale="  124.289">  2  5  1 -1</clus>
</clustering>
</event>
<event>
 9    2  0.1592151E-004  0.1044634E+03  0.7546771E-02  0.1276761E+00
         21   -1    0    0  501  502  0.00000000000E+00  0.00000000000E+00  0.14345967220E+03  0.14345967220E+03  0.00000000000E+00 0. -1.
          2   -1    0    0  502    0 -0.00000000000E+00 -0.00000000000E+00 -0.12891717107E+03  0.12891717107E+03  0.00000000000E+00 0. -1.
         24    2    1    2    0    0 -0.12936468490E+02  0.18997522155E+02  0.54743145576E+01  0.84760657382E+02  0.81401123180E+02 0.  0.
         23    2    1    2    0    0  0.73189933783E+02 -0.35224457070E+02 -0.39238941261E+01  0.12387775433E+03  0.93449303308E+02 0.  0.
        -13    1    3    3    0    0 -0.27041760781E+02 -0.24128543825E+02  0.13515199084E+02  0.38679504385E+02  0.00000000000E+00 0.  1.
         14    1    3    3    0    0  0.14105292291E+02  0.43126065980E+02 -0.80408845261E+01  0.46081152997E+02  0.00000000000E+00 0. -1.
        -11    1    4    4    0    0  0.19461510920E+01  0.25848558469E+02 -0.14067697192E+02  0.29492975152E+02  0.00000000000E+00 0.  1.
         11    1    4    4    0    0  0.71243782691E+02 -0.61073015539E+02  0.10143803066E+02  0.94384779174E+02  0.00000000000E+00 0. -1.
          1    1    1    2  501    0 -0.60253465293E+02  0.16226934915E+02  0.12992080700E+02  0.63738431558E+02  0.00000000000E+00 0. -1.
<scales pt_clust_5="13000.00000" pt_clust_6="13000.00000" pt_clust_7="13000.00000" pt_clust_8="13000.00000" pt_clust_9="62.40027"></scales>
<clustering>
<clus scale="   62.400">  1  9  2 -1</clus>
<clus scale="   81.401">  5  6 -1 -1</clus>
<clus scale="   93.449">  7  8 -1 -1</clus>
<clus scale="   93.840">  2  5  1 -1</clus>
<clus scale="   62.400">  1  5  2 -1</clus>
</clustering>
</event>
<event>
 9    2  0.1592151E-004  0.9168409E+02  0.7546771E-02  0.1303106E+00
          2   -1    0    0  502    0 -0.00000000000E+00  0.00000000000E+00  0.32878831197E+03  0.32878831197E+03  0.00000000000E+00 0. -1.
         21   -1    0    0  501  502  0.00000000000E+00 -0.00000000000E+00 -0.10729680119E+03  0.10729680119E+03  0.00000000000E+00 0.  1.
         24    2    1    2    0    0  0.59270613010E+01  0.30495758801E+01  0.28480438233E+03  0.29718268618E+03  0.84614317948E+02 0.  0.
         23    2    1    2    0    0  0.21714984411E+02  0.26768306785E+01 -0.40012396174E+02  0.10229933181E+03  0.91572132606E+02 0.  0.
        -13    1    3    3    0    0  0.24764831121E+02  0.37825291271E+02  0.14416623361E+03  0.15108922011E+03  0.00000000000E+00 0.  1.
         14    1    3    3    0    0 -0.18837769820E+02 -0.34775715391E+02  0.14063814872E+03  0.14609346607E+03  0.00000000000E+00 0. -1.
        -13    1    4    4    0    0  0.21912813624E+02 -0.22204585439E+02  0.20188459248E+02  0.37158967992E+02  0.00000000000E+00 0. -1.
         13    1    4    4    0    0 -0.19782921259E+00  0.24881416118E+02 -0.60200855421E+02  0.65140363815E+02  0.00000000000E+00 0.  1.
          1    1    1    2  501    0 -0.27642045712E+02 -0.57264065586E+01 -0.23300475378E+02  0.36603095171E+02  0.00000000000E+00 0. -1.
<scales pt_clust_5="13000.00000" pt_clust_6="13000.00000" pt_clust_7="13000.00000" pt_clust_8="13000.00000" pt_clust_9="28.22896"></scales>
<clustering>
<clus scale="   28.229">  2  9  1 -1</clus>
<clus scale="   84.614">  5  6 -1 -1</clus>
<clus scale="   84.735">  1  5  2 -1</clus>
<clus scale="   91.572">  7  8 -1 -1</clus>
<clus scale="   28.229">  2  5  1 -1</clus>
</clustering>
</event>
<event>
 9    2  0.1592151E-004  0.1381074E+03  0.7546771E-02  0.1218279E+00
         21   -1    0    0  501  502  0.00000000000E+00  0.00000000000E+00  0.40528526875E+03  0.40528526875E+03  0.00000000000E+00 0.  1.
          2   -1    0    0  502    0 -0.00000000000E+00 -0.00000000000E+00 -0.79153120471E+02  0.79153120471E+02  0.00000000000E+00 0. -1.
         24    2    1    2    0    0  0.74275008913E+02  0.54923939297E+02  0.13890924011E+03  0.18486948258E+03  0.79671403567E+02 0.  0.
         23    2    1    2    0    0 -0.12683035697E+03 -0.14069407703E+02  0.16963739510E+03  0.23071828840E+03  0.90389131550E+02 0.  0.
        -11    1    3    3    0    0  0.52754887775E+02  0.54102121090E+01  0.11333858251E+03  0.12513186191E+03  0.00000000000E+00 0.  1.
         12    1    3    3    0    0  0.21520121137E+02  0.49513727188E+02  0.25570657596E+02  0.59737620673E+02  0.00000000000E+00 0. -1.
        -13    1    4    4    0    0 -0.99827656989E+02  0.30310320128E+02  0.10930033000E+03  0.15109877149E+03  0.00000000000E+00 0.  1.
         13    1    4    4    0    0 -0.27002699984E+02 -0.44379727831E+02  0.60337065101E+02  0.79619516915E+02  0.00000000000E+00 0. -1.
          1    1    1    2  501    0  0.52555348061E+02 -0.40854531594E+02  0.17585513068E+02  0.68850618236E+02  0.00000000000E+00 0. -1.
<scales pt_clust_5="13000.00000" pt_clust_6="13000.00000" pt_clust_7="13000.00000" pt_clust_8="13000.00000" pt_clust_9="66.56697"></scales>
<clustering>
<clus scale="   66.567">  1  9  2 -1</clus>
<clus scale="   79.671">  5  6 -1 -1</clus>
<clus scale="   90.389">  7  8 -1 -1</clus>
<clus scale="  131.343">  2  5  1 -1</clus>
<clus scale="   66.567">  1  5  2 -1</clus>
</clustering>
</event>
<event>
 9    2  0.1592151E-004  0.3014998E+03  0.7546771E-02  0.1130882E+00
          2   -1    0    0  502    0 -0.00000000000E+00  0.00000000000E+00  0.41297106849E+03  0.41297106849E+03  0.00000000000E+00 0. -1.
         21   -1    0    0  501  502  0.00000000000E+00 -0.00000000000E+00 -0.32902087819E+03  0.32902087819E+03  0.00000000000E+00 0. -1.
         24    2    1    2    0    0 -0.35524920841E+02 -0.27281978937E+02 -0.86927492004E+02  0.12655807082E+03  0.80338222829E+02 0.  0.
         23    2    1    2    0    0 -0.15231334081E+03 -0.21864599818E+03  0.89383939411E+02  0.29542604377E+03  0.91003474673E+02 0.  0.
        -11    1    3    3    0    0  0.96360840402E+01 -0.25344394942E+02  0.15961384216E+01  0.27161371992E+02  0.00000000000E+00 0.  1.
         12    1    3    3    0    0 -0.45161004881E+02 -0.19375839947E+01 -0.88523630426E+02  0.99396698825E+02  0.00000000000E+00 0. -1.
        -13    1    4    4    0    0 -0.29637966538E+02 -0.30492782068E+02 -0.18348963343E+02  0.46313100464E+02  0.00000000000E+00 0.  1.
         13    1    4    4    0    0 -0.12267537427E+03 -0.18815321611E+03  0.10773290275E+03  0.24911294331E+03  0.00000000000E+00 0. -1.
          1    1    1    2  501    0  0.18783826165E+03  0.24592797712E+03  0.81493742898E+02  0.32000783209E+03  0.00000000000E+00 0. -1.
<scales pt_clust_5="13000.00000" pt_clust_6="13000.00000" pt_clust_7="13000.00000" pt_clust_8="13000.00000" pt_clust_9="287.43791"></scales>
<clustering>
<clus scale="   80.338">  5  6 -1 -1</clus>
<clus scale="   91.003">  7  8 -1 -1</clus>
<clus scale="   91.981">  1  5  2 -1</clus>
<clus scale="  287.438">  2  9  1 -1</clus>
<clus scale="  287.438">  2  5  1 -1</clus>
</clustering>
</event>
<event>
 9    2  0.1592151E-004  0.9860124E+02  0.7546771E-02  0.1291674E+00
          2   -1    0    0  502    0 -0.00000000000E+00  0.00000000000E+00  0.14181974064E+03  0.14181974064E+03  0.00000000000E+00 0. -1.
         21   -1    0    0  501  502  0.00000000000E+00 -0.00000000000E+00 -0.79553692190E+02  0.79553692190E+02  0.00000000000E+00 0. -1.
         23    2    1    2    0    0  0.44060665833E+02  0.56525255828E+01  0.49562766878E+02  0.11237347590E+03  0.90543011359E+02 0.  0.
         24    2    1    2    0    0 -0.29026471715E+02 -0.21528448852E+02  0.21200581218E+02  0.85541993812E+02  0.74578535056E+02 0.  0.
        -13    1    4    4    0    0  0.25015398110E+01  0.25132744435E+02 -0.31161559277E+00  0.25258852874E+02  0.00000000000E+00 0.  1.
         14    1    4    4    0    0 -0.31528011526E+02 -0.46661193287E+02  0.21512196810E+02  0.60283140938E+02  0.00000000000E+00 0. -1.
        -13    1    3    3    0    0 -0.10031106273E+02 -0.27322957269E+02 -0.40438349235E+01  0.29385705502E+02  0.00000000000E+00 0.  1.
         13    1    3    3    0    0  0.54091772106E+02  0.32975482851E+02  0.53606601801E+02  0.82987770397E+02  0.00000000000E+00 0. -1.
          1    1    1    2  501    0 -0.15034194118E+02  0.15875923269E+02 -0.84972996452E+01  0.23457963119E+02  0.00000000000E+00 0. -1.
<scales pt_clust_5="13000.00000" pt_clust_6="13000.00000" pt_clust_7="13000.00000" pt_clust_8="13000.00000" pt_clust_9="21.86486"></scales>
<clustering>
<clus scale="   21.865">  2  9  1 -1</clus>
<clus scale="   74.579">  5  6 -1 -1</clus>
<clus scale="   84.179">  2  5  1 -1</clus>
<clus scale="   90.543">  7  8 -1 -1</clus>
<clus scale="   21.865">  2  5  1 -1</clus>
</clustering>
</event>
<event>
 9    2  0.1600737E-004  0.1042081E+03  0.7546771E-02  0.1280076E+00
         21   -1    0    0  501  502  0.00000000000E+00  0.00000000000E+00  0.21456485330E+03  0.21456485330E+03  0.00000000000E+00 0.  1.
         -3   -1    0    0    0  501 -0.00000000000E+00 -0.00000000000E+00 -0.32826453482E+03  0.32826453482E+03  0.00000000000E+00 0.  1.
         23    2    1    2    0    0  0.32047545820E+02  0.28399759687E+02 -0.27220672165E+03  0.29097636076E+03  0.93472732200E+02 0.  0.
         24    2    1    2    0    0 -0.22925701134E+02 -0.92654775236E+02  0.65366631522E+02  0.13833188047E+03  0.75844693240E+02 0.  0.
        -11    1    4    4    0    0  0.42629164125E+01 -0.68923764506E+02  0.66017102528E+01  0.69370313163E+02  0.00000000000E+00 0.  1.
         12    1    4    4    0    0 -0.27188617547E+02 -0.23731010730E+02  0.58764921269E+02  0.68961567312E+02  0.00000000000E+00 0. -1.
        -13    1    3    3    0    0 -0.22439749391E+02 -0.10834174367E+02 -0.26991670087E+02  0.36735159467E+02  0.00000000000E+00 0. -1.
         13    1    3    3    0    0  0.54487295211E+02  0.39233934054E+02 -0.24521505157E+03  0.25424120129E+03  0.00000000000E+00 0.  1.
         -4    1    1    2    0  502 -0.91218446853E+01  0.64255015549E+02  0.93140408606E+02  0.11352114688E+03  0.00000000000E+00 0.  1.
<scales pt_clust_5="13000.00000" pt_clust_6="13000.00000" pt_clust_7="13000.00000" pt_clust_8="13000.00000" pt_clust_9="64.89927"></scales>
<clustering>
<clus scale="   64.899">  1  9  2 -1</clus>
<clus scale="   75.845">  5  6 -1 -1</clus>
<clus scale="   88.739">  1  5  2 -1</clus>
<clus scale="   93.473">  7  8 -1 -1</clus>
<clus scale="   64.899">  1  5  2 -1</clus>
</clustering>
</event>
<event>
 9    2  0.1592151E-004  0.2642080E+03  0.7546771E-02  0.1128892E+00
         -1   -1    0    0    0  501 -0.00000000000E+00  0.00000000000E+00  0.79812540620E+03  0.79812540620E+03  0.00000000000E+00 0.  1.
         21   -1    0    0  501  502  0.00000000000E+00 -0.00000000000E+00 -0.16622262370E+03  0.16622262370E+03  0.00000000000E+00 0.  1.
         24    2    1    2    0    0  0.19347021307E+02 -0.11657137661E+03  0.28092402653E+03  0.31546821937E+03  0.81478191378E+02 0.  0.
         23    2    1    2    0    0  0.23201017578E+03 -0.14642056584E+02  0.10147928860E+03  0.27119291666E+03  0.95939775635E+02 0.  0.
        -11    1    3    3    0    0  0.39795453102E+01 -0.10170038063E+03  0.27507165900E+03  0.29329715612E+03  0.00000000000E+00 0.  1.
         12    1    3    3    0    0  0.15367475996E+02 -0.14870995983E+02  0.58523675322E+01  0.22171063253E+02  0.00000000000E+00 0. -1.
        -11    1    4    4    0    0  0.12661681512E+03  0.39312965874E+02  0.44979564863E+02  0.14000174432E+03  0.00000000000E+00 0. -1.
         11    1    4    4    0    0  0.10539336066E+03 -0.53955022458E+02  0.56499723735E+02  0.13119117234E+03  0.00000000000E+00 0.  1.
         -2    1    1    2    0  502 -0.25135719708E+03  0.13121343320E+03  0.24949946737E+03  0.37768689386E+03  0.00000000000E+00 0.  1.
<scales pt_clust_5="13000.00000" pt_clust_6="13000.00000" pt_clust_7="13000.00000" pt_clust_8="13000.00000" pt_clust_9="246.17365"></scales>
<clustering>
<clus scale="   81.478">  5  6 -1 -1</clus>
<clus scale="   95.940">  7  8 -1 -1</clus>
<clus scale="  143.534">  1  5  2 -1</clus>
<clus scale="  246.174">  2  9  1 -1</clus>
<clus scale="  246.174">  2  5  1 -1</clus>
</clustering>
</event>
<event>
 9    2  0.1592151E-004  0.1281393E+03  0.7546771E-02  0.1233334E+00
          2   -1    0    0  502    0 -0.00000000000E+00  0.00000000000E+00  0.75039879258E+02  0.75039879258E+02  0.00000000000E+00 0. -1.
         21   -1    0    0  501  502  0.00000000000E+00 -0.00000000000E+00 -0.68162622328E+03  0.68162622328E+03  0.00000000000E+00 0. -1.
         24    2    1    2    0    0  0.98608710958E+02  0.46696412904E+02 -0.18254604833E+02  0.13718045856E+03  0.81123453819E+02 0.  0.
         23    2    1    2    0    0 -0.33758471520E+02 -0.13153150791E+02 -0.18852797399E+03  0.21306990282E+03  0.92430226316E+02 0.  0.
        -11    1    3    3    0    0  0.73634542315E+02 -0.41590872331E+01 -0.29474361386E+02  0.79423433618E+02  0.00000000000E+00 0.  1.
         12    1    3    3    0    0  0.24974168643E+02  0.50855500137E+02  0.11219756552E+02  0.57757024947E+02  0.00000000000E+00 0. -1.
        -11    1    4    4    0    0 -0.65559106030E+02 -0.88423015281E+01 -0.11186979768E+03  0.12996551201E+03  0.00000000000E+00 0.  1.
         11    1    4    4    0    0  0.31800634510E+02 -0.43108492628E+01 -0.76658176313E+02  0.83104390812E+02  0.00000000000E+00 0. -1.
          1    1    1    2  501    0 -0.64850239438E+02 -0.33543262113E+02 -0.39980376520E+03  0.40641574115E+03  0.00000000000E+00 0. -1.
<scales pt_clust_5="13000.00000" pt_clust_6="13000.00000" pt_clust_7="13000.00000" pt_clust_8="13000.00000" pt_clust_9="73.01167"></scales>
<clustering>
<clus scale="   73.012">  2  9  1 -1</clus>
<clus scale="   81.123">  5  6 -1 -1</clus>
<clus scale="   92.430">  7  8 -1 -1</clus>
<clus scale="  120.239">  1  5  2 -1</clus>
<clus scale="   73.012">  2  5  1 -1</clus>
</clustering>
</event>
<event>
 9    2  0.1592151E-004  0.1750432E+03  0.7546771E-02  0.1174386E+00
         21   -1    0    0  501  502  0.00000000000E+00  0.00000000000E+00  0.69013478374E+02  0.69013478374E+02  0.00000000000E+00 0.  1.
         -1   -1    0    0    0  501 -0.00000000000E+00 -0.00000000000E+00 -0.67383404302E+03  0.67383404302E+03  0.00000000000E+00 0.  1.
         24    2    1    2    0    0  0.53253514755E+02 -0.17039886123E+03 -0.36659455414E+03  0.41547117751E+03  0.79705855932E+02 0.  0.
         23    2    1    2    0    0 -0.63924609642E+02  0.98927830077E+02 -0.18176137190E+03  0.23566900518E+03  0.92895707144E+02 0.  0.
        -13    1    3    3    0    0 -0.58258394837E+01 -0.10933580456E+03 -0.18478072164E+03  0.21478401629E+03  0.00000000000E+00 0.  1.
         14    1    3    3    0    0  0.59079354239E+02 -0.61063056667E+02 -0.18181383251E+03  0.20068716122E+03  0.00000000000E+00 0. -1.
        -11    1    4    4    0    0 -0.68338424659E+02  0.53267896378E+02 -0.59564032998E+02  0.10514505740E+03  0.00000000000E+00 0.  1.
         11    1    4    4    0    0  0.44138150174E+01  0.45659933699E+02 -0.12219733890E+03  0.13052394777E+03  0.00000000000E+00 0. -1.
         -2    1    1    2    0  502  0.10671094886E+02  0.71471031153E+02 -0.56464638608E+02  0.91707338710E+02  0.00000000000E+00 0.  1.
<scales pt_clust_5="13000.00000" pt_clust_6="13000.00000" pt_clust_7="13000.00000" pt_clust_8="13000.00000" pt_clust_9="72.26327"></scales>
<clustering>
<clus scale="   72.263">  1  9  2 -1</clus>
<clus scale="   79.706">  5  6 -1 -1</clus>
<clus scale="   92.896">  7  8 -1 -1</clus>
<clus scale="  168.415">  2  5  1 -1</clus>
<clus scale="   72.263">  1  5  2 -1</clus>
</clustering>
</event>
<event>
 9    2  0.1592151E-004  0.6070221E+03  0.7546771E-02  0.9890944E-01
         21   -1    0    0  501  502  0.00000000000E+00  0.00000000000E+00  0.26321839870E+03  0.26321839870E+03  0.00000000000E+00 0. -1.
          2   -1    0    0  502    0 -0.00000000000E+00 -0.00000000000E+00 -0.14002168773E+04  0.14002168773E+04  0.00000000000E+00 0. -1.
         24    2    1    2    0    0  0.33349294257E+03 -0.89021520081E+02 -0.43229917596E+03  0.55909606313E+03  0.81015162085E+02 0.  0.
         23    2    1    2    0    0  0.22412856163E+03 -0.71192863089E+02 -0.32281698629E+03  0.40975696860E+03  0.91585647246E+02 0.  0.
        -13    1    3    3    0    0  0.21938836377E+02 -0.19529081015E+01 -0.70045400784E+02  0.73426729211E+02  0.00000000000E+00 0.  1.
         14    1    3    3    0    0  0.31155410619E+03 -0.87068611980E+02 -0.36225377518E+03  0.48566933392E+03  0.00000000000E+00 0. -1.
        -13    1    4    4    0    0  0.18911221756E+03 -0.67841521162E+02 -0.31516527867E+03  0.37375801757E+03  0.00000000000E+00 0.  1.
         13    1    4    4    0    0  0.35016344076E+02 -0.33513419269E+01 -0.76517076215E+01  0.35998951022E+02  0.00000000000E+00 0. -1.
          1    1    1    2  501    0 -0.55762150420E+03  0.16021438317E+03 -0.38188231637E+03  0.69458224429E+03  0.00000000000E+00 0. -1.
<scales pt_clust_5="13000.00000" pt_clust_6="13000.00000" pt_clust_7="13000.00000" pt_clust_8="13000.00000" pt_clust_9="580.18134"></scales>
<clustering>
<clus scale="   81.015">  5  6 -1 -1</clus>
<clus scale="   91.586">  7  8 -1 -1</clus>
<clus scale="   92.952">  5  7 -1 -1</clus>
<clus scale="  580.181">  1  9  2 -1</clus>
<clus scale="  580.181">  1  5  2 -1</clus>
</clustering>
</event>
<event>
 9    2  0.1592151E-004  0.2038505E+03  0.7546771E-02  0.1179913E+00
         21   -1    0    0  501  502  0.00000000000E+00  0.00000000000E+00  0.18220847143E+03  0.18220847143E+03  0.00000000000E+00 0.  1.
         -1   -1    0    0    0  501 -0.00000000000E+00 -0.00000000000E+00 -0.38542542350E+03  0.38542542350E+03  0.00000000000E+00 0.  1.
         23    2    1    2    0    0  0.29455535493E+02 -0.88832894654E-01  0.40937115672E+02  0.10263362119E+03  0.89387786056E+02 0.  0.
         24    2    1    2    0    0  0.43496239998E+02  0.17913457854E+03 -0.10158004063E+03  0.22477809787E+03  0.78902271864E+02 0.  0.
        -11    1    4    4    0    0  0.43997308629E+02  0.72120646610E+02 -0.78456143404E+02  0.11529317964E+03  0.00000000000E+00 0.  1.
         12    1    4    4    0    0 -0.50106863075E+00  0.10701393193E+03 -0.23123897226E+02  0.10948491823E+03  0.00000000000E+00 0. -1.
        -13    1    3    3    0    0  0.45591921057E+02 -0.31958525161E+02  0.12721068762E+02  0.57112136946E+02  0.00000000000E+00 0. -1.
         13    1    3    3    0    0 -0.16136385564E+02  0.31869692266E+02  0.28216046911E+02  0.45521484241E+02  0.00000000000E+00 0.  1.
         -2    1    1    2    0  502 -0.72951775491E+02 -0.17904574564E+03 -0.14257402711E+03  0.24022217588E+03  0.00000000000E+00 0.  1.
<scales pt_clust_5="13000.00000" pt_clust_6="13000.00000" pt_clust_7="13000.00000" pt_clust_8="13000.00000" pt_clust_9="187.96145"></scales>
<clustering>
<clus scale="   78.902">  5  6 -1 -1</clus>
<clus scale="   89.388">  7  8 -1 -1</clus>
<clus scale="   94.116">  2  7  1 -1</clus>
<clus scale="  187.961">  1  9  2 -1</clus>
<clus scale="  187.961">  1  5  2 -1</clus>
</clustering>
</event>
<event>
 9    2  0.1592151E-004  0.1372587E+03  0.7546771E-02  0.1226544E+00
         21   -1    0    0  501  502  0.00000000000E+00  0.00000000000E+00  0.96024912601E+02  0.96024912601E+02  0.00000000000E+00 0. -1.
          2   -1    0    0  502    0 -0.00000000000E+00 -0.00000000000E+00 -0.59333948863E+03  0.59333948863E+03  0.00000000000E+00 0. -1.
         24    2    1    2    0    0 -0.43651553341E+02  0.67113284555E+02 -0.33061629336E+03  0.34925073844E+03  0.79115698753E+02 0.  0.
         23    2    1    2    0    0  0.94151692865E+02  0.43130774702E+02 -0.49847669338E+01  0.13798677724E+03  0.91053269001E+02 0.  0.
        -13    1    3    3    0    0 -0.49500964898E+01  0.20943081657E+02 -0.11310791201E+02  0.24311522415E+02  0.00000000000E+00 0.  1.
         14    1    3    3    0    0 -0.38701456851E+02  0.46170202897E+02 -0.31930550216E+03  0.32493921602E+03  0.00000000000E+00 0. -1.
        -13    1    4    4    0    0  0.11391648203E+02  0.43888127800E+02  0.22710986985E+02  0.50712191240E+02  0.00000000000E+00 0.  1.
         13    1    4    4    0    0  0.82760044662E+02 -0.75735309747E+00 -0.27695753918E+02  0.87274585999E+02  0.00000000000E+00 0. -1.
          1    1    1    2  501    0 -0.50500139524E+02 -0.11024405926E+03 -0.16171351573E+03  0.20212688555E+03  0.00000000000E+00 0. -1.
<scales pt_clust_5="13000.00000" pt_clust_6="13000.00000" pt_clust_7="13000.00000" pt_clust_8="13000.00000" pt_clust_9="102.70964"></scales>
<clustering>
<clus scale="   79.116">  5  6 -1 -1</clus>
<clus scale="   91.053">  7  8 -1 -1</clus>
<clus scale="  112.556">  2  5  1 -1</clus>
<clus scale="  102.710">  1  9  2 -1</clus>
<clus scale="  102.710">  1  5  2 -1</clus>
</clustering>
</event>
<event>
 9    2  0.1592151E-004  0.9407322E+02  0.7546771E-02  0.1301296E+00
         21   -1    0    0  501  502  0.00000000000E+00  0.00000000000E+00  0.86845773243E+02  0.86845773243E+02  0.00000000000E+00 0. -1.
          2   -1    0    0  502    0 -0.00000000000E+00 -0.00000000000E+00 -0.16513480687E+04  0.16513480687E+04  0.00000000000E+00 0. -1.
         24    2    1    2    0    0  0.98172303387E+01  0.17241088766E+02 -0.14072635679E+04  0.14096178291E+04  0.78981271880E+02 0.  0.
         23    2    1    2    0    0 -0.33405574917E+02  0.17209310534E+02 -0.22664938274E+03  0.24757552476E+03  0.92258359835E+02 0.  0.
        -11    1    3    3    0    0  0.12754541982E+01  0.21549476456E+02 -0.99304273113E+02  0.10162354736E+03  0.00000000000E+00 0.  1.
         12    1    3    3    0    0  0.85417761405E+01 -0.43083876900E+01 -0.13079592948E+04  0.13079942817E+04  0.00000000000E+00 0. -1.
        -11    1    4    4    0    0 -0.22740805662E+02 -0.34296243572E+02 -0.59485262784E+02  0.72331687757E+02  0.00000000000E+00 0.  1.
         11    1    4    4    0    0 -0.10664769255E+02  0.51505554106E+02 -0.16716411995E+03  0.17524383700E+03  0.00000000000E+00 0. -1.
          1    1    1    2  501    0  0.23588344578E+02 -0.34450399300E+02  0.69410655221E+02  0.81000488085E+02  0.00000000000E+00 0. -1.
<scales pt_clust_5="13000.00000" pt_clust_6="13000.00000" pt_clust_7="13000.00000" pt_clust_8="13000.00000" pt_clust_9="41.75213"></scales>
<clustering>
<clus scale="   41.752">  1  9  2 -1</clus>
<clus scale="   78.981">  5  6 -1 -1</clus>
<clus scale="   81.094">  2  5  1 -1</clus>
<clus scale="   92.258">  7  8 -1 -1</clus>
<clus scale="   41.752">  1  5  2 -1</clus>
</clustering>
</event>
<event>
 9    2  0.1592151E-004  0.1391527E+03  0.7546771E-02  0.1217253E+00
         21   -1    0    0  501  502  0.00000000000E+00  0.00000000000E+00  0.56209067379E+02  0.56209067379E+02  0.00000000000E+00 0. -1.
         -1   -1    0    0    0  501 -0.00000000000E+00 -0.00000000000E+00 -0.52525453094E+03  0.52525453094E+03  0.00000000000E+00 0.  1.
         24    2    1    2    0    0  0.10817986405E+03  0.34757375895E+02 -0.26931563094E+03  0.30310858224E+03  0.80205644416E+02 0.  0.
         23    2    1    2    0    0 -0.78094396015E+02 -0.25427468542E+02 -0.64668137414E+02  0.13966888097E+03  0.92629031459E+02 0.  0.
        -13    1    3    3    0    0  0.33202206675E+02  0.42887921044E+02 -0.61335152650E+02  0.81876499987E+02  0.00000000000E+00 0.  1.
         14    1    3    3    0    0  0.74977657378E+02 -0.81305451490E+01 -0.20798047829E+03  0.22123208226E+03  0.00000000000E+00 0. -1.
        -13    1    4    4    0    0 -0.50766290320E+02 -0.58943234636E+02 -0.27076255819E+02  0.82368955143E+02  0.00000000000E+00 0. -1.
         13    1    4    4    0    0 -0.27328105695E+02  0.33515766094E+02 -0.37591881595E+02  0.57299925825E+02  0.00000000000E+00 0.  1.
         -2    1    1    2    0  502 -0.30085468039E+02 -0.93299073534E+01 -0.13506169521E+03  0.13868613511E+03  0.00000000000E+00 0.  1.
<scales pt_clust_5="13000.00000" pt_clust_6="13000.00000" pt_clust_7="13000.00000" pt_clust_8="13000.00000" pt_clust_9="31.49895"></scales>
<clustering>
<clus scale="   31.499">  1  9  2 -1</clus>
<clus scale="   80.206">  5  6 -1 -1</clus>
<clus scale="   92.629">  7  8 -1 -1</clus>
<clus scale="  131.211">  2  5  1 -1</clus>
<clus scale="   31.499">  1  5  2 -1</clus>
</clustering>
</event>
<event>
 9    2  0.1592151E-004  0.1033771E+03  0.7546771E-02  0.1281391E+00
         21   -1    0    0  501  502  0.00000000000E+00  0.00000000000E+00  0.29513531166E+02  0.29513531166E+02  0.00000000000E+00 0.  1.
          2   -1    0    0  502    0 -0.00000000000E+00 -0.00000000000E+00 -0.63670217489E+03  0.63670217489E+03  0.00000000000E+00 0. -1.
         24    2    1    2    0    0  0.73402719848E+02  0.10357320001E+02 -0.37412687755E+03  0.38696155429E+03  0.65368881256E+02 0.  0.
         23    2    1    2    0    0 -0.24067551470E+02  0.20172956342E+02 -0.10234125732E+03  0.13623699179E+03  0.84264997362E+02 0.  0.
        -13    1    3    3    0    0  0.45433299115E+02  0.37941944232E+02 -0.24073651472E+03  0.24790692874E+03  0.00000000000E+00 0.  1.
         14    1    3    3    0    0  0.27969420733E+02 -0.27584624231E+02 -0.13339036283E+03  0.13905462555E+03  0.00000000000E+00 0. -1.
        -11    1    4    4    0    0 -0.55169260326E+02  0.60570250191E+01 -0.68410008226E+02  0.88092360977E+02  0.00000000000E+00 0. -1.
         11    1    4    4    0    0  0.31101708856E+02  0.14115931323E+02 -0.33931249091E+02  0.48144630809E+02  0.00000000000E+00 0.  1.
          1    1    1    2  501    0 -0.49335168378E+02 -0.30530276343E+02 -0.13072050886E+03  0.14301715998E+03  0.00000000000E+00 0. -1.
<scales pt_clust_5="13000.00000" pt_clust_6="13000.00000" pt_clust_7="13000.00000" pt_clust_8="13000.00000" pt_clust_9="58.01776"></scales>
<clustering>
<clus scale="   58.018">  1  9  2 -1</clus>
<clus scale="   65.369">  5  6 -1 -1</clus>
<clus scale="   84.265">  7  8 -1 -1</clus>
<clus scale="   88.653">  2  5  1 -1</clus>
<clus scale="   58.018">  1  5  2 -1</clus>
</clustering>
</event>
<event>
 9    2  0.1592151E-004  0.1507505E+03  0.7546771E-02  0.1201529E+00
          4   -1    0    0  502    0 -0.00000000000E+00  0.00000000000E+00  0.77837486454E+03  0.77837486454E+03  0.00000000000E+00 0. -1.
         21   -1    0    0  501  502  0.00000000000E+00 -0.00000000000E+00 -0.19413286293E+03  0.19413286293E+03  0.00000000000E+00 0. -1.
         24    2    1    2    0    0  0.94073822945E+02 -0.76633711707E+02  0.61164552112E+03  0.62893912444E+03  0.82046138350E+02 0.  0.
         23    2    1    2    0    0 -0.66291526332E+02  0.90402023955E+02  0.12268734995E+03  0.19030839450E+03  0.92725437605E+02 0.  0.
        -11    1    3    3    0    0  0.22687045645E+01 -0.39218993293E+02  0.93876938493E+02  0.10176520052E+03  0.00000000000E+00 0.  1.
         12    1    3    3    0    0  0.91805118380E+02 -0.37414718414E+02  0.51776858262E+03  0.52717392392E+03  0.00000000000E+00 0. -1.
        -13    1    4    4    0    0 -0.31620295597E+02 -0.93214194061E+01  0.70266474523E+01  0.33706167504E+02  0.00000000000E+00 0.  1.
         13    1    4    4    0    0 -0.34671230735E+02  0.99723443361E+02  0.11566070250E+03  0.15660222699E+03  0.00000000000E+00 0. -1.
          3    1    1    2  501    0 -0.27782296613E+02 -0.13768312247E+02 -0.15009086946E+03  0.15326020854E+03  0.00000000000E+00 0. -1.
<scales pt_clust_5="13000.00000" pt_clust_6="13000.00000" pt_clust_7="13000.00000" pt_clust_8="13000.00000" pt_clust_9="31.00681"></scales>
<clustering>
<clus scale="   31.007">  2  9  1 -1</clus>
<clus scale="   82.046">  5  6 -1 -1</clus>
<clus scale="   92.725">  7  8 -1 -1</clus>
<clus scale="  144.427">  1  5  2 -1</clus>
<clus scale="   31.007">  2  5  1 -1</clus>
</clustering>
</event>
<event>
 9    2  0.1592151E-004  0.1903717E+03  0.7546771E-02  0.1159474E+00
          2   -1    0    0  502    0 -0.00000000000E+00  0.00000000000E+00  0.95411092805E+03  0.95411092805E+03  0.00000000000E+00 0. -1.
         21   -1    0    0  501  502  0.00000000000E+00 -0.00000000000E+00 -0.63036540034E+02  0.63036540034E+02  0.00000000000E+00 0. -1.
         24    2    1    2    0    0  0.10915693032E+03 -0.10852542058E+03  0.28951667131E+03  0.33755259523E+03  0.80180104965E+02 0.  0.
         23    2    1    2    0    0 -0.15616247685E+03  0.10330302518E+03  0.25455693862E+03  0.32938588552E+03  0.92938648548E+02 0.  0.
        -11    1    3    3    0    0  0.10886438491E+03 -0.60060042235E+02  0.22192579087E+03  0.25438105202E+03  0.00000000000E+00 0.  1.
         12    1    3    3    0    0  0.29254540549E+00 -0.48465378340E+02  0.67590880436E+02  0.83171543202E+02  0.00000000000E+00 0. -1.
        -11    1    4    4    0    0 -0.72342709459E+02  0.87541706667E+02  0.19396351330E+03  0.22476401516E+03  0.00000000000E+00 0.  1.
         11    1    4    4    0    0 -0.83819767386E+02  0.15761318513E+02  0.60593425320E+02  0.10462187036E+03  0.00000000000E+00 0. -1.
          1    1    1    2  501    0  0.47005546528E+02  0.52223953951E+01  0.34700077808E+03  0.35020898733E+03  0.00000000000E+00 0. -1.
<scales pt_clust_5="13000.00000" pt_clust_6="13000.00000" pt_clust_7="13000.00000" pt_clust_8="13000.00000" pt_clust_9="47.29479"></scales>
<clustering>
<clus scale="   47.295">  2  9  1 -1</clus>
<clus scale="   80.180">  5  6 -1 -1</clus>
<clus scale="   92.939">  7  8 -1 -1</clus>
<clus scale="  184.479">  1  5  2 -1</clus>
<clus scale="   47.295">  2  5  1 -1</clus>
</clustering>
</event>
<event>
 9    2  0.1592151E-004  0.3798354E+03  0.7546771E-02  0.1050995E+00
          2   -1    0    0  502    0 -0.00000000000E+00  0.00000000000E+00  0.18886083554E+04  0.18886083554E+04  0.00000000000E+00 0. -1.
         21   -1    0    0  501  502  0.00000000000E+00 -0.00000000000E+00 -0.66588914774E+02  0.66588914774E+02  0.00000000000E+00 0. -1.
         24    2    1    2    0    0 -0.64258004604E+02  0.70689087217E+02  0.36469592357E+03  0.38589396833E+03  0.82371110944E+02 0.  0.
         23    2    1    2    0    0 -0.16014207145E+03  0.16853072970E+03  0.55104433307E+03  0.60549653995E+03  0.94488692372E+02 0.  0.
        -13    1    3    3    0    0 -0.49255363528E+02  0.62707684005E+02  0.35933318357E+03  0.36807428772E+03  0.00000000000E+00 0.  1.
         14    1    3    3    0    0 -0.15002641076E+02  0.79814032115E+01  0.53627399956E+01  0.17819680602E+02  0.00000000000E+00 0. -1.
        -13    1    4    4    0    0 -0.10542786360E+03  0.51225587734E+02  0.20660004672E+03  0.23753457552E+03  0.00000000000E+00 0.  1.
         13    1    4    4    0    0 -0.54714207851E+02  0.11730514197E+03  0.34444428635E+03  0.36796196443E+03  0.00000000000E+00 0. -1.
          1    1    1    2  501    0  0.22440007605E+03 -0.23921981692E+03  0.90627918402E+03  0.96380676192E+03  0.00000000000E+00 0. -1.
<scales pt_clust_5="13000.00000" pt_clust_6="13000.00000" pt_clust_7="13000.00000" pt_clust_8="13000.00000" pt_clust_9="327.99638"></scales>
<clustering>
<clus scale="   82.371">  5  6 -1 -1</clus>
<clus scale="   94.489">  7  8 -1 -1</clus>
<clus scale="   98.857">  5  7 -1 -1</clus>
<clus scale="  327.996">  2  9  1 -1</clus>
<clus scale="  327.996">  2  5  1 -1</clus>
</clustering>
</event>
<event>
 9    2  0.1592151E-004  0.1364285E+03  0.7546771E-02  0.1219243E+00
          2   -1    0    0  502    0 -0.00000000000E+00  0.00000000000E+00  0.94778382411E+03  0.94778382411E+03  0.00000000000E+00 0. -1.
         21   -1    0    0  501  502  0.00000000000E+00 -0.00000000000E+00 -0.13803872971E+03  0.13803872971E+03  0.00000000000E+00 0. -1.
         24    2    1    2    0    0  0.59504245609E+02  0.84477435191E+02  0.85101213230E+03  0.86154086819E+03  0.85754451492E+02 0.  0.
         23    2    1    2    0    0 -0.74792872199E+02 -0.60803257557E+02  0.40254028577E+02  0.13802687086E+03  0.90222061612E+02 0.  0.
        -13    1    3    3    0    0  0.63343208277E+02  0.15984427460E+02  0.38408326497E+03  0.38959956158E+03  0.00000000000E+00 0.  1.
         14    1    3    3    0    0 -0.38389626683E+01  0.68493007731E+02  0.46692886733E+03  0.47194130661E+03  0.00000000000E+00 0. -1.
        -13    1    4    4    0    0 -0.33717188135E+02 -0.23910569772E+02 -0.28233032179E+02  0.50056650193E+02  0.00000000000E+00 0.  1.
         13    1    4    4    0    0 -0.41075684064E+02 -0.36892687785E+02  0.68487060756E+02  0.87970220667E+02  0.00000000000E+00 0. -1.
          1    1    1    2  501    0  0.15288626590E+02 -0.23674177634E+02 -0.81521066473E+02  0.86254814756E+02  0.00000000000E+00 0. -1.
<scales pt_clust_5="13000.00000" pt_clust_6="13000.00000" pt_clust_7="13000.00000" pt_clust_8="13000.00000" pt_clust_9="28.18171"></scales>
<clustering>
<clus scale="   28.182">  2  9  1 -1</clus>
<clus scale="   85.754">  5  6 -1 -1</clus>
<clus scale="   90.222">  7  8 -1 -1</clus>
<clus scale="  133.516">  1  5  2 -1</clus>
<clus scale="   28.182">  2  5  1 -1</clus>
</clustering>
</event>
<event>
 9    2  0.1592151E-004  0.1034619E+03  0.7546771E-02  0.1276919E+00
         21   -1    0    0  501  502  0.00000000000E+00  0.00000000000E+00  0.71647627411E+02  0.71647627411E+02  0.00000000000E+00 0.  1.
          2   -1    0    0  502    0 -0.00000000000E+00 -0.00000000000E+00 -0.57046975854E+03  0.57046975854E+03  0.00000000000E+00 0. -1.
         23    2    1    2    0    0 -0.45959522096E+02  0.98253883004E+01 -0.44760290750E+03  0.45910675132E+03  0.90674309362E+02 0.  0.
         24    2    1    2    0    0  0.81557712468E+02  0.43206410114E+01  0.36627352262E+01  0.11608253358E+03  0.82410014988E+02 0.  0.
        -13    1    4    4    0    0  0.66307773304E+02 -0.26517664886E+02  0.24926224757E+02  0.75638773339E+02  0.00000000000E+00 0.  1.
         14    1    4    4    0    0  0.15249939164E+02  0.30838305897E+02 -0.21263489531E+02  0.40443760237E+02  0.00000000000E+00 0. -1.
        -13    1    3    3    0    0  0.24694884058E+02  0.46843543931E+01 -0.59497303147E+02  0.64588772681E+02  0.00000000000E+00 0.  1.
         13    1    3    3    0    0 -0.70654406154E+02  0.51410339073E+01 -0.38810560436E+03  0.39451797864E+03  0.00000000000E+00 0. -1.
          1    1    1    2  501    0 -0.35598190372E+02 -0.14146029312E+02 -0.54881958854E+02  0.66928101054E+02  0.00000000000E+00 0. -1.
<scales pt_clust_5="13000.00000" pt_clust_6="13000.00000" pt_clust_7="13000.00000" pt_clust_8="13000.00000" pt_clust_9="38.30591"></scales>
<clustering>
<clus scale="   38.306">  1  9  2 -1</clus>
<clus scale="   82.410">  5  6 -1 -1</clus>
<clus scale="   90.674">  7  8 -1 -1</clus>
<clus scale="   96.301">  1  5  2 -1</clus>
<clus scale="   38.306">  1  5  2 -1</clus>
</clustering>
</event>
<event>
 9    2  0.1592151E-004  0.1603325E+03  0.7546771E-02  0.1208744E+00
         -1   -1    0    0    0  501 -0.00000000000E+00  0.00000000000E+00  0.18384623773E+03  0.18384623773E+03  0.00000000000E+00 0.  1.
         21   -1    0    0  501  502  0.00000000000E+00 -0.00000000000E+00 -0.32649628591E+03  0.32649628591E+03  0.00000000000E+00 0.  1.
         23    2    1    2    0    0  0.40028630932E+02 -0.73020514889E+00  0.70932990722E+02  0.12487691759E+03  0.94656911420E+02 0.  0.
         24    2    1    2    0    0  0.30892406287E+02 -0.12493747774E+03 -0.34855126000E+02  0.15575747190E+03  0.80509602744E+02 0.  0.
        -11    1    4    4    0    0  0.57997344621E+02 -0.88839094659E+02 -0.30579910423E+02  0.11041380187E+03  0.00000000000E+00 0.  1.
         12    1    4    4    0    0 -0.27104938334E+02 -0.36098383080E+02 -0.42752155765E+01  0.45343670025E+02  0.00000000000E+00 0. -1.
        -13    1    3    3    0    0  0.11398220233E+02  0.37287495896E+02 -0.55624117656E+00  0.38994694241E+02  0.00000000000E+00 0. -1.
         13    1    3    3    0    0  0.28630410699E+02 -0.38017701045E+02  0.71489231899E+02  0.85882223347E+02  0.00000000000E+00 0.  1.
         -2    1    1    2    0  502 -0.70921037219E+02  0.12566768289E+03 -0.17872791290E+03  0.22970813415E+03  0.00000000000E+00 0.  1.
<scales pt_clust_5="13000.00000" pt_clust_6="13000.00000" pt_clust_7="13000.00000" pt_clust_8="13000.00000" pt_clust_9="138.65322"></scales>
<clustering>
<clus scale="   80.510">  5  6 -1 -1</clus>
<clus scale="   94.657">  7  8 -1 -1</clus>
<clus scale="  102.775">  1  7  2 -1</clus>
<clus scale="  138.653">  2  9  1 -1</clus>
<clus scale="  138.653">  2  5  1 -1</clus>
</clustering>
</event>
<event>
 9    2  0.1592151E-004  0.1047225E+03  0.7546771E-02  0.1273975E+00
          2   -1    0    0  502    0 -0.00000000000E+00  0.00000000000E+00  0.43849293625E+03  0.43849293625E+03  0.00000000000E+00 0. -1.
         21   -1    0    0  501  502  0.00000000000E+00 -0.00000000000E+00 -0.18211705673E+03  0.18211705673E+03  0.00000000000E+00 0. -1.
         23    2    1    2    0    0 -0.53857217725E+02 -0.15997193236E+02  0.38362508441E+03  0.39763257335E+03  0.88243684824E+02 0.  0.
         24    2    1    2    0    0  0.49037195110E+02  0.36994995747E+02 -0.77242751753E+01  0.10152640418E+03  0.80465334803E+02 0.  0.
        -13    1    4    4    0    0  0.64938584216E+02  0.47623575701E+02 -0.13262104709E+02  0.81614386624E+02  0.00000000000E+00 0.  1.
         14    1    4    4    0    0 -0.15901389107E+02 -0.10628579955E+02  0.55378295340E+01  0.19912017560E+02  0.00000000000E+00 0. -1.
        -11    1    3    3    0    0 -0.17449696796E+02 -0.50131412861E+02  0.16267446755E+03  0.17111584634E+03  0.00000000000E+00 0. -1.
         11    1    3    3    0    0 -0.36407520929E+02  0.34134219625E+02  0.22095061686E+03  0.22651672702E+03  0.00000000000E+00 0.  1.
          1    1    1    2  501    0  0.48200226151E+01 -0.20997802511E+02 -0.11952492972E+03  0.12145101545E+03  0.00000000000E+00 0. -1.
<scales pt_clust_5="13000.00000" pt_clust_6="13000.00000" pt_clust_7="13000.00000" pt_clust_8="13000.00000" pt_clust_9="21.54392"></scales>
<clustering>
<clus scale="   21.544">  2  9  1 -1</clus>
<clus scale="   80.465">  5  6 -1 -1</clus>
<clus scale="   88.244">  7  8 -1 -1</clus>
<clus scale="   98.257">  2  5  1 -1</clus>
<clus scale="   21.544">  2  5  1 -1</clus>
</clustering>
</event>
<event>
 9    2  0.1592151E-004  0.1677917E+03  0.7546771E-02  0.1181622E+00
          4   -1    0    0  502    0 -0.00000000000E+00  0.00000000000E+00  0.24900284562E+03  0.24900284562E+03  0.00000000000E+00 0. -1.
         21   -1    0    0  501  502  0.00000000000E+00 -0.00000000000E+00 -0.27507767538E+03  0.27507767538E+03  0.00000000000E+00 0.  1.
         23    2    1    2    0    0 -0.88247911252E+02  0.11129693644E+03  0.11372858963E+03  0.20357711877E+03  0.91294848097E+02 0.  0.
         24    2    1    2    0    0  0.15693745996E+02 -0.15430992267E+03 -0.15623098407E+03  0.23457268152E+03  0.80983804776E+02 0.  0.
        -13    1    4    4    0    0 -0.17816051891E+01 -0.13391168685E+03 -0.15863292151E+03  0.20760519690E+03  0.00000000000E+00 0.  1.
         14    1    4    4    0    0  0.17475351185E+02 -0.20398235817E+02  0.24019374405E+01  0.26967484624E+02  0.00000000000E+00 0. -1.
        -13    1    3    3    0    0 -0.75178646480E+02  0.55913033015E+02  0.11283866521E+03  0.14666513053E+03  0.00000000000E+00 0. -1.
         13    1    3    3    0    0 -0.13069264772E+02  0.55383903421E+02  0.88992441331E+00  0.56911988239E+02  0.00000000000E+00 0.  1.
          3    1    1    2  501    0  0.72554165256E+02  0.43012986235E+02  0.16427564682E+02  0.85930720713E+02  0.00000000000E+00 0. -1.
<scales pt_clust_5="13000.00000" pt_clust_6="13000.00000" pt_clust_7="13000.00000" pt_clust_8="13000.00000" pt_clust_9="84.34590"></scales>
<clustering>
<clus scale="   80.984">  5  6 -1 -1</clus>
<clus scale="   84.346">  2  9  1 -1</clus>
<clus scale="   91.295">  7  8 -1 -1</clus>
<clus scale="  162.412">  2  5  1 -1</clus>
<clus scale="   84.346">  2  5  1 -1</clus>
</clustering>
</event>
<event>
 9    2  0.1592151E-004  0.1043959E+03  0.7546771E-02  0.1274978E+00
         21   -1    0    0  501  502  0.00000000000E+00  0.00000000000E+00  0.74197279471E+02  0.74197279471E+02  0.00000000000E+00 0. -1.
         -1   -1    0    0    0  501 -0.00000000000E+00 -0.00000000000E+00 -0.27240626747E+03  0.27240626747E+03  0.00000000000E+00 0.  1.
         23    2    1    2    0    0  0.28353800122E+02 -0.56821905033E+02 -0.19437411857E+03  0.22257414568E+03  0.87893603202E+02 0.  0.
         24    2    1    2    0    0 -0.14532051756E+01  0.40235634476E+02 -0.15588308013E+02  0.90311606281E+02  0.79323217253E+02 0.  0.
        -13    1    4    4    0    0  0.24463766699E+02 -0.14468996556E+02 -0.48452115965E+01  0.28832339791E+02  0.00000000000E+00 0.  1.
         14    1    4    4    0    0 -0.25916971874E+02  0.54704631032E+02 -0.10743096416E+02  0.61479266490E+02  0.00000000000E+00 0. -1.
        -13    1    3    3    0    0  0.33916055325E+01 -0.62362475933E+02 -0.18513633946E+03  0.19538691251E+03  0.00000000000E+00 0.  1.
         13    1    3    3    0    0  0.24962194589E+02  0.55405709003E+01 -0.92377791108E+01  0.27187233171E+02  0.00000000000E+00 0. -1.
         -2    1    1    2    0  502 -0.26900594946E+02  0.16586270557E+02  0.11753438586E+02  0.33717794976E+02  0.00000000000E+00 0.  1.
<scales pt_clust_5="13000.00000" pt_clust_6="13000.00000" pt_clust_7="13000.00000" pt_clust_8="13000.00000" pt_clust_9="31.60295"></scales>
<clustering>
<clus scale="   31.603">  1  9  2 -1</clus>
<clus scale="   79.323">  5  6 -1 -1</clus>
<clus scale="   87.894">  7  8 -1 -1</clus>
<clus scale="   97.290">  1  5  2 -1</clus>
<clus scale="   31.603">  1  5  2 -1</clus>
</clustering>
</event>
<event>
 9    2  0.1592151E-004  0.1726652E+03  0.7546771E-02  0.1176466E+00
         -1   -1    0    0    0  501 -0.00000000000E+00  0.00000000000E+00  0.53525377936E+03  0.53525377936E+03  0.00000000000E+00 0.  1.
         21   -1    0    0  501  502  0.00000000000E+00 -0.00000000000E+00 -0.25191296844E+03  0.25191296844E+03  0.00000000000E+00 0.  1.
         24    2    1    2    0    0  0.98343973644E+02 -0.85275553272E+02  0.20947715130E+03  0.25950881976E+03  0.80750810996E+02 0.  0.
         23    2    1    2    0    0 -0.12938232545E+03  0.10479899239E+03  0.26892786341E+03  0.32917722984E+03  0.91174766155E+02 0.  0.
        -13    1    3    3    0    0  0.10443851828E+03 -0.91019831761E+02  0.20946644258E+03  0.25113383771E+03  0.00000000000E+00 0.  1.
         14    1    3    3    0    0 -0.60945446364E+01  0.57442784893E+01  0.10708723298E-01  0.83749820516E+01  0.00000000000E+00 0. -1.
        -11    1    4    4    0    0 -0.42069600526E+02 -0.11891699003E+02  0.71021675789E+02  0.83398694387E+02  0.00000000000E+00 0.  1.
         11    1    4    4    0    0 -0.87312724923E+02  0.11669069140E+03  0.19790618762E+03  0.24577853545E+03  0.00000000000E+00 0. -1.
         -2    1    1    2    0  502  0.31038351804E+02 -0.19523439121E+02 -0.19506420380E+03  0.19848069821E+03  0.00000000000E+00 0.  1.
<scales pt_clust_5="13000.00000" pt_clust_6="13000.00000" pt_clust_7="13000.00000" pt_clust_8="13000.00000" pt_clust_9="36.66802"></scales>
<clustering>
<clus scale="   36.668">  2  9  1 -1</clus>
<clus scale="   80.751">  5  6 -1 -1</clus>
<clus scale="   91.175">  7  8 -1 -1</clus>
<clus scale="  167.395">  1  5  2 -1</clus>
<clus scale="   36.668">  2  5  1 -1</clus>
</clustering>
</event>
<event>
 9    2  0.1592151E-004  0.9076657E+02  0.7546771E-02  0.1307554E+00
         -3   -1    0    0    0  501 -0.00000000000E+00  0.00000000000E+00  0.39051685872E+02  0.39051685872E+02  0.00000000000E+00 0.  1.
         21   -1    0    0  501  502  0.00000000000E+00 -0.00000000000E+00 -0.42363735998E+03  0.42363735998E+03  0.00000000000E+00 0. -1.
         23    2    1    2    0    0 -0.65566851185E+00  0.18695428719E+01 -0.36981093286E+02  0.97990790559E+02  0.90723032809E+02 0.  0.
         24    2    1    2    0    0 -0.52166725158E+01  0.22898210319E+02 -0.28635092683E+03  0.29836624104E+03  0.80461287516E+02 0.  0.
        -13    1    4    4    0    0  0.61944183155E+01 -0.25572561375E+02 -0.46754134143E+02  0.53649564518E+02  0.00000000000E+00 0.  1.
         14    1    4    4    0    0 -0.11411090831E+02  0.48470771694E+02 -0.23959679269E+03  0.24471667652E+03  0.00000000000E+00 0. -1.
        -13    1    3    3    0    0  0.19383099283E+02 -0.76593719349E+01  0.24771439222E+02  0.32372746522E+02  0.00000000000E+00 0.  1.
         13    1    3    3    0    0 -0.20038767795E+02  0.95289148068E+01 -0.61752532508E+02  0.65618044037E+02  0.00000000000E+00 0. -1.
         -4    1    1    2    0  502  0.58723410277E+01 -0.24767753191E+02 -0.61253653993E+02  0.66332014252E+02  0.00000000000E+00 0.  1.
<scales pt_clust_5="13000.00000" pt_clust_6="13000.00000" pt_clust_7="13000.00000" pt_clust_8="13000.00000" pt_clust_9="25.45439"></scales>
<clustering>
<clus scale="   25.454">  2  9  1 -1</clus>
<clus scale="   80.461">  5  6 -1 -1</clus>
<clus scale="   80.510">  2  5  1 -1</clus>
<clus scale="   90.723">  7  8 -1 -1</clus>
<clus scale="   25.454">  2  5  1 -1</clus>
</clustering>
</event>
<event>
 9    2  0.1592151E-004  0.9579356E+02  0.7546771E-02  0.1290686E+00
          2   -1    0    0  502    0 -0.00000000000E+00  0.00000000000E+00  0.57476931421E+03  0.57476931421E+03  0.00000000000E+00 0. -1.
         21   -1    0    0  501  502  0.00000000000E+00 -0.00000000000E+00 -0.34291898144E+02  0.34291898144E+02  0.00000000000E+00 0. -1.
         23    2    1    2    0    0 -0.15204547005E+02  0.16970121097E+02  0.30152856288E+03  0.31636060901E+03  0.92980629398E+02 0.  0.
         24    2    1    2    0    0 -0.40982561293E+02 -0.38678356551E+02  0.12984080278E+03  0.16806992779E+03  0.90627153571E+02 0.  0.
        -13    1    4    4    0    0  0.17766760318E+02 -0.40371284896E+02  0.34199805377E+02  0.55813305799E+02  0.00000000000E+00 0.  1.
         14    1    4    4    0    0 -0.58749321611E+02  0.16929283450E+01  0.95640997404E+02  0.11225662199E+03  0.00000000000E+00 0. -1.
        -11    1    3    3    0    0 -0.47685589757E+02  0.98034364526E+01  0.25226290399E+03  0.25691748786E+03  0.00000000000E+00 0. -1.
         11    1    3    3    0    0  0.32481042752E+02  0.71666846445E+01  0.49265658887E+02  0.59443121155E+02  0.00000000000E+00 0.  1.
          1    1    1    2  501    0  0.56187108298E+02  0.21708235454E+02  0.10910805040E+03  0.12463067555E+03  0.00000000000E+00 0. -1.
<scales pt_clust_5="13000.00000" pt_clust_6="13000.00000" pt_clust_7="13000.00000" pt_clust_8="13000.00000" pt_clust_9="60.23486"></scales>
<clustering>
<clus scale="   60.235">  2  9  1 -1</clus>
<clus scale="   90.627">  5  6 -1 -1</clus>
<clus scale="   92.981">  7  8 -1 -1</clus>
<clus scale="   93.511">  2  5  1 -1</clus>
<clus scale="   60.235">  2  5  1 -1</clus>
</clustering>
</event>
<event>
 9    2  0.2400133E-004  0.1122292E+03  0.7546771E-02  0.1260614E+00
         -3   -1    0    0    0  501 -0.00000000000E+00  0.00000000000E+00  0.64814943634E+03  0.64814943634E+03  0.00000000000E+00 0.  1.
         21   -1    0    0  501  502  0.00000000000E+00 -0.00000000000E+00 -0.79702406438E+02  0.79702406438E+02  0.00000000000E+00 0. -1.
         23    2    1    2    0    0 -0.17566143877E+02 -0.67132827917E+02  0.58368885192E+03  0.59490799689E+03  0.91692218379E+02 0.  0.
         24    2    1    2    0    0 -0.15492585538E+01  0.23786584239E+02 -0.15265038685E+02  0.85569844683E+02  0.80752554890E+02 0.  0.
        -13    1    4    4    0    0 -0.24970402392E+02  0.71322912575E+01  0.25035623400E+02  0.36071775854E+02  0.00000000000E+00 0.  1.
         14    1    4    4    0    0  0.23421143838E+02  0.16654292981E+02 -0.40300662085E+02  0.49498068830E+02  0.00000000000E+00 0. -1.
        -11    1    3    3    0    0  0.34921130959E+02 -0.45252807613E+02  0.33104501729E+03  0.33594360457E+03  0.00000000000E+00 0. -1.
         11    1    3    3    0    0 -0.52487274836E+02 -0.21880020303E+02  0.25264383463E+03  0.25896439231E+03  0.00000000000E+00 0.  1.
         -4    1    1    2    0  502  0.19115402431E+02  0.43346243678E+02  0.23216665630E-01  0.47374001204E+02  0.00000000000E+00 0.  1.
<scales pt_clust_5="13000.00000" pt_clust_6="13000.00000" pt_clust_7="13000.00000" pt_clust_8="13000.00000" pt_clust_9="47.37400"></scales>
<clustering>
<clus scale="   47.374">  2  9  1 -1</clus>
<clus scale="   80.753">  5  6 -1 -1</clus>
<clus scale="   91.692">  7  8 -1 -1</clus>
<clus scale="  103.484">  2  5  1 -1</clus>
<clus scale="   47.374">  2  5  1 -1</clus>
</clustering>
</event>
<event>
 9    2  0.1592151E-004  0.1101578E+03  0.7546771E-02  0.1265383E+00
         -3   -1    0    0    0  501 -0.00000000000E+00  0.00000000000E+00  0.27931223071E+03  0.27931223071E+03  0.00000000000E+00 0.  1.
         21   -1    0    0  501  502  0.00000000000E+00 -0.00000000000E+00 -0.84215810764E+02  0.84215810764E+02  0.00000000000E+00 0.  1.
         24    2    1    2    0    0  0.51234232474E+02  0.36933590028E+02  0.18143219925E+03  0.20810301772E+03  0.80001165033E+02 0.  0.
         23    2    1    2    0    0 -0.41584839594E+02 -0.11889950678E+02 -0.27808437247E+02  0.10602587385E+03  0.92722742264E+02 0.  0.
        -13    1    3    3    0    0  0.10875583533E+02  0.46751362336E+02  0.46144877905E+02  0.66583165697E+02  0.00000000000E+00 0.  1.
         14    1    3    3    0    0  0.40358648941E+02 -0.98177723077E+01  0.13528732135E+03  0.14151985202E+03  0.00000000000E+00 0. -1.
        -13    1    4    4    0    0 -0.89838267909E+01 -0.50029048475E+02 -0.22451185098E+02  0.55566811564E+02  0.00000000000E+00 0. -1.
         13    1    4    4    0    0 -0.32601012803E+02  0.38139097796E+02 -0.53572521489E+01  0.50459062289E+02  0.00000000000E+00 0.  1.
         -4    1    1    2    0  502 -0.96493928799E+01 -0.25043639350E+02  0.41472657942E+02  0.49399149907E+02  0.00000000000E+00 0.  1.
<scales pt_clust_5="13000.00000" pt_clust_6="13000.00000" pt_clust_7="13000.00000" pt_clust_8="13000.00000" pt_clust_9="26.83832"></scales>
<clustering>
<clus scale="   26.838">  2  9  1 -1</clus>
<clus scale="   80.001">  5  6 -1 -1</clus>
<clus scale="   92.723">  7  8 -1 -1</clus>
<clus scale="   99.687">  1  5  2 -1</clus>
<clus scale="   26.838">  2  5  1 -1</clus>
</clustering>
</event>
<event>
 9    2  0.1592151E-004  0.2315381E+03  0.7546771E-02  0.1126341E+00
          2   -1    0    0  502    0 -0.00000000000E+00  0.00000000000E+00  0.60006057935E+03  0.60006057935E+03  0.00000000000E+00 0. -1.
         21   -1    0    0  501  502  0.00000000000E+00 -0.00000000000E+00 -0.15967469899E+03  0.15967469899E+03  0.00000000000E+00 0.  1.
         24    2    1    2    0    0 -0.97821970642E+02 -0.14357264174E+03  0.59959866656E+02  0.20042998603E+03  0.79967195110E+02 0.  0.
         23    2    1    2    0    0  0.14876361676E+03  0.21077158155E+03  0.14629295907E+03  0.31044984011E+03  0.91772545403E+02 0.  0.
        -13    1    3    3    0    0 -0.61822077274E+02 -0.12455989553E+03  0.15139626032E+02  0.13987975225E+03  0.00000000000E+00 0.  1.
         14    1    3    3    0    0 -0.35999893369E+02 -0.19012746205E+02  0.44820240623E+02  0.60550233776E+02  0.00000000000E+00 0. -1.
        -13    1    4    4    0    0  0.12555782762E+03  0.18413514897E+03  0.15804500421E+03  0.27321922428E+03  0.00000000000E+00 0.  1.
         13    1    4    4    0    0  0.23205789139E+02  0.26636432578E+02 -0.11752045133E+02  0.37230615827E+02  0.00000000000E+00 0. -1.
          1    1    1    2  501    0 -0.50941646119E+02 -0.67198939811E+02  0.23413305463E+03  0.24885545221E+03  0.00000000000E+00 0. -1.
<scales pt_clust_5="13000.00000" pt_clust_6="13000.00000" pt_clust_7="13000.00000" pt_clust_8="13000.00000" pt_clust_9="84.32530"></scales>
<clustering>
<clus scale="   79.967">  5  6 -1 -1</clus>
<clus scale="   84.325">  2  9  1 -1</clus>
<clus scale="   91.773">  7  8 -1 -1</clus>
<clus scale="  227.118">  1  5  2 -1</clus>
<clus scale="   84.325">  2  5  1 -1</clus>
</clustering>
</event>
<event>
 9    2  0.1592151E-004  0.2993275E+03  0.7546771E-02  0.1122068E+00
         21   -1    0    0  501  502  0.00000000000E+00  0.00000000000E+00  0.87286882999E+02  0.87286882999E+02  0.00000000000E+00 0.  1.
          2   -1    0    0  502    0 -0.00000000000E+00 -0.00000000000E+00 -0.27176942634E+04  0.27176942634E+04  0.00000000000E+00 0. -1.
         24    2    1    2    0    0  0.68181616358E+02  0.52087428977E+02 -0.37168454010E+03  0.38962770393E+03  0.79363198393E+02 0.  0.
         23    2    1    2    0    0  0.27357653930E+03  0.24630608643E+01 -0.26839517911E+03  0.39516073091E+03  0.96259241427E+02 0.  0.
        -13    1    3    3    0    0  0.60040565347E+02  0.69191982790E+02 -0.24562308947E+03  0.26215091465E+03  0.00000000000E+00 0.  1.
         14    1    3    3    0    0  0.81410510114E+01 -0.17104553813E+02 -0.12606145063E+03  0.12747678929E+03  0.00000000000E+00 0. -1.
        -11    1    4    4    0    0  0.15061355624E+03  0.27776811321E+02 -0.92031591953E+02  0.17867794628E+03  0.00000000000E+00 0.  1.
         11    1    4    4    0    0  0.12296298306E+03 -0.25313750457E+02 -0.17636358716E+03  0.21648278463E+03  0.00000000000E+00 0. -1.
          1    1    1    2  501    0 -0.34175815566E+03 -0.54550489841E+02 -0.19903276612E+04  0.20201927116E+04  0.00000000000E+00 0. -1.
<scales pt_clust_5="13000.00000" pt_clust_6="13000.00000" pt_clust_7="13000.00000" pt_clust_8="13000.00000" pt_clust_9="283.42757"></scales>
<clustering>
<clus scale="   79.363">  5  6 -1 -1</clus>
<clus scale="   96.259">  7  8 -1 -1</clus>
<clus scale="  116.878">  2  5  1 -1</clus>
<clus scale="  283.428">  1  9  2 -1</clus>
<clus scale="  283.428">  1  5  2 -1</clus>
</clustering>
</event>
<event>
 9    2  0.1592151E-004  0.1320811E+03  0.7546771E-02  0.1226063E+00
          2   -1    0    0  502    0 -0.00000000000E+00  0.00000000000E+00  0.27875155968E+03  0.27875155968E+03  0.00000000000E+00 0. -1.
         21   -1    0    0  501  502  0.00000000000E+00 -0.00000000000E+00 -0.92832484987E+02  0.92832484987E+02  0.00000000000E+00 0.  1.
         23    2    1    2    0    0 -0.40576815604E+02  0.99075768683E+02  0.14742719113E+03  0.20342278685E+03  0.90463073232E+02 0.  0.
         24    2    1    2    0    0  0.32092383384E+01 -0.78690341519E+02  0.69534637383E+01  0.11518415526E+03  0.83764968243E+02 0.  0.
        -11    1    4    4    0    0 -0.90911826116E+01 -0.91330098464E+02 -0.79067709351E+01  0.92121406379E+02  0.00000000000E+00 0.  1.
         12    1    4    4    0    0  0.12300420950E+02  0.12639756944E+02  0.14860234673E+02  0.23062748876E+02  0.00000000000E+00 0. -1.
        -13    1    3    3    0    0 -0.47697633119E+02  0.91641104202E+01  0.38343772252E+02  0.61881257223E+02  0.00000000000E+00 0.  1.
         13    1    3    3    0    0  0.71208175155E+01  0.89911658262E+02  0.10908341888E+03  0.14154152962E+03  0.00000000000E+00 0. -1.
          1    1    1    2  501    0  0.37367577265E+02 -0.20385427163E+02  0.31538419820E+02  0.52977102564E+02  0.00000000000E+00 0. -1.
<scales pt_clust_5="13000.00000" pt_clust_6="13000.00000" pt_clust_7="13000.00000" pt_clust_8="13000.00000" pt_clust_9="42.56646"></scales>
<clustering>
<clus scale="   42.566">  2  9  1 -1</clus>
<clus scale="   83.765">  5  6 -1 -1</clus>
<clus scale="   90.463">  7  8 -1 -1</clus>
<clus scale="  127.587">  2  5  1 -1</clus>
<clus scale="   42.566">  2  5  1 -1</clus>
</clustering>
</event>
<event>
 9    2  0.1592151E-004  0.2190942E+03  0.7546771E-02  0.1135267E+00
         21   -1    0    0  501  502  0.00000000000E+00  0.00000000000E+00  0.73542637953E+03  0.73542637953E+03  0.00000000000E+00 0. -1.
          2   -1    0    0  502    0 -0.00000000000E+00 -0.00000000000E+00 -0.19931782401E+03  0.19931782401E+03  0.00000000000E+00 0. -1.
         23    2    1    2    0    0 -0.15567340882E+03 -0.98447786974E+02  0.38933800524E+02  0.20862667149E+03  0.89905896682E+02 0.  0.
         24    2    1    2    0    0  0.21224949811E+03  0.17479573126E+03  0.54799639577E+03  0.61835528613E+03  0.80372961861E+02 0.  0.
        -11    1    4    4    0    0  0.10937772618E+03  0.12088051768E+03  0.38612028734E+03  0.41912344582E+03  0.00000000000E+00 0.  1.
         12    1    4    4    0    0  0.10287177193E+03  0.53915213580E+02  0.16187610843E+03  0.19923184032E+03  0.00000000000E+00 0. -1.
        -13    1    3    3    0    0 -0.36597520287E+02 -0.55826215542E+02 -0.19160496378E+02  0.69448322185E+02  0.00000000000E+00 0. -1.
         13    1    3    3    0    0 -0.11907588854E+03 -0.42621571432E+02  0.58094296902E+02  0.13917834930E+03  0.00000000000E+00 0.  1.
          1    1    1    2  501    0 -0.56576089284E+02 -0.76347944283E+02 -0.50821640769E+02  0.10776224592E+03  0.00000000000E+00 0. -1.
<scales pt_clust_5="13000.00000" pt_clust_6="13000.00000" pt_clust_7="13000.00000" pt_clust_8="13000.00000" pt_clust_9="95.02564"></scales>
<clustering>
<clus scale="   80.373">  5  6 -1 -1</clus>
<clus scale="   89.906">  7  8 -1 -1</clus>
<clus scale="   95.026">  1  9  2 -1</clus>
<clus scale="  215.358">  1  5  2 -1</clus>
<clus scale="   95.026">  1  5  2 -1</clus>
</clustering>
</event>
<event>
 9    2  0.1592151E-004  0.1920762E+03  0.7546771E-02  0.1185814E+00
          2   -1    0    0  502    0 -0.00000000000E+00  0.00000000000E+00  0.11183583509E+04  0.11183583509E+04  0.00000000000E+00 0. -1.
         21   -1    0    0  501  502  0.00000000000E+00 -0.00000000000E+00 -0.98685883190E+02  0.98685883190E+02  0.00000000000E+00 0. -1.
         23    2    1    2    0    0 -0.36499267419E+02 -0.11148943463E+01 -0.23461444039E+02  0.10134699270E+03  0.91582389475E+02 0.  0.
         24    2    1    2    0    0 -0.16070191130E+03  0.26086203171E+02  0.34267487829E+03  0.38757999210E+03  0.79287980005E+02 0.  0.
        -11    1    4    4    0    0 -0.21345381599E+02  0.35426126172E+02  0.74262999342E+02  0.85003698757E+02  0.00000000000E+00 0.  1.
         12    1    4    4    0    0 -0.13935652970E+03 -0.93399230016E+01  0.26841187895E+03  0.30257629334E+03  0.00000000000E+00 0. -1.
        -13    1    3    3    0    0 -0.62850253560E+02  0.12506252016E+02 -0.30331969943E+02  0.70898442244E+02  0.00000000000E+00 0. -1.
         13    1    3    3    0    0  0.26350986141E+02 -0.13621146362E+02  0.68705259045E+01  0.30448550458E+02  0.00000000000E+00 0.  1.
          1    1    1    2  501    0  0.19720117872E+03 -0.24971308824E+02  0.70045903342E+03  0.72811724924E+03  0.00000000000E+00 0. -1.
<scales pt_clust_5="13000.00000" pt_clust_6="13000.00000" pt_clust_7="13000.00000" pt_clust_8="13000.00000" pt_clust_9="174.94771"></scales>
<clustering>
<clus scale="   79.288">  5  6 -1 -1</clus>
<clus scale="   91.582">  7  8 -1 -1</clus>
<clus scale="   98.594">  1  7  2 -1</clus>
<clus scale="  174.948">  2  9  1 -1</clus>
<clus scale="  174.948">  2  5  1 -1</clus>
</clustering>
</event>
<event>
 9    2  0.1662880E-004  0.1856103E+03  0.7546771E-02  0.1164812E+00
         21   -1    0    0  501  502  0.00000000000E+00  0.00000000000E+00  0.12894866661E+03  0.12894866661E+03  0.00000000000E+00 0. -1.
          2   -1    0    0  502    0 -0.00000000000E+00 -0.00000000000E+00 -0.80060199177E+03  0.80060199177E+03  0.00000000000E+00 0. -1.
         24    2    1    2    0    0  0.28427127168E+02  0.12393752196E+03 -0.17212296150E+03  0.22865115159E+03  0.80538340782E+02 0.  0.
         23    2    1    2    0    0 -0.57757070659E+02 -0.24376366408E+03 -0.10829610410E+03  0.29067664569E+03  0.10004130672E+03 0.  0.
        -13    1    3    3    0    0 -0.13799938199E+02  0.16296910802E+02 -0.73940789757E+02  0.76962770128E+02  0.00000000000E+00 0.  1.
         14    1    3    3    0    0  0.42227065367E+02  0.10764061116E+03 -0.98182171746E+02  0.15168838146E+03  0.00000000000E+00 0. -1.
        -11    1    4    4    0    0 -0.24795911625E+02 -0.38013448203E+02  0.15909566259E+02  0.48093385991E+02  0.00000000000E+00 0.  1.
         11    1    4    4    0    0 -0.32961159035E+02 -0.20575021587E+03 -0.12420567036E+03  0.24258325970E+03  0.00000000000E+00 0. -1.
          1    1    1    2  501    0  0.29329943491E+02  0.11982614212E+03 -0.39123425957E+03  0.41022286111E+03  0.00000000000E+00 0. -1.
<scales pt_clust_5="13000.00000" pt_clust_6="13000.00000" pt_clust_7="13000.00000" pt_clust_8="13000.00000" pt_clust_9="123.36355"></scales>
<clustering>
<clus scale="   80.538">  5  6 -1 -1</clus>
<clus scale="  100.041">  7  8 -1 -1</clus>
<clus scale="  123.364">  1  9  2 -1</clus>
<clus scale="  175.867">  2  5  1 -1</clus>
<clus scale="  123.364">  1  5  2 -1</clus>
</clustering>
</event>
<event>
 9    2  0.1592151E-004  0.1225159E+03  0.7546771E-02  0.1260614E+00
         21   -1    0    0  501  502  0.00000000000E+00  0.00000000000E+00  0.28250620375E+02  0.28250620375E+02  0.00000000000E+00 0. -1.
          2   -1    0    0  502    0 -0.00000000000E+00 -0.00000000000E+00 -0.86347717100E+03  0.86347717100E+03  0.00000000000E+00 0. -1.
         23    2    1    2    0    0  0.63053239961E+01  0.17018583547E+02 -0.28649141783E+03  0.29732967332E+03  0.77448130086E+02 0.  0.
         24    2    1    2    0    0  0.42668782103E+02  0.73239403149E+02 -0.21116862751E+03  0.24155805127E+03  0.81076924898E+02 0.  0.
        -13    1    4    4    0    0  0.16571005400E+02  0.71706886555E+02 -0.83781239724E+02  0.11151579229E+03  0.00000000000E+00 0.  1.
         14    1    4    4    0    0  0.26097776702E+02  0.15325165940E+01 -0.12738738778E+03  0.13004225898E+03  0.00000000000E+00 0. -1.
        -13    1    3    3    0    0 -0.44172556663E+01 -0.27687895097E+02 -0.16627030423E+03  0.16861775040E+03  0.00000000000E+00 0.  1.
         13    1    3    3    0    0  0.10722579662E+02  0.44706478644E+02 -0.12022111360E+03  0.12871192292E+03  0.00000000000E+00 0. -1.
          1    1    1    2  501    0 -0.48974106099E+02 -0.90257986696E+02 -0.33756650529E+03  0.35284006678E+03  0.00000000000E+00 0. -1.
<scales pt_clust_5="13000.00000" pt_clust_6="13000.00000" pt_clust_7="13000.00000" pt_clust_8="13000.00000" pt_clust_9="91.85142"></scales>
<clustering>
<clus scale="   77.448">  7  8 -1 -1</clus>
<clus scale="   79.546">  2  7  1 -1</clus>
<clus scale="   81.077">  5  6 -1 -1</clus>
<clus scale="   91.851">  1  9  2 -1</clus>
<clus scale="   91.851">  1  5  2 -1</clus>
</clustering>
</event>
<event>
 9    2  0.1592151E-004  0.1449952E+03  0.7546771E-02  0.1209395E+00
         21   -1    0    0  501  502  0.00000000000E+00  0.00000000000E+00  0.73401183153E+02  0.73401183153E+02  0.00000000000E+00 0.  1.
         -1   -1    0    0    0  501 -0.00000000000E+00 -0.00000000000E+00 -0.61908620841E+03  0.61908620841E+03  0.00000000000E+00 0.  1.
         23    2    1    2    0    0 -0.12911939666E+03  0.32079013719E+02 -0.36488548107E+03  0.39934916706E+03  0.92937942843E+02 0.  0.
         24    2    1    2    0    0  0.74327871389E+02  0.56173935477E+02 -0.70304196376E+02  0.14148099200E+03  0.79962788705E+02 0.  0.
        -13    1    4    4    0    0  0.44359730591E+02  0.31428100318E+02  0.71405026995E+01  0.54831541712E+02  0.00000000000E+00 0.  1.
         14    1    4    4    0    0  0.29968140798E+02  0.24745835159E+02 -0.77444699076E+02  0.86649450290E+02  0.00000000000E+00 0. -1.
        -13    1    3    3    0    0 -0.28015834629E+02  0.24390572119E+02 -0.25284441268E+02  0.44934285000E+02  0.00000000000E+00 0. -1.
         13    1    3    3    0    0 -0.10110356203E+03  0.76884415996E+01 -0.33960103981E+03  0.35441488206E+03  0.00000000000E+00 0.  1.
         -2    1    1    2    0  502  0.54791525268E+02 -0.88252949196E+02 -0.11049534781E+03  0.15165723250E+03  0.00000000000E+00 0.  1.
<scales pt_clust_5="13000.00000" pt_clust_6="13000.00000" pt_clust_7="13000.00000" pt_clust_8="13000.00000" pt_clust_9="103.87827"></scales>
<clustering>
<clus scale="   79.963">  5  6 -1 -1</clus>
<clus scale="   92.938">  7  8 -1 -1</clus>
<clus scale="  103.878">  1  9  2 -1</clus>
<clus scale="  137.041">  1  5  2 -1</clus>
<clus scale="  103.878">  1  5  2 -1</clus>
</clustering>
</event>
<event>
 9    2  0.1592151E-004  0.1169519E+03  0.7546771E-02  0.1251297E+00
          2   -1    0    0  502    0 -0.00000000000E+00  0.00000000000E+00  0.67246438287E+03  0.67246438287E+03  0.00000000000E+00 0. -1.
         21   -1    0    0  501  502  0.00000000000E+00 -0.00000000000E+00 -0.49821748221E+02  0.49821748221E+02  0.00000000000E+00 0. -1.
         23    2    1    2    0    0 -0.64439207356E+02 -0.16790239992E+02  0.28006201969E+03  0.30195910815E+03  0.91160542537E+02 0.  0.
         24    2    1    2    0    0  0.10042567427E+03 -0.43103067134E+02  0.10394432517E+03  0.17167161310E+03  0.81997131414E+02 0.  0.
        -11    1    4    4    0    0  0.39265066543E+02 -0.60737684281E+02  0.46911390640E+02  0.86206092095E+02  0.00000000000E+00 0.  1.
         12    1    4    4    0    0  0.61160607730E+02  0.17634617147E+02  0.57032934526E+02  0.85465521004E+02  0.00000000000E+00 0. -1.
        -11    1    3    3    0    0 -0.43283489205E+02  0.33898372395E+02  0.10558845862E+03  0.11904403674E+03  0.00000000000E+00 0.  1.
         11    1    3    3    0    0 -0.21155718151E+02 -0.50688612387E+02  0.17447356107E+03  0.18291507141E+03  0.00000000000E+00 0. -1.
          1    1    1    2  501    0 -0.35986466917E+02  0.59893307126E+02  0.23863628979E+03  0.24865540984E+03  0.00000000000E+00 0. -1.
<scales pt_clust_5="13000.00000" pt_clust_6="13000.00000" pt_clust_7="13000.00000" pt_clust_8="13000.00000" pt_clust_9="69.87302"></scales>
<clustering>
<clus scale="   69.873">  2  9  1 -1</clus>
<clus scale="   81.997">  5  6 -1 -1</clus>
<clus scale="   91.161">  7  8 -1 -1</clus>
<clus scale="  109.959">  2  5  1 -1</clus>
<clus scale="   69.873">  2  5  1 -1</clus>
</clustering>
</event>
<event>
 9    2  0.1592151E-004  0.1531287E+03  0.7546771E-02  0.1198277E+00
         21   -1    0    0  501  502  0.00000000000E+00  0.00000000000E+00  0.60713166950E+03  0.60713166950E+03  0.00000000000E+00 0.  1.
         -1   -1    0    0    0  501 -0.00000000000E+00 -0.00000000000E+00 -0.57282508402E+02  0.57282508402E+02  0.00000000000E+00 0.  1.
         23    2    1    2    0    0  0.63333801722E+02 -0.13671269657E+03  0.18495630356E+03  0.25455950308E+03  0.88826654434E+02 0.  0.
         24    2    1    2    0    0 -0.24837703396E+02  0.95360101886E+02  0.21272847400E+03  0.24754020753E+03  0.79449922298E+02 0.  0.
        -13    1    4    4    0    0  0.24050206667E+02  0.63057513267E+02  0.10287888090E+03  0.12303953249E+03  0.00000000000E+00 0.  1.
         14    1    4    4    0    0 -0.48887910063E+02  0.32302588619E+02  0.10984959310E+03  0.12450067504E+03  0.00000000000E+00 0. -1.
        -11    1    3    3    0    0 -0.18118216400E+02 -0.15582769495E+02  0.80728195068E+01  0.25224251930E+02  0.00000000000E+00 0. -1.
         11    1    3    3    0    0  0.81452018122E+02 -0.12112992708E+03  0.17688348406E+03  0.22933525115E+03  0.00000000000E+00 0.  1.
         -2    1    1    2    0  502 -0.38496098326E+02  0.41352594685E+02  0.15216438354E+03  0.16231446729E+03  0.00000000000E+00 0.  1.
<scales pt_clust_5="13000.00000" pt_clust_6="13000.00000" pt_clust_7="13000.00000" pt_clust_8="13000.00000" pt_clust_9="56.49767"></scales>
<clustering>
<clus scale="   56.498">  1  9  2 -1</clus>
<clus scale="   79.450">  5  6 -1 -1</clus>
<clus scale="   88.827">  7  8 -1 -1</clus>
<clus scale="  147.887">  1  5  2 -1</clus>
<clus scale="   56.498">  1  5  2 -1</clus>
</clustering>
</event>
<event>
 9    2  0.1592151E-004  0.1903943E+03  0.7546771E-02  0.1159284E+00
         -1   -1    0    0    0  501 -0.00000000000E+00  0.00000000000E+00  0.41741913741E+03  0.41741913741E+03  0.00000000000E+00 0.  1.
         21   -1    0    0  501  502  0.00000000000E+00 -0.00000000000E+00 -0.19689494983E+03  0.19689494983E+03  0.00000000000E+00 0.  1.
         23    2    1    2    0    0  0.18856308660E+03  0.56003351797E+02  0.22164532378E+03  0.30999576461E+03  0.90985226731E+02 0.  0.
         24    2    1    2    0    0 -0.12476939695E+03 -0.59846714276E+02  0.97302980174E+02  0.18696538078E+03  0.79618791978E+02 0.  0.
        -11    1    4    4    0    0 -0.46515274040E+02 -0.66363807447E+02  0.52432489956E+02  0.96524565064E+02  0.00000000000E+00 0.  1.
         12    1    4    4    0    0 -0.78254122906E+02  0.65170931705E+01  0.44870490218E+02  0.90440815717E+02  0.00000000000E+00 0. -1.
        -11    1    3    3    0    0  0.17537117103E+03  0.22789425588E+02  0.20449305373E+03  0.27035497882E+03  0.00000000000E+00 0. -1.
         11    1    3    3    0    0  0.13191915574E+02  0.33213926209E+02  0.17152270047E+02  0.39640785795E+02  0.00000000000E+00 0.  1.
         -2    1    1    2    0  502 -0.63793689657E+02  0.38433624788E+01 -0.98424116380E+02  0.11735294185E+03  0.00000000000E+00 0.  1.
<scales pt_clust_5="13000.00000" pt_clust_6="13000.00000" pt_clust_7="13000.00000" pt_clust_8="13000.00000" pt_clust_9="63.90936"></scales>
<clustering>
<clus scale="   63.909">  2  9  1 -1</clus>
<clus scale="   79.619">  5  6 -1 -1</clus>
<clus scale="   90.985">  7  8 -1 -1</clus>
<clus scale="  185.232">  2  5  1 -1</clus>
<clus scale="   63.909">  2  5  1 -1</clus>
</clustering>
</event>
<event>
 9    2  0.1592151E-004  0.9578259E+02  0.7546771E-02  0.1297038E+00
         21   -1    0    0  501  502  0.00000000000E+00  0.00000000000E+00  0.39487274683E+02  0.39487274683E+02  0.00000000000E+00 0. -1.
          2   -1    0    0  502    0 -0.00000000000E+00 -0.00000000000E+00 -0.96910488104E+03  0.96910488104E+03  0.00000000000E+00 0. -1.
         24    2    1    2    0    0  0.24950940569E+02  0.59538815551E+01 -0.38079081405E+03  0.38918679151E+03  0.76201814130E+02 0.  0.
         23    2    1    2    0    0 -0.90553857447E+02 -0.17292598031E+02 -0.93174078153E+02  0.15891464215E+03  0.89852209791E+02 0.  0.
        -13    1    3    3    0    0  0.42839276004E+02 -0.61448601694E+01 -0.12112260293E+03  0.12862211247E+03  0.00000000000E+00 0.  1.
         14    1    3    3    0    0 -0.17888335436E+02  0.12098741724E+02 -0.25966821112E+03  0.26056467904E+03  0.00000000000E+00 0. -1.
        -13    1    4    4    0    0 -0.32227282139E+02  0.21500494080E+01 -0.91909819727E+02  0.97419892162E+02  0.00000000000E+00 0.  1.
         13    1    4    4    0    0 -0.58326575308E+02 -0.19442647439E+02 -0.12642584256E+01  0.61494749987E+02  0.00000000000E+00 0. -1.
          1    1    1    2  501    0  0.65602916878E+02  0.11338716476E+02 -0.45565271416E+03  0.46049072207E+03  0.00000000000E+00 0. -1.
<scales pt_clust_5="13000.00000" pt_clust_6="13000.00000" pt_clust_7="13000.00000" pt_clust_8="13000.00000" pt_clust_9="66.57562"></scales>
<clustering>
<clus scale="   66.576">  1  9  2 -1</clus>
<clus scale="   76.202">  5  6 -1 -1</clus>
<clus scale="   83.112">  2  5  1 -1</clus>
<clus scale="   89.852">  7  8 -1 -1</clus>
<clus scale="   66.576">  1  5  2 -1</clus>
</clustering>
</event>
<event>
 9    2  0.1592151E-004  0.1248185E+03  0.7546771E-02  0.1237212E+00
          2   -1    0    0  502    0 -0.00000000000E+00  0.00000000000E+00  0.99770196919E+02  0.99770196919E+02  0.00000000000E+00 0. -1.
         21   -1    0    0  501  502  0.00000000000E+00 -0.00000000000E+00 -0.72309093747E+03  0.72309093747E+03  0.00000000000E+00 0. -1.
         23    2    1    2    0    0  0.10726116516E+02  0.69653316203E+02  0.65268543961E+01  0.11514104449E+03  0.90819746001E+02 0.  0.
         24    2    1    2    0    0 -0.76604909630E+02 -0.14383645898E+03 -0.22215303250E+03  0.28812741801E+03  0.84310142047E+02 0.  0.
        -11    1    4    4    0    0 -0.71776746570E+02 -0.64905735853E+02 -0.16226815001E+03  0.18893281452E+03  0.00000000000E+00 0.  1.
         12    1    4    4    0    0 -0.48281630590E+01 -0.78930723122E+02 -0.59884882488E+02  0.99194603491E+02  0.00000000000E+00 0. -1.
        -13    1    3    3    0    0 -0.24449895018E+01  0.45181417302E+02 -0.40362892894E+02  0.60634161707E+02  0.00000000000E+00 0. -1.
         13    1    3    3    0    0  0.13171106018E+02  0.24471898900E+02  0.46889747290E+02  0.54506882780E+02  0.00000000000E+00 0.  1.
          1    1    1    2  501    0  0.65878793114E+02  0.74183142773E+02 -0.40769456244E+03  0.41959267189E+03  0.00000000000E+00 0. -1.
<scales pt_clust_5="13000.00000" pt_clust_6="13000.00000" pt_clust_7="13000.00000" pt_clust_8="13000.00000" pt_clust_9="99.21267"></scales>
<clustering>
<clus scale="   84.310">  5  6 -1 -1</clus>
<clus scale="   90.820">  7  8 -1 -1</clus>
<clus scale="   99.213">  2  9  1 -1</clus>
<clus scale="  120.165">  2  5  1 -1</clus>
<clus scale="   99.213">  2  5  1 -1</clus>
</clustering>
</event>
<event>
 9    2  0.1592151E-004  0.1039325E+03  0.7546771E-02  0.1277162E+00
         21   -1    0    0  501  502  0.00000000000E+00  0.00000000000E+00  0.24827518539E+03  0.24827518539E+03  0.00000000000E+00 0.  1.
         -1   -1    0    0    0  501 -0.00000000000E+00 -0.00000000000E+00 -0.15663450373E+03  0.15663450373E+03  0.00000000000E+00 0.  1.
         24    2    1    2    0    0 -0.23053914839E+02  0.34395722898E+02 -0.68382612651E+02  0.11470928038E+03  0.82264746694E+02 0.  0.
         23    2    1    2    0    0  0.19394608721E+02 -0.96189302921E+02  0.18007616623E+03  0.22513156270E+03  0.92888438662E+02 0.  0.
        -11    1    3    3    0    0 -0.44110816965E+02  0.44179915838E+02 -0.28652938650E+02  0.68692212296E+02  0.00000000000E+00 0.  1.
         12    1    3    3    0    0  0.21056902126E+02 -0.97841929394E+01 -0.39729674002E+02  0.46017068082E+02  0.00000000000E+00 0. -1.
        -13    1    4    4    0    0 -0.32544536913E+02 -0.48699290209E+02  0.11602322730E+03  0.12996983120E+03  0.00000000000E+00 0.  1.
         13    1    4    4    0    0  0.51939145634E+02 -0.47490012711E+02  0.64052938932E+02  0.95161731501E+02  0.00000000000E+00 0. -1.
         -2    1    1    2    0  502  0.36593061180E+01  0.61793580022E+02 -0.20052871922E+02  0.65068846044E+02  0.00000000000E+00 0.  1.
<scales pt_clust_5="13000.00000" pt_clust_6="13000.00000" pt_clust_7="13000.00000" pt_clust_8="13000.00000" pt_clust_9="61.90186"></scales>
<clustering>
<clus scale="   61.902">  1  9  2 -1</clus>
<clus scale="   82.265">  5  6 -1 -1</clus>
<clus scale="   92.888">  7  8 -1 -1</clus>
<clus scale="   94.558">  2  5  1 -1</clus>
<clus scale="   61.902">  1  5  2 -1</clus>
</clustering>
</event>
<event>
 9    2  0.1592151E-004  0.3064296E+03  0.7546771E-02  0.1082856E+00
         21   -1    0    0  501  502  0.00000000000E+00  0.00000000000E+00  0.44672351226E+03  0.44672351226E+03  0.00000000000E+00 0. -1.
          2   -1    0    0  502    0 -0.00000000000E+00 -0.00000000000E+00 -0.30421794664E+03  0.30421794664E+03  0.00000000000E+00 0. -1.
         24    2    1    2    0    0 -0.26864983908E+03  0.71950713480E+02  0.79188704697E+02  0.29752962387E+03  0.70024173832E+02 0.  0.
         23    2    1    2    0    0  0.27236068955E+03 -0.15721520388E+03  0.12172714375E+03  0.34999247092E+03  0.93703076955E+02 0.  0.
        -13    1    3    3    0    0 -0.22809640227E+03  0.33847866423E+02  0.56347815356E+02  0.23737885981E+03  0.00000000000E+00 0.  1.
         14    1    3    3    0    0 -0.40553436808E+02  0.38102847057E+02  0.22840889341E+02  0.60150764057E+02  0.00000000000E+00 0. -1.
        -13    1    4    4    0    0  0.14880909774E+03 -0.13777454165E+03  0.82226394162E+02  0.21883133184E+03  0.00000000000E+00 0. -1.
         13    1    4    4    0    0  0.12355159181E+03 -0.19440662228E+02  0.39500749588E+02  0.13116113908E+03  0.00000000000E+00 0.  1.
          1    1    1    2  501    0 -0.37108504757E+01  0.85264490399E+02 -0.58410282829E+02  0.10341936412E+03  0.00000000000E+00 0. -1.
<scales pt_clust_5="13000.00000" pt_clust_6="13000.00000" pt_clust_7="13000.00000" pt_clust_8="13000.00000" pt_clust_9="85.34525"></scales>
<clustering>
<clus scale="   70.024">  5  6 -1 -1</clus>
<clus scale="   85.345">  1  9  2 -1</clus>
<clus scale="   93.703">  7  8 -1 -1</clus>
<clus scale="  300.037">  2  5  1 -1</clus>
<clus scale="   85.345">  1  5  2 -1</clus>
</clustering>
</event>
<event>
 9    2  0.1592151E-004  0.1121061E+03  0.7546771E-02  0.1261427E+00
         21   -1    0    0  501  502  0.00000000000E+00  0.00000000000E+00  0.86208563368E+02  0.86208563368E+02  0.00000000000E+00 0. -1.
          2   -1    0    0  502    0 -0.00000000000E+00 -0.00000000000E+00 -0.51357597148E+03  0.51357597148E+03  0.00000000000E+00 0. -1.
         23    2    1    2    0    0 -0.46967406392E+02  0.32326910638E+02 -0.23720518995E+03  0.26027772359E+03  0.90704050868E+02 0.  0.
         24    2    1    2    0    0  0.70808454203E+02 -0.26220100747E+02 -0.25120499113E+03  0.27368957324E+03  0.78107003922E+02 0.  0.
        -11    1    4    4    0    0 -0.50822579648E+01 -0.32016961874E+02 -0.69561136744E+02  0.76744165504E+02  0.00000000000E+00 0.  1.
         12    1    4    4    0    0  0.75890712168E+02  0.57968611274E+01 -0.18164385439E+03  0.19694540774E+03  0.00000000000E+00 0. -1.
        -13    1    3    3    0    0 -0.12135800889E+01 -0.26926955741E+02 -0.10442219741E+03  0.10784493050E+03  0.00000000000E+00 0.  1.
         13    1    3    3    0    0 -0.45753826304E+02  0.59253866379E+02 -0.13278299253E+03  0.15243279309E+03  0.00000000000E+00 0. -1.
          1    1    1    2  501    0 -0.23841047811E+02 -0.61068098916E+01  0.61042772971E+02  0.65817238014E+02  0.00000000000E+00 0. -1.
<scales pt_clust_5="13000.00000" pt_clust_6="13000.00000" pt_clust_7="13000.00000" pt_clust_8="13000.00000" pt_clust_9="24.61074"></scales>
<clustering>
<clus scale="   24.611">  1  9  2 -1</clus>
<clus scale="   78.107">  5  6 -1 -1</clus>
<clus scale="   90.704">  7  8 -1 -1</clus>
<clus scale="  102.183">  1  5  2 -1</clus>
<clus scale="   24.611">  1  5  2 -1</clus>
</clustering>
</event>
<event>
 9    2  0.1592151E-004  0.1534367E+03  0.7546771E-02  0.1199376E+00
          2   -1    0    0  502    0 -0.00000000000E+00  0.00000000000E+00  0.88786061762E+03  0.88786061762E+03  0.00000000000E+00 0. -1.
         21   -1    0    0  501  502  0.00000000000E+00 -0.00000000000E+00 -0.10408656314E+03  0.10408656314E+03  0.00000000000E+00 0. -1.
         23    2    1    2    0    0  0.78116597164E+02 -0.44463859141E+02  0.38621240987E+02  0.13775970354E+03  0.96989165076E+02 0.  0.
         24    2    1    2    0    0 -0.64258597534E+02  0.14671754327E+03  0.10908548123E+03  0.20980443023E+03  0.80393108333E+02 0.  0.
        -13    1    4    4    0    0 -0.62885930095E+02  0.87665843744E+02  0.10507447826E+03  0.15060075148E+03  0.00000000000E+00 0.  1.
         14    1    4    4    0    0 -0.13726674395E+01  0.59051699526E+02  0.40110029676E+01  0.59203678750E+02  0.00000000000E+00 0. -1.
        -13    1    3    3    0    0 -0.14531993186E+02 -0.18000067003E+02 -0.14921248972E+02  0.27528619816E+02  0.00000000000E+00 0.  1.
         13    1    3    3    0    0  0.92648590350E+02 -0.26463792139E+02  0.53542489959E+02  0.11023108373E+03  0.00000000000E+00 0. -1.
          1    1    1    2  501    0 -0.13857999630E+02 -0.10225368413E+03  0.63606733226E+03  0.64438304699E+03  0.00000000000E+00 0. -1.
<scales pt_clust_5="13000.00000" pt_clust_6="13000.00000" pt_clust_7="13000.00000" pt_clust_8="13000.00000" pt_clust_9="103.18852"></scales>
<clustering>
<clus scale="   80.393">  5  6 -1 -1</clus>
<clus scale="   96.989">  7  8 -1 -1</clus>
<clus scale="  103.189">  2  9  1 -1</clus>
<clus scale="  143.523">  2  5  1 -1</clus>
<clus scale="  103.189">  2  5  1 -1</clus>
</clustering>
</event>
<event>
 9    2  0.1592151E-004  0.1683742E+03  0.7546771E-02  0.1206689E+00
          4   -1    0    0  502    0 -0.00000000000E+00  0.00000000000E+00  0.39544902202E+03  0.39544902202E+03  0.00000000000E+00 0. -1.
         21   -1    0    0  501  502  0.00000000000E+00 -0.00000000000E+00 -0.19846480637E+03  0.19846480637E+03  0.00000000000E+00 0.  1.
         23    2    1    2    0    0 -0.26394297228E+02  0.10356728993E+02 -0.93295551949E+02  0.13154626374E+03  0.88297444639E+02 0.  0.
         24    2    1    2    0    0  0.15305583106E+03  0.48832472195E+02  0.45008924913E+02  0.18004807903E+03  0.67681679022E+02 0.  0.
        -11    1    4    4    0    0  0.10207870716E+03  0.63083341898E+02  0.41608993406E+02  0.12700739669E+03  0.00000000000E+00 0.  1.
         12    1    4    4    0    0  0.50977123905E+02 -0.14250869703E+02  0.33999315074E+01  0.53040682340E+02  0.00000000000E+00 0. -1.
        -11    1    3    3    0    0  0.23863710905E+02  0.30291286447E+02 -0.35716756572E+02  0.52561634609E+02  0.00000000000E+00 0.  1.
         11    1    3    3    0    0 -0.50258008133E+02 -0.19934557453E+02 -0.57578795376E+02  0.78984629133E+02  0.00000000000E+00 0. -1.
          3    1    1    2  501    0 -0.12666153384E+03 -0.59189201189E+02  0.24527084269E+03  0.28231948563E+03  0.00000000000E+00 0. -1.
<scales pt_clust_5="13000.00000" pt_clust_6="13000.00000" pt_clust_7="13000.00000" pt_clust_8="13000.00000" pt_clust_9="154.17228"></scales>
<clustering>
<clus scale="   67.682">  5  6 -1 -1</clus>
<clus scale="   88.297">  7  8 -1 -1</clus>
<clus scale="   92.738">  1  7  2 -1</clus>
<clus scale="  154.172">  2  9  1 -1</clus>
<clus scale="  154.172">  2  5  1 -1</clus>
</clustering>
</event>
<event>
 9    2  0.1592151E-004  0.1053274E+03  0.7546771E-02  0.1272385E+00
         21   -1    0    0  501  502  0.00000000000E+00  0.00000000000E+00  0.75603752252E+02  0.75603752252E+02  0.00000000000E+00 0.  1.
          4   -1    0    0  502    0 -0.00000000000E+00 -0.00000000000E+00 -0.11494224600E+04  0.11494224600E+04  0.00000000000E+00 0. -1.
         24    2    1    2    0    0  0.19252001370E+02 -0.51487794083E+02 -0.86552970940E+03  0.87107485022E+03  0.81290124495E+02 0.  0.
         23    2    1    2    0    0  0.18395561931E+02  0.12814726185E+03 -0.34673407727E+02  0.16046651423E+03  0.88244770776E+02 0.  0.
        -13    1    3    3    0    0  0.95663502095E+01 -0.34781054856E+02 -0.12022665794E+03  0.12552165595E+03  0.00000000000E+00 0.  1.
         14    1    3    3    0    0  0.96856511605E+01 -0.16706739227E+02 -0.74530305146E+03  0.74555319427E+03  0.00000000000E+00 0. -1.
        -11    1    4    4    0    0 -0.23710271150E+01  0.11328282458E+03 -0.56735510724E+02  0.12671834237E+03  0.00000000000E+00 0. -1.
         11    1    4    4    0    0  0.20766589046E+02  0.14864437266E+02  0.22062102997E+02  0.33748171869E+02  0.00000000000E+00 0.  1.
          3    1    1    2  501    0 -0.37647563301E+02 -0.76659467765E+02 -0.17361559064E+03  0.19348484781E+03  0.00000000000E+00 0. -1.
<scales pt_clust_5="13000.00000" pt_clust_6="13000.00000" pt_clust_7="13000.00000" pt_clust_8="13000.00000" pt_clust_9="85.40504"></scales>
<clustering>
<clus scale="   81.290">  5  6 -1 -1</clus>
<clus scale="   85.405">  1  9  2 -1</clus>
<clus scale="   88.245">  7  8 -1 -1</clus>
<clus scale="   99.573">  2  5  1 -1</clus>
<clus scale="   85.405">  1  5  2 -1</clus>
</clustering>
</event>
<event>
 9    2  0.1592151E-004  0.1401904E+03  0.7546771E-02  0.1221844E+00
         -1   -1    0    0    0  501 -0.00000000000E+00  0.00000000000E+00  0.34510575699E+03  0.34510575699E+03  0.00000000000E+00 0.  1.
         21   -1    0    0  501  502  0.00000000000E+00 -0.00000000000E+00 -0.10562341523E+03  0.10562341523E+03  0.00000000000E+00 0.  1.
         23    2    1    2    0    0  0.42695687718E+02 -0.58060716783E+02  0.59599693097E+02  0.13087725080E+03  0.91557428840E+02 0.  0.
         24    2    1    2    0    0 -0.55983472901E+02 -0.77648738179E+02  0.10858961995E+03  0.16598081515E+03  0.81206216875E+02 0.  0.
        -13    1    4    4    0    0  0.72284195837E+00 -0.30242174554E+02  0.82049132957E+02  0.87448109421E+02  0.00000000000E+00 0.  1.
         14    1    4    4    0    0 -0.56706314860E+02 -0.47406563625E+02  0.26540486990E+02  0.78532705730E+02  0.00000000000E+00 0. -1.
        -13    1    3    3    0    0  0.26094550966E+02 -0.82126465539E+02  0.36358425685E+02  0.93528696400E+02  0.00000000000E+00 0.  1.
         13    1    3    3    0    0  0.16601136752E+02  0.24065748755E+02  0.23241267412E+02  0.37348554397E+02  0.00000000000E+00 0. -1.
         -2    1    1    2    0  502  0.13287785183E+02  0.13570945496E+03  0.71293028722E+02  0.15387110627E+03  0.00000000000E+00 0.  1.
<scales pt_clust_5="13000.00000" pt_clust_6="13000.00000" pt_clust_7="13000.00000" pt_clust_8="13000.00000" pt_clust_9="114.27562"></scales>
<clustering>
<clus scale="   81.206">  5  6 -1 -1</clus>
<clus scale="   91.557">  7  8 -1 -1</clus>
<clus scale="  116.519">  1  7  2 -1</clus>
<clus scale="  114.276">  2  9  1 -1</clus>
<clus scale="  114.276">  2  5  1 -1</clus>
</clustering>
</event>
<event>
 9    2  0.1592151E-004  0.2017574E+03  0.7546771E-02  0.1149099E+00
          2   -1    0    0  502    0 -0.00000000000E+00  0.00000000000E+00  0.85094811209E+03  0.85094811209E+03  0.00000000000E+00 0. -1.
         21   -1    0    0  501  502  0.00000000000E+00 -0.00000000000E+00 -0.68961705157E+02  0.68961705157E+02  0.00000000000E+00 0. -1.
         23    2    1    2    0    0  0.14691094486E+03  0.14650889473E+03  0.41308947638E+03  0.47093298700E+03  0.89929309986E+02 0.  0.
         24    2    1    2    0    0 -0.14162057279E+03 -0.69510739244E+02  0.23331843397E+03  0.29296967426E+03  0.80657354891E+02 0.  0.
        -13    1    4    4    0    0 -0.91017006483E+02 -0.43931616171E+02  0.20721715216E+03  0.23054941015E+03  0.00000000000E+00 0.  1.
         14    1    4    4    0    0 -0.50603566303E+02 -0.25579123073E+02  0.26101281808E+02  0.62420264112E+02  0.00000000000E+00 0. -1.
        -11    1    3    3    0    0  0.82147921537E+02  0.96268006965E+02  0.33341322669E+03  0.35662331656E+03  0.00000000000E+00 0.  1.
         11    1    3    3    0    0  0.64763023318E+02  0.50240887761E+02  0.79676249689E+02  0.11430967044E+03  0.00000000000E+00 0. -1.
          1    1    1    2  501    0 -0.52903720693E+01 -0.76998155483E+02  0.13557849658E+03  0.15600715599E+03  0.00000000000E+00 0. -1.
<scales pt_clust_5="13000.00000" pt_clust_6="13000.00000" pt_clust_7="13000.00000" pt_clust_8="13000.00000" pt_clust_9="77.17972"></scales>
<clustering>
<clus scale="   77.180">  2  9  1 -1</clus>
<clus scale="   80.657">  5  6 -1 -1</clus>
<clus scale="   89.929">  7  8 -1 -1</clus>
<clus scale="  197.799">  2  5  1 -1</clus>
<clus scale="   77.180">  2  5  1 -1</clus>
</clustering>
</event>
<event>
 9    2  0.1592151E-004  0.2193022E+03  0.7546771E-02  0.1136182E+00
         21   -1    0    0  501  502  0.00000000000E+00  0.00000000000E+00  0.15598358876E+03  0.15598358876E+03  0.00000000000E+00 0.  1.
         -1   -1    0    0    0  501 -0.00000000000E+00 -0.00000000000E+00 -0.64324227844E+03  0.64324227844E+03  0.00000000000E+00 0.  1.
         24    2    1    2    0    0 -0.23084520762E+03 -0.74498996753E+01 -0.38856076741E+03  0.46500399485E+03  0.10910652764E+03 0.  0.
         23    2    1    2    0    0  0.14861895662E+03 -0.15179903216E+02 -0.15424716477E+03  0.23244278473E+03  0.88991216458E+02 0.  0.
        -13    1    3    3    0    0 -0.23765945644E+03  0.12662594817E+01 -0.38653813730E+03  0.45375693079E+03  0.00000000000E+00 0.  1.
         14    1    3    3    0    0  0.68142488227E+01 -0.87161591570E+01 -0.20226301032E+01  0.11247064061E+02  0.00000000000E+00 0. -1.
        -13    1    4    4    0    0  0.78323702967E+02  0.31806379191E+02 -0.10423813602E+03  0.13420818606E+03  0.00000000000E+00 0. -1.
         13    1    4    4    0    0  0.70295253651E+02 -0.46986282407E+02 -0.50009028749E+02  0.98234598674E+02  0.00000000000E+00 0.  1.
         -2    1    1    2    0  502  0.82226250999E+02  0.22629802891E+02  0.55549242503E+02  0.10177908761E+03  0.00000000000E+00 0.  1.
<scales pt_clust_5="13000.00000" pt_clust_6="13000.00000" pt_clust_7="13000.00000" pt_clust_8="13000.00000" pt_clust_9="85.28344"></scales>
<clustering>
<clus scale="   85.283">  1  9  2 -1</clus>
<clus scale="   88.991">  7  8 -1 -1</clus>
<clus scale="  109.107">  5  6 -1 -1</clus>
<clus scale="  210.021">  1  7  2 -1</clus>
<clus scale="   85.283">  1  5  2 -1</clus>
</clustering>
</event>
<event>
 9    2  0.1592151E-004  0.9803535E+02  0.7546771E-02  0.1292205E+00
         -3   -1    0    0    0  501 -0.00000000000E+00  0.00000000000E+00  0.21566884505E+03  0.21566884505E+03  0.00000000000E+00 0.  1.
         21   -1    0    0  501  502  0.00000000000E+00 -0.00000000000E+00 -0.80064290317E+02  0.80064290317E+02  0.00000000000E+00 0.  1.
         23    2    1    2    0    0 -0.21588998845E+02  0.37977326817E+02  0.14715845431E+03  0.17844106901E+03  0.90979350464E+02 0.  0.
         24    2    1    2    0    0  0.24073618665E+02 -0.77836996990E+01  0.83563686725E+01  0.81039518368E+02  0.76533976397E+02 0.  0.
        -13    1    4    4    0    0  0.26719441396E+02  0.25294170970E+02 -0.15751833679E+02  0.40023042086E+02  0.00000000000E+00 0.  1.
         14    1    4    4    0    0 -0.26458227306E+01 -0.33077870669E+02  0.24108202352E+02  0.41016476281E+02  0.00000000000E+00 0. -1.
        -11    1    3    3    0    0  0.90865240628E+01  0.27218558259E+02  0.10015099482E+01  0.28712677608E+02  0.00000000000E+00 0. -1.
         11    1    3    3    0    0 -0.30675522907E+02  0.10758768558E+02  0.14615694436E+03  0.14972839140E+03  0.00000000000E+00 0.  1.
         -4    1    1    2    0  502 -0.24846198209E+01 -0.30193627118E+02 -0.19910268247E+02  0.36252547992E+02  0.00000000000E+00 0.  1.
<scales pt_clust_5="13000.00000" pt_clust_6="13000.00000" pt_clust_7="13000.00000" pt_clust_8="13000.00000" pt_clust_9="30.29568"></scales>
<clustering>
<clus scale="   30.296">  2  9  1 -1</clus>
<clus scale="   76.534">  5  6 -1 -1</clus>
<clus scale="   84.801">  2  5  1 -1</clus>
<clus scale="   90.979">  7  8 -1 -1</clus>
<clus scale="   30.296">  2  5  1 -1</clus>
</clustering>
</event>
<event>
 9    2  0.1592151E-004  0.1104356E+03  0.7546771E-02  0.1264971E+00
         21   -1    0    0  501  502  0.00000000000E+00  0.00000000000E+00  0.12288391649E+03  0.12288391649E+03  0.00000000000E+00 0.  1.
          2   -1    0    0  502    0 -0.00000000000E+00 -0.00000000000E+00 -0.42811776587E+03  0.42811776587E+03  0.00000000000E+00 0. -1.
         24    2    1    2    0    0  0.57332433954E+02  0.14606246065E+02 -0.37865991972E+03  0.39152142969E+03  0.80033397400E+02 0.  0.
         23    2    1    2    0    0 -0.56094862249E+02 -0.38668088143E+02  0.49373296612E+02  0.12543557977E+03  0.93029606268E+02 0.  0.
        -13    1    3    3    0    0  0.43261225326E+02 -0.10507143533E+01 -0.71042541007E+02  0.83184615465E+02  0.00000000000E+00 0.  1.
         14    1    3    3    0    0  0.14071208627E+02  0.15656960418E+02 -0.30761737872E+03  0.30833681423E+03  0.00000000000E+00 0. -1.
        -11    1    4    4    0    0 -0.49326029439E+02  0.16661530566E+02  0.46194115821E+02  0.69602874348E+02  0.00000000000E+00 0.  1.
         11    1    4    4    0    0 -0.67688328099E+01 -0.55329618709E+02  0.31791807913E+01  0.55832705421E+02  0.00000000000E+00 0. -1.
          1    1    1    2  501    0 -0.12375717043E+01  0.24061842079E+02  0.24052773734E+02  0.34044672890E+02  0.00000000000E+00 0. -1.
<scales pt_clust_5="13000.00000" pt_clust_6="13000.00000" pt_clust_7="13000.00000" pt_clust_8="13000.00000" pt_clust_9="24.09365"></scales>
<clustering>
<clus scale="   24.094">  1  9  2 -1</clus>
<clus scale="   80.033">  5  6 -1 -1</clus>
<clus scale="   93.030">  7  8 -1 -1</clus>
<clus scale="   99.734">  2  5  1 -1</clus>
<clus scale="   24.094">  1  5  2 -1</clus>
</clustering>
</event>
<event>
 9    2  0.1592151E-004  0.9815095E+02  0.7546771E-02  0.1289326E+00
         21   -1    0    0  501  502  0.00000000000E+00  0.00000000000E+00  0.67048577195E+02  0.67048577195E+02  0.00000000000E+00 0.  1.
          2   -1    0    0  502    0 -0.00000000000E+00 -0.00000000000E+00 -0.27116637136E+03  0.27116637136E+03  0.00000000000E+00 0. -1.
         23    2    1    2    0    0  0.36452485015E+02 -0.35516952973E+01 -0.15603108431E+03  0.18458377081E+03  0.91564572680E+02 0.  0.
         24    2    1    2    0    0 -0.26597087882E+02  0.26655526275E+02  0.96855918734E+01  0.90634711933E+02  0.81871351231E+02 0.  0.
        -13    1    4    4    0    0 -0.26048942930E+02  0.16581953141E+02  0.44625588306E+02  0.54267409459E+02  0.00000000000E+00 0.  1.
         14    1    4    4    0    0 -0.54814495205E+00  0.10073573134E+02 -0.34939996432E+02  0.36367302474E+02  0.00000000000E+00 0. -1.
        -13    1    3    3    0    0  0.15701861555E+02 -0.45925071197E+02 -0.56835690599E+02  0.74739255727E+02  0.00000000000E+00 0.  1.
         13    1    3    3    0    0  0.20750623460E+02  0.42373375899E+02 -0.99195393713E+02  0.10984451508E+03  0.00000000000E+00 0. -1.
          1    1    1    2  501    0 -0.98553971332E+01 -0.23103830978E+02 -0.57772301726E+02  0.62996465815E+02  0.00000000000E+00 0. -1.
<scales pt_clust_5="13000.00000" pt_clust_6="13000.00000" pt_clust_7="13000.00000" pt_clust_8="13000.00000" pt_clust_9="25.11805"></scales>
<clustering>
<clus scale="   25.118">  1  9  2 -1</clus>
<clus scale="   81.871">  5  6 -1 -1</clus>
<clus scale="   89.177">  1  5  2 -1</clus>
<clus scale="   91.565">  7  8 -1 -1</clus>
<clus scale="   25.118">  1  5  2 -1</clus>
</clustering>
</event>
<event>
 9    2  0.1592151E-004  0.1141302E+03  0.7546771E-02  0.1259872E+00
         -3   -1    0    0    0  501 -0.00000000000E+00  0.00000000000E+00  0.71543345612E+02  0.71543345612E+02  0.00000000000E+00 0.  1.
         21   -1    0    0  501  502  0.00000000000E+00 -0.00000000000E+00 -0.44684228134E+03  0.44684228134E+03  0.00000000000E+00 0. -1.
         23    2    1    2    0    0 -0.14396036164E+00 -0.72825160126E+02 -0.53289375625E+02  0.13173303899E+03  0.95970366966E+02 0.  0.
         24    2    1    2    0    0  0.82824170005E+02  0.19732583022E+02 -0.17305628553E+03  0.20820955274E+03  0.78444387461E+02 0.  0.
        -13    1    4    4    0    0  0.33878737358E+02  0.47582685548E+02 -0.74129354850E+02  0.94377126781E+02  0.00000000000E+00 0.  1.
         14    1    4    4    0    0  0.48945432647E+02 -0.27850102526E+02 -0.98926930675E+02  0.11383242596E+03  0.00000000000E+00 0. -1.
        -13    1    3    3    0    0  0.32856978148E+02 -0.75154348232E+02 -0.19221394853E+02  0.84244994458E+02  0.00000000000E+00 0.  1.
         13    1    3    3    0    0 -0.33000938509E+02  0.23291881064E+01 -0.34067980772E+02  0.47488044534E+02  0.00000000000E+00 0. -1.
         -4    1    1    2    0  502 -0.82680209643E+02  0.53092577104E+02 -0.14895327458E+03  0.17844303522E+03  0.00000000000E+00 0.  1.
<scales pt_clust_5="13000.00000" pt_clust_6="13000.00000" pt_clust_7="13000.00000" pt_clust_8="13000.00000" pt_clust_9="98.25904"></scales>
<clustering>
<clus scale="   78.444">  5  6 -1 -1</clus>
<clus scale="   95.970">  7  8 -1 -1</clus>
<clus scale="   98.259">  2  9  1 -1</clus>
<clus scale="   99.844">  2  5  1 -1</clus>
<clus scale="   98.259">  2  5  1 -1</clus>
</clustering>
</event>
<event>
 9    2  0.1592151E-004  0.1074658E+03  0.7546771E-02  0.1270130E+00
         -1   -1    0    0    0  501 -0.00000000000E+00  0.00000000000E+00  0.16439974078E+03  0.16439974078E+03  0.00000000000E+00 0.  1.
         21   -1    0    0  501  502  0.00000000000E+00 -0.00000000000E+00 -0.98064486453E+02  0.98064486453E+02  0.00000000000E+00 0. -1.
         24    2    1    2    0    0  0.61141123110E+02 -0.11070178452E+02  0.63319567693E+02  0.11969903592E+03  0.80359851673E+02 0.  0.
         23    2    1    2    0    0 -0.41339200536E+02  0.33811852791E+01 -0.28600348063E+02  0.10467568615E+03  0.91753242162E+02 0.  0.
        -11    1    3    3    0    0  0.44587797721E+02  0.32363582274E+02  0.34848150632E+02  0.65191002184E+02  0.00000000000E+00 0.  1.
         12    1    3    3    0    0  0.16553325389E+02 -0.43433760726E+02  0.28471417061E+02  0.54508033735E+02  0.00000000000E+00 0. -1.
        -13    1    4    4    0    0 -0.53129367083E+02  0.32152474549E+02 -0.37231715608E+02  0.72406573689E+02  0.00000000000E+00 0. -1.
         13    1    4    4    0    0  0.11790166547E+02 -0.28771289270E+02  0.86313675450E+01  0.32269112463E+02  0.00000000000E+00 0.  1.
         -2    1    1    2    0  502 -0.19801922574E+02  0.76889931728E+01  0.31616034702E+02  0.38089505167E+02  0.00000000000E+00 0.  1.
<scales pt_clust_5="13000.00000" pt_clust_6="13000.00000" pt_clust_7="13000.00000" pt_clust_8="13000.00000" pt_clust_9="21.24234"></scales>
<clustering>
<clus scale="   21.242">  2  9  1 -1</clus>
<clus scale="   80.360">  5  6 -1 -1</clus>
<clus scale="   91.753">  7  8 -1 -1</clus>
<clus scale="   97.918">  1  5  2 -1</clus>
<clus scale="   21.242">  2  5  1 -1</clus>
</clustering>
</event>
<event>
 9    2  0.1592151E-004  0.9853122E+02  0.7546771E-02  0.1286003E+00
          2   -1    0    0  502    0 -0.00000000000E+00  0.00000000000E+00  0.20654207978E+03  0.20654207978E+03  0.00000000000E+00 0. -1.
         21   -1    0    0  501  502  0.00000000000E+00 -0.00000000000E+00 -0.14763386085E+03  0.14763386085E+03  0.00000000000E+00 0. -1.
         24    2    1    2    0    0  0.16889533218E+02  0.52944922413E+02  0.15590798323E+03  0.18409733855E+03  0.80598447164E+02 0.  0.
         23    2    1    2    0    0  0.91421286169E+01 -0.68668190902E+01 -0.59759549661E+02  0.10536637286E+03  0.86024049160E+02 0.  0.
        -13    1    3    3    0    0 -0.22191212029E+02 -0.45079828404E+01  0.15513589654E+02  0.27448921009E+02  0.00000000000E+00 0.  1.
         14    1    3    3    0    0  0.39080745247E+02  0.57452905253E+02  0.14039439358E+03  0.15664841755E+03  0.00000000000E+00 0. -1.
        -11    1    4    4    0    0  0.25913344310E+02  0.16920230198E+02 -0.68341654003E+02  0.75022511790E+02  0.00000000000E+00 0. -1.
         11    1    4    4    0    0 -0.16771215694E+02 -0.23787049289E+02  0.85821043426E+01  0.30343861070E+02  0.00000000000E+00 0.  1.
          1    1    1    2  501    0 -0.26031661835E+02 -0.46078103323E+02 -0.37240214639E+02  0.64712229216E+02  0.00000000000E+00 0. -1.
<scales pt_clust_5="13000.00000" pt_clust_6="13000.00000" pt_clust_7="13000.00000" pt_clust_8="13000.00000" pt_clust_9="52.92295"></scales>
<clustering>
<clus scale="   52.923">  2  9  1 -1</clus>
<clus scale="   80.598">  5  6 -1 -1</clus>
<clus scale="   86.024">  7  8 -1 -1</clus>
<clus scale="   93.832">  1  5  2 -1</clus>
<clus scale="   52.923">  2  5  1 -1</clus>
</clustering>
</event>
<event>
 9    2  0.1592151E-004  0.1552238E+03  0.7546771E-02  0.1194871E+00
          2   -1    0    0  502    0 -0.00000000000E+00  0.00000000000E+00  0.10458913530E+04  0.10458913530E+04  0.00000000000E+00 0. -1.
         21   -1    0    0  501  502  0.00000000000E+00 -0.00000000000E+00 -0.59472068981E+02  0.59472068981E+02  0.00000000000E+00 0. -1.
         24    2    1    2    0    0 -0.10688873045E+03  0.59084221619E+02  0.73305034211E+03  0.74803589067E+03  0.85315553803E+02 0.  0.
         23    2    1    2    0    0  0.12941859804E+03 -0.59167285428E+02  0.27744475844E+03  0.32435410601E+03  0.89331130721E+02 0.  0.
        -13    1    3    3    0    0  0.78460395978E+01  0.26599434012E+02  0.96184339155E+02  0.10010253406E+03  0.00000000000E+00 0.  1.
         14    1    3    3    0    0 -0.11473477005E+03  0.32484787607E+02  0.63686600295E+03  0.64793335660E+03  0.00000000000E+00 0. -1.
        -13    1    4    4    0    0  0.26732366372E+02 -0.44998148074E+02  0.42025422940E+02  0.67123683713E+02  0.00000000000E+00 0.  1.
         13    1    4    4    0    0  0.10268623167E+03 -0.14169137354E+02  0.23541933550E+03  0.25723042230E+03  0.00000000000E+00 0. -1.
          1    1    1    2  501    0 -0.22529867589E+02  0.83063809173E-01 -0.24075816543E+02  0.32973425291E+02  0.00000000000E+00 0. -1.
<scales pt_clust_5="13000.00000" pt_clust_6="13000.00000" pt_clust_7="13000.00000" pt_clust_8="13000.00000" pt_clust_9="22.53002"></scales>
<clustering>
<clus scale="   22.530">  2  9  1 -1</clus>
<clus scale="   85.316">  5  6 -1 -1</clus>
<clus scale="   89.331">  7  8 -1 -1</clus>
<clus scale="  152.948">  1  5  2 -1</clus>
<clus scale="   22.530">  2  5  1 -1</clus>
</clustering>
</event>
<event>
 9    2  0.1592151E-004  0.9809509E+02  0.7546771E-02  0.1289079E+00
         21   -1    0    0  501  502  0.00000000000E+00  0.00000000000E+00  0.11164574925E+03  0.11164574925E+03  0.00000000000E+00 0. -1.
          2   -1    0    0  502    0 -0.00000000000E+00 -0.00000000000E+00 -0.16890163124E+03  0.16890163124E+03  0.00000000000E+00 0. -1.
         23    2    1    2    0    0  0.13950434844E+02 -0.43146035429E+02 -0.68313527074E+02  0.12113459607E+03  0.89166458824E+02 0.  0.
         24    2    1    2    0    0 -0.23189486337E+02  0.20101491621E+02  0.60010391251E+02  0.10452396562E+03  0.79888610506E+02 0.  0.
        -13    1    4    4    0    0 -0.21592523513E+01  0.25086520222E+02 -0.13031421656E+02  0.28351610499E+02  0.00000000000E+00 0.  1.
         14    1    4    4    0    0 -0.21030233986E+02 -0.49850286010E+01  0.73041812907E+02  0.76172355119E+02  0.00000000000E+00 0. -1.
        -11    1    3    3    0    0  0.20054345406E+02  0.21482773220E+02 -0.38344296577E+01  0.29637630905E+02  0.00000000000E+00 0.  1.
         11    1    3    3    0    0 -0.61039105620E+01 -0.64628808649E+02 -0.64479097416E+02  0.91496965168E+02  0.00000000000E+00 0. -1.
          1    1    1    2  501    0  0.92390514932E+01  0.23044543808E+02 -0.48952746162E+02  0.54888818795E+02  0.00000000000E+00 0. -1.
<scales pt_clust_5="13000.00000" pt_clust_6="13000.00000" pt_clust_7="13000.00000" pt_clust_8="13000.00000" pt_clust_9="24.82764"></scales>
<clustering>
<clus scale="   24.828">  1  9  2 -1</clus>
<clus scale="   79.889">  5  6 -1 -1</clus>
<clus scale="   89.166">  7  8 -1 -1</clus>
<clus scale="   89.745">  1  5  2 -1</clus>
<clus scale="   24.828">  1  5  2 -1</clus>
</clustering>
</event>
<event>
 9    2  0.1592151E-004  0.1046754E+03  0.7546771E-02  0.1276261E+00
         21   -1    0    0  501  502  0.00000000000E+00  0.00000000000E+00  0.11740804697E+03  0.11740804697E+03  0.00000000000E+00 0. -1.
          2   -1    0    0  502    0 -0.00000000000E+00 -0.00000000000E+00 -0.46423042854E+03  0.46423042854E+03  0.00000000000E+00 0. -1.
         24    2    1    2    0    0  0.23289743913E+02  0.27217117253E+02 -0.64744286025E+02  0.10944180301E+03  0.80638092917E+02 0.  0.
         23    2    1    2    0    0 -0.10289686913E+03 -0.35667525174E+02  0.33284711207E+02  0.14683164109E+03  0.92691535734E+02 0.  0.
        -11    1    3    3    0    0  0.51698426969E+02  0.28441098410E+02 -0.50366854992E+02  0.77578627931E+02  0.00000000000E+00 0.  1.
         12    1    3    3    0    0 -0.28408683056E+02 -0.12239811564E+01 -0.14377431033E+02  0.31863175076E+02  0.00000000000E+00 0. -1.
        -13    1    4    4    0    0 -0.68626599415E+02 -0.44669290155E+02 -0.18631240122E+02  0.83976655915E+02  0.00000000000E+00 0.  1.
         13    1    4    4    0    0 -0.34270269716E+02  0.90017649813E+01  0.51915951329E+02  0.62854985177E+02  0.00000000000E+00 0. -1.
          1    1    1    2  501    0  0.79607125218E+02  0.84504079201E+01 -0.31536280675E+03  0.32536503141E+03  0.00000000000E+00 0. -1.
<scales pt_clust_5="13000.00000" pt_clust_6="13000.00000" pt_clust_7="13000.00000" pt_clust_8="13000.00000" pt_clust_9="80.05442"></scales>
<clustering>
<clus scale="   80.054">  1  9  2 -1</clus>
<clus scale="   80.638">  5  6 -1 -1</clus>
<clus scale="   92.692">  7  8 -1 -1</clus>
<clus scale="   94.169">  2  5  1 -1</clus>
<clus scale="   80.054">  1  5  2 -1</clus>
</clustering>
</event>
<event>
 9    2  0.1592151E-004  0.9732997E+02  0.7546771E-02  0.1287718E+00
         -1   -1    0    0    0  501 -0.00000000000E+00  0.00000000000E+00  0.12379028015E+03  0.12379028015E+03  0.00000000000E+00 0.  1.
         21   -1    0    0  501  502  0.00000000000E+00 -0.00000000000E+00 -0.10837104613E+03  0.10837104613E+03  0.00000000000E+00 0. -1.
         24    2    1    2    0    0  0.72078291446E+01 -0.55888363414E+02  0.30898398515E+02  0.10282572539E+03  0.80268031027E+02 0.  0.
         23    2    1    2    0    0  0.14587217104E+02  0.41331948003E+02  0.69004665332E+01  0.94871689981E+02  0.83856450514E+02 0.  0.
        -13    1    3    3    0    0 -0.65742615580E+01 -0.74564165592E+02  0.22974656123E+02  0.78299875667E+02  0.00000000000E+00 0.  1.
         14    1    3    3    0    0  0.13782090703E+02  0.18675802178E+02  0.79237423914E+01  0.24525849722E+02  0.00000000000E+00 0. -1.
        -11    1    4    4    0    0  0.25700114622E+02  0.62639053734E+01  0.38272465700E+02  0.46524338070E+02  0.00000000000E+00 0.  1.
         11    1    4    4    0    0 -0.11112897518E+02  0.35068042629E+02 -0.31371999167E+02  0.48347351911E+02  0.00000000000E+00 0. -1.
         -2    1    1    2    0  502 -0.21795046249E+02  0.14556415412E+02 -0.22379631019E+02  0.34463910910E+02  0.00000000000E+00 0.  1.
<scales pt_clust_5="13000.00000" pt_clust_6="13000.00000" pt_clust_7="13000.00000" pt_clust_8="13000.00000" pt_clust_9="26.20903"></scales>
<clustering>
<clus scale="   26.209">  2  9  1 -1</clus>
<clus scale="   80.268">  5  6 -1 -1</clus>
<clus scale="   83.856">  7  8 -1 -1</clus>
<clus scale="   94.256">  1  5  2 -1</clus>
<clus scale="   26.209">  2  5  1 -1</clus>
</clustering>
</event>
<event>
 9    2  0.1592151E-004  0.1669812E+03  0.7546771E-02  0.1199118E+00
         21   -1    0    0  501  502  0.00000000000E+00  0.00000000000E+00  0.49140004795E+02  0.49140004795E+02  0.00000000000E+00 0.  1.
          2   -1    0    0  502    0 -0.00000000000E+00 -0.00000000000E+00 -0.10531528942E+04  0.10531528942E+04  0.00000000000E+00 0. -1.
         23    2    1    2    0    0  0.11041874895E+02 -0.62166922153E+02 -0.25848004654E+03  0.28169485482E+03  0.92484634194E+02 0.  0.
         24    2    1    2    0    0 -0.15081646058E+03  0.22653339318E+02 -0.24392943864E+03  0.29838713548E+03  0.79211950000E+02 0.  0.
        -13    1    4    4    0    0 -0.13802255545E+03 -0.10379288847E+01 -0.22957914688E+03  0.26787662793E+03  0.00000000000E+00 0.  1.
         14    1    4    4    0    0 -0.12793905128E+02  0.23691268203E+02 -0.14350291760E+02  0.30510507552E+02  0.00000000000E+00 0. -1.
        -11    1    3    3    0    0  0.46241427924E+02 -0.51311778283E+02 -0.12061105432E+03  0.13898990852E+03  0.00000000000E+00 0.  1.
         11    1    3    3    0    0 -0.35199553029E+02 -0.10855143870E+02 -0.13786899223E+03  0.14270494630E+03  0.00000000000E+00 0. -1.
          1    1    1    2  501    0  0.13977458568E+03  0.39513582835E+02 -0.50160340426E+03  0.52221090873E+03  0.00000000000E+00 0. -1.
<scales pt_clust_5="13000.00000" pt_clust_6="13000.00000" pt_clust_7="13000.00000" pt_clust_8="13000.00000" pt_clust_9="146.99729"></scales>
<clustering>
<clus scale="   79.212">  5  6 -1 -1</clus>
<clus scale="   92.485">  7  8 -1 -1</clus>
<clus scale="  111.982">  2  7  1 -1</clus>
<clus scale="  146.997">  1  9  2 -1</clus>
<clus scale="  146.997">  1  5  2 -1</clus>
</clustering>
</event>
<event>
 9    2  0.1592151E-004  0.2788025E+03  0.7546771E-02  0.1109775E+00
         21   -1    0    0  501  502  0.00000000000E+00  0.00000000000E+00  0.23283169069E+03  0.23283169069E+03  0.00000000000E+00 0. -1.
          2   -1    0    0  502    0 -0.00000000000E+00 -0.00000000000E+00 -0.65838053557E+03  0.65838053557E+03  0.00000000000E+00 0. -1.
         24    2    1    2    0    0  0.10826680559E+03  0.14176850581E+03 -0.70683049738E+02  0.20944257537E+03  0.83964804696E+02 0.  0.
         23    2    1    2    0    0 -0.30971044991E+03  0.15093963915E+02 -0.23684124346E+03  0.40049545896E+03  0.90301979553E+02 0.  0.
        -13    1    3    3    0    0  0.23138653865E+02  0.40773404955E+02 -0.61093793559E+02  0.77008567483E+02  0.00000000000E+00 0.  1.
         14    1    3    3    0    0  0.85128151725E+02  0.10099510085E+03 -0.95892561798E+01  0.13243400789E+03  0.00000000000E+00 0. -1.
        -11    1    4    4    0    0 -0.25858799107E+03  0.21502093939E+02 -0.15054815306E+03  0.29999139247E+03  0.00000000000E+00 0. -1.
         11    1    4    4    0    0 -0.51122458838E+02 -0.64081300239E+01 -0.86293090402E+02  0.10050406648E+03  0.00000000000E+00 0.  1.
          1    1    1    2  501    0  0.20144364432E+03 -0.15686246972E+03 -0.11802455169E+03  0.28127419193E+03  0.00000000000E+00 0. -1.
<scales pt_clust_5="13000.00000" pt_clust_6="13000.00000" pt_clust_7="13000.00000" pt_clust_8="13000.00000" pt_clust_9="263.77335"></scales>
<clustering>
<clus scale="   83.965">  5  6 -1 -1</clus>
<clus scale="   90.302">  7  8 -1 -1</clus>
<clus scale="  197.155">  2  5  1 -1</clus>
<clus scale="  263.773">  1  9  2 -1</clus>
<clus scale="  263.773">  1  5  2 -1</clus>
</clustering>
</event>
<event>
 9    2  0.1592151E-004  0.1291132E+03  0.7546771E-02  0.1245536E+00
          2   -1    0    0  502    0 -0.00000000000E+00  0.00000000000E+00  0.13561745537E+04  0.13561745537E+04  0.00000000000E+00 0. -1.
         21   -1    0    0  501  502  0.00000000000E+00 -0.00000000000E+00 -0.31758276641E+02  0.31758276641E+02  0.00000000000E+00 0. -1.
         24    2    1    2    0    0 -0.85983644455E+01 -0.47680987288E+02  0.69068208776E+03  0.69674518729E+03  0.77876191787E+02 0.  0.
         23    2    1    2    0    0 -0.49843171982E+02 -0.66026582681E+02  0.15934155458E+03  0.19986982684E+03  0.87831459344E+02 0.  0.
        -11    1    3    3    0    0  0.23071908354E+01 -0.48691916552E+02  0.19699339724E+03  0.20293502513E+03  0.00000000000E+00 0.  1.
         12    1    3    3    0    0 -0.10905555281E+02  0.10109292639E+01  0.49368869051E+03  0.49381016216E+03  0.00000000000E+00 0. -1.
        -11    1    4    4    0    0 -0.28543903269E+02 -0.78473521831E+02  0.15314939810E+03  0.17443504861E+03  0.00000000000E+00 0.  1.
         11    1    4    4    0    0 -0.21299268713E+02  0.12446939150E+02  0.61921564762E+01  0.25434778232E+02  0.00000000000E+00 0. -1.
          1    1    1    2  501    0  0.58441536427E+02  0.11370756997E+03  0.47439263476E+03  0.49131781625E+03  0.00000000000E+00 0. -1.
<scales pt_clust_5="13000.00000" pt_clust_6="13000.00000" pt_clust_7="13000.00000" pt_clust_8="13000.00000" pt_clust_9="94.63548"></scales>
<clustering>
<clus scale="   77.876">  5  6 -1 -1</clus>
<clus scale="   87.831">  7  8 -1 -1</clus>
<clus scale="   91.718">  1  5  2 -1</clus>
<clus scale="   94.635">  2  9  1 -1</clus>
<clus scale="   94.635">  2  5  1 -1</clus>
</clustering>
</event>
<event>
 9    2  0.1592151E-004  0.9528314E+02  0.7546771E-02  0.1296151E+00
          4   -1    0    0  502    0 -0.00000000000E+00  0.00000000000E+00  0.43941275738E+03  0.43941275738E+03  0.00000000000E+00 0. -1.
         21   -1    0    0  501  502  0.00000000000E+00 -0.00000000000E+00 -0.39787245151E+02  0.39787245151E+02  0.00000000000E+00 0.  1.
         24    2    1    2    0    0  0.22494263751E+02 -0.25784777516E+02  0.31025384560E+03  0.32242913001E+03  0.80822326830E+02 0.  0.
         23    2    1    2    0    0 -0.12714592538E+02  0.56278216318E+01  0.96526972576E+02  0.13325187503E+03  0.90803482997E+02 0.  0.
        -13    1    3    3    0    0  0.13659862330E+02  0.28502333294E+02  0.13949680473E+03  0.14303263044E+03  0.00000000000E+00 0.  1.
         14    1    3    3    0    0  0.88344014208E+01 -0.54287110810E+02  0.17075704088E+03  0.17939649957E+03  0.00000000000E+00 0. -1.
        -11    1    4    4    0    0  0.31949614187E+02  0.38321939584E+01  0.78885771043E+02  0.85196410900E+02  0.00000000000E+00 0. -1.
         11    1    4    4    0    0 -0.44664206725E+02  0.17956276733E+01  0.17641201533E+02  0.48055464129E+02  0.00000000000E+00 0.  1.
          3    1    1    2  501    0 -0.97796712131E+01  0.20156955885E+02 -0.71553059541E+01  0.23518997488E+02  0.00000000000E+00 0. -1.
<scales pt_clust_5="13000.00000" pt_clust_6="13000.00000" pt_clust_7="13000.00000" pt_clust_8="13000.00000" pt_clust_9="22.40413"></scales>
<clustering>
<clus scale="   22.404">  2  9  1 -1</clus>
<clus scale="   80.822">  5  6 -1 -1</clus>
<clus scale="   85.825">  1  5  2 -1</clus>
<clus scale="   90.803">  7  8 -1 -1</clus>
<clus scale="   22.404">  2  5  1 -1</clus>
</clustering>
</event>
<event>
 9    2  0.1592151E-004  0.2237774E+03  0.7546771E-02  0.1131205E+00
          2   -1    0    0  502    0 -0.00000000000E+00  0.00000000000E+00  0.21817704255E+03  0.21817704255E+03  0.00000000000E+00 0. -1.
         21   -1    0    0  501  502  0.00000000000E+00 -0.00000000000E+00 -0.27114709311E+03  0.27114709311E+03  0.00000000000E+00 0.  1.
         24    2    1    2    0    0  0.21163815174E+03 -0.49799745028E+02  0.88022213155E+01  0.23718906780E+03  0.94395195363E+02 0.  0.
         23    2    1    2    0    0 -0.17826639235E+03  0.56259633586E+02 -0.42520843155E+02  0.21307073639E+03  0.92989588606E+02 0.  0.
        -13    1    3    3    0    0  0.20943062503E+03 -0.30540492443E+02 -0.76198528756E+01  0.21178283815E+03  0.00000000000E+00 0.  1.
         14    1    3    3    0    0  0.22075267143E+01 -0.19259252585E+02  0.16422074191E+02  0.25406229651E+02  0.00000000000E+00 0. -1.
        -11    1    4    4    0    0 -0.37045382620E+02  0.32862298700E+02 -0.49150076716E+02  0.69771205311E+02  0.00000000000E+00 0.  1.
         11    1    4    4    0    0 -0.14122100973E+03  0.23397334886E+02  0.66292335611E+01  0.14329953108E+03  0.00000000000E+00 0. -1.
          1    1    1    2  501    0 -0.33371759392E+02 -0.64598885581E+01 -0.19251428729E+02  0.39064331470E+02  0.00000000000E+00 0. -1.
<scales pt_clust_5="13000.00000" pt_clust_6="13000.00000" pt_clust_7="13000.00000" pt_clust_8="13000.00000" pt_clust_9="33.99124"></scales>
<clustering>
<clus scale="   33.991">  2  9  1 -1</clus>
<clus scale="   92.990">  7  8 -1 -1</clus>
<clus scale="   94.395">  5  6 -1 -1</clus>
<clus scale="  223.188">  2  7  1 -1</clus>
<clus scale="   33.991">  2  5  1 -1</clus>
</clustering>
</event>
<event>
 9    2  0.1592151E-004  0.1067624E+03  0.7546771E-02  0.1275188E+00
         -1   -1    0    0    0  501 -0.00000000000E+00  0.00000000000E+00  0.26564502736E+03  0.26564502736E+03  0.00000000000E+00 0.  1.
         21   -1    0    0  501  502  0.00000000000E+00 -0.00000000000E+00 -0.59219619657E+02  0.59219619657E+02  0.00000000000E+00 0.  1.
         24    2    1    2    0    0  0.23310301314E+02 -0.12882812727E+02  0.87907652182E+02  0.12220113188E+03  0.80597917523E+02 0.  0.
         23    2    1    2    0    0 -0.43465176421E+02  0.51808177756E+02  0.96932175961E+02  0.15380309887E+03  0.98418685424E+02 0.  0.
        -11    1    3    3    0    0 -0.95145686745E+01  0.27574035095E+02  0.49576298583E+02  0.57520985819E+02  0.00000000000E+00 0.  1.
         12    1    3    3    0    0  0.32824869988E+02 -0.40456847821E+02  0.38331353599E+02  0.64680146058E+02  0.00000000000E+00 0. -1.
        -13    1    4    4    0    0 -0.18340560128E+02 -0.27683985075E+02  0.43713404290E+02  0.54896638240E+02  0.00000000000E+00 0.  1.
         13    1    4    4    0    0 -0.25124616293E+02  0.79492162831E+02  0.53218771671E+02  0.98906460626E+02  0.00000000000E+00 0. -1.
         -2    1    1    2    0  502  0.20154875107E+02 -0.38925365030E+02  0.21585579558E+02  0.48860416271E+02  0.00000000000E+00 0.  1.
<scales pt_clust_5="13000.00000" pt_clust_6="13000.00000" pt_clust_7="13000.00000" pt_clust_8="13000.00000" pt_clust_9="43.83381"></scales>
<clustering>
<clus scale="   43.834">  2  9  1 -1</clus>
<clus scale="   80.598">  5  6 -1 -1</clus>
<clus scale="   90.598">  1  5  2 -1</clus>
<clus scale="   98.419">  7  8 -1 -1</clus>
<clus scale="   43.834">  2  5  1 -1</clus>
</clustering>
</event>
<event>
 9    2  0.1592151E-004  0.9288542E+02  0.7546771E-02  0.1297086E+00
         -3   -1    0    0    0  501 -0.00000000000E+00  0.00000000000E+00  0.98235687530E+02  0.98235687530E+02  0.00000000000E+00 0.  1.
         21   -1    0    0  501  502  0.00000000000E+00 -0.00000000000E+00 -0.18114953005E+03  0.18114953005E+03  0.00000000000E+00 0.  1.
         24    2    1    2    0    0 -0.54177014025E+02  0.20812346477E+02 -0.99849497370E+01  0.98969021231E+02  0.79541594953E+02 0.  0.
         23    2    1    2    0    0  0.30650538942E+02  0.10180556032E+02 -0.10185092422E+03  0.13193383937E+03  0.77393978754E+02 0.  0.
        -13    1    3    3    0    0  0.20506526400E+01  0.30025098081E+02 -0.26013974037E+02  0.39779876021E+02  0.00000000000E+00 0.  1.
         14    1    3    3    0    0 -0.56227666665E+02 -0.92127516042E+01  0.16029024300E+02  0.59189145210E+02  0.00000000000E+00 0. -1.
        -13    1    4    4    0    0  0.26871315800E+02 -0.30587385831E+02 -0.35761260027E+02  0.54189699238E+02  0.00000000000E+00 0.  1.
         13    1    4    4    0    0  0.37792231418E+01  0.40767941864E+02 -0.66089664194E+02  0.77744140131E+02  0.00000000000E+00 0. -1.
         -4    1    1    2    0  502  0.23526475083E+02 -0.30992902509E+02  0.28922031438E+02  0.48482356980E+02  0.00000000000E+00 0.  1.
<scales pt_clust_5="13000.00000" pt_clust_6="13000.00000" pt_clust_7="13000.00000" pt_clust_8="13000.00000" pt_clust_9="38.91088"></scales>
<clustering>
<clus scale="   38.911">  2  9  1 -1</clus>
<clus scale="   77.394">  7  8 -1 -1</clus>
<clus scale="   79.542">  5  6 -1 -1</clus>
<clus scale="   91.053">  2  7  1 -1</clus>
<clus scale="   38.911">  2  5  1 -1</clus>
</clustering>
</event>
<event>
 9    2  0.1592151E-004  0.1305343E+03  0.7546771E-02  0.1229051E+00
          2   -1    0    0  502    0 -0.00000000000E+00  0.00000000000E+00  0.94941174725E+03  0.94941174725E+03  0.00000000000E+00 0. -1.
         21   -1    0    0  501  502  0.00000000000E+00 -0.00000000000E+00 -0.29564643710E+02  0.29564643710E+02  0.00000000000E+00 0. -1.
         23    2    1    2    0    0  0.60974819386E+02 -0.32349526470E+02  0.27010630783E+03  0.29347663727E+03  0.91688050643E+02 0.  0.
         24    2    1    2    0    0 -0.12406442727E+03  0.69804066541E+01  0.40917801098E+03  0.43551106543E+03  0.82477483296E+02 0.  0.
        -13    1    4    4    0    0 -0.26260351486E+02  0.24518798572E+02  0.20858679557E+03  0.21165828316E+03  0.00000000000E+00 0.  1.
         14    1    4    4    0    0 -0.97804075780E+02 -0.17538391918E+02  0.20059121542E+03  0.22385278228E+03  0.00000000000E+00 0. -1.
        -11    1    3    3    0    0  0.59017252321E+02 -0.60909439627E+02  0.21980687155E+03  0.23560147854E+03  0.00000000000E+00 0.  1.
         11    1    3    3    0    0  0.19575670652E+01  0.28559913157E+02  0.50299436278E+02  0.57875158732E+02  0.00000000000E+00 0. -1.
          1    1    1    2  501    0  0.63089607880E+02  0.25369119816E+02  0.24056278472E+03  0.24998868826E+03  0.00000000000E+00 0. -1.
<scales pt_clust_5="13000.00000" pt_clust_6="13000.00000" pt_clust_7="13000.00000" pt_clust_8="13000.00000" pt_clust_9="67.99923"></scales>
<clustering>
<clus scale="   67.999">  2  9  1 -1</clus>
<clus scale="   82.477">  5  6 -1 -1</clus>
<clus scale="   91.688">  7  8 -1 -1</clus>
<clus scale="  124.238">  2  5  1 -1</clus>
<clus scale="   67.999">  2  5  1 -1</clus>
</clustering>
</event>
<event>
 9    2  0.1592151E-004  0.1366325E+03  0.7546771E-02  0.1221216E+00
         -3   -1    0    0    0  501 -0.00000000000E+00  0.00000000000E+00  0.68347034466E+03  0.68347034466E+03  0.00000000000E+00 0.  1.
         21   -1    0    0  501  502  0.00000000000E+00 -0.00000000000E+00 -0.16681165264E+03  0.16681165264E+03  0.00000000000E+00 0. -1.
         24    2    1    2    0    0 -0.77372717852E+02  0.43359304021E+02  0.49380670698E+03  0.50837212219E+03  0.82040136810E+02 0.  0.
         23    2    1    2    0    0  0.16514400512E+03 -0.99170606443E+02  0.72124472693E+02  0.22681652871E+03  0.95584760943E+02 0.  0.
        -11    1    3    3    0    0 -0.78905572573E+02  0.52357437401E+02  0.48894426671E+03  0.49803000571E+03  0.00000000000E+00 0.  1.
         12    1    3    3    0    0  0.15328547217E+01 -0.89981333806E+01  0.48624402651E+01  0.10342116479E+02  0.00000000000E+00 0. -1.
        -13    1    4    4    0    0  0.65636644384E+02 -0.46300195490E+02  0.80634408477E+02  0.11381469597E+03  0.00000000000E+00 0.  1.
         13    1    4    4    0    0  0.99507360735E+02 -0.52870410953E+02 -0.85099357843E+01  0.11300183274E+03  0.00000000000E+00 0. -1.
         -4    1    1    2    0  502 -0.87771287267E+02  0.55811302422E+02 -0.49272487650E+02  0.11509334640E+03  0.00000000000E+00 0.  1.
<scales pt_clust_5="13000.00000" pt_clust_6="13000.00000" pt_clust_7="13000.00000" pt_clust_8="13000.00000" pt_clust_9="104.01298"></scales>
<clustering>
<clus scale="   82.040">  5  6 -1 -1</clus>
<clus scale="   95.585">  7  8 -1 -1</clus>
<clus scale="  104.013">  2  9  1 -1</clus>
<clus scale="  127.525">  1  5  2 -1</clus>
<clus scale="  104.013">  2  5  1 -1</clus>
</clustering>
</event>
<event>
 9    2  0.1592151E-004  0.9061699E+02  0.7546771E-02  0.1305433E+00
          2   -1    0    0  502    0 -0.00000000000E+00  0.00000000000E+00  0.60173078510E+03  0.60173078510E+03  0.00000000000E+00 0. -1.
         21   -1    0    0  501  502  0.00000000000E+00 -0.00000000000E+00 -0.55372465918E+02  0.55372465918E+02  0.00000000000E+00 0.  1.
         23    2    1    2    0    0  0.28512958285E+02 -0.65241994932E+01  0.43089620830E+03  0.44070103092E+03  0.87694369011E+02 0.  0.
         24    2    1    2    0    0  0.31028705575E+02 -0.11588487314E+02  0.25767870914E+01  0.87497699288E+02  0.80945252739E+02 0.  0.
        -13    1    4    4    0    0 -0.26974522942E-01 -0.29514493633E+02 -0.27767650505E+02  0.40523431205E+02  0.00000000000E+00 0.  1.
         14    1    4    4    0    0  0.31055680098E+02  0.17926006319E+02  0.30344437597E+02  0.46974268083E+02  0.00000000000E+00 0. -1.
        -11    1    3    3    0    0  0.57394959526E+02 -0.12998415630E+02  0.34146725305E+03  0.34650111846E+03  0.00000000000E+00 0. -1.
         11    1    3    3    0    0 -0.28882001241E+02  0.64742161368E+01  0.89428955251E+02  0.94199912461E+02  0.00000000000E+00 0.  1.
          1    1    1    2  501    0 -0.59541663860E+02  0.18112686807E+02  0.11288532379E+03  0.12890452081E+03  0.00000000000E+00 0. -1.
<scales pt_clust_5="13000.00000" pt_clust_6="13000.00000" pt_clust_7="13000.00000" pt_clust_8="13000.00000" pt_clust_9="62.23571"></scales>
<clustering>
<clus scale="   62.236">  2  9  1 -1</clus>
<clus scale="   80.945">  5  6 -1 -1</clus>
<clus scale="   84.103">  2  5  1 -1</clus>
<clus scale="   87.694">  7  8 -1 -1</clus>
<clus scale="   62.236">  2  5  1 -1</clus>
</clustering>
</event>
<event>
 9    2  0.1592151E-004  0.1070198E+03  0.7546771E-02  0.1270152E+00
         21   -1    0    0  501  502  0.00000000000E+00  0.00000000000E+00  0.75736491976E+02  0.75736491976E+02  0.00000000000E+00 0.  1.
         -1   -1    0    0    0  501 -0.00000000000E+00 -0.00000000000E+00 -0.27039525632E+03  0.27039525632E+03  0.00000000000E+00 0.  1.
         23    2    1    2    0    0 -0.64703133063E+02  0.82397010008E+01 -0.10439774670E+03  0.15235649138E+03  0.89773174429E+02 0.  0.
         24    2    1    2    0    0  0.44412130260E+02  0.60481952357E+01  0.82164962436E+01  0.92218920266E+02  0.80173564625E+02 0.  0.
        -11    1    4    4    0    0  0.18187666867E+02  0.41696936225E+02 -0.56532215714E+01  0.45840862020E+02  0.00000000000E+00 0.  1.
         12    1    4    4    0    0  0.26224463393E+02 -0.35648740989E+02  0.13869717815E+02  0.46378058246E+02  0.00000000000E+00 0. -1.
        -11    1    3    3    0    0 -0.32451119293E+02  0.38449536559E+02 -0.94517354330E+02  0.10707461078E+03  0.00000000000E+00 0. -1.
         11    1    3    3    0    0 -0.32252013770E+02 -0.30209835558E+02 -0.98803923751E+01  0.45281880594E+02  0.00000000000E+00 0.  1.
         -2    1    1    2    0  502  0.20291002803E+02 -0.14287896237E+02 -0.98477513887E+02  0.10155633666E+03  0.00000000000E+00 0.  1.
<scales pt_clust_5="13000.00000" pt_clust_6="13000.00000" pt_clust_7="13000.00000" pt_clust_8="13000.00000" pt_clust_9="24.81672"></scales>
<clustering>
<clus scale="   24.817">  1  9  2 -1</clus>
<clus scale="   80.174">  5  6 -1 -1</clus>
<clus scale="   89.773">  7  8 -1 -1</clus>
<clus scale="   99.105">  1  5  2 -1</clus>
<clus scale="   24.817">  1  5  2 -1</clus>
</clustering>
</event>
<event>
 9    2  0.1592151E-004  0.1075601E+03  0.7546771E-02  0.1265924E+00
          2   -1    0    0  502    0 -0.00000000000E+00  0.00000000000E+00  0.17483666173E+03  0.17483666173E+03  0.00000000000E+00 0. -1.
         21   -1    0    0  501  502  0.00000000000E+00 -0.00000000000E+00 -0.10783495047E+03  0.10783495047E+03  0.00000000000E+00 0.  1.
         24    2    1    2    0    0 -0.79396091180E+00  0.69692385555E+02  0.94655399507E+02  0.14506184661E+03  0.85003739371E+02 0.  0.
         23    2    1    2    0    0  0.87238608298E+01 -0.50434542674E+02  0.25061849355E+01  0.10095781101E+03  0.86985342432E+02 0.  0.
        -13    1    3    3    0    0  0.40728754743E+02  0.35791801826E+02  0.33480797065E+02  0.63724785704E+02  0.00000000000E+00 0.  1.
         14    1    3    3    0    0 -0.41522715655E+02  0.33900583729E+02  0.61174602441E+02  0.81337060903E+02  0.00000000000E+00 0. -1.
        -11    1    4    4    0    0  0.39345723327E+02 -0.45804802660E+01  0.18252761436E+02  0.43614562289E+02  0.00000000000E+00 0. -1.
         11    1    4    4    0    0 -0.30621862498E+02 -0.45854062408E+02 -0.15746576500E+02  0.57343248719E+02  0.00000000000E+00 0.  1.
          1    1    1    2  501    0 -0.79298999180E+01 -0.19257842881E+02 -0.30159873178E+02  0.36651954590E+02  0.00000000000E+00 0. -1.
<scales pt_clust_5="13000.00000" pt_clust_6="13000.00000" pt_clust_7="13000.00000" pt_clust_8="13000.00000" pt_clust_9="20.82661"></scales>
<clustering>
<clus scale="   20.827">  2  9  1 -1</clus>
<clus scale="   85.004">  5  6 -1 -1</clus>
<clus scale="   86.985">  7  8 -1 -1</clus>
<clus scale="  105.964">  1  5  2 -1</clus>
<clus scale="   20.827">  2  5  1 -1</clus>
</clustering>
</event>
<event>
 9    2  0.1592151E-004  0.1108324E+03  0.7546771E-02  0.1263805E+00
          2   -1    0    0  502    0 -0.00000000000E+00  0.00000000000E+00  0.11521480023E+04  0.11521480023E+04  0.00000000000E+00 0. -1.
         21   -1    0    0  501  502  0.00000000000E+00 -0.00000000000E+00 -0.28028732752E+02  0.28028732752E+02  0.00000000000E+00 0.  1.
         23    2    1    2    0    0  0.49206618758E+02 -0.45008867749E+02  0.35264875930E+03  0.37024575332E+03  0.90959776351E+02 0.  0.
         24    2    1    2    0    0 -0.84215751832E+02 -0.43993826017E+02  0.23897598808E+03  0.26891570003E+03  0.78602679706E+02 0.  0.
        -11    1    4    4    0    0 -0.75866102702E+02 -0.52988891238E+02  0.13181907961E+03  0.16105824376E+03  0.00000000000E+00 0.  1.
         12    1    4    4    0    0 -0.83496491299E+01  0.89950652211E+01  0.10715690848E+03  0.10785745627E+03  0.00000000000E+00 0. -1.
        -11    1    3    3    0    0 -0.22988544179E+02 -0.40092960118E+01  0.14058835368E+03  0.14251186901E+03  0.00000000000E+00 0.  1.
         11    1    3    3    0    0  0.72195162936E+02 -0.40999571737E+02  0.21206040562E+03  0.22773388432E+03  0.00000000000E+00 0. -1.
          1    1    1    2  501    0  0.35009133075E+02  0.89002693765E+02  0.53249452221E+03  0.54101528174E+03  0.00000000000E+00 0. -1.
<scales pt_clust_5="13000.00000" pt_clust_6="13000.00000" pt_clust_7="13000.00000" pt_clust_8="13000.00000" pt_clust_9="95.64062"></scales>
<clustering>
<clus scale="   78.603">  5  6 -1 -1</clus>
<clus scale="   90.960">  7  8 -1 -1</clus>
<clus scale="   95.641">  2  9  1 -1</clus>
<clus scale="  100.938">  2  5  1 -1</clus>
<clus scale="   95.641">  2  5  1 -1</clus>
</clustering>
</event>
<event>
 9    2  0.1592151E-004  0.1436082E+03  0.7546771E-02  0.1210968E+00
          2   -1    0    0  502    0 -0.00000000000E+00  0.00000000000E+00  0.90184259695E+03  0.90184259695E+03  0.00000000000E+00 0. -1.
         21   -1    0    0  501  502  0.00000000000E+00 -0.00000000000E+00 -0.87423372264E+02  0.87423372264E+02  0.00000000000E+00 0. -1.
         23    2    1    2    0    0 -0.87569454420E+02 -0.60496463409E+02  0.62999141759E+03  0.64539219809E+03  0.91179338006E+02 0.  0.
         24    2    1    2    0    0  0.16519713850E+03  0.17965488791E+02  0.65109308781E+02  0.19530780875E+03  0.79328839101E+02 0.  0.
        -13    1    4    4    0    0  0.20138159712E+02  0.13898156908E+01 -0.18225205007E+02  0.27196234331E+02  0.00000000000E+00 0.  1.
         14    1    4    4    0    0  0.14505897879E+03  0.16575673100E+02  0.83334513787E+02  0.16811157442E+03  0.00000000000E+00 0. -1.
        -11    1    3    3    0    0 -0.46871991795E+02  0.17860422467E+02  0.27846119002E+03  0.28294277275E+03  0.00000000000E+00 0.  1.
         11    1    3    3    0    0 -0.40697462625E+02 -0.78356885876E+02  0.35153022757E+03  0.36244942533E+03  0.00000000000E+00 0. -1.
          1    1    1    2  501    0 -0.77627684080E+02  0.42530974618E+02  0.11931849831E+03  0.14856596238E+03  0.00000000000E+00 0. -1.
<scales pt_clust_5="13000.00000" pt_clust_6="13000.00000" pt_clust_7="13000.00000" pt_clust_8="13000.00000" pt_clust_9="88.51520"></scales>
<clustering>
<clus scale="   79.329">  5  6 -1 -1</clus>
<clus scale="   88.515">  2  9  1 -1</clus>
<clus scale="   91.179">  7  8 -1 -1</clus>
<clus scale="  136.392">  2  5  1 -1</clus>
<clus scale="   88.515">  2  5  1 -1</clus>
</clustering>
</event>
<event>
 9    2  0.1592151E-004  0.9798523E+02  0.7546771E-02  0.1293453E+00
          2   -1    0    0  502    0 -0.00000000000E+00  0.00000000000E+00  0.79649505045E+02  0.79649505045E+02  0.00000000000E+00 0. -1.
         21   -1    0    0  501  502  0.00000000000E+00 -0.00000000000E+00 -0.29321779819E+03  0.29321779819E+03  0.00000000000E+00 0.  1.
         23    2    1    2    0    0 -0.15847357135E+02  0.23356330210E+02  0.23624873751E+02  0.98800704530E+02  0.91688536180E+02 0.  0.
         24    2    1    2    0    0  0.27763063938E+02 -0.50377283872E+02 -0.11871265016E+03  0.15196111623E+03  0.75437584049E+02 0.  0.
        -11    1    4    4    0    0  0.41998421350E+02 -0.15762779190E+02 -0.10108228901E+03  0.11058915750E+03  0.00000000000E+00 0.  1.
         12    1    4    4    0    0 -0.14235357413E+02 -0.34614504682E+02 -0.17630361150E+02  0.41371958732E+02  0.00000000000E+00 0. -1.
        -13    1    3    3    0    0  0.16754536552E+02 -0.28516250227E+02  0.16969353882E+02  0.37173242974E+02  0.00000000000E+00 0.  1.
         13    1    3    3    0    0 -0.32601893687E+02  0.51872580436E+02  0.66555198694E+01  0.61627461556E+02  0.00000000000E+00 0. -1.
          1    1    1    2  501    0 -0.11915706803E+02  0.27020953662E+02 -0.11848051673E+03  0.12210548248E+03  0.00000000000E+00 0. -1.
<scales pt_clust_5="13000.00000" pt_clust_6="13000.00000" pt_clust_7="13000.00000" pt_clust_8="13000.00000" pt_clust_9="29.53161"></scales>
<clustering>
<clus scale="   29.532">  2  9  1 -1</clus>
<clus scale="   75.438">  5  6 -1 -1</clus>
<clus scale="   82.977">  2  5  1 -1</clus>
<clus scale="   91.689">  7  8 -1 -1</clus>
<clus scale="   29.532">  2  5  1 -1</clus>
</clustering>
</event>
<event>
 9    2  0.1592151E-004  0.2636314E+03  0.7546771E-02  0.1130584E+00
         -1   -1    0    0    0  501 -0.00000000000E+00  0.00000000000E+00  0.11682947619E+04  0.11682947619E+04  0.00000000000E+00 0.  1.
         21   -1    0    0  501  502  0.00000000000E+00 -0.00000000000E+00 -0.21408076625E+03  0.21408076625E+03  0.00000000000E+00 0.  1.
         24    2    1    2    0    0  0.60711360285E+02 -0.94301154500E+02  0.80105284467E+03  0.81295364611E+03  0.81421089114E+02 0.  0.
         23    2    1    2    0    0 -0.15412936680E+03 -0.15683683134E+03  0.18243214850E+03  0.29987781668E+03  0.91058018619E+02 0.  0.
        -11    1    3    3    0    0  0.25689946306E+02 -0.99860344285E+02  0.60218922365E+03  0.61095329018E+03  0.00000000000E+00 0.  1.
         12    1    3    3    0    0  0.35021413979E+02  0.55591897854E+01  0.19886362103E+03  0.20200035593E+03  0.00000000000E+00 0. -1.
        -11    1    4    4    0    0 -0.16197750726E+03 -0.12471849016E+03  0.16355921116E+03  0.26180723863E+03  0.00000000000E+00 0.  1.
         11    1    4    4    0    0  0.78481404580E+01 -0.32118341181E+02  0.18872937335E+02  0.38070578043E+02  0.00000000000E+00 0. -1.
         -2    1    1    2    0  502  0.93418006518E+02  0.25113798584E+03 -0.29270997534E+02  0.26954406536E+03  0.00000000000E+00 0.  1.
<scales pt_clust_5="13000.00000" pt_clust_6="13000.00000" pt_clust_7="13000.00000" pt_clust_8="13000.00000" pt_clust_9="247.40644"></scales>
<clustering>
<clus scale="   81.421">  5  6 -1 -1</clus>
<clus scale="   91.058">  7  8 -1 -1</clus>
<clus scale="  138.593">  1  5  2 -1</clus>
<clus scale="  247.406">  2  9  1 -1</clus>
<clus scale="  247.406">  2  5  1 -1</clus>
</clustering>
</event>
<event>
 9    2  0.1747265E-004  0.2612391E+03  0.7546771E-02  0.1106933E+00
         21   -1    0    0  501  502  0.00000000000E+00  0.00000000000E+00  0.35187046048E+03  0.35187046048E+03  0.00000000000E+00 0.  1.
         -1   -1    0    0    0  501 -0.00000000000E+00 -0.00000000000E+00 -0.32391679881E+03  0.32391679881E+03  0.00000000000E+00 0.  1.
         23    2    1    2    0    0  0.68807237109E+02  0.24073542137E+03 -0.13132865359E+03  0.29691587803E+03  0.90685414442E+02 0.  0.
         24    2    1    2    0    0 -0.80689281664E+01 -0.23391773167E+03  0.18865012191E+03  0.31106215524E+03  0.79926110459E+02 0.  0.
        -11    1    4    4    0    0  0.12744676874E+02 -0.21648917451E+03  0.14942311118E+03  0.26335765723E+03  0.00000000000E+00 0.  1.
         12    1    4    4    0    0 -0.20813605040E+02 -0.17428557169E+02  0.39227010730E+02  0.47704498012E+02  0.00000000000E+00 0. -1.
        -11    1    3    3    0    0  0.68643351582E+02  0.21669004780E+03 -0.14465097663E+03  0.26942604101E+03  0.00000000000E+00 0.  1.
         11    1    3    3    0    0  0.16388552667E+00  0.24045373567E+02  0.13322323039E+02  0.27489837023E+02  0.00000000000E+00 0. -1.
         -2    1    1    2    0  502 -0.60738308943E+02 -0.68176896950E+01 -0.29367806656E+02  0.67809226023E+02  0.00000000000E+00 0.  1.
<scales pt_clust_5="13000.00000" pt_clust_6="13000.00000" pt_clust_7="13000.00000" pt_clust_8="13000.00000" pt_clust_9="61.11977"></scales>
<clustering>
<clus scale="   61.120">  1  9  2 -1</clus>
<clus scale="   79.926">  5  6 -1 -1</clus>
<clus scale="   90.685">  7  8 -1 -1</clus>
<clus scale="  257.702">  1  5  2 -1</clus>
<clus scale="   61.120">  1  5  2 -1</clus>
</clustering>
</event>
<event>
 9    2  0.1592151E-004  0.1066439E+03  0.7546771E-02  0.1272741E+00
         -1   -1    0    0    0  501 -0.00000000000E+00  0.00000000000E+00  0.22676065318E+03  0.22676065318E+03  0.00000000000E+00 0.  1.
         21   -1    0    0  501  502  0.00000000000E+00 -0.00000000000E+00 -0.13655802440E+03  0.13655802440E+03  0.00000000000E+00 0.  1.
         23    2    1    2    0    0 -0.56751167604E+02 -0.20996668891E+02  0.16946622612E+03  0.20331461059E+03  0.94638649369E+02 0.  0.
         24    2    1    2    0    0  0.13540570981E+02  0.19038039632E+00 -0.22588150065E+02  0.85760120272E+02  0.81616116047E+02 0.  0.
        -13    1    4    4    0    0 -0.26836316784E+02  0.23604818079E+02 -0.13523383410E+02  0.38213312261E+02  0.00000000000E+00 0.  1.
         14    1    4    4    0    0  0.40376887765E+02 -0.23414437683E+02 -0.90647666548E+01  0.47546808012E+02  0.00000000000E+00 0. -1.
        -11    1    3    3    0    0 -0.47865606349E+02 -0.53869866254E+02  0.14319487618E+03  0.16030549375E+03  0.00000000000E+00 0.  1.
         11    1    3    3    0    0 -0.88855612550E+01  0.32873197364E+02  0.26271349937E+02  0.43009116838E+02  0.00000000000E+00 0. -1.
         -2    1    1    2    0  502  0.43210596623E+02  0.20806288494E+02 -0.56675447266E+02  0.74243946718E+02  0.00000000000E+00 0.  1.
<scales pt_clust_5="13000.00000" pt_clust_6="13000.00000" pt_clust_7="13000.00000" pt_clust_8="13000.00000" pt_clust_9="47.95891"></scales>
<clustering>
<clus scale="   47.959">  2  9  1 -1</clus>
<clus scale="   81.616">  5  6 -1 -1</clus>
<clus scale="   94.639">  7  8 -1 -1</clus>
<clus scale="   95.277">  2  5  1 -1</clus>
<clus scale="   47.959">  2  5  1 -1</clus>
</clustering>
</event>
<event>
 9    2  0.1592151E-004  0.2704986E+03  0.7546771E-02  0.1101501E+00
          2   -1    0    0  502    0 -0.00000000000E+00  0.00000000000E+00  0.72710712896E+03  0.72710712896E+03  0.00000000000E+00 0. -1.
         21   -1    0    0  501  502  0.00000000000E+00 -0.00000000000E+00 -0.14954095166E+03  0.14954095166E+03  0.00000000000E+00 0. -1.
         24    2    1    2    0    0  0.13739903037E+02 -0.24496093222E+03  0.33987493895E+03  0.42656086020E+03  0.79022465687E+02 0.  0.
         23    2    1    2    0    0 -0.13829945454E+02  0.26773248793E+03  0.28253359561E+03  0.39979419046E+03  0.90212025777E+02 0.  0.
        -11    1    3    3    0    0  0.38339817440E+02 -0.87778109019E+02  0.97865301733E+02  0.13693996972E+03  0.00000000000E+00 0.  1.
         12    1    3    3    0    0 -0.24599914403E+02 -0.15718282320E+03  0.24200963722E+03  0.28962089048E+03  0.00000000000E+00 0. -1.
        -11    1    4    4    0    0 -0.52241610027E+02  0.16822819135E+03  0.17244883040E+03  0.24651269600E+03  0.00000000000E+00 0.  1.
         11    1    4    4    0    0  0.38411664573E+02  0.99504296578E+02  0.11008476521E+03  0.15328149446E+03  0.00000000000E+00 0. -1.
          1    1    1    2  501    0  0.90042417244E-01 -0.22771555710E+02 -0.44842357266E+02  0.50293029957E+02  0.00000000000E+00 0. -1.
<scales pt_clust_5="13000.00000" pt_clust_6="13000.00000" pt_clust_7="13000.00000" pt_clust_8="13000.00000" pt_clust_9="22.77173"></scales>
<clustering>
<clus scale="   22.772">  2  9  1 -1</clus>
<clus scale="   79.022">  5  6 -1 -1</clus>
<clus scale="   90.212">  7  8 -1 -1</clus>
<clus scale="  266.975">  1  5  2 -1</clus>
<clus scale="   22.772">  2  5  1 -1</clus>
</clustering>
</event>
<event>
 9    2  0.1592151E-004  0.1654198E+03  0.7546771E-02  0.1189790E+00
          2   -1    0    0  502    0 -0.00000000000E+00  0.00000000000E+00  0.12283703363E+04  0.12283703363E+04  0.00000000000E+00 0. -1.
         21   -1    0    0  501  502  0.00000000000E+00 -0.00000000000E+00 -0.64330352215E+02  0.64330352215E+02  0.00000000000E+00 0. -1.
         24    2    1    2    0    0 -0.33909930816E+02  0.11378032901E+03  0.52819818124E+03  0.54677729300E+03  0.76656655278E+02 0.  0.
         23    2    1    2    0    0  0.12793276232E+02  0.11041560515E+03  0.13672180046E+03  0.19835558532E+03  0.91086847166E+02 0.  0.
        -13    1    3    3    0    0 -0.54053917595E+02  0.47209963429E+02  0.26630576772E+03  0.27580675948E+03  0.00000000000E+00 0.  1.
         14    1    3    3    0    0  0.20143986778E+02  0.66570365578E+02  0.26189241353E+03  0.27097053353E+03  0.00000000000E+00 0. -1.
        -13    1    4    4    0    0  0.37192311115E+02  0.11272005116E+03  0.11927284428E+03  0.16827088079E+03  0.00000000000E+00 0. -1.
         13    1    4    4    0    0 -0.24399034883E+02 -0.23044460065E+01  0.17448956186E+02  0.30084704529E+02  0.00000000000E+00 0.  1.
          1    1    1    2  501    0  0.21116654584E+02 -0.22419593416E+03  0.49912000241E+03  0.54756781023E+03  0.00000000000E+00 0. -1.
<scales pt_clust_5="13000.00000" pt_clust_6="13000.00000" pt_clust_7="13000.00000" pt_clust_8="13000.00000" pt_clust_9="138.08300"></scales>
<clustering>
<clus scale="   76.657">  5  6 -1 -1</clus>
<clus scale="   91.087">  7  8 -1 -1</clus>
<clus scale="  141.323">  1  5  2 -1</clus>
<clus scale="  138.083">  2  9  1 -1</clus>
<clus scale="  138.083">  2  5  1 -1</clus>
</clustering>
</event>
<event>
 9    2  0.1592151E-004  0.1051921E+03  0.7546771E-02  0.1275201E+00
         21   -1    0    0  501  502  0.00000000000E+00  0.00000000000E+00  0.43724771737E+03  0.43724771737E+03  0.00000000000E+00 0.  1.
         -1   -1    0    0    0  501 -0.00000000000E+00 -0.00000000000E+00 -0.56786168815E+02  0.56786168815E+02  0.00000000000E+00 0.  1.
         23    2    1    2    0    0 -0.34555700070E+02 -0.12317240169E+02  0.39757695124E+02  0.10727047053E+03  0.92630819461E+02 0.  0.
         24    2    1    2    0    0  0.64698048801E+02  0.59144765919E+02  0.17246070128E+03  0.20954282825E+03  0.80508151941E+02 0.  0.
        -11    1    4    4    0    0  0.11461104659E+02  0.31766979107E+02  0.13445974826E+03  0.13863593251E+03  0.00000000000E+00 0.  1.
         12    1    4    4    0    0  0.53236944142E+02  0.27377786812E+02  0.38000953026E+02  0.70906895738E+02  0.00000000000E+00 0. -1.
        -13    1    3    3    0    0 -0.47877008024E+02  0.10334178231E+02  0.57522973954E+02  0.75550616606E+02  0.00000000000E+00 0. -1.
         13    1    3    3    0    0  0.13321307954E+02 -0.22651418400E+02 -0.17765278831E+02  0.31719853926E+02  0.00000000000E+00 0.  1.
         -2    1    1    2    0  502 -0.30142348731E+02 -0.46827525750E+02  0.16824315215E+03  0.17722058740E+03  0.00000000000E+00 0.  1.
<scales pt_clust_5="13000.00000" pt_clust_6="13000.00000" pt_clust_7="13000.00000" pt_clust_8="13000.00000" pt_clust_9="55.69002"></scales>
<clustering>
<clus scale="   55.690">  1  9  2 -1</clus>
<clus scale="   80.508">  5  6 -1 -1</clus>
<clus scale="   92.631">  7  8 -1 -1</clus>
<clus scale="   94.691">  1  5  2 -1</clus>
<clus scale="   55.690">  1  5  2 -1</clus>
</clustering>
</event>
<event>
 9    2  0.1592151E-004  0.1348718E+03  0.7546771E-02  0.1223832E+00
          2   -1    0    0  502    0 -0.00000000000E+00  0.00000000000E+00  0.24373282371E+03  0.24373282371E+03  0.00000000000E+00 0. -1.
         21   -1    0    0  501  502  0.00000000000E+00 -0.00000000000E+00 -0.18316172004E+03  0.18316172004E+03  0.00000000000E+00 0. -1.
         23    2    1    2    0    0 -0.93990295306E+02  0.82030638078E+02  0.20595238453E+02  0.15738287281E+03  0.93712345032E+02 0.  0.
         24    2    1    2    0    0  0.85434970886E+02  0.25449927278E+02 -0.49494030832E+02  0.12940411295E+03  0.79680187706E+02 0.  0.
        -11    1    4    4    0    0  0.59412893760E+01  0.37956778782E+02 -0.96682058471E+01  0.39616791632E+02  0.00000000000E+00 0.  1.
         12    1    4    4    0    0  0.79493681510E+02 -0.12506851504E+02 -0.39825824985E+02  0.89787321322E+02  0.00000000000E+00 0. -1.
        -13    1    3    3    0    0 -0.66584590744E+02  0.19851106185E+02 -0.26870066666E+02  0.74495467137E+02  0.00000000000E+00 0.  1.
         13    1    3    3    0    0 -0.27405704562E+02  0.62179531893E+02  0.47465305119E+02  0.82887405672E+02  0.00000000000E+00 0. -1.
          1    1    1    2  501    0  0.85553244199E+01 -0.10748056536E+03  0.89469896054E+02  0.14010755799E+03  0.00000000000E+00 0. -1.
<scales pt_clust_5="13000.00000" pt_clust_6="13000.00000" pt_clust_7="13000.00000" pt_clust_8="13000.00000" pt_clust_9="107.82058"></scales>
<clustering>
<clus scale="   79.680">  5  6 -1 -1</clus>
<clus scale="   93.712">  7  8 -1 -1</clus>
<clus scale="  107.821">  2  9  1 -1</clus>
<clus scale="  125.528">  2  5  1 -1</clus>
<clus scale="  107.821">  2  5  1 -1</clus>
</clustering>
</event>
<event>
 9    2  0.1592151E-004  0.1744890E+03  0.7546771E-02  0.1174649E+00
          2   -1    0    0  502    0 -0.00000000000E+00  0.00000000000E+00  0.48823219340E+03  0.48823219340E+03  0.00000000000E+00 0. -1.
         21   -1    0    0  501  502  0.00000000000E+00 -0.00000000000E+00 -0.23569529068E+03  0.23569529068E+03  0.00000000000E+00 0. -1.
         24    2    1    2    0    0  0.11925279640E+03  0.10474418316E+03  0.37596855815E+03  0.41605381035E+03  0.80968160617E+02 0.  0.
         23    2    1    2    0    0 -0.73638490552E+02 -0.91337060545E+02  0.25827760677E+02  0.15122505697E+03  0.91852374574E+02 0.  0.
        -13    1    3    3    0    0  0.36362885894E+02  0.84781720314E+02  0.17731886528E+03  0.19988041314E+03  0.00000000000E+00 0.  1.
         14    1    3    3    0    0  0.82889910506E+02  0.19962462842E+02  0.19864969287E+03  0.21617339721E+03  0.00000000000E+00 0. -1.
        -13    1    4    4    0    0 -0.94516446148E+01 -0.83789306060E+02  0.16625749308E+02  0.85944150097E+02  0.00000000000E+00 0.  1.
         13    1    4    4    0    0 -0.64186845937E+02 -0.75477544848E+01  0.92020113692E+01  0.65280906874E+02  0.00000000000E+00 0. -1.
          1    1    1    2  501    0 -0.45614305848E+02 -0.13407122611E+02 -0.14925941611E+03  0.15664861676E+03  0.00000000000E+00 0. -1.
<scales pt_clust_5="13000.00000" pt_clust_6="13000.00000" pt_clust_7="13000.00000" pt_clust_8="13000.00000" pt_clust_9="47.54383"></scales>
<clustering>
<clus scale="   47.544">  2  9  1 -1</clus>
<clus scale="   80.968">  5  6 -1 -1</clus>
<clus scale="   91.852">  7  8 -1 -1</clus>
<clus scale="  169.013">  1  5  2 -1</clus>
<clus scale="   47.544">  2  5  1 -1</clus>
</clustering>
</event>
<event>
 9    2  0.1592151E-004  0.1521946E+03  0.7546771E-02  0.1204108E+00
          2   -1    0    0  502    0 -0.00000000000E+00  0.00000000000E+00  0.11276294219E+04  0.11276294219E+04  0.00000000000E+00 0. -1.
         21   -1    0    0  501  502  0.00000000000E+00 -0.00000000000E+00 -0.75751173248E+02  0.75751173248E+02  0.00000000000E+00 0. -1.
         24    2    1    2    0    0 -0.77238923737E+00 -0.13232606022E+03  0.85169030264E+03  0.86372227758E+03  0.55937629282E+02 0.  0.
         23    2    1    2    0    0 -0.16191523473E+01  0.88875122816E+02  0.24526812615E+03  0.27700110661E+03  0.93122232834E+02 0.  0.
        -13    1    3    3    0    0 -0.24257764003E+02 -0.29522620688E+02  0.22391347522E+03  0.22715032166E+03  0.00000000000E+00 0.  1.
         14    1    3    3    0    0  0.23485374765E+02 -0.10280343953E+03  0.62777682742E+03  0.63657195591E+03  0.00000000000E+00 0. -1.
        -13    1    4    4    0    0 -0.43566440431E+02  0.54758348282E+02  0.10046594244E+03  0.12243331666E+03  0.00000000000E+00 0. -1.
         13    1    4    4    0    0  0.41947288084E+02  0.34116774534E+02  0.14480218371E+03  0.15456778995E+03  0.00000000000E+00 0.  1.
          1    1    1    2  501    0  0.23915415846E+01  0.43450937403E+02 -0.45080180195E+02  0.62657210908E+02  0.00000000000E+00 0. -1.
<scales pt_clust_5="13000.00000" pt_clust_6="13000.00000" pt_clust_7="13000.00000" pt_clust_8="13000.00000" pt_clust_9="43.51670"></scales>
<clustering>
<clus scale="   43.517">  2  9  1 -1</clus>
<clus scale="   55.938">  5  6 -1 -1</clus>
<clus scale="   93.122">  7  8 -1 -1</clus>
<clus scale="  132.742">  1  5  2 -1</clus>
<clus scale="   43.517">  2  5  1 -1</clus>
</clustering>
</event>
<event>
 9    2  0.1592151E-004  0.2545730E+03  0.7546771E-02  0.1135958E+00
          2   -1    0    0  502    0 -0.00000000000E+00  0.00000000000E+00  0.12741080967E+04  0.12741080967E+04  0.00000000000E+00 0. -1.
         21   -1    0    0  501  502  0.00000000000E+00 -0.00000000000E+00 -0.11577085686E+03  0.11577085686E+03  0.00000000000E+00 0. -1.
         24    2    1    2    0    0 -0.86663556314E+02  0.66277655718E+02  0.28638644662E+03  0.31660796681E+03  0.79499108156E+02 0.  0.
         23    2    1    2    0    0 -0.16150021088E+02 -0.25001545166E+03  0.11868185574E+03  0.29113014168E+03  0.88897847352E+02 0.  0.
        -13    1    3    3    0    0 -0.29927476978E+02  0.69790446661E+02  0.13485419722E+03  0.15476438490E+03  0.00000000000E+00 0.  1.
         14    1    3    3    0    0 -0.56736079336E+02 -0.35127909430E+01  0.15153224940E+03  0.16184358191E+03  0.00000000000E+00 0. -1.
        -13    1    4    4    0    0  0.19237674153E+02 -0.21119050836E+03  0.83535997835E+02  0.22792494787E+03  0.00000000000E+00 0. -1.
         13    1    4    4    0    0 -0.35387695242E+02 -0.38824943303E+02  0.35145857903E+02  0.63205193812E+02  0.00000000000E+00 0.  1.
          1    1    1    2  501    0  0.10281357740E+03  0.18373779594E+03  0.75326893743E+03  0.78214084503E+03  0.00000000000E+00 0. -1.
<scales pt_clust_5="13000.00000" pt_clust_6="13000.00000" pt_clust_7="13000.00000" pt_clust_8="13000.00000" pt_clust_9="238.54699"></scales>
<clustering>
<clus scale="   79.499">  5  6 -1 -1</clus>
<clus scale="   88.898">  7  8 -1 -1</clus>
<clus scale="  134.994">  1  5  2 -1</clus>
<clus scale="  238.547">  2  9  1 -1</clus>
<clus scale="  238.547">  2  5  1 -1</clus>
</clustering>
</event>
<event>
 9    2  0.1592151E-004  0.1363155E+03  0.7546771E-02  0.1231940E+00
          2   -1    0    0  502    0 -0.00000000000E+00  0.00000000000E+00  0.69980514023E+03  0.69980514023E+03  0.00000000000E+00 0. -1.
         21   -1    0    0  501  502  0.00000000000E+00 -0.00000000000E+00 -0.65632498193E+02  0.65632498193E+02  0.00000000000E+00 0. -1.
         24    2    1    2    0    0  0.41126040400E+02  0.76054289019E+02  0.22413387776E+03  0.24657513950E+03  0.55567060249E+02 0.  0.
         23    2    1    2    0    0 -0.70759237047E+01  0.83060901657E+02  0.71418755632E+02  0.14317570835E+03  0.91920959121E+02 0.  0.
        -11    1    3    3    0    0  0.26749201505E+02  0.36356754851E+01  0.83247077323E+02  0.87514649061E+02  0.00000000000E+00 0.  1.
         12    1    3    3    0    0  0.14376838895E+02  0.72418613534E+02  0.14088680043E+03  0.15906049044E+03  0.00000000000E+00 0. -1.
        -11    1    4    4    0    0  0.11827409497E+02  0.49970881046E+02 -0.10871424968E+02  0.52489660399E+02  0.00000000000E+00 0. -1.
         11    1    4    4    0    0 -0.18903333202E+02  0.33090020611E+02  0.82290180600E+02  0.90686047953E+02  0.00000000000E+00 0.  1.
          1    1    1    2  501    0 -0.34050116695E+02 -0.15911519068E+03  0.33862000865E+03  0.37568679057E+03  0.00000000000E+00 0. -1.
<scales pt_clust_5="13000.00000" pt_clust_6="13000.00000" pt_clust_7="13000.00000" pt_clust_8="13000.00000" pt_clust_9="100.66020"></scales>
<clustering>
<clus scale="   55.567">  5  6 -1 -1</clus>
<clus scale="   91.921">  7  8 -1 -1</clus>
<clus scale="  102.778">  1  5  2 -1</clus>
<clus scale="  100.660">  2  9  1 -1</clus>
<clus scale="  100.660">  2  5  1 -1</clus>
</clustering>
</event>
<event>
 9    2  0.1592151E-004  0.9715488E+02  0.7546771E-02  0.1289853E+00
         -1   -1    0    0    0  501 -0.00000000000E+00  0.00000000000E+00  0.12692098809E+03  0.12692098809E+03  0.00000000000E+00 0.  1.
         21   -1    0    0  501  502  0.00000000000E+00 -0.00000000000E+00 -0.17748568206E+03  0.17748568206E+03  0.00000000000E+00 0.  1.
         23    2    1    2    0    0 -0.14660342125E+02  0.66458820842E+02 -0.16160904493E+02  0.11251909279E+03  0.88134391187E+02 0.  0.
         24    2    1    2    0    0  0.19380021482E+02  0.42904311637E+01 -0.73059696545E+02  0.11112860767E+03  0.81350200689E+02 0.  0.
        -13    1    4    4    0    0  0.49247265937E+02  0.44158666264E+01 -0.61947631829E+02  0.79260975073E+02  0.00000000000E+00 0.  1.
         14    1    4    4    0    0 -0.29867244454E+02 -0.12543546274E+00 -0.11112064716E+02  0.31867632601E+02  0.00000000000E+00 0. -1.
        -13    1    3    3    0    0 -0.39372911274E+02  0.73393978366E+02 -0.22364225696E+01  0.83318088003E+02  0.00000000000E+00 0.  1.
         13    1    3    3    0    0  0.24712569149E+02 -0.69351575246E+01 -0.13924481923E+02  0.29201004789E+02  0.00000000000E+00 0. -1.
         -2    1    1    2    0  502 -0.47196793577E+01 -0.70749252005E+02  0.38655907070E+02  0.80758969681E+02  0.00000000000E+00 0.  1.
<scales pt_clust_5="13000.00000" pt_clust_6="13000.00000" pt_clust_7="13000.00000" pt_clust_8="13000.00000" pt_clust_9="70.90654"></scales>
<clustering>
<clus scale="   70.907">  2  9  1 -1</clus>
<clus scale="   81.350">  5  6 -1 -1</clus>
<clus scale="   88.134">  7  8 -1 -1</clus>
<clus scale="   91.045">  2  5  1 -1</clus>
<clus scale="   70.907">  2  5  1 -1</clus>
</clustering>
</event>
<event>
 9    2  0.1592151E-004  0.1356267E+03  0.7546771E-02  0.1239993E+00
         21   -1    0    0  501  502  0.00000000000E+00  0.00000000000E+00  0.28872877930E+03  0.28872877930E+03  0.00000000000E+00 0. -1.
          4   -1    0    0  502    0 -0.00000000000E+00 -0.00000000000E+00 -0.15918272724E+03  0.15918272724E+03  0.00000000000E+00 0. -1.
         24    2    1    2    0    0 -0.16036241791E+02 -0.38135567287E+02  0.60029678015E+02  0.10694778067E+03  0.78248214072E+02 0.  0.
         23    2    1    2    0    0  0.92979074620E+02 -0.15812791935E+02 -0.84569266738E+02  0.16048378326E+03  0.98528833886E+02 0.  0.
        -13    1    3    3    0    0 -0.28838781125E+02 -0.56104555607E+02  0.56338353556E+02  0.84577813510E+02  0.00000000000E+00 0.  1.
         14    1    3    3    0    0  0.12802539335E+02  0.17968988321E+02  0.36913244594E+01  0.22369967165E+02  0.00000000000E+00 0. -1.
        -13    1    4    4    0    0 -0.20897645285E+02 -0.41792778588E+01 -0.19080520452E+02  0.28604968145E+02  0.00000000000E+00 0.  1.
         13    1    4    4    0    0  0.11387671991E+03 -0.11633514076E+02 -0.65488746285E+02  0.13187881511E+03  0.00000000000E+00 0. -1.
          3    1    1    2  501    0 -0.76942832830E+02  0.53948359222E+02  0.15408564078E+03  0.18047994260E+03  0.00000000000E+00 0. -1.
<scales pt_clust_5="13000.00000" pt_clust_6="13000.00000" pt_clust_7="13000.00000" pt_clust_8="13000.00000" pt_clust_9="93.20228"></scales>
<clustering>
<clus scale="   78.248">  5  6 -1 -1</clus>
<clus scale="   88.511">  2  5  1 -1</clus>
<clus scale="   93.202">  1  9  2 -1</clus>
<clus scale="   98.529">  7  8 -1 -1</clus>
<clus scale="   93.202">  1  5  2 -1</clus>
</clustering>
</event>
<event>
 9    2  0.1592151E-004  0.1059549E+03  0.7546771E-02  0.1272187E+00
         21   -1    0    0  501  502  0.00000000000E+00  0.00000000000E+00  0.62662491815E+03  0.62662491815E+03  0.00000000000E+00 0. -1.
          4   -1    0    0  502    0 -0.00000000000E+00 -0.00000000000E+00 -0.73610003429E+02  0.73610003429E+02  0.00000000000E+00 0. -1.
         23    2    1    2    0    0  0.20729070763E+02  0.59752977340E+02 -0.20486334919E+02  0.11121637051E+03  0.89158726300E+02 0.  0.
         24    2    1    2    0    0  0.46216696062E+00 -0.22242683010E+02  0.26829473951E+03  0.28078632602E+03  0.79774325956E+02 0.  0.
        -13    1    4    4    0    0  0.14132466786E+02 -0.43021907895E+02  0.23445969618E+03  0.23879271410E+03  0.00000000000E+00 0.  1.
         14    1    4    4    0    0 -0.13670299826E+02  0.20779224885E+02  0.33835043335E+02  0.41993611914E+02  0.00000000000E+00 0. -1.
        -11    1    3    3    0    0  0.15384409050E+02 -0.20384557545E+02 -0.17283160731E+02  0.30836956286E+02  0.00000000000E+00 0.  1.
         11    1    3    3    0    0  0.53446617130E+01  0.80137534885E+02 -0.32031741883E+01  0.80379414225E+02  0.00000000000E+00 0. -1.
          3    1    1    2  501    0 -0.21191237723E+02 -0.37510294329E+02  0.30520651013E+03  0.30823222505E+03  0.00000000000E+00 0. -1.
<scales pt_clust_5="13000.00000" pt_clust_6="13000.00000" pt_clust_7="13000.00000" pt_clust_8="13000.00000" pt_clust_9="43.08237"></scales>
<clustering>
<clus scale="   43.082">  1  9  2 -1</clus>
<clus scale="   79.774">  5  6 -1 -1</clus>
<clus scale="   89.159">  7  8 -1 -1</clus>
<clus scale="   98.189">  1  5  2 -1</clus>
<clus scale="   43.082">  1  5  2 -1</clus>
</clustering>
</event>
<event>
 9    2  0.1592151E-004  0.9822919E+02  0.7546771E-02  0.1287978E+00
         -3   -1    0    0    0  501 -0.00000000000E+00  0.00000000000E+00  0.36906720197E+03  0.36906720197E+03  0.00000000000E+00 0.  1.
         21   -1    0    0  501  502  0.00000000000E+00 -0.00000000000E+00 -0.50143316504E+02  0.50143316504E+02  0.00000000000E+00 0. -1.
         23    2    1    2    0    0  0.17256596789E+02 -0.35694219020E+02  0.23573043456E+03  0.25556336245E+03  0.90398711531E+02 0.  0.
         24    2    1    2    0    0  0.17391193216E+02  0.42686457038E+02  0.86328320331E+02  0.12816211480E+03  0.82754828030E+02 0.  0.
        -13    1    4    4    0    0 -0.20704134266E+02 -0.12996383513E+01  0.61486382911E+02  0.64891644447E+02  0.00000000000E+00 0.  1.
         14    1    4    4    0    0  0.38095327482E+02  0.43986095389E+02  0.24841937420E+02  0.63270470350E+02  0.00000000000E+00 0. -1.
        -13    1    3    3    0    0  0.32392236468E+02  0.21924867474E+02  0.96087812422E+02  0.10374403353E+03  0.00000000000E+00 0. -1.
         13    1    3    3    0    0 -0.15135639679E+02 -0.57619086494E+02  0.13964262214E+03  0.15181932892E+03  0.00000000000E+00 0.  1.
         -4    1    1    2    0  502 -0.34647790005E+02 -0.69922380180E+01 -0.31348694193E+01  0.35485041229E+02  0.00000000000E+00 0.  1.
<scales pt_clust_5="13000.00000" pt_clust_6="13000.00000" pt_clust_7="13000.00000" pt_clust_8="13000.00000" pt_clust_9="35.34630"></scales>
<clustering>
<clus scale="   35.346">  2  9  1 -1</clus>
<clus scale="   82.755">  5  6 -1 -1</clus>
<clus scale="   90.399">  7  8 -1 -1</clus>
<clus scale="   91.244">  2  5  1 -1</clus>
<clus scale="   35.346">  2  5  1 -1</clus>
</clustering>
</event>
<event>
 9    2  0.1592151E-004  0.1611490E+03  0.7546771E-02  0.1188388E+00
         21   -1    0    0  501  502  0.00000000000E+00  0.00000000000E+00  0.52333980871E+03  0.52333980871E+03  0.00000000000E+00 0.  1.
         -3   -1    0    0    0  501 -0.00000000000E+00 -0.00000000000E+00 -0.89451834117E+02  0.89451834117E+02  0.00000000000E+00 0.  1.
         24    2    1    2    0    0 -0.78490106547E+01 -0.11639674142E+03  0.18785230902E+03  0.23603580263E+03  0.82550601049E+02 0.  0.
         23    2    1    2    0    0 -0.77639456608E+02  0.14622251252E+03  0.20250188211E+03  0.27629169258E+03  0.89001004146E+02 0.  0.
        -13    1    3    3    0    0 -0.41014018324E+02 -0.57311824096E+02  0.12561002320E+03  0.14403011077E+03  0.00000000000E+00 0.  1.
         14    1    3    3    0    0  0.33165007669E+02 -0.59084917326E+02  0.62242285824E+02  0.92005691855E+02  0.00000000000E+00 0. -1.
        -13    1    4    4    0    0 -0.23795949842E+02  0.11207840941E+03  0.85199785582E+02  0.14278242380E+03  0.00000000000E+00 0.  1.
         13    1    4    4    0    0 -0.53843506766E+02  0.34144103110E+02  0.11730209653E+03  0.13350926877E+03  0.00000000000E+00 0. -1.
         -4    1    1    2    0  502  0.85488467263E+02 -0.29825771093E+02  0.43533783457E+02  0.10046414763E+03  0.00000000000E+00 0.  1.
<scales pt_clust_5="13000.00000" pt_clust_6="13000.00000" pt_clust_7="13000.00000" pt_clust_8="13000.00000" pt_clust_9="90.54205"></scales>
<clustering>
<clus scale="   82.551">  5  6 -1 -1</clus>
<clus scale="   89.001">  7  8 -1 -1</clus>
<clus scale="   90.542">  1  9  2 -1</clus>
<clus scale="  157.678">  2  5  1 -1</clus>
<clus scale="   90.542">  1  5  2 -1</clus>
</clustering>
</event>
<event>
 9    2  0.1592151E-004  0.9411005E+02  0.7546771E-02  0.1297135E+00
         21   -1    0    0  501  502  0.00000000000E+00  0.00000000000E+00  0.19041591576E+03  0.19041591576E+03  0.00000000000E+00 0. -1.
          2   -1    0    0  502    0 -0.00000000000E+00 -0.00000000000E+00 -0.21852003204E+03  0.21852003204E+03  0.00000000000E+00 0. -1.
         24    2    1    2    0    0 -0.14865265495E+02  0.50834222470E+02 -0.18661485009E+03  0.20975324285E+03  0.79788635270E+02 0.  0.
         23    2    1    2    0    0  0.54310245579E+01 -0.28481258846E+02  0.60711234227E+02  0.98418614103E+02  0.71830992665E+02 0.  0.
        -13    1    3    3    0    0  0.31075738196E+02  0.91821605626E+01 -0.81562438605E+02  0.87763574267E+02  0.00000000000E+00 0.  1.
         14    1    3    3    0    0 -0.45941003691E+02  0.41652061907E+02 -0.10505241149E+03  0.12198966858E+03  0.00000000000E+00 0. -1.
        -11    1    4    4    0    0 -0.28852408445E+02 -0.20084473659E+02  0.50761953869E+02  0.61746445370E+02  0.00000000000E+00 0.  1.
         11    1    4    4    0    0  0.34283433003E+02 -0.83967851868E+01  0.99492803585E+01  0.36672168733E+02  0.00000000000E+00 0. -1.
          1    1    1    2  501    0  0.94342409371E+01 -0.22352963624E+02  0.97799499587E+02  0.10076409085E+03  0.00000000000E+00 0. -1.
<scales pt_clust_5="13000.00000" pt_clust_6="13000.00000" pt_clust_7="13000.00000" pt_clust_8="13000.00000" pt_clust_9="24.26231"></scales>
<clustering>
<clus scale="   24.262">  1  9  2 -1</clus>
<clus scale="   71.831">  7  8 -1 -1</clus>
<clus scale="   79.789">  5  6 -1 -1</clus>
<clus scale="   87.465">  1  7  2 -1</clus>
<clus scale="   24.262">  1  5  2 -1</clus>
</clustering>
</event>
<event>
 9    2  0.1592151E-004  0.1887318E+03  0.7546771E-02  0.1188493E+00
          2   -1    0    0  502    0 -0.00000000000E+00  0.00000000000E+00  0.27432326420E+03  0.27432326420E+03  0.00000000000E+00 0. -1.
         21   -1    0    0  501  502  0.00000000000E+00 -0.00000000000E+00 -0.25787835040E+03  0.25787835040E+03  0.00000000000E+00 0.  1.
         23    2    1    2    0    0  0.26877940646E+01  0.25912181302E+02 -0.12438059691E+02  0.98714576829E+02  0.94399136505E+02 0.  0.
         24    2    1    2    0    0  0.49198128337E+02 -0.17021845344E+03 -0.11303347675E+03  0.22454511289E+03  0.79051648525E+02 0.  0.
        -13    1    4    4    0    0  0.26468054023E+02 -0.16738962044E+03 -0.10840929654E+03  0.20117757949E+03  0.00000000000E+00 0.  1.
         14    1    4    4    0    0  0.22730074314E+02 -0.28288329951E+01 -0.46241802152E+01  0.23367533398E+02  0.00000000000E+00 0. -1.
        -11    1    3    3    0    0  0.28684925989E+02 -0.24265498366E+02  0.83705257993E+01  0.38492922623E+02  0.00000000000E+00 0.  1.
         11    1    3    3    0    0 -0.25997131925E+02  0.50177679668E+02 -0.20808585491E+02  0.60221654206E+02  0.00000000000E+00 0. -1.
          1    1    1    2  501    0 -0.51885922402E+02  0.14430627214E+03  0.14191645024E+03  0.20894192488E+03  0.00000000000E+00 0. -1.
<scales pt_clust_5="13000.00000" pt_clust_6="13000.00000" pt_clust_7="13000.00000" pt_clust_8="13000.00000" pt_clust_9="171.37840"></scales>
<clustering>
<clus scale="   79.052">  5  6 -1 -1</clus>
<clus scale="   94.399">  7  8 -1 -1</clus>
<clus scale="   97.928">  1  7  2 -1</clus>
<clus scale="  171.378">  2  9  1 -1</clus>
<clus scale="  171.378">  2  5  1 -1</clus>
</clustering>
</event>
<event>
 9    2  0.1592151E-004  0.9142003E+02  0.7546771E-02  0.1300550E+00
         -1   -1    0    0    0  501 -0.00000000000E+00  0.00000000000E+00  0.63109254808E+02  0.63109254808E+02  0.00000000000E+00 0.  1.
         21   -1    0    0  501  502  0.00000000000E+00 -0.00000000000E+00 -0.24005320852E+03  0.24005320852E+03  0.00000000000E+00 0. -1.
         23    2    1    2    0    0  0.27390448838E+02 -0.14022578243E+02 -0.40529065487E+01  0.92220707439E+02  0.86841023951E+02 0.  0.
         24    2    1    2    0    0 -0.82847128956E+01  0.29064963624E+02 -0.10258655995E+03  0.13655073879E+03  0.84904024650E+02 0.  0.
        -13    1    4    4    0    0 -0.29271402599E+02 -0.19217343980E+02 -0.25994311743E+02  0.43609925048E+02  0.00000000000E+00 0.  1.
         14    1    4    4    0    0  0.20986689703E+02  0.48282307604E+02 -0.76592248210E+02  0.92940813737E+02  0.00000000000E+00 0. -1.
        -13    1    3    3    0    0  0.33266256393E+02  0.30895546370E+02 -0.10122821089E+02  0.46515052474E+02  0.00000000000E+00 0. -1.
         13    1    3    3    0    0 -0.58758075547E+01 -0.44918124613E+02  0.60699145403E+01  0.45705654964E+02  0.00000000000E+00 0.  1.
         -2    1    1    2    0  502 -0.19105735943E+02 -0.15042385380E+02 -0.70304487207E+02  0.74391017100E+02  0.00000000000E+00 0.  1.
<scales pt_clust_5="13000.00000" pt_clust_6="13000.00000" pt_clust_7="13000.00000" pt_clust_8="13000.00000" pt_clust_9="24.31671"></scales>
<clustering>
<clus scale="   24.317">  2  9  1 -1</clus>
<clus scale="   84.904">  5  6 -1 -1</clus>
<clus scale="   86.841">  7  8 -1 -1</clus>
<clus scale="   89.582">  2  5  1 -1</clus>
<clus scale="   24.317">  2  5  1 -1</clus>
</clustering>
</event>
<event>
 9    2  0.1592151E-004  0.2277559E+03  0.7546771E-02  0.1160461E+00
          2   -1    0    0  502    0 -0.00000000000E+00  0.00000000000E+00  0.23913613831E+04  0.23913613831E+04  0.00000000000E+00 0. -1.
         21   -1    0    0  501  502  0.00000000000E+00 -0.00000000000E+00 -0.40827062964E+02  0.40827062964E+02  0.00000000000E+00 0. -1.
         23    2    1    2    0    0 -0.59910845306E+02 -0.60138848888E+01  0.19298670156E+03  0.21983865147E+03  0.86369494048E+02 0.  0.
         24    2    1    2    0    0  0.24919169684E+03  0.59842565095E+02  0.15681766288E+04  0.15909940743E+04  0.80041057790E+02 0.  0.
        -13    1    4    4    0    0  0.10536941382E+03  0.31893985749E+02  0.45055978717E+03  0.46381468445E+03  0.00000000000E+00 0.  1.
         14    1    4    4    0    0  0.14382228302E+03  0.27948579345E+02  0.11176168417E+04  0.11271793899E+04  0.00000000000E+00 0. -1.
        -13    1    3    3    0    0  0.73148958311E+01 -0.29198265371E+02  0.88252243961E+02  0.93244329403E+02  0.00000000000E+00 0. -1.
         13    1    3    3    0    0 -0.67225741137E+02  0.23184380482E+02  0.10473445760E+03  0.12659432207E+03  0.00000000000E+00 0.  1.
          1    1    1    2  501    0 -0.18928085154E+03 -0.53828680206E+02  0.58937098973E+03  0.62135572027E+03  0.00000000000E+00 0. -1.
<scales pt_clust_5="13000.00000" pt_clust_6="13000.00000" pt_clust_7="13000.00000" pt_clust_8="13000.00000" pt_clust_9="213.22798"></scales>
<clustering>
<clus scale="   80.041">  5  6 -1 -1</clus>
<clus scale="   86.369">  7  8 -1 -1</clus>
<clus scale="  105.286">  1  7  2 -1</clus>
<clus scale="  213.228">  2  9  1 -1</clus>
<clus scale="  213.228">  2  5  1 -1</clus>
</clustering>
</event>
<event>
 9    2  0.1592151E-004  0.1302167E+03  0.7546771E-02  0.1239673E+00
          2   -1    0    0  502    0 -0.00000000000E+00  0.00000000000E+00  0.88632918010E+03  0.88632918010E+03  0.00000000000E+00 0. -1.
         21   -1    0    0  501  502  0.00000000000E+00 -0.00000000000E+00 -0.35378339029E+02  0.35378339029E+02  0.00000000000E+00 0. -1.
         23    2    1    2    0    0 -0.40383879335E+02  0.10580225115E+02  0.21357616865E+03  0.23610852843E+03  0.91595079070E+02 0.  0.
         24    2    1    2    0    0 -0.49008015000E+02 -0.82033417107E+02  0.22812716631E+03  0.26065194614E+03  0.82256707700E+02 0.  0.
        -13    1    4    4    0    0 -0.63346712862E+02 -0.51377122841E+02  0.10499020171E+03  0.13294870152E+03  0.00000000000E+00 0.  1.
         14    1    4    4    0    0  0.14338697863E+02 -0.30656294266E+02  0.12313696460E+03  0.12770324462E+03  0.00000000000E+00 0. -1.
        -13    1    3    3    0    0  0.10950849314E+02  0.39868359084E+02  0.80432505933E+02  0.90436691489E+02  0.00000000000E+00 0.  1.
         13    1    3    3    0    0 -0.51334728650E+02 -0.29288133969E+02  0.13314366271E+03  0.14567183694E+03  0.00000000000E+00 0. -1.
          1    1    1    2  501    0  0.89391894335E+02  0.71453191992E+02  0.40924750611E+03  0.42494704456E+03  0.00000000000E+00 0. -1.
<scales pt_clust_5="13000.00000" pt_clust_6="13000.00000" pt_clust_7="13000.00000" pt_clust_8="13000.00000" pt_clust_9="100.94673"></scales>
<clustering>
<clus scale="   82.257">  5  6 -1 -1</clus>
<clus scale="   91.595">  7  8 -1 -1</clus>
<clus scale="  100.660">  1  7  2 -1</clus>
<clus scale="  100.947">  2  9  1 -1</clus>
<clus scale="  100.947">  2  5  1 -1</clus>
</clustering>
</event>
<event>
 9    2  0.1592151E-004  0.3249629E+03  0.7546771E-02  0.1092515E+00
         21   -1    0    0  501  502  0.00000000000E+00  0.00000000000E+00  0.57637329980E+02  0.57637329980E+02  0.00000000000E+00 0.  1.
          2   -1    0    0  502    0 -0.00000000000E+00 -0.00000000000E+00 -0.32222972777E+04  0.32222972777E+04  0.00000000000E+00 0. -1.
         24    2    1    2    0    0  0.13945440119E+03  0.10941042968E+03 -0.57140151070E+03  0.60365154829E+03  0.80481881143E+02 0.  0.
         23    2    1    2    0    0 -0.27043722020E+03 -0.29150411683E+03 -0.12635662044E+04  0.13278039000E+04  0.91393127712E+02 0.  0.
        -11    1    3    3    0    0  0.13043530994E+03  0.61712968413E+02 -0.38899474494E+03  0.41489609800E+03  0.00000000000E+00 0.  1.
         12    1    3    3    0    0  0.90190912509E+01  0.47697461268E+02 -0.18240676576E+03  0.18875545029E+03  0.00000000000E+00 0. -1.
        -11    1    4    4    0    0 -0.26213295560E+02 -0.68685200204E+02 -0.30847888115E+03  0.31711829608E+03  0.00000000000E+00 0. -1.
         11    1    4    4    0    0 -0.24422392464E+03 -0.22281891662E+03 -0.95508732324E+03  0.10106856039E+04  0.00000000000E+00 0.  1.
          1    1    1    2  501    0  0.13098281902E+03  0.18209368714E+03 -0.13296922327E+04  0.13484791594E+04  0.00000000000E+00 0. -1.
<scales pt_clust_5="13000.00000" pt_clust_6="13000.00000" pt_clust_7="13000.00000" pt_clust_8="13000.00000" pt_clust_9="311.84657"></scales>
<clustering>
<clus scale="   80.482">  5  6 -1 -1</clus>
<clus scale="   91.393">  7  8 -1 -1</clus>
<clus scale="  194.668">  2  5  1 -1</clus>
<clus scale="  311.847">  1  9  2 -1</clus>
<clus scale="  311.847">  1  5  2 -1</clus>
</clustering>
</event>
<event>
 9    2  0.1592151E-004  0.9070170E+02  0.7546771E-02  0.1305117E+00
         21   -1    0    0  501  502  0.00000000000E+00  0.00000000000E+00  0.19630350045E+03  0.19630350045E+03  0.00000000000E+00 0. -1.
          2   -1    0    0  502    0 -0.00000000000E+00 -0.00000000000E+00 -0.31559519112E+03  0.31559519112E+03  0.00000000000E+00 0. -1.
         24    2    1    2    0    0  0.34871824336E+01  0.14898798662E+02 -0.24872732766E+03  0.26251560452E+03  0.82553161360E+02 0.  0.
         23    2    1    2    0    0  0.33248655006E+02 -0.32418968887E+02 -0.12995168483E+02  0.10125134682E+03  0.89030883550E+02 0.  0.
        -13    1    3    3    0    0 -0.27464646135E+02  0.15257475385E+02 -0.37009208560E+02  0.48546666833E+02  0.00000000000E+00 0.  1.
         14    1    3    3    0    0  0.30951828569E+02 -0.35867672316E+00 -0.21171811910E+03  0.21396893769E+03  0.00000000000E+00 0. -1.
        -13    1    4    4    0    0 -0.17703891270E+02 -0.35834118924E+02  0.15385666437E+02  0.42827918194E+02  0.00000000000E+00 0. -1.
         13    1    4    4    0    0  0.50952546276E+02  0.34151500369E+01 -0.28380834920E+02  0.58423428627E+02  0.00000000000E+00 0.  1.
          1    1    1    2  501    0 -0.36735837440E+02  0.17520170225E+02  0.14243080547E+03  0.14813174023E+03  0.00000000000E+00 0. -1.
<scales pt_clust_5="13000.00000" pt_clust_6="13000.00000" pt_clust_7="13000.00000" pt_clust_8="13000.00000" pt_clust_9="40.69985"></scales>
<clustering>
<clus scale="   40.700">  1  9  2 -1</clus>
<clus scale="   82.553">  5  6 -1 -1</clus>
<clus scale="   84.352">  2  5  1 -1</clus>
<clus scale="   89.031">  7  8 -1 -1</clus>
<clus scale="   40.700">  1  5  2 -1</clus>
</clustering>
</event>
<event>
 9    2  0.1592151E-004  0.1242582E+03  0.7546771E-02  0.1239453E+00
          2   -1    0    0  502    0 -0.00000000000E+00  0.00000000000E+00  0.62369856903E+03  0.62369856903E+03  0.00000000000E+00 0. -1.
         21   -1    0    0  501  502  0.00000000000E+00 -0.00000000000E+00 -0.32416959557E+03  0.32416959557E+03  0.00000000000E+00 0. -1.
         24    2    1    2    0    0  0.11248447770E+02  0.82906723151E+02  0.49228351586E+03  0.50588472023E+03  0.81094006319E+02 0.  0.
         23    2    1    2    0    0 -0.89760688350E+02 -0.61689834757E+02 -0.28519213436E+03  0.31886140457E+03  0.92062071132E+02 0.  0.
        -13    1    3    3    0    0  0.42741498013E+02  0.40824170294E+02  0.33149368332E+03  0.33672171093E+03  0.00000000000E+00 0.  1.
         14    1    3    3    0    0 -0.31493050242E+02  0.42082552857E+02  0.16078983254E+03  0.16916300930E+03  0.00000000000E+00 0. -1.
        -13    1    4    4    0    0 -0.54618686673E+02 -0.16043957089E+02 -0.47057423749E+02  0.73858043724E+02  0.00000000000E+00 0.  1.
         13    1    4    4    0    0 -0.35142001677E+02 -0.45645877668E+02 -0.23813471061E+03  0.24500336085E+03  0.00000000000E+00 0. -1.
          1    1    1    2  501    0  0.78512240580E+02 -0.21216888394E+02  0.92437591969E+02  0.12312203979E+03  0.00000000000E+00 0. -1.
<scales pt_clust_5="13000.00000" pt_clust_6="13000.00000" pt_clust_7="13000.00000" pt_clust_8="13000.00000" pt_clust_9="81.32856"></scales>
<clustering>
<clus scale="   81.094">  5  6 -1 -1</clus>
<clus scale="   81.329">  2  9  1 -1</clus>
<clus scale="   92.062">  7  8 -1 -1</clus>
<clus scale="  116.365">  1  5  2 -1</clus>
<clus scale="   81.329">  2  5  1 -1</clus>
</clustering>
</event>
<event>
 9    2  0.1592151E-004  0.9863220E+02  0.7546771E-02  0.1284948E+00
         21   -1    0    0  501  502  0.00000000000E+00  0.00000000000E+00  0.83988254362E+02  0.83988254362E+02  0.00000000000E+00 0.  1.
          2   -1    0    0  502    0 -0.00000000000E+00 -0.00000000000E+00 -0.34758895384E+03  0.34758895384E+03  0.00000000000E+00 0. -1.
         23    2    1    2    0    0  0.11958864075E+02  0.43020203919E+02 -0.25758096947E+03  0.27596614812E+03  0.88405920043E+02 0.  0.
         24    2    1    2    0    0 -0.40247567386E+02 -0.25649626834E+02  0.34479081641E+02  0.10324559982E+03  0.84812008434E+02 0.  0.
        -11    1    4    4    0    0 -0.69064441042E+01 -0.48966924912E+02 -0.70513245163E+00  0.49456606407E+02  0.00000000000E+00 0.  1.
         12    1    4    4    0    0 -0.33341123282E+02  0.23317298077E+02  0.35184214093E+02  0.53788993415E+02  0.00000000000E+00 0. -1.
        -13    1    3    3    0    0 -0.28837898528E+02 -0.29806983515E+01 -0.14321486640E+03  0.14611983751E+03  0.00000000000E+00 0.  1.
         13    1    3    3    0    0  0.40796762603E+02  0.46000902270E+02 -0.11436610307E+03  0.12984631061E+03  0.00000000000E+00 0. -1.
          1    1    1    2  501    0  0.28288703311E+02 -0.17370577085E+02 -0.40498811644E+02  0.52365460256E+02  0.00000000000E+00 0. -1.
<scales pt_clust_5="13000.00000" pt_clust_6="13000.00000" pt_clust_7="13000.00000" pt_clust_8="13000.00000" pt_clust_9="33.19622"></scales>
<clustering>
<clus scale="   33.196">  1  9  2 -1</clus>
<clus scale="   84.812">  5  6 -1 -1</clus>
<clus scale="   88.406">  7  8 -1 -1</clus>
<clus scale="   95.424">  1  5  2 -1</clus>
<clus scale="   33.196">  1  5  2 -1</clus>
</clustering>
</event>
<event>
 9    2  0.1592151E-004  0.2031728E+03  0.7546771E-02  0.1148127E+00
         -1   -1    0    0    0  501 -0.00000000000E+00  0.00000000000E+00  0.55913814503E+03  0.55913814503E+03  0.00000000000E+00 0.  1.
         21   -1    0    0  501  502  0.00000000000E+00 -0.00000000000E+00 -0.83939931216E+02  0.83939931216E+02  0.00000000000E+00 0.  1.
         24    2    1    2    0    0 -0.17854227950E+03 -0.51680930535E+02  0.28149943318E+03  0.34627585793E+03  0.78209812402E+02 0.  0.
         23    2    1    2    0    0  0.16266201898E+03  0.71717761578E+02  0.16974539189E+03  0.26176763391E+03  0.90035694853E+02 0.  0.
        -13    1    3    3    0    0 -0.13374147794E+03 -0.42414106924E+02  0.14266350930E+03  0.20009651740E+03  0.00000000000E+00 0.  1.
         14    1    3    3    0    0 -0.44800801559E+02 -0.92668236111E+01  0.13883592388E+03  0.14617934054E+03  0.00000000000E+00 0. -1.
        -13    1    4    4    0    0  0.10630704380E+03  0.20093336526E+02  0.48771050866E+02  0.11867411317E+03  0.00000000000E+00 0.  1.
         13    1    4    4    0    0  0.56354975179E+02  0.51624425051E+02  0.12097434103E+03  0.14309352073E+03  0.00000000000E+00 0. -1.
         -2    1    1    2    0  502  0.15880260517E+02 -0.20036831043E+02  0.23953388740E+02  0.35034584405E+02  0.00000000000E+00 0.  1.
<scales pt_clust_5="13000.00000" pt_clust_6="13000.00000" pt_clust_7="13000.00000" pt_clust_8="13000.00000" pt_clust_9="25.56672"></scales>
<clustering>
<clus scale="   25.567">  2  9  1 -1</clus>
<clus scale="   78.210">  5  6 -1 -1</clus>
<clus scale="   90.036">  7  8 -1 -1</clus>
<clus scale="  198.216">  1  5  2 -1</clus>
<clus scale="   25.567">  2  5  1 -1</clus>
</clustering>
</event>
<event>
 9    2  0.1592151E-004  0.1629090E+03  0.7546771E-02  0.1187075E+00
          2   -1    0    0  502    0 -0.00000000000E+00  0.00000000000E+00  0.45970586009E+03  0.45970586009E+03  0.00000000000E+00 0. -1.
         21   -1    0    0  501  502  0.00000000000E+00 -0.00000000000E+00 -0.11323715819E+03  0.11323715819E+03  0.00000000000E+00 0. -1.
         23    2    1    2    0    0 -0.97249272697E+02 -0.24729605071E+02  0.10150895144E+03  0.16832476325E+03  0.89219864904E+02 0.  0.
         24    2    1    2    0    0  0.19868503984E+03 -0.12337429129E+02  0.15634671401E+03  0.26492054527E+03  0.78170602594E+02 0.  0.
        -11    1    4    4    0    0  0.45915205107E+02  0.21239811334E+02  0.69651119007E+02  0.86084923328E+02  0.00000000000E+00 0.  1.
         12    1    4    4    0    0  0.15276983474E+03 -0.33577240463E+02  0.86695595001E+02  0.17883562194E+03  0.00000000000E+00 0. -1.
        -11    1    3    3    0    0 -0.99104849024E+02 -0.48107912822E+02  0.77023424589E+02  0.13442005175E+03  0.00000000000E+00 0. -1.
         11    1    3    3    0    0  0.18555763277E+01  0.23378307751E+02  0.24485526856E+02  0.33904711505E+02  0.00000000000E+00 0.  1.
          1    1    1    2  501    0 -0.10143576715E+03  0.37067034199E+02  0.88613036448E+02  0.13969770975E+03  0.00000000000E+00 0. -1.
<scales pt_clust_5="13000.00000" pt_clust_6="13000.00000" pt_clust_7="13000.00000" pt_clust_8="13000.00000" pt_clust_9="107.99626"></scales>
<clustering>
<clus scale="   78.171">  5  6 -1 -1</clus>
<clus scale="   89.220">  7  8 -1 -1</clus>
<clus scale="  107.996">  2  9  1 -1</clus>
<clus scale="  157.130">  2  5  1 -1</clus>
<clus scale="  107.996">  2  5  1 -1</clus>
</clustering>
</event>
<event>
 9    2  0.1592151E-004  0.1143553E+03  0.7546771E-02  0.1269086E+00
         21   -1    0    0  501  502  0.00000000000E+00  0.00000000000E+00  0.47617649584E+02  0.47617649584E+02  0.00000000000E+00 0.  1.
          2   -1    0    0  502    0 -0.00000000000E+00 -0.00000000000E+00 -0.74677966671E+03  0.74677966671E+03  0.00000000000E+00 0. -1.
         24    2    1    2    0    0 -0.15507322603E+02 -0.11667004985E+02 -0.32992823602E+02  0.89244956103E+02  0.80619722903E+02 0.  0.
         23    2    1    2    0    0 -0.69645932271E+02  0.12961407545E+02 -0.18250741038E+03  0.21405005642E+03  0.86544311443E+02 0.  0.
        -11    1    3    3    0    0 -0.43616225488E+02 -0.65207438605E+01  0.19025010538E+01  0.44141983831E+02  0.00000000000E+00 0.  1.
         12    1    3    3    0    0  0.28108902885E+02 -0.51462611245E+01 -0.34895324656E+02  0.45102972272E+02  0.00000000000E+00 0. -1.
        -11    1    4    4    0    0 -0.25362991851E+02  0.43809217946E+02 -0.50806368880E+02  0.71720401919E+02  0.00000000000E+00 0.  1.
         11    1    4    4    0    0 -0.44282940420E+02 -0.30847810401E+02 -0.13170104150E+03  0.14232965450E+03  0.00000000000E+00 0. -1.
          1    1    1    2  501    0  0.85153254874E+02 -0.12944025597E+01 -0.48366178314E+03  0.49110230377E+03  0.00000000000E+00 0. -1.
<scales pt_clust_5="13000.00000" pt_clust_6="13000.00000" pt_clust_7="13000.00000" pt_clust_8="13000.00000" pt_clust_9="74.74779"></scales>
<clustering>
<clus scale="   80.620">  5  6 -1 -1</clus>
<clus scale="   82.923">  2  5  1 -1</clus>
<clus scale="   74.748">  1  9  2 -1</clus>
<clus scale="   86.544">  7  8 -1 -1</clus>
<clus scale="   74.748">  1  5  2 -1</clus>
</clustering>
</event>
<event>
 9    2  0.1592151E-004  0.9161103E+02  0.7546771E-02  0.1304446E+00
          4   -1    0    0  502    0 -0.00000000000E+00  0.00000000000E+00  0.44603964393E+02  0.44603964393E+02  0.00000000000E+00 0. -1.
         21   -1    0    0  501  502  0.00000000000E+00 -0.00000000000E+00 -0.35388981042E+03  0.35388981042E+03  0.00000000000E+00 0. -1.
         23    2    1    2    0    0 -0.40670895673E+01 -0.14040043905E+02 -0.94218331539E+02  0.13152425091E+03  0.90597298678E+02 0.  0.
         24    2    1    2    0    0 -0.21959071643E+02  0.10369299359E+02 -0.22361819498E+03  0.23932988626E+03  0.81755575542E+02 0.  0.
        -13    1    4    4    0    0 -0.42222448072E+02  0.25234700876E+02 -0.82976629575E+02  0.96460594572E+02  0.00000000000E+00 0.  1.
         14    1    4    4    0    0  0.20263376429E+02 -0.14865401517E+02 -0.14064156541E+03  0.14286929169E+03  0.00000000000E+00 0. -1.
        -11    1    3    3    0    0 -0.38673308908E+02 -0.28252143745E+02 -0.28025333478E+02  0.55490789908E+02  0.00000000000E+00 0. -1.
         11    1    3    3    0    0  0.34606219340E+02  0.14212099840E+02 -0.66192998061E+02  0.76033460997E+02  0.00000000000E+00 0.  1.
          3    1    1    2  501    0  0.26026161210E+02  0.36707445463E+01  0.85506804893E+01  0.27639637655E+02  0.00000000000E+00 0. -1.
<scales pt_clust_5="13000.00000" pt_clust_6="13000.00000" pt_clust_7="13000.00000" pt_clust_8="13000.00000" pt_clust_9="26.28376"></scales>
<clustering>
<clus scale="   26.284">  2  9  1 -1</clus>
<clus scale="   81.756">  5  6 -1 -1</clus>
<clus scale="   82.878">  2  5  1 -1</clus>
<clus scale="   90.597">  7  8 -1 -1</clus>
<clus scale="   26.284">  2  5  1 -1</clus>
</clustering>
</event>
<event>
 9    2  0.1592151E-004  0.1812026E+03  0.7546771E-02  0.1167838E+00
         21   -1    0    0  501  502  0.00000000000E+00  0.00000000000E+00  0.78942925185E+02  0.78942925185E+02  0.00000000000E+00 0.  1.
          2   -1    0    0  502    0 -0.00000000000E+00 -0.00000000000E+00 -0.75471068281E+03  0.75471068281E+03  0.00000000000E+00 0. -1.
         23    2    1    2    0    0  0.14626873083E+03 -0.19876041773E+02 -0.48509304155E+03  0.51532577480E+03  0.91955405270E+02 0.  0.
         24    2    1    2    0    0 -0.16372450919E+03 -0.77198688468E+01 -0.90100632033E+02  0.21258576559E+03  0.10104094493E+03 0.  0.
        -13    1    4    4    0    0 -0.28098694216E+02 -0.25633681354E+01  0.22615639734E+02  0.36160401455E+02  0.00000000000E+00 0.  1.
         14    1    4    4    0    0 -0.13562581498E+03 -0.51565007114E+01 -0.11271627177E+03  0.17642536413E+03  0.00000000000E+00 0. -1.
        -11    1    3    3    0    0  0.93068810225E+02 -0.53520676281E+02 -0.35366930002E+03  0.36960551944E+03  0.00000000000E+00 0.  1.
         11    1    3    3    0    0  0.53199920609E+02  0.33644634508E+02 -0.13142374153E+03  0.14572025536E+03  0.00000000000E+00 0. -1.
          1    1    1    2  501    0  0.17455778358E+02  0.27595910620E+02 -0.10057408404E+03  0.10574206761E+03  0.00000000000E+00 0. -1.
<scales pt_clust_5="13000.00000" pt_clust_6="13000.00000" pt_clust_7="13000.00000" pt_clust_8="13000.00000" pt_clust_9="32.65332"></scales>
<clustering>
<clus scale="   32.653">  1  9  2 -1</clus>
<clus scale="   91.955">  7  8 -1 -1</clus>
<clus scale="  101.041">  5  6 -1 -1</clus>
<clus scale="  176.298">  2  7  1 -1</clus>
<clus scale="   32.653">  1  5  2 -1</clus>
</clustering>
</event>
<event>
 9    2  0.1592151E-004  0.3545961E+03  0.7546771E-02  0.1097527E+00
          2   -1    0    0  502    0 -0.00000000000E+00  0.00000000000E+00  0.68876394829E+03  0.68876394829E+03  0.00000000000E+00 0. -1.
         21   -1    0    0  501  502  0.00000000000E+00 -0.00000000000E+00 -0.26632475932E+03  0.26632475932E+03  0.00000000000E+00 0. -1.
         24    2    1    2    0    0  0.59090668823E+02 -0.85189967657E+02  0.12200871764E+03  0.17930923272E+03  0.80725683825E+02 0.  0.
         23    2    1    2    0    0  0.30010340906E+03 -0.72744952925E+02  0.11423255190E+03  0.34145990369E+03  0.90509146539E+02 0.  0.
        -11    1    3    3    0    0 -0.13234171705E+02 -0.33132266807E+02  0.11793895146E+02  0.37576407055E+02  0.00000000000E+00 0.  1.
         12    1    3    3    0    0  0.72324840527E+02 -0.52057700850E+02  0.11021482249E+03  0.14173282567E+03  0.00000000000E+00 0. -1.
        -13    1    4    4    0    0  0.96495420263E+02 -0.67288050473E+02  0.33027617088E+02  0.12218785275E+03  0.00000000000E+00 0.  1.
         13    1    4    4    0    0  0.20360798880E+03 -0.54569024523E+01  0.81204934807E+02  0.21927205094E+03  0.00000000000E+00 0. -1.
          1    1    1    2  501    0 -0.35919407788E+03  0.15793492058E+03  0.18619791943E+03  0.43431957120E+03  0.00000000000E+00 0. -1.
<scales pt_clust_5="13000.00000" pt_clust_6="13000.00000" pt_clust_7="13000.00000" pt_clust_8="13000.00000" pt_clust_9="342.85069"></scales>
<clustering>
<clus scale="   80.726">  5  6 -1 -1</clus>
<clus scale="   90.509">  7  8 -1 -1</clus>
<clus scale="  131.399">  1  5  2 -1</clus>
<clus scale="  342.851">  2  9  1 -1</clus>
<clus scale="  342.851">  2  5  1 -1</clus>
</clustering>
</event>
<event>
 9    2  0.1592151E-004  0.9504539E+02  0.7546771E-02  0.1299458E+00
          2   -1    0    0  502    0 -0.00000000000E+00  0.00000000000E+00  0.27255692038E+03  0.27255692038E+03  0.00000000000E+00 0. -1.
         21   -1    0    0  501  502  0.00000000000E+00 -0.00000000000E+00 -0.87305348006E+02  0.87305348006E+02  0.00000000000E+00 0. -1.
         24    2    1    2    0    0  0.24070383176E+02  0.23925004154E+02  0.35536458996E+02  0.93608667546E+02  0.79674045660E+02 0.  0.
         23    2    1    2    0    0  0.22768445370E+01  0.24403321358E+02 -0.10023343117E+02  0.97297458783E+02  0.93624900342E+02 0.  0.
        -11    1    3    3    0    0 -0.27422394710E+02  0.14510866841E+02  0.25830033705E+02  0.40370083345E+02  0.00000000000E+00 0.  1.
         12    1    3    3    0    0  0.51492777886E+02  0.94141373136E+01  0.97064252906E+01  0.53238584201E+02  0.00000000000E+00 0. -1.
        -11    1    4    4    0    0  0.31015101127E+02  0.46795410568E+02  0.79029537276E+01  0.56693946994E+02  0.00000000000E+00 0.  1.
         11    1    4    4    0    0 -0.28738256590E+02 -0.22392089210E+02 -0.17926296845E+02  0.40603511789E+02  0.00000000000E+00 0. -1.
          1    1    1    2  501    0 -0.26347227713E+02 -0.48328325512E+02  0.15973845649E+03  0.16895614205E+03  0.00000000000E+00 0. -1.
<scales pt_clust_5="13000.00000" pt_clust_6="13000.00000" pt_clust_7="13000.00000" pt_clust_8="13000.00000" pt_clust_9="55.04368"></scales>
<clustering>
<clus scale="   55.044">  2  9  1 -1</clus>
<clus scale="   79.674">  5  6 -1 -1</clus>
<clus scale="   81.339">  1  5  2 -1</clus>
<clus scale="   93.625">  7  8 -1 -1</clus>
<clus scale="   55.044">  2  5  1 -1</clus>
</clustering>
</event>
<event>
 9    2  0.1592151E-004  0.1311138E+03  0.7546771E-02  0.1227563E+00
         -3   -1    0    0    0  501 -0.00000000000E+00  0.00000000000E+00  0.18073005670E+03  0.18073005670E+03  0.00000000000E+00 0.  1.
         21   -1    0    0  501  502  0.00000000000E+00 -0.00000000000E+00 -0.14497745096E+03  0.14497745096E+03  0.00000000000E+00 0.  1.
         24    2    1    2    0    0  0.47926064959E+02 -0.85242441008E+02  0.80646585505E+02  0.15414487057E+03  0.87713100040E+02 0.  0.
         23    2    1    2    0    0 -0.65591215596E+02  0.48728179136E+02 -0.30040308378E+02  0.12836564159E+03  0.94332787553E+02 0.  0.
        -13    1    3    3    0    0  0.24043399067E+02 -0.79096348338E+02  0.94742581301E+02  0.12573970761E+03  0.00000000000E+00 0.  1.
         14    1    3    3    0    0  0.23882665892E+02 -0.61460926698E+01 -0.14095995796E+02  0.28405162958E+02  0.00000000000E+00 0. -1.
        -11    1    4    4    0    0 -0.56992531260E+02 -0.62570996422E+01 -0.42457331485E+02  0.71343709689E+02  0.00000000000E+00 0.  1.
         11    1    4    4    0    0 -0.85986843359E+01  0.54985278778E+02  0.12417023106E+02  0.57021931899E+02  0.00000000000E+00 0. -1.
         -4    1    1    2    0  502  0.17665150637E+02  0.36514261872E+02 -0.14853671381E+02  0.43196995504E+02  0.00000000000E+00 0.  1.
<scales pt_clust_5="13000.00000" pt_clust_6="13000.00000" pt_clust_7="13000.00000" pt_clust_8="13000.00000" pt_clust_9="40.56290"></scales>
<clustering>
<clus scale="   40.563">  2  9  1 -1</clus>
<clus scale="   87.713">  5  6 -1 -1</clus>
<clus scale="   94.333">  7  8 -1 -1</clus>
<clus scale="  126.435">  1  5  2 -1</clus>
<clus scale="   40.563">  2  5  1 -1</clus>
</clustering>
</event>
<event>
 9    2  0.1592151E-004  0.1337774E+03  0.7546771E-02  0.1233483E+00
         21   -1    0    0  501  502  0.00000000000E+00  0.00000000000E+00  0.15925819277E+03  0.15925819277E+03  0.00000000000E+00 0. -1.
          2   -1    0    0  502    0 -0.00000000000E+00 -0.00000000000E+00 -0.41598575609E+03  0.41598575609E+03  0.00000000000E+00 0. -1.
         23    2    1    2    0    0 -0.56556800481E+01  0.45944422112E+02 -0.29287250192E+03  0.31124298118E+03  0.94630937378E+02 0.  0.
         24    2    1    2    0    0 -0.10604590488E+03  0.32680669982E+01  0.53060457185E+02  0.14077252970E+03  0.75796298060E+02 0.  0.
        -11    1    4    4    0    0 -0.22272785067E+02  0.18679345017E+02 -0.14093845312E+02  0.32305283788E+02  0.00000000000E+00 0.  1.
         12    1    4    4    0    0 -0.83773119809E+02 -0.15411278019E+02  0.67154302497E+02  0.10846724592E+03  0.00000000000E+00 0. -1.
        -11    1    3    3    0    0  0.31145161799E+02 -0.47831620059E+01 -0.17431905558E+03  0.17714410202E+03  0.00000000000E+00 0.  1.
         11    1    3    3    0    0 -0.36800841847E+02  0.50727584118E+02 -0.11855344634E+03  0.13409887915E+03  0.00000000000E+00 0. -1.
          1    1    1    2  501    0  0.11170158492E+03 -0.49212489110E+02 -0.16915518580E+02  0.12322843798E+03  0.00000000000E+00 0. -1.
<scales pt_clust_5="13000.00000" pt_clust_6="13000.00000" pt_clust_7="13000.00000" pt_clust_8="13000.00000" pt_clust_9="110.23299"></scales>
<clustering>
<clus scale="   75.796">  5  6 -1 -1</clus>
<clus scale="   94.631">  7  8 -1 -1</clus>
<clus scale="  105.347">  2  7  1 -1</clus>
<clus scale="  110.233">  1  9  2 -1</clus>
<clus scale="  110.233">  1  5  2 -1</clus>
</clustering>
</event>
<event>
 9    2  0.1592151E-004  0.9692432E+02  0.7546771E-02  0.1293659E+00
          2   -1    0    0  502    0 -0.00000000000E+00  0.00000000000E+00  0.68972547678E+03  0.68972547678E+03  0.00000000000E+00 0. -1.
         21   -1    0    0  501  502  0.00000000000E+00 -0.00000000000E+00 -0.19370215209E+02  0.19370215209E+02  0.00000000000E+00 0.  1.
         24    2    1    2    0    0 -0.33973137169E+02  0.42663879642E+00  0.38310815632E+03  0.39242402627E+03  0.77912777421E+02 0.  0.
         23    2    1    2    0    0  0.36155428999E+02 -0.21004565836E+02  0.16533562390E+03  0.19301640798E+03  0.90393906820E+02 0.  0.
        -11    1    3    3    0    0 -0.28530715528E+02 -0.36244093014E+02  0.17158990383E+03  0.17768154407E+03  0.00000000000E+00 0.  1.
         12    1    3    3    0    0 -0.54424216405E+01  0.36670731811E+02  0.21151825249E+03  0.21474248220E+03  0.00000000000E+00 0. -1.
        -13    1    4    4    0    0  0.60621414600E+02 -0.22166906845E+02  0.72801011119E+02  0.97294989014E+02  0.00000000000E+00 0.  1.
         13    1    4    4    0    0 -0.24465985602E+02  0.11623410090E+01  0.92534612777E+02  0.95721418971E+02  0.00000000000E+00 0. -1.
          1    1    1    2  501    0 -0.21822918298E+01  0.20577927040E+02  0.12191148136E+03  0.12365525774E+03  0.00000000000E+00 0. -1.
<scales pt_clust_5="13000.00000" pt_clust_6="13000.00000" pt_clust_7="13000.00000" pt_clust_8="13000.00000" pt_clust_9="20.69333"></scales>
<clustering>
<clus scale="   20.693">  2  9  1 -1</clus>
<clus scale="   77.913">  5  6 -1 -1</clus>
<clus scale="   85.403">  1  5  2 -1</clus>
<clus scale="   90.394">  7  8 -1 -1</clus>
<clus scale="   20.693">  2  5  1 -1</clus>
</clustering>
</event>
<event>
 9    2  0.1592151E-004  0.9435942E+02  0.7546771E-02  0.1299850E+00
         21   -1    0    0  501  502  0.00000000000E+00  0.00000000000E+00  0.45324807263E+03  0.45324807263E+03  0.00000000000E+00 0. -1.
         -1   -1    0    0    0  501 -0.00000000000E+00 -0.00000000000E+00 -0.36223886023E+02  0.36223886023E+02  0.00000000000E+00 0.  1.
         23    2    1    2    0    0  0.10465015063E+01 -0.14599015319E+02  0.54153971136E+02  0.10796613308E+03  0.92248614561E+02 0.  0.
         24    2    1    2    0    0 -0.15841266605E+02  0.37366236349E+02  0.29637336186E+03  0.30967920817E+03  0.80105311966E+02 0.  0.
        -13    1    4    4    0    0 -0.83793049865E+01  0.22663676297E+02  0.16359317624E+02  0.29180168753E+02  0.00000000000E+00 0.  1.
         14    1    4    4    0    0 -0.74619616187E+01  0.14702560052E+02  0.28001404423E+03  0.28049903941E+03  0.00000000000E+00 0. -1.
        -11    1    3    3    0    0  0.12543008196E+02  0.37246455032E+02  0.15342058860E+02  0.42190096434E+02  0.00000000000E+00 0.  1.
         11    1    3    3    0    0 -0.11496506690E+02 -0.51845470352E+02  0.38811912276E+02  0.65776036644E+02  0.00000000000E+00 0. -1.
         -2    1    1    2    0  502  0.14794765099E+02 -0.22767221030E+02  0.66496853616E+02  0.71826617410E+02  0.00000000000E+00 0.  1.
<scales pt_clust_5="13000.00000" pt_clust_6="13000.00000" pt_clust_7="13000.00000" pt_clust_8="13000.00000" pt_clust_9="27.15201"></scales>
<clustering>
<clus scale="   27.152">  1  9  2 -1</clus>
<clus scale="   80.105">  5  6 -1 -1</clus>
<clus scale="   82.527">  1  5  2 -1</clus>
<clus scale="   92.249">  7  8 -1 -1</clus>
<clus scale="   27.152">  1  5  2 -1</clus>
</clustering>
</event>
<event>
 9    2  0.1592151E-004  0.1057095E+03  0.7546771E-02  0.1272508E+00
         -1   -1    0    0    0  501 -0.00000000000E+00  0.00000000000E+00  0.23164957139E+03  0.23164957139E+03  0.00000000000E+00 0.  1.
         21   -1    0    0  501  502  0.00000000000E+00 -0.00000000000E+00 -0.13610270613E+03  0.13610270613E+03  0.00000000000E+00 0.  1.
         23    2    1    2    0    0 -0.16105512076E+02  0.64362245291E+02  0.16718469769E+03  0.20127645554E+03  0.90330516848E+02 0.  0.
         24    2    1    2    0    0  0.31136721646E+02 -0.66988382436E+01 -0.25569677713E+02  0.91154638691E+02  0.81492268761E+02 0.  0.
        -11    1    4    4    0    0  0.57625274094E+02  0.23797424014E+01 -0.25728805971E+02  0.63153043038E+02  0.00000000000E+00 0.  1.
         12    1    4    4    0    0 -0.26488552448E+02 -0.90785806450E+01  0.15912825785E+00  0.28001595653E+02  0.00000000000E+00 0. -1.
        -11    1    3    3    0    0  0.64529656641E+01  0.29010356848E+02  0.15468927599E+03  0.15751829632E+03  0.00000000000E+00 0.  1.
         11    1    3    3    0    0 -0.22558477741E+02  0.35351888443E+02  0.12495421701E+02  0.43758159215E+02  0.00000000000E+00 0. -1.
         -2    1    1    2    0  502 -0.15031209569E+02 -0.57663407047E+02 -0.46068154718E+02  0.75321183292E+02  0.00000000000E+00 0.  1.
<scales pt_clust_5="13000.00000" pt_clust_6="13000.00000" pt_clust_7="13000.00000" pt_clust_8="13000.00000" pt_clust_9="59.59032"></scales>
<clustering>
<clus scale="   59.590">  2  9  1 -1</clus>
<clus scale="   81.492">  5  6 -1 -1</clus>
<clus scale="   90.331">  7  8 -1 -1</clus>
<clus scale="   98.264">  2  5  1 -1</clus>
<clus scale="   59.590">  2  5  1 -1</clus>
</clustering>
</event>
<event>
 9    2  0.1592151E-004  0.1042037E+03  0.7546771E-02  0.1276038E+00
          4   -1    0    0  502    0 -0.00000000000E+00  0.00000000000E+00  0.53052004859E+02  0.53052004859E+02  0.00000000000E+00 0. -1.
         21   -1    0    0  501  502  0.00000000000E+00 -0.00000000000E+00 -0.71745602957E+03  0.71745602957E+03  0.00000000000E+00 0. -1.
         24    2    1    2    0    0  0.47028197283E+02 -0.80129650596E+01 -0.18612892972E+02  0.95486821467E+02  0.80594257490E+02 0.  0.
         23    2    1    2    0    0 -0.64236570743E+02  0.65909477261E+02 -0.34718865396E+03  0.37037129260E+03  0.90357826051E+02 0.  0.
        -13    1    3    3    0    0 -0.16958552692E+02 -0.22375875428E+02 -0.56273936880E+01  0.28634592197E+02  0.00000000000E+00 0.  1.
         14    1    3    3    0    0  0.63986749976E+02  0.14362910368E+02 -0.12985499284E+02  0.66852229270E+02  0.00000000000E+00 0. -1.
        -13    1    4    4    0    0 -0.41857932063E+02 -0.11767753439E+02 -0.17234258568E+03  0.17774288547E+03  0.00000000000E+00 0.  1.
         13    1    4    4    0    0 -0.22378638679E+02  0.77677230700E+02 -0.17484606828E+03  0.19262840713E+03  0.00000000000E+00 0. -1.
          3    1    1    2  501    0  0.17208373460E+02 -0.57896512201E+02 -0.29860247778E+03  0.30464992037E+03  0.00000000000E+00 0. -1.
<scales pt_clust_5="13000.00000" pt_clust_6="13000.00000" pt_clust_7="13000.00000" pt_clust_8="13000.00000" pt_clust_9="60.39979"></scales>
<clustering>
<clus scale="   60.400">  2  9  1 -1</clus>
<clus scale="   80.594">  5  6 -1 -1</clus>
<clus scale="   90.358">  7  8 -1 -1</clus>
<clus scale="   95.861">  1  5  2 -1</clus>
<clus scale="   60.400">  2  5  1 -1</clus>
</clustering>
</event>
<event>
 9    2  0.1592151E-004  0.2520719E+03  0.7546771E-02  0.1153892E+00
         21   -1    0    0  501  502  0.00000000000E+00  0.00000000000E+00  0.15884117560E+03  0.15884117560E+03  0.00000000000E+00 0. -1.
          2   -1    0    0  502    0 -0.00000000000E+00 -0.00000000000E+00 -0.55897750252E+03  0.55897750252E+03  0.00000000000E+00 0. -1.
         24    2    1    2    0    0 -0.28667793290E+02  0.27089047605E+02 -0.34710023179E+02  0.96985522881E+02  0.81521451576E+02 0.  0.
         23    2    1    2    0    0  0.55898679105E+02  0.21953856468E+03 -0.12221716182E+03  0.27338907773E+03  0.92101625803E+02 0.  0.
        -13    1    3    3    0    0  0.25242354125E+02 -0.74995082305E+01 -0.73883468119E+01  0.27349711773E+02  0.00000000000E+00 0.  1.
         14    1    3    3    0    0 -0.53910147415E+02  0.34588555836E+02 -0.27321676367E+02  0.69635811107E+02  0.00000000000E+00 0. -1.
        -13    1    4    4    0    0  0.19479827452E+02  0.19288258715E+02  0.11639924178E+02  0.29782351094E+02  0.00000000000E+00 0.  1.
         13    1    4    4    0    0  0.36418851653E+02  0.20025030596E+03 -0.13385708599E+03  0.24360672664E+03  0.00000000000E+00 0. -1.
          1    1    1    2  501    0 -0.27230885815E+02 -0.24662761228E+03 -0.24320914193E+03  0.34744407751E+03  0.00000000000E+00 0. -1.
<scales pt_clust_5="13000.00000" pt_clust_6="13000.00000" pt_clust_7="13000.00000" pt_clust_8="13000.00000" pt_clust_9="234.64354"></scales>
<clustering>
<clus scale="   81.521">  5  6 -1 -1</clus>
<clus scale="   90.562">  2  5  1 -1</clus>
<clus scale="   92.102">  7  8 -1 -1</clus>
<clus scale="  234.644">  1  9  2 -1</clus>
<clus scale="  234.644">  1  5  2 -1</clus>
</clustering>
</event>
<event>
 9    2  0.1592151E-004  0.1012990E+03  0.7546771E-02  0.1282554E+00
          2   -1    0    0  502    0 -0.00000000000E+00  0.00000000000E+00  0.84528198104E+03  0.84528198104E+03  0.00000000000E+00 0. -1.
         21   -1    0    0  501  502  0.00000000000E+00 -0.00000000000E+00 -0.18654601430E+02  0.18654601430E+02  0.00000000000E+00 0.  1.
         23    2    1    2    0    0 -0.16236049780E+01  0.33329001543E+02  0.51118673938E+03  0.52043633468E+03  0.91807611394E+02 0.  0.
         24    2    1    2    0    0 -0.78023928040E+01 -0.63463878348E+02  0.25587300841E+03  0.27608168213E+03  0.81618365491E+02 0.  0.
        -13    1    4    4    0    0 -0.52694425614E+01 -0.39316199372E+02  0.32191985463E+02  0.51086734932E+02  0.00000000000E+00 0.  1.
         14    1    4    4    0    0 -0.25329502426E+01 -0.24147678976E+02  0.22368102295E+03  0.22499494720E+03  0.00000000000E+00 0. -1.
        -13    1    3    3    0    0 -0.46342587330E+02  0.21867416788E+02  0.28838079561E+03  0.29289810958E+03  0.00000000000E+00 0.  1.
         13    1    3    3    0    0  0.44718982352E+02  0.11461584754E+02  0.22280594376E+03  0.22753822510E+03  0.00000000000E+00 0. -1.
          1    1    1    2  501    0  0.94259977820E+01  0.30134876805E+02  0.59567631822E+02  0.67418565656E+02  0.00000000000E+00 0. -1.
<scales pt_clust_5="13000.00000" pt_clust_6="13000.00000" pt_clust_7="13000.00000" pt_clust_8="13000.00000" pt_clust_9="31.57468"></scales>
<clustering>
<clus scale="   31.575">  2  9  1 -1</clus>
<clus scale="   81.618">  5  6 -1 -1</clus>
<clus scale="   91.808">  7  8 -1 -1</clus>
<clus scale="   92.165">  2  5  1 -1</clus>
<clus scale="   31.575">  2  5  1 -1</clus>
</clustering>
</event>
<event>
 9    2  0.1592151E-004  0.1716547E+03  0.7546771E-02  0.1179289E+00
          2   -1    0    0  502    0 -0.00000000000E+00  0.00000000000E+00  0.48435837242E+03  0.48435837242E+03  0.00000000000E+00 0. -1.
         21   -1    0    0  501  502  0.00000000000E+00 -0.00000000000E+00 -0.24386151653E+03  0.24386151653E+03  0.00000000000E+00 0. -1.
         23    2    1    2    0    0 -0.40510166163E+02  0.14889225564E+03 -0.29156115170E+02  0.18410886930E+03  0.96104210885E+02 0.  0.
         24    2    1    2    0    0  0.16152021329E+03 -0.52588194174E+02 -0.47832619107E+02  0.19096090465E+03  0.72964444675E+02 0.  0.
        -11    1    4    4    0    0  0.46541920812E+02 -0.58345722998E+00  0.16414540859E+02  0.49355120979E+02  0.00000000000E+00 0.  1.
         12    1    4    4    0    0  0.11497829248E+03 -0.52004736944E+02 -0.64247159966E+02  0.14160578367E+03  0.00000000000E+00 0. -1.
        -13    1    3    3    0    0  0.33762903472E+01  0.11298974633E+03  0.12530900246E+02  0.11373260559E+03  0.00000000000E+00 0.  1.
         13    1    3    3    0    0 -0.43886456511E+02  0.35902509310E+02 -0.41687015415E+02  0.70376263712E+02  0.00000000000E+00 0. -1.
          1    1    1    2  501    0 -0.12101004712E+03 -0.96304061467E+02  0.31748559017E+03  0.35315011500E+03  0.00000000000E+00 0. -1.
<scales pt_clust_5="13000.00000" pt_clust_6="13000.00000" pt_clust_7="13000.00000" pt_clust_8="13000.00000" pt_clust_9="154.65422"></scales>
<clustering>
<clus scale="   72.964">  5  6 -1 -1</clus>
<clus scale="   96.104">  7  8 -1 -1</clus>
<clus scale="  154.654">  2  9  1 -1</clus>
<clus scale="  159.853">  2  5  1 -1</clus>
<clus scale="  154.654">  2  5  1 -1</clus>
</clustering>
</event>
<event>
 9    2  0.1592151E-004  0.1396378E+03  0.7546771E-02  0.1232047E+00
         21   -1    0    0  501  502  0.00000000000E+00  0.00000000000E+00  0.28141464757E+03  0.28141464757E+03  0.00000000000E+00 0. -1.
          2   -1    0    0  502    0 -0.00000000000E+00 -0.00000000000E+00 -0.14769318183E+03  0.14769318183E+03  0.00000000000E+00 0. -1.
         23    2    1    2    0    0 -0.97731902693E+01 -0.32250956736E+02 -0.31586584247E+02  0.10049863179E+03  0.89255942263E+02 0.  0.
         24    2    1    2    0    0  0.11660457697E+03  0.36348345920E+01  0.16534130390E+03  0.21801159936E+03  0.81126267581E+02 0.  0.
        -11    1    4    4    0    0  0.16154954263E+02 -0.21773914246E+02  0.77729828231E+02  0.82322609809E+02  0.00000000000E+00 0.  1.
         12    1    4    4    0    0  0.10044962270E+03  0.25408748838E+02  0.87611475665E+02  0.13568898956E+03  0.00000000000E+00 0. -1.
        -11    1    3    3    0    0  0.24104272256E+02  0.17860712683E+02  0.40819773606E+01  0.30276782156E+02  0.00000000000E+00 0.  1.
         11    1    3    3    0    0 -0.33877462526E+02 -0.50111669419E+02 -0.35668561607E+02  0.70221849636E+02  0.00000000000E+00 0. -1.
          1    1    1    2  501    0 -0.10683138670E+03  0.28616122144E+02 -0.33253911416E-01  0.11059759824E+03  0.00000000000E+00 0. -1.
<scales pt_clust_5="13000.00000" pt_clust_6="13000.00000" pt_clust_7="13000.00000" pt_clust_8="13000.00000" pt_clust_9="113.65409"></scales>
<clustering>
<clus scale="   81.126">  5  6 -1 -1</clus>
<clus scale="   89.256">  7  8 -1 -1</clus>
<clus scale="   95.406">  2  7  1 -1</clus>
<clus scale="  113.654">  1  9  2 -1</clus>
<clus scale="  113.654">  1  5  2 -1</clus>
</clustering>
</event>
<event>
 9    2  0.1592151E-004  0.1303589E+03  0.7546771E-02  0.1228884E+00
         21   -1    0    0  501  502  0.00000000000E+00  0.00000000000E+00  0.13688993999E+03  0.13688993999E+03  0.00000000000E+00 0.  1.
          2   -1    0    0  502    0 -0.00000000000E+00 -0.00000000000E+00 -0.77432834214E+03  0.77432834214E+03  0.00000000000E+00 0. -1.
         24    2    1    2    0    0  0.73202045807E+02  0.53385678584E+02 -0.68541526451E+03  0.69652496792E+03  0.84524410239E+02 0.  0.
         23    2    1    2    0    0 -0.75776418497E+02 -0.89985523458E+02 -0.59338451797E+01  0.14948180888E+03  0.92033366968E+02 0.  0.
        -13    1    3    3    0    0  0.37337011732E+02  0.26069141258E+02 -0.10611568680E+03  0.11547376999E+03  0.00000000000E+00 0.  1.
         14    1    3    3    0    0  0.35865034075E+02  0.27316537326E+02 -0.57929957771E+03  0.58105119793E+03  0.00000000000E+00 0. -1.
        -11    1    4    4    0    0 -0.57504830582E+02 -0.10822076320E+03 -0.11452995362E+02  0.12308415914E+03  0.00000000000E+00 0. -1.
         11    1    4    4    0    0 -0.18271587915E+02  0.18235239740E+02  0.55191501826E+01  0.26397649745E+02  0.00000000000E+00 0.  1.
          1    1    1    2  501    0  0.25743726897E+01  0.36599844874E+02  0.53910707545E+02  0.65211505331E+02  0.00000000000E+00 0. -1.
<scales pt_clust_5="13000.00000" pt_clust_6="13000.00000" pt_clust_7="13000.00000" pt_clust_8="13000.00000" pt_clust_9="36.69027"></scales>
<clustering>
<clus scale="   36.690">  1  9  2 -1</clus>
<clus scale="   84.524">  5  6 -1 -1</clus>
<clus scale="   92.033">  7  8 -1 -1</clus>
<clus scale="  125.171">  2  5  1 -1</clus>
<clus scale="   36.690">  1  5  2 -1</clus>
</clustering>
</event>
<event>
 9    2  0.1592151E-004  0.1199813E+03  0.7546771E-02  0.1245377E+00
         -1   -1    0    0    0  501 -0.00000000000E+00  0.00000000000E+00  0.13323778615E+03  0.13323778615E+03  0.00000000000E+00 0.  1.
         21   -1    0    0  501  502  0.00000000000E+00 -0.00000000000E+00 -0.62126273625E+03  0.62126273625E+03  0.00000000000E+00 0.  1.
         24    2    1    2    0    0 -0.55008341195E+01 -0.83839164634E+02  0.88124965416E+02  0.14583132362E+03  0.80258960352E+02 0.  0.
         23    2    1    2    0    0 -0.61137335524E+02  0.59968996596E+02 -0.31239413411E+03  0.33558030702E+03  0.87692605651E+02 0.  0.
        -11    1    3    3    0    0  0.18539624653E+01 -0.87511640609E+02  0.99033714042E+02  0.13217186136E+03  0.00000000000E+00 0.  1.
         12    1    3    3    0    0 -0.73547965848E+01  0.36724759756E+01 -0.10908748626E+02  0.13659462258E+02  0.00000000000E+00 0. -1.
        -11    1    4    4    0    0 -0.11504778540E+02  0.67773173849E+02 -0.13924640453E+03  0.15529045108E+03  0.00000000000E+00 0. -1.
         11    1    4    4    0    0 -0.49632556985E+02 -0.78041772531E+01 -0.17314772958E+03  0.18028985594E+03  0.00000000000E+00 0.  1.
         -2    1    1    2    0  502  0.66638169644E+02  0.23870168038E+02 -0.26375578141E+03  0.27308889176E+03  0.00000000000E+00 0.  1.
<scales pt_clust_5="13000.00000" pt_clust_6="13000.00000" pt_clust_7="13000.00000" pt_clust_8="13000.00000" pt_clust_9="70.78440"></scales>
<clustering>
<clus scale="   70.784">  2  9  1 -1</clus>
<clus scale="   80.259">  5  6 -1 -1</clus>
<clus scale="   87.693">  7  8 -1 -1</clus>
<clus scale="  114.660">  1  5  2 -1</clus>
<clus scale="   70.784">  2  5  1 -1</clus>
</clustering>
</event>
<event>
 9    2  0.1592151E-004  0.2020768E+03  0.7546771E-02  0.1148943E+00
          2   -1    0    0  502    0 -0.00000000000E+00  0.00000000000E+00  0.15865333964E+04  0.15865333964E+04  0.00000000000E+00 0. -1.
         21   -1    0    0  501  502  0.00000000000E+00 -0.00000000000E+00 -0.76440803574E+02  0.76440803574E+02  0.00000000000E+00 0. -1.
         24    2    1    2    0    0  0.75564536634E+02  0.13855993672E+03  0.47449125641E+03  0.50650162403E+03  0.80579696463E+02 0.  0.
         23    2    1    2    0    0 -0.22933771485E+03 -0.15129173826E+03  0.35219563842E+03  0.45586452777E+03  0.91025943744E+02 0.  0.
        -11    1    3    3    0    0  0.39333580707E+02  0.21228257850E+02  0.21263405119E+03  0.21728094538E+03  0.00000000000E+00 0.  1.
         12    1    3    3    0    0  0.36230955927E+02  0.11733167887E+03  0.26185720522E+03  0.28922067865E+03  0.00000000000E+00 0. -1.
        -13    1    4    4    0    0 -0.12759511137E+03 -0.12097679953E+03  0.26723248108E+03  0.31988919553E+03  0.00000000000E+00 0. -1.
         13    1    4    4    0    0 -0.10174260348E+03 -0.30314938731E+02  0.84963157344E+02  0.13597533224E+03  0.00000000000E+00 0.  1.
          1    1    1    2  501    0  0.15377317822E+03  0.12731801549E+02  0.68340569803E+03  0.70060804821E+03  0.00000000000E+00 0. -1.
<scales pt_clust_5="13000.00000" pt_clust_6="13000.00000" pt_clust_7="13000.00000" pt_clust_8="13000.00000" pt_clust_9="154.29943"></scales>
<clustering>
<clus scale="   80.580">  5  6 -1 -1</clus>
<clus scale="   91.026">  7  8 -1 -1</clus>
<clus scale="  154.299">  2  9  1 -1</clus>
<clus scale="  197.591">  1  5  2 -1</clus>
<clus scale="  154.299">  2  5  1 -1</clus>
</clustering>
</event>
<event>
 9    2  0.1592151E-004  0.1812709E+03  0.7546771E-02  0.1170890E+00
         21   -1    0    0  501  502  0.00000000000E+00  0.00000000000E+00  0.75152597138E+02  0.75152597138E+02  0.00000000000E+00 0. -1.
         -1   -1    0    0    0  501 -0.00000000000E+00 -0.00000000000E+00 -0.64034840550E+03  0.64034840550E+03  0.00000000000E+00 0.  1.
         23    2    1    2    0    0 -0.13851572795E+03 -0.37901711814E+02 -0.41185809210E+03  0.44969075769E+03  0.10941454601E+03 0.  0.
         24    2    1    2    0    0  0.15063074296E+03 -0.35108694292E+01 -0.14190435195E+03  0.22117284702E+03  0.77965609265E+02 0.  0.
        -13    1    4    4    0    0  0.53122918930E+02 -0.36359628110E+02 -0.37085867263E+02  0.74292857144E+02  0.00000000000E+00 0.  1.
         14    1    4    4    0    0  0.97507824027E+02  0.32848758681E+02 -0.10481848469E+03  0.14687998988E+03  0.00000000000E+00 0. -1.
        -13    1    3    3    0    0 -0.37484285446E+02 -0.13469195427E+02 -0.20563715384E+02  0.44825854941E+02  0.00000000000E+00 0. -1.
         13    1    3    3    0    0 -0.10103144250E+03 -0.24432516388E+02 -0.39129437671E+03  0.40486490275E+03  0.00000000000E+00 0.  1.
         -2    1    1    2    0  502 -0.12115015009E+02  0.41412581243E+02 -0.11433364307E+02  0.44637397922E+02  0.00000000000E+00 0.  1.
<scales pt_clust_5="13000.00000" pt_clust_6="13000.00000" pt_clust_7="13000.00000" pt_clust_8="13000.00000" pt_clust_9="43.14830"></scales>
<clustering>
<clus scale="   43.148">  1  9  2 -1</clus>
<clus scale="   77.966">  5  6 -1 -1</clus>
<clus scale="  109.415">  7  8 -1 -1</clus>
<clus scale="  164.214">  1  5  2 -1</clus>
<clus scale="   43.148">  1  5  2 -1</clus>
</clustering>
</event>
<event>
 9    2  0.1592151E-004  0.1468500E+03  0.7546771E-02  0.1231857E+00
          2   -1    0    0  502    0 -0.00000000000E+00  0.00000000000E+00  0.20244186464E+03  0.20244186464E+03  0.00000000000E+00 0. -1.
         21   -1    0    0  501  502  0.00000000000E+00 -0.00000000000E+00 -0.17335416522E+03  0.17335416522E+03  0.00000000000E+00 0. -1.
         24    2    1    2    0    0 -0.12011699246E+02  0.59069877422E+01  0.40443488804E+02  0.91745080922E+02  0.81254603954E+02 0.  0.
         23    2    1    2    0    0  0.11163147961E+03  0.49402148335E+02  0.43181304229E+02  0.15772796705E+03  0.90062906090E+02 0.  0.
        -13    1    3    3    0    0 -0.61120567545E+01 -0.30336335685E+02 -0.70231434183E+01  0.31732870089E+02  0.00000000000E+00 0.  1.
         14    1    3    3    0    0 -0.58996424913E+01  0.36243323428E+02  0.47466632222E+02  0.60012210833E+02  0.00000000000E+00 0. -1.
        -13    1    4    4    0    0 -0.54077979681E+01  0.32948479123E+02  0.12158467173E+02  0.35534136818E+02  0.00000000000E+00 0.  1.
         13    1    4    4    0    0  0.11703927758E+03  0.16453669212E+02  0.31022837056E+02  0.12219383023E+03  0.00000000000E+00 0. -1.
          1    1    1    2  501    0 -0.99619780368E+02 -0.55309136077E+02 -0.54537093613E+02  0.12632298189E+03  0.00000000000E+00 0. -1.
<scales pt_clust_5="13000.00000" pt_clust_6="13000.00000" pt_clust_7="13000.00000" pt_clust_8="13000.00000" pt_clust_9="115.98969"></scales>
<clustering>
<clus scale="   81.255">  5  6 -1 -1</clus>
<clus scale="   82.350">  1  5  2 -1</clus>
<clus scale="   90.063">  7  8 -1 -1</clus>
<clus scale="  115.990">  2  9  1 -1</clus>
<clus scale="  115.990">  2  5  1 -1</clus>
</clustering>
</event>
<event>
 9    2  0.1592151E-004  0.9330291E+02  0.7546771E-02  0.1308562E+00
         21   -1    0    0  501  502  0.00000000000E+00  0.00000000000E+00  0.27509487274E+03  0.27509487274E+03  0.00000000000E+00 0. -1.
          2   -1    0    0  502    0 -0.00000000000E+00 -0.00000000000E+00 -0.65834231971E+02  0.65834231971E+02  0.00000000000E+00 0. -1.
         24    2    1    2    0    0  0.84446579041E+01  0.22631103092E+02  0.21074715892E+02  0.76025500823E+02  0.68936594427E+02 0.  0.
         23    2    1    2    0    0  0.50830686679E+02 -0.24554739081E+02  0.17384367691E+03  0.20388748366E+03  0.90342614932E+02 0.  0.
        -13    1    3    3    0    0  0.56245087112E+01  0.33907855371E+02  0.40665782681E+02  0.53245503426E+02  0.00000000000E+00 0.  1.
         14    1    3    3    0    0  0.28201491928E+01 -0.11276752279E+02 -0.19591066789E+02  0.22779997396E+02  0.00000000000E+00 0. -1.
        -11    1    4    4    0    0  0.46792237516E+02  0.60061465425E+01  0.28081645043E+02  0.54901421442E+02  0.00000000000E+00 0.  1.
         11    1    4    4    0    0  0.40384491631E+01 -0.30560885624E+02  0.14576203187E+03  0.14898606222E+03  0.00000000000E+00 0. -1.
          1    1    1    2  501    0 -0.59275344583E+02  0.19236359892E+01  0.14342247968E+02  0.61016120227E+02  0.00000000000E+00 0. -1.
<scales pt_clust_5="13000.00000" pt_clust_6="13000.00000" pt_clust_7="13000.00000" pt_clust_8="13000.00000" pt_clust_9="59.30658"></scales>
<clustering>
<clus scale="   59.307">  1  9  2 -1</clus>
<clus scale="   68.937">  5  6 -1 -1</clus>
<clus scale="   72.773">  2  5  1 -1</clus>
<clus scale="   90.343">  7  8 -1 -1</clus>
<clus scale="   59.307">  1  5  2 -1</clus>
</clustering>
</event>
<event>
 9    2  0.1592151E-004  0.9633378E+02  0.7546771E-02  0.1294242E+00
         -1   -1    0    0    0  501 -0.00000000000E+00  0.00000000000E+00  0.88079931002E+02  0.88079931002E+02  0.00000000000E+00 0.  1.
         21   -1    0    0  501  502  0.00000000000E+00 -0.00000000000E+00 -0.23800256117E+03  0.23800256117E+03  0.00000000000E+00 0.  1.
         24    2    1    2    0    0  0.33185778706E+02 -0.27377772774E+01  0.33008457989E+02  0.92111871723E+02  0.79285858013E+02 0.  0.
         23    2    1    2    0    0 -0.33378911015E+02 -0.26958564961E+02 -0.83788991334E+02  0.13047634329E+03  0.90346915630E+02 0.  0.
        -11    1    3    3    0    0  0.38436890501E+02  0.98024358380E+01  0.54060005154E+02  0.67051968330E+02  0.00000000000E+00 0.  1.
         12    1    3    3    0    0 -0.52511117943E+01 -0.12540213115E+02 -0.21051547165E+02  0.25059903393E+02  0.00000000000E+00 0. -1.
        -11    1    4    4    0    0 -0.35445611388E+02 -0.48509026668E+02 -0.20329468074E+02  0.63425580858E+02  0.00000000000E+00 0.  1.
         11    1    4    4    0    0  0.20667003730E+01  0.21550461707E+02 -0.63459523260E+02  0.67050762431E+02  0.00000000000E+00 0. -1.
         -2    1    1    2    0  502  0.19313230858E+00  0.29696342239E+02 -0.99142096818E+02  0.10349427716E+03  0.00000000000E+00 0.  1.
<scales pt_clust_5="13000.00000" pt_clust_6="13000.00000" pt_clust_7="13000.00000" pt_clust_8="13000.00000" pt_clust_9="29.69697"></scales>
<clustering>
<clus scale="   29.697">  2  9  1 -1</clus>
<clus scale="   79.286">  5  6 -1 -1</clus>
<clus scale="   86.046">  1  5  2 -1</clus>
<clus scale="   90.347">  7  8 -1 -1</clus>
<clus scale="   29.697">  2  5  1 -1</clus>
</clustering>
</event>
<event>
 9    2  0.1592151E-004  0.1200605E+03  0.7546771E-02  0.1246554E+00
         21   -1    0    0  501  502  0.00000000000E+00  0.00000000000E+00  0.25335545430E+02  0.25335545430E+02  0.00000000000E+00 0.  1.
          2   -1    0    0  502    0 -0.00000000000E+00 -0.00000000000E+00 -0.79173920559E+03  0.79173920559E+03  0.00000000000E+00 0. -1.
         23    2    1    2    0    0  0.86948837823E+02 -0.82080612621E+01 -0.48699261596E+03  0.50328485060E+03  0.92229931041E+02 0.  0.
         24    2    1    2    0    0 -0.59815625963E+02 -0.18650990127E+02 -0.17763795291E+03  0.20509131745E+03  0.81126060167E+02 0.  0.
        -11    1    4    4    0    0 -0.15043325440E+02  0.30813185221E+02 -0.77698517848E+02  0.84928285627E+02  0.00000000000E+00 0.  1.
         12    1    4    4    0    0 -0.44772300523E+02 -0.49464175348E+02 -0.99939435058E+02  0.12016303182E+03  0.00000000000E+00 0. -1.
        -13    1    3    3    0    0  0.93726869622E+01  0.26571050835E+02 -0.44286717448E+02  0.52489821353E+02  0.00000000000E+00 0. -1.
         13    1    3    3    0    0  0.77576150861E+02 -0.34779112097E+02 -0.44270589851E+03  0.45079502925E+03  0.00000000000E+00 0.  1.
          1    1    1    2  501    0 -0.27133211860E+02  0.26859051389E+02 -0.10177309130E+03  0.10869858297E+03  0.00000000000E+00 0. -1.
<scales pt_clust_5="13000.00000" pt_clust_6="13000.00000" pt_clust_7="13000.00000" pt_clust_8="13000.00000" pt_clust_9="38.17879"></scales>
<clustering>
<clus scale="   38.179">  1  9  2 -1</clus>
<clus scale="   81.126">  5  6 -1 -1</clus>
<clus scale="   92.230">  7  8 -1 -1</clus>
<clus scale="  111.757">  1  5  2 -1</clus>
<clus scale="   38.179">  1  5  2 -1</clus>
</clustering>
</event>
<event>
 9    2  0.1592151E-004  0.1289069E+03  0.7546771E-02  0.1232608E+00
          2   -1    0    0  502    0 -0.00000000000E+00  0.00000000000E+00  0.12804543907E+04  0.12804543907E+04  0.00000000000E+00 0. -1.
         21   -1    0    0  501  502  0.00000000000E+00 -0.00000000000E+00 -0.29350901135E+02  0.29350901135E+02  0.00000000000E+00 0. -1.
         24    2    1    2    0    0  0.36703976949E+02  0.92764435340E+02  0.72971177962E+03  0.74090317934E+03  0.80658647704E+02 0.  0.
         23    2    1    2    0    0 -0.90759456318E+02 -0.16304244404E+02  0.26111750771E+03  0.29229622681E+03  0.93550115323E+02 0.  0.
        -11    1    3    3    0    0  0.52247855835E+02  0.55026215498E+02  0.30752100493E+03  0.31674420485E+03  0.00000000000E+00 0.  1.
         12    1    3    3    0    0 -0.15543878886E+02  0.37738219843E+02  0.42219077468E+03  0.42415897448E+03  0.00000000000E+00 0. -1.
        -13    1    4    4    0    0 -0.21833216009E+02 -0.25243326801E+02  0.15069093119E+02  0.36619563579E+02  0.00000000000E+00 0. -1.
         13    1    4    4    0    0 -0.68926240309E+02  0.89390823964E+01  0.24604841460E+03  0.25567666323E+03  0.00000000000E+00 0.  1.
          1    1    1    2  501    0  0.54055479369E+02 -0.76460190936E+02  0.26027420220E+03  0.27660588565E+03  0.00000000000E+00 0. -1.
<scales pt_clust_5="13000.00000" pt_clust_6="13000.00000" pt_clust_7="13000.00000" pt_clust_8="13000.00000" pt_clust_9="93.63843"></scales>
<clustering>
<clus scale="   80.659">  5  6 -1 -1</clus>
<clus scale="   93.550">  7  8 -1 -1</clus>
<clus scale="   93.638">  2  9  1 -1</clus>
<clus scale="  119.880">  1  5  2 -1</clus>
<clus scale="   93.638">  2  5  1 -1</clus>
</clustering>
</event>
<event>
 9    2  0.1592151E-004  0.1079962E+03  0.7546771E-02  0.1269197E+00
         21   -1    0    0  501  502  0.00000000000E+00  0.00000000000E+00  0.70906780466E+02  0.70906780466E+02  0.00000000000E+00 0.  1.
         -1   -1    0    0    0  501 -0.00000000000E+00 -0.00000000000E+00 -0.23771047496E+03  0.23771047496E+03  0.00000000000E+00 0.  1.
         23    2    1    2    0    0 -0.13040125999E+02 -0.51292557376E+02 -0.14010196487E+03  0.17587007053E+03  0.92199510963E+02 0.  0.
         24    2    1    2    0    0 -0.53380072572E+01  0.65329983556E+02 -0.32662597232E+02  0.10886545425E+03  0.80550237736E+02 0.  0.
        -11    1    4    4    0    0  0.25040737978E+02  0.34525236345E+02  0.14326824143E+02  0.44992092562E+02  0.00000000000E+00 0.  1.
         12    1    4    4    0    0 -0.30378745235E+02  0.30804747211E+02 -0.46989421374E+02  0.63873361693E+02  0.00000000000E+00 0. -1.
        -13    1    3    3    0    0 -0.26884262947E+02 -0.28719847868E+02 -0.67498974292E+01  0.39914337913E+02  0.00000000000E+00 0.  1.
         13    1    3    3    0    0  0.13844136948E+02 -0.22572709507E+02 -0.13335206744E+03  0.13595573262E+03  0.00000000000E+00 0. -1.
         -2    1    1    2    0  502  0.18378133256E+02 -0.14037426180E+02  0.59608676031E+01  0.23881730639E+02  0.00000000000E+00 0.  1.
<scales pt_clust_5="13000.00000" pt_clust_6="13000.00000" pt_clust_7="13000.00000" pt_clust_8="13000.00000" pt_clust_9="23.12585"></scales>
<clustering>
<clus scale="   23.126">  1  9  2 -1</clus>
<clus scale="   80.550">  5  6 -1 -1</clus>
<clus scale="   92.200">  7  8 -1 -1</clus>
<clus scale="   98.238">  1  5  2 -1</clus>
<clus scale="   23.126">  1  5  2 -1</clus>
</clustering>
</event>
<event>
 9    2  0.1592151E-004  0.1663780E+03  0.7546771E-02  0.1182971E+00
         -3   -1    0    0    0  501 -0.00000000000E+00  0.00000000000E+00  0.33944893989E+02  0.33944893989E+02  0.00000000000E+00 0.  1.
         21   -1    0    0  501  502  0.00000000000E+00 -0.00000000000E+00 -0.17079369619E+04  0.17079369619E+04  0.00000000000E+00 0. -1.
         23    2    1    2    0    0  0.97395632961E+02 -0.10715524559E+03 -0.45814408144E+03  0.48908340194E+03  0.91314942489E+02 0.  0.
         24    2    1    2    0    0 -0.12967266413E+03  0.45326876837E+02 -0.11340420895E+04  0.11452960879E+04  0.82353765347E+02 0.  0.
        -11    1    4    4    0    0 -0.72760064713E+02  0.48123182034E+02 -0.41885800852E+03  0.42784564853E+03  0.00000000000E+00 0.  1.
         12    1    4    4    0    0 -0.56912599414E+02 -0.27963051971E+01 -0.71518408094E+03  0.71745043935E+03  0.00000000000E+00 0. -1.
        -13    1    3    3    0    0  0.42584156810E+02 -0.92177978827E+02 -0.19475884686E+03  0.21963879125E+03  0.00000000000E+00 0. -1.
         13    1    3    3    0    0  0.54811476151E+02 -0.14977266766E+02 -0.26338523458E+03  0.26944461069E+03  0.00000000000E+00 0.  1.
         -4    1    1    2    0  502  0.32277031166E+02  0.61828368756E+02 -0.81805897027E+02  0.10750236608E+03  0.00000000000E+00 0.  1.
<scales pt_clust_5="13000.00000" pt_clust_6="13000.00000" pt_clust_7="13000.00000" pt_clust_8="13000.00000" pt_clust_9="69.74639"></scales>
<clustering>
<clus scale="   69.746">  2  9  1 -1</clus>
<clus scale="   82.354">  5  6 -1 -1</clus>
<clus scale="   91.315">  7  8 -1 -1</clus>
<clus scale="  161.633">  2  5  1 -1</clus>
<clus scale="   69.746">  2  5  1 -1</clus>
</clustering>
</event>
<event>
 9    2  0.1592151E-004  0.1251567E+03  0.7546771E-02  0.1237017E+00
         21   -1    0    0  501  502  0.00000000000E+00  0.00000000000E+00  0.17567977305E+03  0.17567977305E+03  0.00000000000E+00 0.  1.
          4   -1    0    0  502    0 -0.00000000000E+00 -0.00000000000E+00 -0.16610704072E+03  0.16610704072E+03  0.00000000000E+00 0. -1.
         24    2    1    2    0    0 -0.74193616116E+01 -0.71351500586E+02 -0.34923761465E+02  0.11694334267E+03  0.85498495407E+02 0.  0.
         23    2    1    2    0    0  0.56589673159E+02  0.10717879374E+03  0.56381817804E+02  0.16285496088E+03  0.93022276727E+02 0.  0.
        -11    1    3    3    0    0  0.38845680410E+02 -0.25757696053E+02 -0.16166036293E+02  0.49333421956E+02  0.00000000000E+00 0.  1.
         12    1    3    3    0    0 -0.46265042021E+02 -0.45593804533E+02 -0.18757725172E+02  0.67609920712E+02  0.00000000000E+00 0. -1.
        -11    1    4    4    0    0  0.59802291193E+02  0.79166116121E+02  0.78906082309E+02  0.12676654842E+03  0.00000000000E+00 0.  1.
         11    1    4    4    0    0 -0.32126180331E+01  0.28012677616E+02 -0.22524264505E+02  0.36088412452E+02  0.00000000000E+00 0. -1.
          3    1    1    2  501    0 -0.49170311548E+02 -0.35827293151E+02 -0.11885324010E+02  0.61988510218E+02  0.00000000000E+00 0. -1.
<scales pt_clust_5="13000.00000" pt_clust_6="13000.00000" pt_clust_7="13000.00000" pt_clust_8="13000.00000" pt_clust_9="60.83846"></scales>
<clustering>
<clus scale="   60.838">  1  9  2 -1</clus>
<clus scale="   85.498">  5  6 -1 -1</clus>
<clus scale="   93.022">  7  8 -1 -1</clus>
<clus scale="  119.671">  2  5  1 -1</clus>
<clus scale="   60.838">  1  5  2 -1</clus>
</clustering>
</event>
<event>
 9    2  0.1592151E-004  0.1221710E+03  0.7546771E-02  0.1243806E+00
          2   -1    0    0  502    0 -0.00000000000E+00  0.00000000000E+00  0.73216070174E+03  0.73216070174E+03  0.00000000000E+00 0. -1.
         21   -1    0    0  501  502  0.00000000000E+00 -0.00000000000E+00 -0.53821214739E+02  0.53821214739E+02  0.00000000000E+00 0. -1.
         24    2    1    2    0    0 -0.22269053455E+02  0.90107673046E+02  0.56264072625E+03  0.57584951669E+03  0.80142220794E+02 0.  0.
         23    2    1    2    0    0  0.12549420651E+02 -0.35349524946E+02  0.11697000891E+03  0.15450379099E+03  0.93714254915E+02 0.  0.
        -13    1    3    3    0    0  0.22224466500E+02  0.29629696813E+00  0.11449498287E+03  0.11663239603E+03  0.00000000000E+00 0.  1.
         14    1    3    3    0    0 -0.44493519954E+02  0.89811376077E+02  0.44814574339E+03  0.45921712066E+03  0.00000000000E+00 0. -1.
        -13    1    4    4    0    0  0.18979614080E+02 -0.66482881158E+02  0.81286656720E+02  0.10671325971E+03  0.00000000000E+00 0.  1.
         13    1    4    4    0    0 -0.64301934297E+01  0.31133356212E+02  0.35683352187E+02  0.47790531279E+02  0.00000000000E+00 0. -1.
          1    1    1    2  501    0  0.97196328038E+01 -0.54758148100E+02 -0.12712481544E+01  0.55628608800E+02  0.00000000000E+00 0. -1.
<scales pt_clust_5="13000.00000" pt_clust_6="13000.00000" pt_clust_7="13000.00000" pt_clust_8="13000.00000" pt_clust_9="55.61408"></scales>
<clustering>
<clus scale="   55.614">  2  9  1 -1</clus>
<clus scale="   80.142">  5  6 -1 -1</clus>
<clus scale="   93.714">  7  8 -1 -1</clus>
<clus scale="  112.099">  1  5  2 -1</clus>
<clus scale="   55.614">  2  5  1 -1</clus>
</clustering>
</event>
<event>
 9    2  0.1592151E-004  0.1034436E+03  0.7546771E-02  0.1278544E+00
         21   -1    0    0  501  502  0.00000000000E+00  0.00000000000E+00  0.26652556823E+02  0.26652556823E+02  0.00000000000E+00 0. -1.
          2   -1    0    0  502    0 -0.00000000000E+00 -0.00000000000E+00 -0.88899773157E+03  0.88899773157E+03  0.00000000000E+00 0. -1.
         23    2    1    2    0    0 -0.75192072069E+01  0.29113902404E+02 -0.29069379390E+03  0.30621414640E+03  0.91433384805E+02 0.  0.
         24    2    1    2    0    0  0.43426378707E+02 -0.77164208846E+02 -0.19912359947E+03  0.23210988420E+03  0.79903848378E+02 0.  0.
        -13    1    4    4    0    0  0.21792701944E+02 -0.85509017126E+02 -0.18497956864E+03  0.20494915145E+03  0.00000000000E+00 0.  1.
         14    1    4    4    0    0  0.21633676763E+02  0.83448082803E+01 -0.14144030834E+02  0.27160732754E+02  0.00000000000E+00 0. -1.
        -11    1    3    3    0    0  0.10199710955E+02  0.59726635434E+02 -0.17188306968E+03  0.18225008841E+03  0.00000000000E+00 0.  1.
         11    1    3    3    0    0 -0.17718918162E+02 -0.30612733030E+02 -0.11881072421E+03  0.12396405799E+03  0.00000000000E+00 0. -1.
          1    1    1    2  501    0 -0.35907171500E+02  0.48050306442E+02 -0.37252778138E+03  0.37732625778E+03  0.00000000000E+00 0. -1.
<scales pt_clust_5="13000.00000" pt_clust_6="13000.00000" pt_clust_7="13000.00000" pt_clust_8="13000.00000" pt_clust_9="59.98467"></scales>
<clustering>
<clus scale="   59.985">  1  9  2 -1</clus>
<clus scale="   79.904">  5  6 -1 -1</clus>
<clus scale="   91.433">  7  8 -1 -1</clus>
<clus scale="   93.408">  1  5  2 -1</clus>
<clus scale="   59.985">  1  5  2 -1</clus>
</clustering>
</event>
<event>
 9    2  0.1592151E-004  0.1936744E+03  0.7546771E-02  0.1156669E+00
         21   -1    0    0  501  502  0.00000000000E+00  0.00000000000E+00  0.12944094113E+03  0.12944094113E+03  0.00000000000E+00 0. -1.
          2   -1    0    0  502    0 -0.00000000000E+00 -0.00000000000E+00 -0.42552253669E+03  0.42552253669E+03  0.00000000000E+00 0. -1.
         23    2    1    2    0    0  0.91125105347E+02 -0.17006276224E+03 -0.22799007514E+03  0.31221099881E+03  0.90945618303E+02 0.  0.
         24    2    1    2    0    0 -0.92228080817E+02  0.11337689225E+03 -0.82610064631E+02  0.18422648020E+03  0.75859308210E+02 0.  0.
        -13    1    4    4    0    0 -0.75812582099E+02  0.76599513835E+02 -0.93310264091E+02  0.14255468603E+03  0.00000000000E+00 0.  1.
         14    1    4    4    0    0 -0.16415498717E+02  0.36777378412E+02  0.10700199459E+02  0.41671794172E+02  0.00000000000E+00 0. -1.
        -13    1    3    3    0    0  0.71099626742E+02 -0.71949372625E+02 -0.62866403506E+02  0.11909682546E+03  0.00000000000E+00 0.  1.
         13    1    3    3    0    0  0.20025478605E+02 -0.98113389617E+02 -0.16512367163E+03  0.19311417335E+03  0.00000000000E+00 0. -1.
          1    1    1    2  501    0  0.11029754692E+01  0.56685869995E+02  0.14518544208E+02  0.58525998820E+02  0.00000000000E+00 0. -1.
<scales pt_clust_5="13000.00000" pt_clust_6="13000.00000" pt_clust_7="13000.00000" pt_clust_8="13000.00000" pt_clust_9="56.69660"></scales>
<clustering>
<clus scale="   56.697">  1  9  2 -1</clus>
<clus scale="   75.859">  5  6 -1 -1</clus>
<clus scale="   90.946">  7  8 -1 -1</clus>
<clus scale="  187.065">  1  5  2 -1</clus>
<clus scale="   56.697">  1  5  2 -1</clus>
</clustering>
</event>
<event>
 9    2  0.1592151E-004  0.1129953E+03  0.7546771E-02  0.1259955E+00
         21   -1    0    0  501  502  0.00000000000E+00  0.00000000000E+00  0.76529738834E+02  0.76529738834E+02  0.00000000000E+00 0. -1.
         -1   -1    0    0    0  501 -0.00000000000E+00 -0.00000000000E+00 -0.23463286757E+03  0.23463286757E+03  0.00000000000E+00 0.  1.
         23    2    1    2    0    0  0.49872170190E+02  0.65618506684E+02 -0.11942449533E+03  0.17245077581E+03  0.93188187103E+02 0.  0.
         24    2    1    2    0    0 -0.31317404690E+02 -0.27413278278E+02 -0.29767207158E+02  0.95314453733E+02  0.80414493756E+02 0.  0.
        -13    1    4    4    0    0 -0.27305997881E+02  0.11138094903E+02 -0.44889142007E+02  0.53709494025E+02  0.00000000000E+00 0.  1.
         14    1    4    4    0    0 -0.40114068092E+01 -0.38551373182E+02  0.15121934849E+02  0.41604959708E+02  0.00000000000E+00 0. -1.
        -11    1    3    3    0    0  0.36505223201E+02  0.14389521599E+02  0.27122700642E+01  0.39332506425E+02  0.00000000000E+00 0. -1.
         11    1    3    3    0    0  0.13366946989E+02  0.51228985085E+02 -0.12213676539E+03  0.13311826939E+03  0.00000000000E+00 0.  1.
         -2    1    1    2    0  502 -0.18554765500E+02 -0.38205228406E+02 -0.89114262522E+01  0.43397376858E+02  0.00000000000E+00 0.  1.
<scales pt_clust_5="13000.00000" pt_clust_6="13000.00000" pt_clust_7="13000.00000" pt_clust_8="13000.00000" pt_clust_9="42.47257"></scales>
<clustering>
<clus scale="   42.473">  1  9  2 -1</clus>
<clus scale="   80.414">  5  6 -1 -1</clus>
<clus scale="   93.188">  7  8 -1 -1</clus>
<clus scale="  102.715">  1  5  2 -1</clus>
<clus scale="   42.473">  1  5  2 -1</clus>
</clustering>
</event>
<event>
 9    2  0.1592151E-004  0.1409167E+03  0.7546771E-02  0.1236414E+00
         21   -1    0    0  501  502  0.00000000000E+00  0.00000000000E+00  0.10172448027E+03  0.10172448027E+03  0.00000000000E+00 0.  1.
         -1   -1    0    0    0  501 -0.00000000000E+00 -0.00000000000E+00 -0.44089928795E+03  0.44089928795E+03  0.00000000000E+00 0.  1.
         24    2    1    2    0    0 -0.26358938986E+02  0.73691632371E+01  0.30091768101E+02  0.90056173234E+02  0.80346136179E+02 0.  0.
         23    2    1    2    0    0  0.12327450536E+03 -0.15065518051E+02 -0.28002500204E+03  0.32059820700E+03  0.94581367390E+02 0.  0.
        -13    1    3    3    0    0  0.52919950927E+01  0.36203103824E+02  0.29882286167E+02  0.47240035617E+02  0.00000000000E+00 0.  1.
         14    1    3    3    0    0 -0.31650934078E+02 -0.28833940587E+02  0.20948193452E+00  0.42816137618E+02  0.00000000000E+00 0. -1.
        -13    1    4    4    0    0 -0.32245826285E+01 -0.25492222766E+02 -0.76874626408E+02  0.81055286934E+02  0.00000000000E+00 0. -1.
         13    1    4    4    0    0  0.12649908799E+03  0.10426704715E+02 -0.20315037563E+03  0.23954292006E+03  0.00000000000E+00 0.  1.
         -2    1    1    2    0  502 -0.96915566377E+02  0.76963548142E+01 -0.89241573746E+02  0.13196938800E+03  0.00000000000E+00 0.  1.
<scales pt_clust_5="13000.00000" pt_clust_6="13000.00000" pt_clust_7="13000.00000" pt_clust_8="13000.00000" pt_clust_9="104.46000"></scales>
<clustering>
<clus scale="   80.346">  5  6 -1 -1</clus>
<clus scale="   84.880">  2  5  1 -1</clus>
<clus scale="   94.581">  7  8 -1 -1</clus>
<clus scale="  104.460">  1  9  2 -1</clus>
<clus scale="  104.460">  1  5  2 -1</clus>
</clustering>
</event>
<event>
 9    2  0.1592151E-004  0.1055560E+03  0.7546771E-02  0.1271303E+00
         21   -1    0    0  501  502  0.00000000000E+00  0.00000000000E+00  0.11508114583E+03  0.11508114583E+03  0.00000000000E+00 0. -1.
         -1   -1    0    0    0  501 -0.00000000000E+00 -0.00000000000E+00 -0.30824195594E+03  0.30824195594E+03  0.00000000000E+00 0.  1.
         24    2    1    2    0    0  0.17649729481E+02 -0.50343680906E+02 -0.25338986770E+03  0.27310127858E+03  0.86786428367E+02 0.  0.
         23    2    1    2    0    0  0.15252520377E+02  0.45639143559E+02  0.39862993635E+02  0.11124147842E+03  0.92032806414E+02 0.  0.
        -11    1    3    3    0    0 -0.92662939191E+01 -0.50325841761E+02 -0.23499017675E+03  0.24049727175E+03  0.00000000000E+00 0.  1.
         12    1    3    3    0    0  0.26916023400E+02 -0.17839145719E-01 -0.18399690954E+02  0.32604006826E+02  0.00000000000E+00 0. -1.
        -11    1    4    4    0    0  0.46933971135E+02  0.42765233791E+02  0.44688934002E+01  0.63652445954E+02  0.00000000000E+00 0. -1.
         11    1    4    4    0    0 -0.31681450758E+02  0.28739097683E+01  0.35394100235E+02  0.47589032465E+02  0.00000000000E+00 0.  1.
         -2    1    1    2    0  502 -0.32902249858E+02  0.47045373471E+01  0.20366063952E+02  0.38980344769E+02  0.00000000000E+00 0.  1.
<scales pt_clust_5="13000.00000" pt_clust_6="13000.00000" pt_clust_7="13000.00000" pt_clust_8="13000.00000" pt_clust_9="33.23689"></scales>
<clustering>
<clus scale="   33.237">  1  9  2 -1</clus>
<clus scale="   86.786">  5  6 -1 -1</clus>
<clus scale="   92.033">  7  8 -1 -1</clus>
<clus scale="  101.014">  2  5  1 -1</clus>
<clus scale="   33.237">  1  5  2 -1</clus>
</clustering>
</event>
<event>
 9    2  0.1592151E-004  0.1025297E+03  0.7546771E-02  0.1282934E+00
         21   -1    0    0  501  502  0.00000000000E+00  0.00000000000E+00  0.12781325481E+03  0.12781325481E+03  0.00000000000E+00 0. -1.
          4   -1    0    0  502    0 -0.00000000000E+00 -0.00000000000E+00 -0.11890506275E+03  0.11890506275E+03  0.00000000000E+00 0. -1.
         24    2    1    2    0    0 -0.71056117272E+01  0.31536443614E+02 -0.15311210824E+02  0.84820198693E+02  0.76909010757E+02 0.  0.
         23    2    1    2    0    0  0.47506328331E+02 -0.47455826971E+02  0.60532498214E+01  0.11482738713E+03  0.92950418267E+02 0.  0.
        -13    1    3    3    0    0 -0.34918339973E+02  0.26381685662E+01  0.11172846182E+02  0.36757079477E+02  0.00000000000E+00 0.  1.
         14    1    3    3    0    0  0.27812728246E+02  0.28898275048E+02 -0.26484057006E+02  0.48063119216E+02  0.00000000000E+00 0. -1.
        -13    1    4    4    0    0 -0.18638733393E+02 -0.11395873003E+02  0.28785224553E+02  0.36136649769E+02  0.00000000000E+00 0. -1.
         13    1    4    4    0    0  0.66145061724E+02 -0.36059953969E+02 -0.22731974732E+02  0.78690737358E+02  0.00000000000E+00 0.  1.
          3    1    1    2  501    0 -0.40400716604E+02  0.15919383357E+02  0.18166153064E+02  0.47070731732E+02  0.00000000000E+00 0. -1.
<scales pt_clust_5="13000.00000" pt_clust_6="13000.00000" pt_clust_7="13000.00000" pt_clust_8="13000.00000" pt_clust_9="43.42401"></scales>
<clustering>
<clus scale="   43.424">  1  9  2 -1</clus>
<clus scale="   76.909">  5  6 -1 -1</clus>
<clus scale="   88.247">  2  5  1 -1</clus>
<clus scale="   92.950">  7  8 -1 -1</clus>
<clus scale="   43.424">  1  5  2 -1</clus>
</clustering>
</event>
<event>
 9    2  0.1592151E-004  0.1462054E+03  0.7546771E-02  0.1225724E+00
          2   -1    0    0  502    0 -0.00000000000E+00  0.00000000000E+00  0.85451406914E+02  0.85451406914E+02  0.00000000000E+00 0. -1.
         21   -1    0    0  501  502  0.00000000000E+00 -0.00000000000E+00 -0.38125951947E+03  0.38125951947E+03  0.00000000000E+00 0.  1.
         24    2    1    2    0    0  0.45774555230E+02 -0.43429086202E+01 -0.76182265788E+02  0.12156513998E+03  0.82826172657E+02 0.  0.
         23    2    1    2    0    0 -0.81370610084E+02  0.10039707816E+03 -0.16682497154E+03  0.22990076467E+03  0.91230701955E+02 0.  0.
        -13    1    3    3    0    0  0.16427935016E+02 -0.21061731940E+02 -0.82927614909E+02  0.87123262771E+02  0.00000000000E+00 0.  1.
         14    1    3    3    0    0  0.29346620215E+02  0.16718823320E+02  0.67453491216E+01  0.34441877214E+02  0.00000000000E+00 0. -1.
        -11    1    4    4    0    0 -0.44373539464E+02  0.86638137311E+02 -0.56097961157E+02  0.11234838266E+03  0.00000000000E+00 0.  1.
         11    1    4    4    0    0 -0.36997070621E+02  0.13758940851E+02 -0.11072701038E+03  0.11755238201E+03  0.00000000000E+00 0. -1.
          1    1    1    2  501    0  0.35596054854E+02 -0.96054169541E+02 -0.52800875225E+02  0.11524502172E+03  0.00000000000E+00 0. -1.
<scales pt_clust_5="13000.00000" pt_clust_6="13000.00000" pt_clust_7="13000.00000" pt_clust_8="13000.00000" pt_clust_9="114.24965"></scales>
<clustering>
<clus scale="   82.826">  5  6 -1 -1</clus>
<clus scale="   91.231">  7  8 -1 -1</clus>
<clus scale="   94.733">  1  5  2 -1</clus>
<clus scale="  114.250">  2  9  1 -1</clus>
<clus scale="  114.250">  2  5  1 -1</clus>
</clustering>
</event>
<event>
 9    2  0.1592151E-004  0.9497474E+02  0.7546771E-02  0.1295120E+00
         21   -1    0    0  501  502  0.00000000000E+00  0.00000000000E+00  0.27208595248E+03  0.27208595248E+03  0.00000000000E+00 0. -1.
         -1   -1    0    0    0  501 -0.00000000000E+00 -0.00000000000E+00 -0.82973756305E+02  0.82973756305E+02  0.00000000000E+00 0.  1.
         24    2    1    2    0    0 -0.24451042353E+02 -0.14369991221E+02 -0.29743777791E+02  0.92749334741E+02  0.83146837930E+02 0.  0.
         23    2    1    2    0    0  0.21850805213E+02  0.40205122606E+02  0.21286995285E+03  0.23566365388E+03  0.90165577469E+02 0.  0.
        -13    1    3    3    0    0 -0.26151304052E+01  0.26313815632E+02 -0.37543993602E+02  0.45921751445E+02  0.00000000000E+00 0.  1.
         14    1    3    3    0    0 -0.21835911947E+02 -0.40683806853E+02  0.78002158113E+01  0.46827583296E+02  0.00000000000E+00 0. -1.
        -13    1    4    4    0    0  0.48968648986E+02  0.27857590943E+02  0.18978574953E+03  0.19797122186E+03  0.00000000000E+00 0. -1.
         13    1    4    4    0    0 -0.27117843774E+02  0.12347531663E+02  0.23084203321E+02  0.37692432026E+02  0.00000000000E+00 0.  1.
         -2    1    1    2    0  502  0.26002371401E+01 -0.25835131385E+02  0.59860211155E+01  0.26646720167E+02  0.00000000000E+00 0.  1.
<scales pt_clust_5="13000.00000" pt_clust_6="13000.00000" pt_clust_7="13000.00000" pt_clust_8="13000.00000" pt_clust_9="25.96567"></scales>
<clustering>
<clus scale="   25.966">  1  9  2 -1</clus>
<clus scale="   83.147">  5  6 -1 -1</clus>
<clus scale="   88.339">  2  5  1 -1</clus>
<clus scale="   90.166">  7  8 -1 -1</clus>
<clus scale="   25.966">  1  5  2 -1</clus>
</clustering>
</event>
<event>
 9    2  0.1592151E-004  0.1020660E+03  0.7546771E-02  0.1292758E+00
         21   -1    0    0  501  502  0.00000000000E+00  0.00000000000E+00  0.18640690508E+03  0.18640690508E+03  0.00000000000E+00 0.  1.
         -1   -1    0    0    0  501 -0.00000000000E+00 -0.00000000000E+00 -0.33441820477E+03  0.33441820477E+03  0.00000000000E+00 0.  1.
         23    2    1    2    0    0  0.32306349395E+02  0.79085244590E+01 -0.26895656336E+03  0.28693599081E+03  0.94278231197E+02 0.  0.
         24    2    1    2    0    0 -0.84049164635E+02  0.26466621222E+02  0.12876923510E+02  0.10923866490E+03  0.63265524855E+02 0.  0.
        -11    1    4    4    0    0 -0.68446880751E+02  0.46562425585E+02  0.12995189325E+02  0.83796837091E+02  0.00000000000E+00 0.  1.
         12    1    4    4    0    0 -0.15602283884E+02 -0.20095804363E+02 -0.11826581496E+00  0.25441827808E+02  0.00000000000E+00 0. -1.
        -11    1    3    3    0    0  0.52157424460E+02  0.32349446972E+02 -0.22253401529E+03  0.23084252556E+03  0.00000000000E+00 0.  1.
         11    1    3    3    0    0 -0.19851075065E+02 -0.24440922513E+02 -0.46422548071E+02  0.56093465251E+02  0.00000000000E+00 0. -1.
         -2    1    1    2    0  502  0.51742815240E+02 -0.34375145680E+02  0.10806834016E+03  0.12465045413E+03  0.00000000000E+00 0.  1.
<scales pt_clust_5="13000.00000" pt_clust_6="13000.00000" pt_clust_7="13000.00000" pt_clust_8="13000.00000" pt_clust_9="62.12061"></scales>
<clustering>
<clus scale="   62.121">  1  9  2 -1</clus>
<clus scale="   63.266">  5  6 -1 -1</clus>
<clus scale="   74.375">  1  5  2 -1</clus>
<clus scale="   94.278">  7  8 -1 -1</clus>
<clus scale="   62.121">  1  5  2 -1</clus>
</clustering>
</event>
<event>
 9    2  0.1592151E-004  0.1088521E+03  0.7546771E-02  0.1271396E+00
          2   -1    0    0  502    0 -0.00000000000E+00  0.00000000000E+00  0.38118435362E+03  0.38118435362E+03  0.00000000000E+00 0. -1.
         21   -1    0    0  501  502  0.00000000000E+00 -0.00000000000E+00 -0.56380806105E+02  0.56380806105E+02  0.00000000000E+00 0.  1.
         23    2    1    2    0    0 -0.45690873148E+01  0.18520874275E+02  0.25148436315E+03  0.26761970870E+03  0.89509911365E+02 0.  0.
         24    2    1    2    0    0  0.25115431844E+02 -0.19894189871E+02  0.90120108904E+02  0.14336897017E+03  0.10680104808E+03 0.  0.
        -13    1    4    4    0    0 -0.19525948835E+02 -0.49166064069E+01 -0.17002842342E+02  0.26353981562E+02  0.00000000000E+00 0.  1.
         14    1    4    4    0    0  0.44641380680E+02 -0.14977583464E+02  0.10712295125E+03  0.11701498861E+03  0.00000000000E+00 0. -1.
        -13    1    3    3    0    0  0.20446679061E+02  0.48192711082E+02  0.13255652044E+03  0.14251959584E+03  0.00000000000E+00 0. -1.
         13    1    3    3    0    0 -0.25015766375E+02 -0.29671836807E+02  0.11892784271E+03  0.12510011287E+03  0.00000000000E+00 0.  1.
          1    1    1    2  501    0 -0.20546344529E+02  0.13733155965E+01 -0.16800924539E+02  0.26576480855E+02  0.00000000000E+00 0. -1.
<scales pt_clust_5="13000.00000" pt_clust_6="13000.00000" pt_clust_7="13000.00000" pt_clust_8="13000.00000" pt_clust_9="20.59219"></scales>
<clustering>
<clus scale="   20.592">  2  9  1 -1</clus>
<clus scale="   89.510">  7  8 -1 -1</clus>
<clus scale="   91.948">  1  7  2 -1</clus>
<clus scale="  106.801">  5  6 -1 -1</clus>
<clus scale="   20.592">  2  5  1 -1</clus>
</clustering>
</event>
<event>
 9    2  0.1592151E-004  0.1497407E+03  0.7546771E-02  0.1210332E+00
         21   -1    0    0  501  502  0.00000000000E+00  0.00000000000E+00  0.15095252847E+03  0.15095252847E+03  0.00000000000E+00 0.  1.
          2   -1    0    0  502    0 -0.00000000000E+00 -0.00000000000E+00 -0.92291457005E+03  0.92291457005E+03  0.00000000000E+00 0. -1.
         24    2    1    2    0    0 -0.71311213853E+02  0.64240212259E+02 -0.76181278781E+03  0.77151255136E+03  0.75238282416E+02 0.  0.
         23    2    1    2    0    0  0.13778093385E+03  0.39540527163E+02  0.41054446196E+02  0.16889862020E+03  0.79336229625E+02 0.  0.
        -13    1    3    3    0    0 -0.30944984321E+02  0.27948030282E+01 -0.81216482036E+02  0.86957000483E+02  0.00000000000E+00 0.  1.
         14    1    3    3    0    0 -0.40366229532E+02  0.61445409231E+02 -0.68059630578E+03  0.68455555088E+03  0.00000000000E+00 0. -1.
        -13    1    4    4    0    0  0.11344934823E+03  0.58927340195E+02  0.15770923635E+02  0.12880958066E+03  0.00000000000E+00 0.  1.
         13    1    4    4    0    0  0.24331585621E+02 -0.19386813032E+02  0.25283522560E+02  0.40089039542E+02  0.00000000000E+00 0. -1.
          1    1    1    2  501    0 -0.66469720000E+02 -0.10378073942E+03 -0.51203699959E+02  0.13345592696E+03  0.00000000000E+00 0. -1.
<scales pt_clust_5="13000.00000" pt_clust_6="13000.00000" pt_clust_7="13000.00000" pt_clust_8="13000.00000" pt_clust_9="126.99632"></scales>
<clustering>
<clus scale="   75.238">  5  6 -1 -1</clus>
<clus scale="   79.336">  7  8 -1 -1</clus>
<clus scale="  121.954">  2  5  1 -1</clus>
<clus scale="  126.996">  1  9  2 -1</clus>
<clus scale="  126.996">  1  5  2 -1</clus>
</clustering>
</event>
<event>
 9    2  0.1592151E-004  0.1308858E+03  0.7546771E-02  0.1229006E+00
         21   -1    0    0  501  502  0.00000000000E+00  0.00000000000E+00  0.13314272122E+03  0.13314272122E+03  0.00000000000E+00 0.  1.
          2   -1    0    0  502    0 -0.00000000000E+00 -0.00000000000E+00 -0.38451010419E+03  0.38451010419E+03  0.00000000000E+00 0. -1.
         23    2    1    2    0    0 -0.77023123482E+02 -0.72128660773E+02 -0.22164912502E+03  0.26207862756E+03  0.91770186593E+02 0.  0.
         24    2    1    2    0    0 -0.86964792088E+01  0.57277885138E+02  0.71301316966E+02  0.12225746844E+03  0.80663659175E+02 0.  0.
        -13    1    4    4    0    0 -0.65221827672E+01  0.47115789847E+02  0.89469391462E+02  0.10132723489E+03  0.00000000000E+00 0.  1.
         14    1    4    4    0    0 -0.21742964416E+01  0.10162095291E+02 -0.18168074496E+02  0.20930233554E+02  0.00000000000E+00 0. -1.
        -11    1    3    3    0    0 -0.73523351574E+01 -0.37036315502E+02 -0.14019094945E+02  0.40277543636E+02  0.00000000000E+00 0.  1.
         11    1    3    3    0    0 -0.69670788325E+02 -0.35092345271E+02 -0.20763003007E+03  0.22180108393E+03  0.00000000000E+00 0. -1.
          1    1    1    2  501    0  0.85719602691E+02  0.14850775635E+02 -0.10101957491E+03  0.13331672940E+03  0.00000000000E+00 0. -1.
<scales pt_clust_5="13000.00000" pt_clust_6="13000.00000" pt_clust_7="13000.00000" pt_clust_8="13000.00000" pt_clust_9="86.99657"></scales>
<clustering>
<clus scale="   80.664">  5  6 -1 -1</clus>
<clus scale="   86.997">  1  9  2 -1</clus>
<clus scale="   91.770">  7  8 -1 -1</clus>
<clus scale="  123.353">  1  5  2 -1</clus>
<clus scale="   86.997">  1  5  2 -1</clus>
</clustering>
</event>
<event>
 9    2  0.1592151E-004  0.1385143E+03  0.7546771E-02  0.1230534E+00
         21   -1    0    0  501  502  0.00000000000E+00  0.00000000000E+00  0.10207908032E+03  0.10207908032E+03  0.00000000000E+00 0. -1.
          2   -1    0    0  502    0 -0.00000000000E+00 -0.00000000000E+00 -0.37493835928E+03  0.37493835928E+03  0.00000000000E+00 0. -1.
         24    2    1    2    0    0 -0.12754142834E+02  0.63815110582E+02 -0.19939314959E+03  0.22446525080E+03  0.79949885649E+02 0.  0.
         23    2    1    2    0    0 -0.70318743570E+01 -0.54852204757E+02 -0.13240837840E+03  0.18973492304E+03  0.12413360032E+03 0.  0.
        -13    1    3    3    0    0 -0.22630232249E+02  0.51421462151E+02 -0.53060028688E+02  0.77276521828E+02  0.00000000000E+00 0.  1.
         14    1    3    3    0    0  0.98760894157E+01  0.12393648431E+02 -0.14633312090E+03  0.14718872897E+03  0.00000000000E+00 0. -1.
        -13    1    4    4    0    0 -0.62435907095E+02 -0.29165998388E+02 -0.42224056828E+02  0.80819359882E+02  0.00000000000E+00 0.  1.
         13    1    4    4    0    0  0.55404032738E+02 -0.25686206369E+02 -0.90184321575E+02  0.10891556316E+03  0.00000000000E+00 0. -1.
          1    1    1    2  501    0  0.19786017191E+02 -0.89629058250E+01  0.58942249032E+02  0.62817265764E+02  0.00000000000E+00 0. -1.
<scales pt_clust_5="13000.00000" pt_clust_6="13000.00000" pt_clust_7="13000.00000" pt_clust_8="13000.00000" pt_clust_9="21.72142"></scales>
<clustering>
<clus scale="   21.721">  1  9  2 -1</clus>
<clus scale="   79.950">  5  6 -1 -1</clus>
<clus scale="  100.842">  2  5  1 -1</clus>
<clus scale="  124.134">  7  8 -1 -1</clus>
<clus scale="   21.721">  1  5  2 -1</clus>
</clustering>
</event>
<event>
 9    2  0.1592151E-004  0.1049563E+03  0.7546771E-02  0.1274807E+00
         21   -1    0    0  501  502  0.00000000000E+00  0.00000000000E+00  0.19329094751E+03  0.19329094751E+03  0.00000000000E+00 0.  1.
         -3   -1    0    0    0  501 -0.00000000000E+00 -0.00000000000E+00 -0.95606604482E+02  0.95606604482E+02  0.00000000000E+00 0.  1.
         24    2    1    2    0    0 -0.30659267053E+02  0.34103312591E+02 -0.10214632784E+00  0.91696701727E+02  0.79405592296E+02 0.  0.
         23    2    1    2    0    0  0.76571405218E+02 -0.27135556697E+02  0.87865690943E+02  0.14971510194E+03  0.89970626151E+02 0.  0.
        -11    1    3    3    0    0  0.17734517338E+02 -0.10382609284E+02 -0.13531239668E+02  0.24605002087E+02  0.00000000000E+00 0.  1.
         12    1    3    3    0    0 -0.48393784390E+02  0.44485921875E+02  0.13429093340E+02  0.67091699640E+02  0.00000000000E+00 0. -1.
        -11    1    4    4    0    0 -0.17232786493E+02 -0.11791983546E+02  0.92751218318E+00  0.20901676610E+02  0.00000000000E+00 0. -1.
         11    1    4    4    0    0  0.93804191710E+02 -0.15343573151E+02  0.86938178759E+02  0.12881342533E+03  0.00000000000E+00 0.  1.
         -4    1    1    2    0  502 -0.45912138165E+02 -0.69677558947E+01  0.99207984185E+01  0.47485748329E+02  0.00000000000E+00 0.  1.
<scales pt_clust_5="13000.00000" pt_clust_6="13000.00000" pt_clust_7="13000.00000" pt_clust_8="13000.00000" pt_clust_9="46.43787"></scales>
<clustering>
<clus scale="   46.438">  1  9  2 -1</clus>
<clus scale="   79.406">  5  6 -1 -1</clus>
<clus scale="   89.971">  7  8 -1 -1</clus>
<clus scale="   96.054">  2  5  1 -1</clus>
<clus scale="   46.438">  1  5  2 -1</clus>
</clustering>
</event>
<event>
 9    2  0.1592151E-004  0.1570302E+03  0.7546771E-02  0.1207905E+00
         21   -1    0    0  501  502  0.00000000000E+00  0.00000000000E+00  0.65424688389E+03  0.65424688389E+03  0.00000000000E+00 0.  1.
         -3   -1    0    0    0  501 -0.00000000000E+00 -0.00000000000E+00 -0.78847456833E+02  0.78847456833E+02  0.00000000000E+00 0.  1.
         24    2    1    2    0    0 -0.72705038799E+02  0.16191829083E+02  0.36020989210E+02  0.11706060881E+03  0.82809881514E+02 0.  0.
         23    2    1    2    0    0 -0.37081013355E+02  0.85344713910E+02  0.15209195458E+03  0.20087898132E+03  0.92529350728E+02 0.  0.
        -11    1    3    3    0    0 -0.22084943129E+02  0.40978430550E+02 -0.57528198713E+01  0.46904918930E+02  0.00000000000E+00 0.  1.
         12    1    3    3    0    0 -0.50620095670E+02 -0.24786601467E+02  0.41773809081E+02  0.70155689883E+02  0.00000000000E+00 0. -1.
        -11    1    4    4    0    0  0.18627204222E+02  0.22482830116E+02  0.94830127816E+02  0.99222998991E+02  0.00000000000E+00 0. -1.
         11    1    4    4    0    0 -0.55708217577E+02  0.62861883794E+02  0.57261826760E+02  0.10165598233E+03  0.00000000000E+00 0.  1.
         -4    1    1    2    0  502  0.10978605215E+03 -0.10153654299E+03  0.38728648327E+03  0.41515475058E+03  0.00000000000E+00 0.  1.
<scales pt_clust_5="13000.00000" pt_clust_6="13000.00000" pt_clust_7="13000.00000" pt_clust_8="13000.00000" pt_clust_9="126.87312"></scales>
<clustering>
<clus scale="   82.810">  5  6 -1 -1</clus>
<clus scale="   92.529">  7  8 -1 -1</clus>
<clus scale="  111.381">  2  5  1 -1</clus>
<clus scale="  126.873">  1  9  2 -1</clus>
<clus scale="  126.873">  1  5  2 -1</clus>
</clustering>
</event>
<event>
 9    2  0.1592151E-004  0.1614510E+03  0.7546771E-02  0.1191322E+00
          2   -1    0    0  502    0 -0.00000000000E+00  0.00000000000E+00  0.23172663485E+03  0.23172663485E+03  0.00000000000E+00 0. -1.
         21   -1    0    0  501  502  0.00000000000E+00 -0.00000000000E+00 -0.24159058566E+03  0.24159058566E+03  0.00000000000E+00 0. -1.
         24    2    1    2    0    0  0.31354963570E+01  0.12311820394E+03  0.48464289920E+01  0.14703061565E+03  0.80166018899E+02 0.  0.
         23    2    1    2    0    0 -0.11126479971E+03 -0.18694924923E+02 -0.55697117144E+02  0.17047877425E+03  0.11502820411E+03 0.  0.
        -11    1    3    3    0    0 -0.29724336941E+02  0.34714548299E+02 -0.19402953275E+02  0.49649880825E+02  0.00000000000E+00 0.  1.
         12    1    3    3    0    0  0.32859833298E+02  0.88403655639E+02  0.24249382267E+02  0.97380734825E+02  0.00000000000E+00 0. -1.
        -11    1    4    4    0    0  0.10664511422E+02 -0.18270952488E+02  0.18196991872E+02  0.27905017862E+02  0.00000000000E+00 0.  1.
         11    1    4    4    0    0 -0.12192931113E+03 -0.42397243513E+00 -0.73894109016E+02  0.14257375639E+03  0.00000000000E+00 0. -1.
          1    1    1    2  501    0  0.10812930335E+03 -0.10442327902E+03  0.40986737343E+02  0.15580783061E+03  0.00000000000E+00 0. -1.
<scales pt_clust_5="13000.00000" pt_clust_6="13000.00000" pt_clust_7="13000.00000" pt_clust_8="13000.00000" pt_clust_9="113.29144"></scales>
<clustering>
<clus scale="   80.166">  5  6 -1 -1</clus>
<clus scale="  115.028">  7  8 -1 -1</clus>
<clus scale="  146.951">  1  5  2 -1</clus>
<clus scale="  113.291">  2  9  1 -1</clus>
<clus scale="  113.291">  2  5  1 -1</clus>
</clustering>
</event>
<event>
 9    2  0.1592151E-004  0.2744620E+03  0.7546771E-02  0.1099298E+00
          2   -1    0    0  502    0 -0.00000000000E+00  0.00000000000E+00  0.18846872704E+03  0.18846872704E+03  0.00000000000E+00 0. -1.
         21   -1    0    0  501  502  0.00000000000E+00 -0.00000000000E+00 -0.53213995237E+03  0.53213995237E+03  0.00000000000E+00 0.  1.
         23    2    1    2    0    0 -0.63416902725E+02  0.22428641445E+03 -0.15304166254E+03  0.29375522639E+03  0.92435292505E+02 0.  0.
         24    2    1    2    0    0  0.58879680151E+02 -0.28504689737E+03 -0.20412033142E+03  0.36444813666E+03  0.80242034996E+02 0.  0.
        -11    1    4    4    0    0  0.64377763338E+02 -0.15658145355E+03 -0.14507972277E+03  0.22295823369E+03  0.00000000000E+00 0.  1.
         12    1    4    4    0    0 -0.54980831869E+01 -0.12846544381E+03 -0.59040608649E+02  0.14148990297E+03  0.00000000000E+00 0. -1.
        -13    1    3    3    0    0 -0.58382157973E+02  0.90348135962E+02 -0.10780840711E+03  0.15229548478E+03  0.00000000000E+00 0.  1.
         13    1    3    3    0    0 -0.50347447524E+01  0.13393827849E+03 -0.45233255428E+02  0.14145974161E+03  0.00000000000E+00 0. -1.
          1    1    1    2  501    0  0.45372225736E+01  0.60760482918E+02  0.13490768622E+02  0.62405316369E+02  0.00000000000E+00 0. -1.
<scales pt_clust_5="13000.00000" pt_clust_6="13000.00000" pt_clust_7="13000.00000" pt_clust_8="13000.00000" pt_clust_9="60.92968"></scales>
<clustering>
<clus scale="   60.930">  2  9  1 -1</clus>
<clus scale="   80.242">  5  6 -1 -1</clus>
<clus scale="   92.435">  7  8 -1 -1</clus>
<clus scale="  270.599">  2  5  1 -1</clus>
<clus scale="   60.930">  2  5  1 -1</clus>
</clustering>
</event>
<event>
 9    2  0.1592151E-004  0.1773645E+03  0.7546771E-02  0.1171493E+00
          2   -1    0    0  502    0 -0.00000000000E+00  0.00000000000E+00  0.71342904197E+03  0.71342904197E+03  0.00000000000E+00 0. -1.
         21   -1    0    0  501  502  0.00000000000E+00 -0.00000000000E+00 -0.94112876057E+02  0.94112876057E+02  0.00000000000E+00 0.  1.
         24    2    1    2    0    0 -0.50805089925E+02  0.12423492879E+03  0.17325066272E+03  0.23360974123E+03  0.80884141660E+02 0.  0.
         23    2    1    2    0    0  0.55704373691E+02 -0.18278404444E+03  0.12064950917E+03  0.24325473412E+03  0.90019872601E+02 0.  0.
        -13    1    3    3    0    0 -0.69163884618E+02  0.11893965389E+03  0.15107427689E+03  0.20433727349E+03  0.00000000000E+00 0.  1.
         14    1    3    3    0    0  0.18358794693E+02  0.52952749042E+01  0.22176385837E+02  0.29272467742E+02  0.00000000000E+00 0. -1.
        -13    1    4    4    0    0  0.42754987007E+02 -0.64991677530E+02  0.93593786521E+02  0.12170334399E+03  0.00000000000E+00 0. -1.
         13    1    4    4    0    0  0.12949386683E+02 -0.11779236691E+03  0.27055722648E+02  0.12155139014E+03  0.00000000000E+00 0.  1.
          1    1    1    2  501    0 -0.48992837659E+01  0.58549115644E+02  0.32541599402E+03  0.33067744267E+03  0.00000000000E+00 0. -1.
<scales pt_clust_5="13000.00000" pt_clust_6="13000.00000" pt_clust_7="13000.00000" pt_clust_8="13000.00000" pt_clust_9="58.75377"></scales>
<clustering>
<clus scale="   58.754">  2  9  1 -1</clus>
<clus scale="   80.884">  5  6 -1 -1</clus>
<clus scale="   90.020">  7  8 -1 -1</clus>
<clus scale="  172.907">  1  5  2 -1</clus>
<clus scale="   58.754">  2  5  1 -1</clus>
</clustering>
</event>
<event>
 9    2  0.1592151E-004  0.1368616E+03  0.7546771E-02  0.1219069E+00
         21   -1    0    0  501  502  0.00000000000E+00  0.00000000000E+00  0.31304344923E+03  0.31304344923E+03  0.00000000000E+00 0.  1.
         -1   -1    0    0    0  501 -0.00000000000E+00 -0.00000000000E+00 -0.17744421177E+03  0.17744421177E+03  0.00000000000E+00 0.  1.
         24    2    1    2    0    0 -0.38071482930E+02  0.10025936442E+03 -0.11747815693E+03  0.17824199542E+03  0.80422096528E+02 0.  0.
         23    2    1    2    0    0  0.20012886252E+02 -0.89337062061E+02  0.26078622386E+03  0.28977711746E+03  0.87061455145E+02 0.  0.
        -13    1    3    3    0    0 -0.42339357610E+02  0.10522442324E+03 -0.76654669537E+02  0.13689681812E+03  0.00000000000E+00 0.  1.
         14    1    3    3    0    0  0.42678746800E+01 -0.49650588207E+01 -0.40823487390E+02  0.41345177301E+02  0.00000000000E+00 0. -1.
        -11    1    4    4    0    0 -0.14252157227E+02 -0.41012015555E+02  0.20090991665E+03  0.20554781442E+03  0.00000000000E+00 0.  1.
         11    1    4    4    0    0  0.34265043479E+02 -0.48325046506E+02  0.59876307213E+02  0.84229303036E+02  0.00000000000E+00 0. -1.
         -2    1    1    2    0  502  0.18058596678E+02 -0.10922302360E+02 -0.77088294754E+01  0.22468548122E+02  0.00000000000E+00 0.  1.
<scales pt_clust_5="13000.00000" pt_clust_6="13000.00000" pt_clust_7="13000.00000" pt_clust_8="13000.00000" pt_clust_9="21.10474"></scales>
<clustering>
<clus scale="   21.105">  1  9  2 -1</clus>
<clus scale="   80.422">  5  6 -1 -1</clus>
<clus scale="   87.061">  7  8 -1 -1</clus>
<clus scale="  132.737">  2  5  1 -1</clus>
<clus scale="   21.105">  1  5  2 -1</clus>
</clustering>
</event>
<event>
 9    2  0.1592151E-004  0.1598205E+03  0.7546771E-02  0.1215560E+00
          2   -1    0    0  502    0 -0.00000000000E+00  0.00000000000E+00  0.25880960510E+03  0.25880960510E+03  0.00000000000E+00 0. -1.
         21   -1    0    0  501  502  0.00000000000E+00 -0.00000000000E+00 -0.46936247111E+03  0.46936247111E+03  0.00000000000E+00 0. -1.
         24    2    1    2    0    0  0.14049903727E+02 -0.37138952681E+02  0.13347650344E+03  0.16085015333E+03  0.80499026431E+02 0.  0.
         23    2    1    2    0    0 -0.58020147796E+01 -0.95579927688E+02  0.56325077978E+02  0.14546174172E+03  0.93901107242E+02 0.  0.
        -13    1    3    3    0    0 -0.29286471265E+02  0.34680094853E+01  0.34132671301E+02  0.45108355535E+02  0.00000000000E+00 0.  1.
         14    1    3    3    0    0  0.43336374993E+02 -0.40606962166E+02  0.99343832136E+02  0.11574179780E+03  0.00000000000E+00 0. -1.
        -11    1    4    4    0    0  0.20667644692E+02  0.58775999606E+01  0.30785534252E+02  0.37542600304E+02  0.00000000000E+00 0.  1.
         11    1    4    4    0    0 -0.26469659472E+02 -0.10145752765E+03  0.25539543726E+02  0.10791914141E+03  0.00000000000E+00 0. -1.
          1    1    1    2  501    0 -0.82478889478E+01  0.13271888037E+03 -0.40035444742E+03  0.42186018116E+03  0.00000000000E+00 0. -1.
<scales pt_clust_5="13000.00000" pt_clust_6="13000.00000" pt_clust_7="13000.00000" pt_clust_8="13000.00000" pt_clust_9="129.32588"></scales>
<clustering>
<clus scale="   80.499">  5  6 -1 -1</clus>
<clus scale="   89.760">  1  5  2 -1</clus>
<clus scale="   93.901">  7  8 -1 -1</clus>
<clus scale="  129.326">  2  9  1 -1</clus>
<clus scale="  129.326">  2  5  1 -1</clus>
</clustering>
</event>
<event>
 9    2  0.1592151E-004  0.2787928E+03  0.7546771E-02  0.1096350E+00
         21   -1    0    0  501  502  0.00000000000E+00  0.00000000000E+00  0.80183620009E+02  0.80183620009E+02  0.00000000000E+00 0. -1.
          2   -1    0    0  502    0 -0.00000000000E+00 -0.00000000000E+00 -0.10212844668E+04  0.10212844668E+04  0.00000000000E+00 0. -1.
         24    2    1    2    0    0 -0.27795394626E+02  0.11512981591E+03 -0.36995535128E+03  0.39683599562E+03  0.81144235786E+02 0.  0.
         23    2    1    2    0    0  0.44560058088E+01  0.10187099887E+03 -0.41532213743E+03  0.43646236954E+03  0.87231678799E+02 0.  0.
        -13    1    3    3    0    0  0.26762014867E+02  0.60118714142E+02 -0.15752226517E+03  0.17071534569E+03  0.00000000000E+00 0.  1.
         14    1    3    3    0    0 -0.54557409493E+02  0.55011101772E+02 -0.21243308611E+03  0.22612064993E+03  0.00000000000E+00 0. -1.
        -11    1    4    4    0    0 -0.15822679677E+02  0.10590902158E+03 -0.38603221435E+03  0.40060947138E+03  0.00000000000E+00 0. -1.
         11    1    4    4    0    0  0.20278685485E+02 -0.40380227077E+01 -0.29289923082E+02  0.35852898161E+02  0.00000000000E+00 0.  1.
          1    1    1    2  501    0  0.23339388817E+02 -0.21700081478E+03 -0.15582335808E+03  0.26816972165E+03  0.00000000000E+00 0. -1.
<scales pt_clust_5="13000.00000" pt_clust_6="13000.00000" pt_clust_7="13000.00000" pt_clust_8="13000.00000" pt_clust_9="218.25233"></scales>
<clustering>
<clus scale="   81.144">  5  6 -1 -1</clus>
<clus scale="   87.232">  7  8 -1 -1</clus>
<clus scale="   95.265">  5  7 -1 -1</clus>
<clus scale="  218.252">  1  9  2 -1</clus>
<clus scale="  218.252">  1  5  2 -1</clus>
</clustering>
</event>
<event>
 9    2  0.1592151E-004  0.1154542E+03  0.7546771E-02  0.1262101E+00
         21   -1    0    0  501  502  0.00000000000E+00  0.00000000000E+00  0.16640501423E+03  0.16640501423E+03  0.00000000000E+00 0.  1.
          2   -1    0    0  502    0 -0.00000000000E+00 -0.00000000000E+00 -0.24008078252E+03  0.24008078252E+03  0.00000000000E+00 0. -1.
         23    2    1    2    0    0 -0.40721849110E+02 -0.92385863627E+01 -0.12256519157E+03  0.16725357682E+03  0.10586742795E+03 0.  0.
         24    2    1    2    0    0  0.30057848119E+02  0.98885762025E+02  0.67426030228E+02  0.14706963089E+03  0.80008365901E+02 0.  0.
        -11    1    4    4    0    0  0.64432989318E+01  0.51227281098E+02  0.77315330189E+02  0.92969945209E+02  0.00000000000E+00 0.  1.
         12    1    4    4    0    0  0.23614549187E+02  0.47658480927E+02 -0.98892999607E+01  0.54099685685E+02  0.00000000000E+00 0. -1.
        -13    1    3    3    0    0 -0.71760322891E+02  0.80391290468E+01 -0.54470675242E+02  0.90450129898E+02  0.00000000000E+00 0. -1.
         13    1    3    3    0    0  0.31038473781E+02 -0.17277715409E+02 -0.68094516330E+02  0.76803446919E+02  0.00000000000E+00 0.  1.
          1    1    1    2  501    0  0.10664000991E+02 -0.89647175662E+02 -0.18536606940E+02  0.92162589038E+02  0.00000000000E+00 0. -1.
<scales pt_clust_5="13000.00000" pt_clust_6="13000.00000" pt_clust_7="13000.00000" pt_clust_8="13000.00000" pt_clust_9="90.27926"></scales>
<clustering>
<clus scale="   80.008">  5  6 -1 -1</clus>
<clus scale="   90.279">  1  9  2 -1</clus>
<clus scale="   92.321">  1  5  2 -1</clus>
<clus scale="  105.867">  7  8 -1 -1</clus>
<clus scale="   90.279">  1  5  2 -1</clus>
</clustering>
</event>
<event>
 9    2  0.1592151E-004  0.9252367E+02  0.7546771E-02  0.1302531E+00
          2   -1    0    0  502    0 -0.00000000000E+00  0.00000000000E+00  0.24800824171E+03  0.24800824171E+03  0.00000000000E+00 0. -1.
         21   -1    0    0  501  502  0.00000000000E+00 -0.00000000000E+00 -0.99558102886E+02  0.99558102886E+02  0.00000000000E+00 0.  1.
         23    2    1    2    0    0  0.11853639819E+02 -0.61481673543E+01  0.19105379634E+03  0.21198203800E+03  0.90865409263E+02 0.  0.
         24    2    1    2    0    0 -0.37084907978E+02  0.27334302005E+02 -0.42102655273E+02  0.10263403805E+03  0.81477958484E+02 0.  0.
        -13    1    4    4    0    0 -0.35811435995E+02 -0.19704910405E+02 -0.37295646721E+02  0.55332700155E+02  0.00000000000E+00 0.  1.
         14    1    4    4    0    0 -0.12734719826E+01  0.47039212410E+02 -0.48070085523E+01  0.47301337891E+02  0.00000000000E+00 0. -1.
        -11    1    3    3    0    0 -0.16172755778E+02 -0.41316319726E+02  0.70344507436E+02  0.83168179201E+02  0.00000000000E+00 0.  1.
         11    1    3    3    0    0  0.28026395597E+02  0.35168152372E+02  0.12070928890E+03  0.12881385880E+03  0.00000000000E+00 0. -1.
          1    1    1    2  501    0  0.25231268159E+02 -0.21186134651E+02 -0.50100223906E+00  0.32950268551E+02  0.00000000000E+00 0. -1.
<scales pt_clust_5="13000.00000" pt_clust_6="13000.00000" pt_clust_7="13000.00000" pt_clust_8="13000.00000" pt_clust_9="32.94646"></scales>
<clustering>
<clus scale="   32.946">  2  9  1 -1</clus>
<clus scale="   81.478">  5  6 -1 -1</clus>
<clus scale="   83.323">  2  5  1 -1</clus>
<clus scale="   90.865">  7  8 -1 -1</clus>
<clus scale="   32.946">  2  5  1 -1</clus>
</clustering>
</event>
<event>
 9    2  0.1592151E-004  0.2351351E+03  0.7546771E-02  0.1150650E+00
         21   -1    0    0  501  502  0.00000000000E+00  0.00000000000E+00  0.12659159546E+03  0.12659159546E+03  0.00000000000E+00 0. -1.
          2   -1    0    0  502    0 -0.00000000000E+00 -0.00000000000E+00 -0.75051068897E+03  0.75051068897E+03  0.00000000000E+00 0. -1.
         24    2    1    2    0    0  0.73443745361E+02 -0.52534045939E+02 -0.96613067314E+02  0.15440786644E+03  0.79711321207E+02 0.  0.
         23    2    1    2    0    0 -0.19977367970E+03  0.19483168252E+03 -0.38933616864E+03  0.48765495048E+03  0.91410015329E+02 0.  0.
        -11    1    3    3    0    0  0.63558304722E+02 -0.93396071304E+01 -0.88503560961E+02  0.10936071810E+03  0.00000000000E+00 0.  1.
         12    1    3    3    0    0  0.98854406389E+01 -0.43194438809E+02 -0.81095063528E+01  0.45047148344E+02  0.00000000000E+00 0. -1.
        -13    1    4    4    0    0 -0.48261632234E+02  0.42586903012E+02 -0.16482516782E+03  0.17694678692E+03  0.00000000000E+00 0.  1.
         13    1    4    4    0    0 -0.15151204747E+03  0.15224477951E+03 -0.22451100082E+03  0.31070816356E+03  0.00000000000E+00 0. -1.
          1    1    1    2  501    0  0.12632993434E+03 -0.14229763658E+03 -0.13796985757E+03  0.23503946750E+03  0.00000000000E+00 0. -1.
<scales pt_clust_5="13000.00000" pt_clust_6="13000.00000" pt_clust_7="13000.00000" pt_clust_8="13000.00000" pt_clust_9="216.63967"></scales>
<clustering>
<clus scale="   79.711">  5  6 -1 -1</clus>
<clus scale="   91.410">  7  8 -1 -1</clus>
<clus scale="  120.448">  2  5  1 -1</clus>
<clus scale="  216.640">  1  9  2 -1</clus>
<clus scale="  216.640">  1  5  2 -1</clus>
</clustering>
</event>
<event>
 9    2  0.1592151E-004  0.1050577E+03  0.7546771E-02  0.1273806E+00
          2   -1    0    0  502    0 -0.00000000000E+00  0.00000000000E+00  0.54547432637E+03  0.54547432637E+03  0.00000000000E+00 0. -1.
         21   -1    0    0  501  502  0.00000000000E+00 -0.00000000000E+00 -0.55514550453E+02  0.55514550453E+02  0.00000000000E+00 0. -1.
         24    2    1    2    0    0 -0.13106463351E+02 -0.69637765176E+02  0.39973611637E+03  0.41402286095E+03  0.81269729561E+02 0.  0.
         23    2    1    2    0    0  0.95764031532E+01  0.36191315878E+01  0.78335231132E+02  0.11979268756E+03  0.90050396705E+02 0.  0.
        -11    1    3    3    0    0  0.12515878498E+02 -0.19979515791E+02  0.22230632740E+02  0.32404155565E+02  0.00000000000E+00 0.  1.
         12    1    3    3    0    0 -0.25622341849E+02 -0.49658249385E+02  0.37750548363E+03  0.38161870539E+03  0.00000000000E+00 0. -1.
        -13    1    4    4    0    0 -0.37595140377E+02  0.17036483796E+02  0.40775249282E+02  0.58019456341E+02  0.00000000000E+00 0. -1.
         13    1    4    4    0    0  0.47171543530E+02 -0.13417352208E+02  0.37559981850E+02  0.61773231224E+02  0.00000000000E+00 0.  1.
          1    1    1    2  501    0  0.35300601977E+01  0.66018633588E+02  0.11888428422E+02  0.67173328309E+02  0.00000000000E+00 0. -1.
<scales pt_clust_5="13000.00000" pt_clust_6="13000.00000" pt_clust_7="13000.00000" pt_clust_8="13000.00000" pt_clust_9="66.11294"></scales>
<clustering>
<clus scale="   66.113">  2  9  1 -1</clus>
<clus scale="   81.270">  5  6 -1 -1</clus>
<clus scale="   90.050">  7  8 -1 -1</clus>
<clus scale="   97.636">  1  5  2 -1</clus>
<clus scale="   66.113">  2  5  1 -1</clus>
</clustering>
</event>
<event>
 9    2  0.1592151E-004  0.1267782E+03  0.7546771E-02  0.1235872E+00
         -1   -1    0    0    0  501 -0.00000000000E+00  0.00000000000E+00  0.57243146645E+02  0.57243146645E+02  0.00000000000E+00 0.  1.
         21   -1    0    0  501  502  0.00000000000E+00 -0.00000000000E+00 -0.38985892989E+03  0.38985892989E+03  0.00000000000E+00 0. -1.
         23    2    1    2    0    0  0.87387996006E+01  0.84923567588E+02 -0.67897086359E+02  0.14217640847E+03  0.91190667505E+02 0.  0.
         24    2    1    2    0    0  0.15095725596E+02 -0.94538960790E+02 -0.19838650605E+03  0.23378847724E+03  0.78322093088E+02 0.  0.
        -13    1    4    4    0    0 -0.13302570004E+02 -0.21671573190E+02 -0.60185341976E+01  0.26131173091E+02  0.00000000000E+00 0.  1.
         14    1    4    4    0    0  0.28398295600E+02 -0.72867387600E+02 -0.19236797186E+03  0.20765730415E+03  0.00000000000E+00 0. -1.
        -13    1    3    3    0    0  0.31894843190E+02  0.92453225064E+02 -0.41433207342E+02  0.10621483191E+03  0.00000000000E+00 0.  1.
         13    1    3    3    0    0 -0.23156043589E+02 -0.75296574753E+01 -0.26463879016E+02  0.35961576564E+02  0.00000000000E+00 0. -1.
         -2    1    1    2    0  502 -0.23834525197E+02  0.96153932016E+01 -0.66332190831E+02  0.71137190823E+02  0.00000000000E+00 0.  1.
<scales pt_clust_5="13000.00000" pt_clust_6="13000.00000" pt_clust_7="13000.00000" pt_clust_8="13000.00000" pt_clust_9="25.70098"></scales>
<clustering>
<clus scale="   25.701">  2  9  1 -1</clus>
<clus scale="   78.322">  5  6 -1 -1</clus>
<clus scale="   91.191">  7  8 -1 -1</clus>
<clus scale="  117.861">  2  5  1 -1</clus>
<clus scale="   25.701">  2  5  1 -1</clus>
</clustering>
</event>
<event>
 9    2  0.1592151E-004  0.1099412E+03  0.7546771E-02  0.1265731E+00
         -1   -1    0    0    0  501 -0.00000000000E+00  0.00000000000E+00  0.12078146016E+03  0.12078146016E+03  0.00000000000E+00 0.  1.
         21   -1    0    0  501  502  0.00000000000E+00 -0.00000000000E+00 -0.22600303321E+03  0.22600303321E+03  0.00000000000E+00 0. -1.
         23    2    1    2    0    0  0.47499374715E+02 -0.45479471394E+02  0.62737306360E+02  0.13011051456E+03  0.93103187228E+02 0.  0.
         24    2    1    2    0    0 -0.12209247685E+01  0.40585264992E+02 -0.11409445146E+03  0.14549094163E+03  0.80631357731E+02 0.  0.
        -11    1    4    4    0    0 -0.82179664222E+00  0.58129835606E+02 -0.43126558473E+02  0.72385448697E+02  0.00000000000E+00 0.  1.
         12    1    4    4    0    0 -0.39912812625E+00 -0.17544570614E+02 -0.70967892990E+02  0.73105492931E+02  0.00000000000E+00 0. -1.
        -11    1    3    3    0    0  0.50367600470E+02  0.14468340361E+02  0.40021860110E+02  0.65939194237E+02  0.00000000000E+00 0. -1.
         11    1    3    3    0    0 -0.28682257550E+01 -0.59947811754E+02  0.22715446250E+02  0.64171320319E+02  0.00000000000E+00 0.  1.
         -2    1    1    2    0  502 -0.46278449947E+02  0.48942064018E+01 -0.53864427943E+02  0.71183037189E+02  0.00000000000E+00 0.  1.
<scales pt_clust_5="13000.00000" pt_clust_6="13000.00000" pt_clust_7="13000.00000" pt_clust_8="13000.00000" pt_clust_9="46.53653"></scales>
<clustering>
<clus scale="   46.537">  2  9  1 -1</clus>
<clus scale="   80.631">  5  6 -1 -1</clus>
<clus scale="   93.103">  7  8 -1 -1</clus>
<clus scale="   99.601">  2  5  1 -1</clus>
<clus scale="   46.537">  2  5  1 -1</clus>
</clustering>
</event>
<event>
 9    2  0.1592151E-004  0.3804454E+03  0.7546771E-02  0.1051060E+00
          2   -1    0    0  502    0 -0.00000000000E+00  0.00000000000E+00  0.37774774881E+03  0.37774774881E+03  0.00000000000E+00 0. -1.
         21   -1    0    0  501  502  0.00000000000E+00 -0.00000000000E+00 -0.56110052001E+03  0.56110052001E+03  0.00000000000E+00 0. -1.
         23    2    1    2    0    0  0.39160007330E+03  0.59569873856E+02  0.11679551351E+03  0.42350126266E+03  0.93877261433E+02 0.  0.
         24    2    1    2    0    0 -0.30353230247E+03 -0.87012130013E+02 -0.21968519969E+03  0.39294064303E+03  0.80235855887E+02 0.  0.
        -13    1    4    4    0    0 -0.19894921556E+03 -0.92605830553E+02 -0.16660740666E+03  0.27552614790E+03  0.00000000000E+00 0.  1.
         14    1    4    4    0    0 -0.10458308690E+03  0.55937005399E+01 -0.53077793036E+02  0.11741449513E+03  0.00000000000E+00 0. -1.
        -11    1    3    3    0    0  0.34504795812E+03  0.58306792363E+02  0.13275259735E+03  0.37427400062E+03  0.00000000000E+00 0. -1.
         11    1    3    3    0    0  0.46552115180E+02  0.12630814937E+01 -0.15957083839E+02  0.49227262033E+02  0.00000000000E+00 0.  1.
          1    1    1    2  501    0 -0.88067770835E+02  0.27442256157E+02 -0.80463085020E+02  0.12240636313E+03  0.00000000000E+00 0. -1.
<scales pt_clust_5="13000.00000" pt_clust_6="13000.00000" pt_clust_7="13000.00000" pt_clust_8="13000.00000" pt_clust_9="92.24429"></scales>
<clustering>
<clus scale="   80.236">  5  6 -1 -1</clus>
<clus scale="   92.244">  2  9  1 -1</clus>
<clus scale="   93.877">  7  8 -1 -1</clus>
<clus scale="  377.311">  2  5  1 -1</clus>
<clus scale="   92.244">  2  5  1 -1</clus>
</clustering>
</event>
<event>
 9    2  0.1592151E-004  0.1129465E+03  0.7546771E-02  0.1259820E+00
          2   -1    0    0  502    0 -0.00000000000E+00  0.00000000000E+00  0.77003674840E+03  0.77003674840E+03  0.00000000000E+00 0. -1.
         21   -1    0    0  501  502  0.00000000000E+00 -0.00000000000E+00 -0.28085510932E+02  0.28085510932E+02  0.00000000000E+00 0.  1.
         24    2    1    2    0    0  0.16096370291E+02  0.62757347000E+02  0.54736232334E+03  0.55672145983E+03  0.78330665012E+02 0.  0.
         23    2    1    2    0    0  0.19120167576E+00 -0.78269265932E+02  0.17033195744E+03  0.20832052476E+03  0.90875468432E+02 0.  0.
        -11    1    3    3    0    0 -0.27778154431E+02  0.19951014091E+02  0.11320679452E+03  0.11826008266E+03  0.00000000000E+00 0.  1.
         12    1    3    3    0    0  0.43874524722E+02  0.42806332909E+02  0.43415552882E+03  0.43846137716E+03  0.00000000000E+00 0. -1.
        -13    1    4    4    0    0 -0.36877868743E+02 -0.48760398713E+01  0.62251094684E+02  0.72518630415E+02  0.00000000000E+00 0.  1.
         13    1    4    4    0    0  0.37069070419E+02 -0.73393226061E+02  0.10808086276E+03  0.13580189435E+03  0.00000000000E+00 0. -1.
          1    1    1    2  501    0 -0.16287571967E+02  0.15511918932E+02  0.24256956691E+02  0.33080274749E+02  0.00000000000E+00 0. -1.
<scales pt_clust_5="13000.00000" pt_clust_6="13000.00000" pt_clust_7="13000.00000" pt_clust_8="13000.00000" pt_clust_9="22.49232"></scales>
<clustering>
<clus scale="   22.492">  2  9  1 -1</clus>
<clus scale="   78.331">  5  6 -1 -1</clus>
<clus scale="   90.875">  7  8 -1 -1</clus>
<clus scale="  103.122">  1  5  2 -1</clus>
<clus scale="   22.492">  2  5  1 -1</clus>
</clustering>
</event>
<event>
 9    2  0.1592151E-004  0.1345626E+03  0.7546771E-02  0.1241369E+00
         21   -1    0    0  501  502  0.00000000000E+00  0.00000000000E+00  0.86652912715E+02  0.86652912715E+02  0.00000000000E+00 0. -1.
          2   -1    0    0  502    0 -0.00000000000E+00 -0.00000000000E+00 -0.54594499539E+03  0.54594499539E+03  0.00000000000E+00 0. -1.
         23    2    1    2    0    0  0.16965169999E+02 -0.53967116348E+01 -0.10258354923E+03  0.13524380554E+03  0.86316631506E+02 0.  0.
         24    2    1    2    0    0 -0.12037520058E+03  0.27952921125E+02 -0.36252631659E+03  0.39135285912E+03  0.80375216353E+02 0.  0.
        -13    1    4    4    0    0 -0.88513312517E+02  0.10402938799E+02 -0.14061128120E+03  0.16647630471E+03  0.00000000000E+00 0.  1.
         14    1    4    4    0    0 -0.31861888063E+02  0.17549982327E+02 -0.22191503539E+03  0.22487655441E+03  0.00000000000E+00 0. -1.
        -11    1    3    3    0    0 -0.56372551057E+00  0.34842039722E+02 -0.76810091869E+02  0.84344980475E+02  0.00000000000E+00 0.  1.
         11    1    3    3    0    0  0.17528895510E+02 -0.40238751357E+02 -0.25773457361E+02  0.50898825064E+02  0.00000000000E+00 0. -1.
          1    1    1    2  501    0  0.10341003058E+03 -0.22556209490E+02  0.58177831477E+01  0.10600124345E+03  0.00000000000E+00 0. -1.
<scales pt_clust_5="13000.00000" pt_clust_6="13000.00000" pt_clust_7="13000.00000" pt_clust_8="13000.00000" pt_clust_9="107.92089"></scales>
<clustering>
<clus scale="   80.375">  5  6 -1 -1</clus>
<clus scale="   86.317">  7  8 -1 -1</clus>
<clus scale="   88.133">  2  7  1 -1</clus>
<clus scale="  107.921">  1  9  2 -1</clus>
<clus scale="  107.921">  1  5  2 -1</clus>
</clustering>
</event>
<event>
 9    2  0.1592151E-004  0.1297510E+03  0.7546771E-02  0.1240050E+00
         21   -1    0    0  501  502  0.00000000000E+00  0.00000000000E+00  0.39590878321E+03  0.39590878321E+03  0.00000000000E+00 0. -1.
          2   -1    0    0  502    0 -0.00000000000E+00 -0.00000000000E+00 -0.86454273835E+02  0.86454273835E+02  0.00000000000E+00 0. -1.
         24    2    1    2    0    0  0.47613261299E+02  0.38512558976E+02  0.66029348630E+01  0.10118760666E+03  0.80281337448E+02 0.  0.
         23    2    1    2    0    0  0.40663326022E+02  0.34572529372E+02  0.87484654706E+02  0.13721419085E+03  0.91243649043E+02 0.  0.
        -11    1    3    3    0    0  0.35716326088E+02 -0.14827136657E+02 -0.16255634768E+02  0.41949321716E+02  0.00000000000E+00 0.  1.
         12    1    3    3    0    0  0.11896935211E+02  0.53339695632E+02  0.22858569631E+02  0.59238284944E+02  0.00000000000E+00 0. -1.
        -11    1    4    4    0    0 -0.20620769238E+01 -0.27951664975E+02  0.36080690456E+02  0.45687678425E+02  0.00000000000E+00 0.  1.
         11    1    4    4    0    0  0.42725402946E+02  0.62524194347E+02  0.51403964251E+02  0.91526512423E+02  0.00000000000E+00 0. -1.
          1    1    1    2  501    0 -0.88276587321E+02 -0.73085088348E+02  0.21536691980E+03  0.24396125953E+03  0.00000000000E+00 0. -1.
<scales pt_clust_5="13000.00000" pt_clust_6="13000.00000" pt_clust_7="13000.00000" pt_clust_8="13000.00000" pt_clust_9="92.24919"></scales>
<clustering>
<clus scale="   80.281">  5  6 -1 -1</clus>
<clus scale="   91.244">  7  8 -1 -1</clus>
<clus scale="  100.972">  2  5  1 -1</clus>
<clus scale="   92.249">  1  9  2 -1</clus>
<clus scale="   92.249">  1  5  2 -1</clus>
</clustering>
</event>
<event>
 9    2  0.1592151E-004  0.1559445E+03  0.7546771E-02  0.1196248E+00
         21   -1    0    0  501  502  0.00000000000E+00  0.00000000000E+00  0.15104994115E+03  0.15104994115E+03  0.00000000000E+00 0. -1.
          2   -1    0    0  502    0 -0.00000000000E+00 -0.00000000000E+00 -0.37468404993E+03  0.37468404993E+03  0.00000000000E+00 0. -1.
         23    2    1    2    0    0  0.98453492567E+02  0.60675139488E+02 -0.19631259818E+03  0.24592917882E+03  0.92563286688E+02 0.  0.
         24    2    1    2    0    0 -0.11093654435E+03 -0.13457690883E+03  0.20232855259E+02  0.19104268179E+03  0.75299910826E+02 0.  0.
        -13    1    4    4    0    0 -0.31847864235E+02 -0.43993858630E+02 -0.28448843484E+02  0.61311359055E+02  0.00000000000E+00 0.  1.
         14    1    4    4    0    0 -0.79088680111E+02 -0.90583050201E+02  0.48681698744E+02  0.12973132273E+03  0.00000000000E+00 0. -1.
        -11    1    3    3    0    0  0.59064781447E+02  0.62740667580E+02 -0.62564559493E+02  0.10648644928E+03  0.00000000000E+00 0. -1.
         11    1    3    3    0    0  0.39388711120E+02 -0.20655280923E+01 -0.13374803869E+03  0.13944272954E+03  0.00000000000E+00 0.  1.
          1    1    1    2  501    0  0.12483051779E+02  0.73901769343E+02 -0.47554365862E+02  0.88762130474E+02  0.00000000000E+00 0. -1.
<scales pt_clust_5="13000.00000" pt_clust_6="13000.00000" pt_clust_7="13000.00000" pt_clust_8="13000.00000" pt_clust_9="74.94867"></scales>
<clustering>
<clus scale="   74.949">  1  9  2 -1</clus>
<clus scale="   75.300">  5  6 -1 -1</clus>
<clus scale="   92.563">  7  8 -1 -1</clus>
<clus scale="  146.359">  1  5  2 -1</clus>
<clus scale="   74.949">  1  5  2 -1</clus>
</clustering>
</event>
<event>
 9    2  0.1592151E-004  0.1060887E+03  0.7546771E-02  0.1272873E+00
          2   -1    0    0  502    0 -0.00000000000E+00  0.00000000000E+00  0.26285675071E+03  0.26285675071E+03  0.00000000000E+00 0. -1.
         21   -1    0    0  501  502  0.00000000000E+00 -0.00000000000E+00 -0.55626538121E+02  0.55626538121E+02  0.00000000000E+00 0. -1.
         23    2    1    2    0    0  0.32526284549E+02 -0.38225649341E+02  0.10914675792E+03  0.15079941116E+03  0.91149811791E+02 0.  0.
         24    2    1    2    0    0 -0.56107640191E+02  0.28910054135E+02  0.50135504516E+02  0.11344490116E+03  0.79826801697E+02 0.  0.
        -13    1    4    4    0    0 -0.26618039354E+01  0.28195694935E+02  0.52812842914E+02  0.59927279178E+02  0.00000000000E+00 0.  1.
         14    1    4    4    0    0 -0.53445836256E+02  0.71435919964E+00 -0.26773383977E+01  0.53517621986E+02  0.00000000000E+00 0. -1.
        -11    1    3    3    0    0  0.21029578698E+02  0.25455003977E+02  0.14302286320E+02  0.35982715318E+02  0.00000000000E+00 0.  1.
         11    1    3    3    0    0  0.11496705851E+02 -0.63680653318E+02  0.94844471598E+02  0.11481669585E+03  0.00000000000E+00 0. -1.
          1    1    1    2  501    0  0.23581355642E+02  0.93155952056E+01  0.47947950156E+02  0.54238976503E+02  0.00000000000E+00 0. -1.
<scales pt_clust_5="13000.00000" pt_clust_6="13000.00000" pt_clust_7="13000.00000" pt_clust_8="13000.00000" pt_clust_9="25.35471"></scales>
<clustering>
<clus scale="   25.355">  2  9  1 -1</clus>
<clus scale="   79.827">  5  6 -1 -1</clus>
<clus scale="   91.150">  7  8 -1 -1</clus>
<clus scale="   96.534">  2  5  1 -1</clus>
<clus scale="   25.355">  2  5  1 -1</clus>
</clustering>
</event>
<event>
 9    2  0.1592151E-004  0.9792377E+02  0.7546771E-02  0.1290606E+00
         21   -1    0    0  501  502  0.00000000000E+00  0.00000000000E+00  0.79181601203E+02  0.79181601203E+02  0.00000000000E+00 0. -1.
         -1   -1    0    0    0  501 -0.00000000000E+00 -0.00000000000E+00 -0.33457955899E+03  0.33457955899E+03  0.00000000000E+00 0.  1.
         24    2    1    2    0    0 -0.36005054863E+02 -0.62617605219E+01 -0.26801633223E+03  0.28175828817E+03  0.78863204275E+02 0.  0.
         23    2    1    2    0    0  0.49084950686E+02  0.27570526699E+02  0.12540853320E+02  0.10699980821E+03  0.90123357841E+02 0.  0.
        -13    1    3    3    0    0 -0.26717533792E+02 -0.41745051565E+02 -0.13635097215E+03  0.14507950768E+03  0.00000000000E+00 0.  1.
         14    1    3    3    0    0 -0.92875210710E+01  0.35483291043E+02 -0.13166536008E+03  0.13667878049E+03  0.00000000000E+00 0. -1.
        -13    1    4    4    0    0  0.23874580742E+02 -0.32929804075E+02  0.63284113931E+01  0.41163289383E+02  0.00000000000E+00 0.  1.
         13    1    4    4    0    0  0.25210369944E+02  0.60500330774E+02  0.62124419274E+01  0.65836518827E+02  0.00000000000E+00 0. -1.
         -2    1    1    2    0  502 -0.13079895823E+02 -0.21308766177E+02  0.77521120811E-01  0.25003063818E+02  0.00000000000E+00 0.  1.
<scales pt_clust_5="13000.00000" pt_clust_6="13000.00000" pt_clust_7="13000.00000" pt_clust_8="13000.00000" pt_clust_9="25.00294"></scales>
<clustering>
<clus scale="   25.003">  1  9  2 -1</clus>
<clus scale="   78.863">  5  6 -1 -1</clus>
<clus scale="   87.671">  2  5  1 -1</clus>
<clus scale="   90.123">  7  8 -1 -1</clus>
<clus scale="   25.003">  1  5  2 -1</clus>
</clustering>
</event>
<event>
 9    2  0.1596091E-004  0.9324836E+02  0.7546771E-02  0.1300729E+00
         -1   -1    0    0    0  501 -0.00000000000E+00  0.00000000000E+00  0.30374998222E+03  0.30374998222E+03  0.00000000000E+00 0.  1.
         21   -1    0    0  501  502  0.00000000000E+00 -0.00000000000E+00 -0.16804678423E+03  0.16804678423E+03  0.00000000000E+00 0. -1.
         24    2    1    2    0    0 -0.97182913903E+00 -0.17146972466E+02  0.27105116873E+03  0.28376562530E+03  0.82214541990E+02 0.  0.
         23    2    1    2    0    0  0.20641852824E+02  0.27141939859E+02 -0.73103898794E+02  0.12199226095E+03  0.91515904220E+02 0.  0.
        -13    1    3    3    0    0 -0.75625998721E+01 -0.41821418751E+02  0.23916765791E+03  0.24291437293E+03  0.00000000000E+00 0.  1.
         14    1    3    3    0    0  0.65907707331E+01  0.24674446285E+02  0.31883510822E+02  0.40851252375E+02  0.00000000000E+00 0. -1.
        -11    1    4    4    0    0 -0.31339822667E+02  0.75803251450E+01 -0.27546825829E+01  0.32360996434E+02  0.00000000000E+00 0.  1.
         11    1    4    4    0    0  0.51981675490E+02  0.19561614714E+02 -0.70349216211E+02  0.89631264514E+02  0.00000000000E+00 0. -1.
         -2    1    1    2    0  502 -0.19670023685E+02 -0.99949673928E+01 -0.62244071947E+02  0.66038880195E+02  0.00000000000E+00 0.  1.
<scales pt_clust_5="13000.00000" pt_clust_6="13000.00000" pt_clust_7="13000.00000" pt_clust_8="13000.00000" pt_clust_9="22.06375"></scales>
<clustering>
<clus scale="   22.064">  2  9  1 -1</clus>
<clus scale="   82.215">  5  6 -1 -1</clus>
<clus scale="   84.139">  1  5  2 -1</clus>
<clus scale="   91.516">  7  8 -1 -1</clus>
<clus scale="   22.064">  2  5  1 -1</clus>
</clustering>
</event>
<event>
 9    2  0.1592151E-004  0.1447894E+03  0.7546771E-02  0.1227073E+00
          4   -1    0    0  502    0 -0.00000000000E+00  0.00000000000E+00  0.28428831351E+03  0.28428831351E+03  0.00000000000E+00 0. -1.
         21   -1    0    0  501  502  0.00000000000E+00 -0.00000000000E+00 -0.13038436617E+03  0.13038436617E+03  0.00000000000E+00 0. -1.
         24    2    1    2    0    0  0.10936275467E+02  0.50386763832E+02 -0.32969802984E+01  0.94900959985E+02  0.79604610648E+02 0.  0.
         23    2    1    2    0    0  0.83994894703E+01  0.92317527567E+02  0.46283808110E+02  0.13799990121E+03  0.91152095537E+02 0.  0.
        -11    1    3    3    0    0  0.21957499440E+02 -0.15074760956E+02  0.74437521949E+01  0.27654830432E+02  0.00000000000E+00 0.  1.
         12    1    3    3    0    0 -0.11021223972E+02  0.65461524787E+02 -0.10740732493E+02  0.67246129553E+02  0.00000000000E+00 0. -1.
        -11    1    4    4    0    0 -0.28215995047E+02  0.39908245132E+02  0.54883016995E+02  0.73491196483E+02  0.00000000000E+00 0.  1.
         11    1    4    4    0    0  0.36615484518E+02  0.52409282435E+02 -0.85992088845E+01  0.64508704724E+02  0.00000000000E+00 0. -1.
          3    1    1    2  501    0 -0.19335764937E+02 -0.14270429140E+03  0.11091711953E+03  0.18177181848E+03  0.00000000000E+00 0. -1.
<scales pt_clust_5="13000.00000" pt_clust_6="13000.00000" pt_clust_7="13000.00000" pt_clust_8="13000.00000" pt_clust_9="112.49573"></scales>
<clustering>
<clus scale="   79.605">  5  6 -1 -1</clus>
<clus scale="   91.152">  7  8 -1 -1</clus>
<clus scale="   94.844">  1  5  2 -1</clus>
<clus scale="  112.496">  2  9  1 -1</clus>
<clus scale="  112.496">  2  5  1 -1</clus>
</clustering>
</event>
<event>
 9    2  0.1592151E-004  0.1617010E+03  0.7546771E-02  0.1188100E+00
         21   -1    0    0  501  502  0.00000000000E+00  0.00000000000E+00  0.48322067223E+03  0.48322067223E+03  0.00000000000E+00 0. -1.
         -3   -1    0    0    0  501 -0.00000000000E+00 -0.00000000000E+00 -0.13645367228E+03  0.13645367228E+03  0.00000000000E+00 0.  1.
         24    2    1    2    0    0 -0.86944229753E+02 -0.11269890633E+03  0.11679033983E+02  0.16214532546E+03  0.76774762503E+02 0.  0.
         23    2    1    2    0    0  0.95928925864E+02  0.68286809810E+02  0.37171771648E+03  0.39926326835E+03  0.85858310549E+02 0.  0.
        -11    1    3    3    0    0 -0.26121696139E+01 -0.42291067914E+02 -0.21324701981E+02  0.47435227099E+02  0.00000000000E+00 0.  1.
         12    1    3    3    0    0 -0.84332060139E+02 -0.70407838417E+02  0.33003735963E+02  0.11471009836E+03  0.00000000000E+00 0. -1.
        -11    1    4    4    0    0  0.96197111518E+01  0.55149045443E+02  0.18214192489E+03  0.19055087735E+03  0.00000000000E+00 0. -1.
         11    1    4    4    0    0  0.86309214712E+02  0.13137764367E+02  0.18957579159E+03  0.20871239099E+03  0.00000000000E+00 0.  1.
         -4    1    1    2    0  502 -0.89846961104E+01  0.44412096521E+02 -0.36629750523E+02  0.58265750703E+02  0.00000000000E+00 0.  1.
<scales pt_clust_5="13000.00000" pt_clust_6="13000.00000" pt_clust_7="13000.00000" pt_clust_8="13000.00000" pt_clust_9="45.31182"></scales>
<clustering>
<clus scale="   45.312">  1  9  2 -1</clus>
<clus scale="   76.775">  5  6 -1 -1</clus>
<clus scale="   85.858">  7  8 -1 -1</clus>
<clus scale="  157.067">  2  5  1 -1</clus>
<clus scale="   45.312">  1  5  2 -1</clus>
</clustering>
</event>
<event>
 9    2  0.1592151E-004  0.1360069E+03  0.7546771E-02  0.1222651E+00
         21   -1    0    0  501  502  0.00000000000E+00  0.00000000000E+00  0.23916721401E+03  0.23916721401E+03  0.00000000000E+00 0. -1.
          2   -1    0    0  502    0 -0.00000000000E+00 -0.00000000000E+00 -0.13519688681E+03  0.13519688681E+03  0.00000000000E+00 0. -1.
         23    2    1    2    0    0  0.89145636518E+02 -0.52587759111E+02 -0.60171041428E+02  0.14934141583E+03  0.89274225488E+02 0.  0.
         24    2    1    2    0    0 -0.70957475958E+02  0.73549713324E+02  0.14373391253E+03  0.19057450690E+03  0.72212750576E+02 0.  0.
        -13    1    4    4    0    0 -0.80894135443E+02  0.53066739301E+02  0.13522562129E+03  0.16627058857E+03  0.00000000000E+00 0.  1.
         14    1    4    4    0    0  0.99366594848E+01  0.20482974023E+02  0.85082912335E+01  0.24303918331E+02  0.00000000000E+00 0. -1.
        -11    1    3    3    0    0  0.37025901369E+02 -0.23803212896E+02 -0.75916722955E+02  0.87754539145E+02  0.00000000000E+00 0. -1.
         11    1    3    3    0    0  0.52119735149E+02 -0.28784546215E+02  0.15745681528E+02  0.61586876683E+02  0.00000000000E+00 0.  1.
          1    1    1    2  501    0 -0.18188160560E+02 -0.20961954213E+02  0.20407456105E+02  0.34448178089E+02  0.00000000000E+00 0. -1.
<scales pt_clust_5="13000.00000" pt_clust_6="13000.00000" pt_clust_7="13000.00000" pt_clust_8="13000.00000" pt_clust_9="27.75271"></scales>
<clustering>
<clus scale="   27.753">  1  9  2 -1</clus>
<clus scale="   72.213">  5  6 -1 -1</clus>
<clus scale="   89.274">  7  8 -1 -1</clus>
<clus scale="  125.470">  1  5  2 -1</clus>
<clus scale="   27.753">  1  5  2 -1</clus>
</clustering>
</event>
<event>
 9    2  0.1592151E-004  0.1025499E+03  0.7546771E-02  0.1275537E+00
         21   -1    0    0  501  502  0.00000000000E+00  0.00000000000E+00  0.38784714134E+03  0.38784714134E+03  0.00000000000E+00 0. -1.
          2   -1    0    0  502    0 -0.00000000000E+00 -0.00000000000E+00 -0.47247312234E+03  0.47247312234E+03  0.00000000000E+00 0. -1.
         23    2    1    2    0    0 -0.65503733020E+02 -0.28238185770E+02 -0.36447658978E+03  0.38098337692E+03  0.84953015349E+02 0.  0.
         24    2    1    2    0    0 -0.55645313274E+01  0.45712503559E+02 -0.72191881534E+02  0.11976774881E+03  0.83737977676E+02 0.  0.
        -13    1    4    4    0    0  0.17036553785E+02  0.10837204366E+02  0.13665639743E+02  0.24381117138E+02  0.00000000000E+00 0.  1.
         14    1    4    4    0    0 -0.22601085112E+02  0.34875299193E+02 -0.85857521277E+02  0.95386631673E+02  0.00000000000E+00 0. -1.
        -13    1    3    3    0    0 -0.45723894146E+02 -0.58709448667E+02 -0.23434215417E+03  0.24587338018E+03  0.00000000000E+00 0.  1.
         13    1    3    3    0    0 -0.19779838874E+02  0.30471262897E+02 -0.13013443561E+03  0.13510999674E+03  0.00000000000E+00 0. -1.
          1    1    1    2  501    0  0.71068264347E+02 -0.17474317789E+02  0.35204249031E+03  0.35956913794E+03  0.00000000000E+00 0. -1.
<scales pt_clust_5="13000.00000" pt_clust_6="13000.00000" pt_clust_7="13000.00000" pt_clust_8="13000.00000" pt_clust_9="73.18504"></scales>
<clustering>
<clus scale="   73.185">  1  9  2 -1</clus>
<clus scale="   83.738">  5  6 -1 -1</clus>
<clus scale="   84.953">  7  8 -1 -1</clus>
<clus scale="  101.546">  1  5  2 -1</clus>
<clus scale="   73.185">  1  5  2 -1</clus>
</clustering>
</event>
<event>
 9    2  0.1592151E-004  0.1002021E+03  0.7546771E-02  0.1286343E+00
         -1   -1    0    0    0  501 -0.00000000000E+00  0.00000000000E+00  0.73648290835E+03  0.73648290835E+03  0.00000000000E+00 0.  1.
         21   -1    0    0  501  502  0.00000000000E+00 -0.00000000000E+00 -0.37488843921E+02  0.37488843921E+02  0.00000000000E+00 0.  1.
         23    2    1    2    0    0  0.18949339362E+01  0.55433087014E+01  0.29211177428E+03  0.30642833262E+03  0.92383522952E+02 0.  0.
         24    2    1    2    0    0 -0.83711763054E+02 -0.37775849872E+02  0.32647894854E+03  0.34838962165E+03  0.79700379683E+02 0.  0.
        -13    1    4    4    0    0 -0.85005877971E+02 -0.17014100884E+02  0.17298340607E+03  0.19349092406E+03  0.00000000000E+00 0.  1.
         14    1    4    4    0    0  0.12941149167E+01 -0.20761748988E+02  0.15349554247E+03  0.15489869758E+03  0.00000000000E+00 0. -1.
        -11    1    3    3    0    0 -0.40006608970E+02  0.18444022872E+02  0.19443690191E+03  0.19936504098E+03  0.00000000000E+00 0.  1.
         11    1    3    3    0    0  0.41901542906E+02 -0.12900714171E+02  0.97674872371E+02  0.10706329164E+03  0.00000000000E+00 0. -1.
         -2    1    1    2    0  502  0.81816829118E+02  0.32232541171E+02  0.80403341604E+02  0.11915379800E+03  0.00000000000E+00 0.  1.
<scales pt_clust_5="13000.00000" pt_clust_6="13000.00000" pt_clust_7="13000.00000" pt_clust_8="13000.00000" pt_clust_9="87.93708"></scales>
<clustering>
<clus scale="   79.700">  5  6 -1 -1</clus>
<clus scale="   87.937">  2  9  1 -1</clus>
<clus scale="   88.645">  2  5  1 -1</clus>
<clus scale="   92.384">  7  8 -1 -1</clus>
<clus scale="   87.937">  2  5  1 -1</clus>
</clustering>
</event>
<event>
 9    2  0.1592151E-004  0.2162896E+03  0.7546771E-02  0.1136680E+00
          2   -1    0    0  502    0 -0.00000000000E+00  0.00000000000E+00  0.10180642513E+04  0.10180642513E+04  0.00000000000E+00 0. -1.
         21   -1    0    0  501  502  0.00000000000E+00 -0.00000000000E+00 -0.27508633426E+02  0.27508633426E+02  0.00000000000E+00 0. -1.
         24    2    1    2    0    0 -0.69974862192E+02 -0.48214707973E+02  0.30164821250E+03  0.32338712112E+03  0.79790015636E+02 0.  0.
         23    2    1    2    0    0 -0.35695106686E+02 -0.51305059321E+01  0.33118083640E+03  0.34538322605E+03  0.91150225998E+02 0.  0.
        -11    1    3    3    0    0 -0.55106579624E+02 -0.69342704798E+02  0.25659698562E+03  0.27145378770E+03  0.00000000000E+00 0.  1.
         12    1    3    3    0    0 -0.14868282568E+02  0.21127996825E+02  0.45051226878E+02  0.51933333415E+02  0.00000000000E+00 0. -1.
        -13    1    4    4    0    0  0.39157321022E+01  0.33828931563E+02  0.64099943508E+02  0.72584656273E+02  0.00000000000E+00 0.  1.
         13    1    4    4    0    0 -0.39610838788E+02 -0.38959437495E+02  0.26708089290E+03  0.27279856977E+03  0.00000000000E+00 0. -1.
          1    1    1    2  501    0  0.10566996888E+03  0.53345213905E+02  0.35772656896E+03  0.37680253756E+03  0.00000000000E+00 0. -1.
<scales pt_clust_5="13000.00000" pt_clust_6="13000.00000" pt_clust_7="13000.00000" pt_clust_8="13000.00000" pt_clust_9="118.37174"></scales>
<clustering>
<clus scale="   79.790">  5  6 -1 -1</clus>
<clus scale="   91.150">  7  8 -1 -1</clus>
<clus scale="   94.475">  5  7 -1 -1</clus>
<clus scale="  118.372">  2  9  1 -1</clus>
<clus scale="  118.372">  2  5  1 -1</clus>
</clustering>
</event>
<event>
 9    2  0.1592151E-004  0.1634238E+03  0.7546771E-02  0.1185612E+00
         21   -1    0    0  501  502  0.00000000000E+00  0.00000000000E+00  0.59170645044E+02  0.59170645044E+02  0.00000000000E+00 0. -1.
          2   -1    0    0  502    0 -0.00000000000E+00 -0.00000000000E+00 -0.67107285964E+03  0.67107285964E+03  0.00000000000E+00 0. -1.
         23    2    1    2    0    0  0.81293199638E+02 -0.90004416302E+02 -0.23198615570E+03  0.27510221175E+03  0.84582925069E+02 0.  0.
         24    2    1    2    0    0 -0.65542657356E+02  0.15169562027E+03 -0.31326116067E+03  0.36296342310E+03  0.79388226960E+02 0.  0.
        -11    1    4    4    0    0 -0.56244740222E+02  0.39278548520E+02 -0.14473405390E+03  0.16016935267E+03  0.00000000000E+00 0.  1.
         12    1    4    4    0    0 -0.92979171341E+01  0.11241707175E+03 -0.16852710677E+03  0.20279407042E+03  0.00000000000E+00 0. -1.
        -13    1    3    3    0    0  0.73623427323E+02 -0.23909295019E+02 -0.15565796627E+03  0.17384322220E+03  0.00000000000E+00 0.  1.
         13    1    3    3    0    0  0.76697723149E+01 -0.66095121283E+02 -0.76328189424E+02  0.10125898955E+03  0.00000000000E+00 0. -1.
          1    1    1    2  501    0 -0.15750542282E+02 -0.61691203971E+02 -0.66654898232E+02  0.92177869838E+02  0.00000000000E+00 0. -1.
<scales pt_clust_5="13000.00000" pt_clust_6="13000.00000" pt_clust_7="13000.00000" pt_clust_8="13000.00000" pt_clust_9="63.67012"></scales>
<clustering>
<clus scale="   63.670">  1  9  2 -1</clus>
<clus scale="   79.388">  5  6 -1 -1</clus>
<clus scale="   84.583">  7  8 -1 -1</clus>
<clus scale="  160.797">  1  5  2 -1</clus>
<clus scale="   63.670">  1  5  2 -1</clus>
</clustering>
</event>
<event>
 9    2  0.1592151E-004  0.9368062E+02  0.7546771E-02  0.1300795E+00
         21   -1    0    0  501  502  0.00000000000E+00  0.00000000000E+00  0.43543933400E+03  0.43543933400E+03  0.00000000000E+00 0. -1.
         -3   -1    0    0    0  501 -0.00000000000E+00 -0.00000000000E+00 -0.41093211879E+02  0.41093211879E+02  0.00000000000E+00 0.  1.
         23    2    1    2    0    0 -0.32233331928E+01 -0.85150981302E+01  0.75926718596E+02  0.11974083361E+03  0.92141759605E+02 0.  0.
         24    2    1    2    0    0  0.43854202639E+02  0.16997355211E+02  0.29408823478E+03  0.30867911507E+03  0.81134487552E+02 0.  0.
        -13    1    4    4    0    0  0.26111672145E+02 -0.45257731068E+01  0.20065655965E+02  0.33240526376E+02  0.00000000000E+00 0.  1.
         14    1    4    4    0    0  0.17742530495E+02  0.21523128318E+02  0.27402257882E+03  0.27543858870E+03  0.00000000000E+00 0. -1.
        -13    1    3    3    0    0  0.15122477442E+02 -0.45490121328E+02  0.56574245328E+02  0.74153123312E+02  0.00000000000E+00 0. -1.
         13    1    3    3    0    0 -0.18345810635E+02  0.36975023198E+02  0.19352473268E+02  0.45587710295E+02  0.00000000000E+00 0.  1.
         -4    1    1    2    0  502 -0.40630869447E+02 -0.84822570806E+01  0.24331168743E+02  0.48112597203E+02  0.00000000000E+00 0.  1.
<scales pt_clust_5="13000.00000" pt_clust_6="13000.00000" pt_clust_7="13000.00000" pt_clust_8="13000.00000" pt_clust_9="41.50684"></scales>
<clustering>
<clus scale="   41.507">  1  9  2 -1</clus>
<clus scale="   81.134">  5  6 -1 -1</clus>
<clus scale="   82.878">  1  5  2 -1</clus>
<clus scale="   92.142">  7  8 -1 -1</clus>
<clus scale="   41.507">  1  5  2 -1</clus>
</clustering>
</event>
<event>
 9    2  0.1592151E-004  0.1710617E+03  0.7546771E-02  0.1190319E+00
          2   -1    0    0  502    0 -0.00000000000E+00  0.00000000000E+00  0.39687881239E+03  0.39687881239E+03  0.00000000000E+00 0. -1.
         21   -1    0    0  501  502  0.00000000000E+00 -0.00000000000E+00 -0.25271952853E+03  0.25271952853E+03  0.00000000000E+00 0.  1.
         24    2    1    2    0    0  0.91858768162E+02  0.57749720560E+01 -0.14860035501E+03  0.19502971639E+03  0.86505151144E+02 0.  0.
         23    2    1    2    0    0  0.92905469821E+02 -0.71510043664E+02  0.97608811834E+02  0.17790498657E+03  0.91529183497E+02 0.  0.
        -11    1    3    3    0    0  0.69714225898E+02  0.15167898261E+02 -0.15457407889E+03  0.17024477758E+03  0.00000000000E+00 0.  1.
         12    1    3    3    0    0  0.22144542264E+02 -0.93929262054E+01  0.59737238734E+01  0.24784938807E+02  0.00000000000E+00 0. -1.
        -11    1    4    4    0    0  0.77298993210E+02 -0.14761360898E+02  0.88365704509E+02  0.11832806032E+03  0.00000000000E+00 0.  1.
         11    1    4    4    0    0  0.15606476612E+02 -0.56748682766E+02  0.92431073245E+01  0.59576926246E+02  0.00000000000E+00 0. -1.
          1    1    1    2  501    0 -0.18476423798E+03  0.65735071608E+02  0.19515082703E+03  0.27666363796E+03  0.00000000000E+00 0. -1.
<scales pt_clust_5="13000.00000" pt_clust_6="13000.00000" pt_clust_7="13000.00000" pt_clust_8="13000.00000" pt_clust_9="144.51480"></scales>
<clustering>
<clus scale="   86.505">  5  6 -1 -1</clus>
<clus scale="   91.529">  7  8 -1 -1</clus>
<clus scale="  126.311">  1  5  2 -1</clus>
<clus scale="  144.515">  2  9  1 -1</clus>
<clus scale="  144.515">  2  5  1 -1</clus>
</clustering>
</event>
<event>
 9    2  0.1592151E-004  0.1859348E+03  0.7546771E-02  0.1163865E+00
         21   -1    0    0  501  502  0.00000000000E+00  0.00000000000E+00  0.39389649065E+03  0.39389649065E+03  0.00000000000E+00 0. -1.
          2   -1    0    0  502    0 -0.00000000000E+00 -0.00000000000E+00 -0.27159592691E+03  0.27159592691E+03  0.00000000000E+00 0. -1.
         24    2    1    2    0    0  0.15700606457E+03  0.34143971037E+02 -0.20337175445E+03  0.27022981903E+03  0.76468094751E+02 0.  0.
         23    2    1    2    0    0 -0.16097582784E+03 -0.62303804227E+02  0.28350590867E+03  0.34440258165E+03  0.91883387093E+02 0.  0.
        -13    1    3    3    0    0  0.37135821389E+02 -0.16554788364E+02 -0.19858947467E+02  0.45249398256E+02  0.00000000000E+00 0.  1.
         14    1    3    3    0    0  0.11987024318E+03  0.50698759400E+02 -0.18351280698E+03  0.22498042077E+03  0.00000000000E+00 0. -1.
        -13    1    4    4    0    0 -0.94537319521E+02 -0.31030224382E+02  0.23813348034E+03  0.25808474203E+03  0.00000000000E+00 0. -1.
         13    1    4    4    0    0 -0.66438508318E+02 -0.31273579844E+02  0.45372428325E+02  0.86317839616E+02  0.00000000000E+00 0.  1.
          1    1    1    2  501    0  0.39697632669E+01  0.28159833190E+02  0.42166409523E+02  0.50860016887E+02  0.00000000000E+00 0. -1.
<scales pt_clust_5="13000.00000" pt_clust_6="13000.00000" pt_clust_7="13000.00000" pt_clust_8="13000.00000" pt_clust_9="28.43827"></scales>
<clustering>
<clus scale="   28.438">  1  9  2 -1</clus>
<clus scale="   76.468">  5  6 -1 -1</clus>
<clus scale="   91.883">  7  8 -1 -1</clus>
<clus scale="  178.820">  2  5  1 -1</clus>
<clus scale="   28.438">  1  5  2 -1</clus>
</clustering>
</event>
<event>
 9    2  0.1592151E-004  0.1590621E+03  0.7546771E-02  0.1191982E+00
          2   -1    0    0  502    0 -0.00000000000E+00  0.00000000000E+00  0.10075760766E+04  0.10075760766E+04  0.00000000000E+00 0. -1.
         21   -1    0    0  501  502  0.00000000000E+00 -0.00000000000E+00 -0.39288599732E+02  0.39288599732E+02  0.00000000000E+00 0.  1.
         23    2    1    2    0    0  0.12881399444E+03  0.41290440212E+02  0.69185209216E+03  0.71137130123E+03  0.95351272570E+02 0.  0.
         24    2    1    2    0    0 -0.11147065196E+03 -0.23966037503E+02  0.27742922878E+03  0.31095943566E+03  0.82028753756E+02 0.  0.
        -13    1    4    4    0    0 -0.11181632667E+03  0.28618404104E+01  0.24123885469E+03  0.26590837906E+03  0.00000000000E+00 0.  1.
         14    1    4    4    0    0  0.34567470897E+00 -0.26827877913E+02  0.36190374089E+02  0.45051056603E+02  0.00000000000E+00 0. -1.
        -13    1    3    3    0    0  0.66575014777E+02 -0.24872662516E+02  0.37868879157E+03  0.38529999065E+03  0.00000000000E+00 0.  1.
         13    1    3    3    0    0  0.62238979668E+02  0.66163102728E+02  0.31316330059E+03  0.32607131058E+03  0.00000000000E+00 0. -1.
          1    1    1    2  501    0 -0.17343342480E+02 -0.17324402709E+02 -0.99384407964E+00  0.24533939424E+02  0.00000000000E+00 0. -1.
<scales pt_clust_5="13000.00000" pt_clust_6="13000.00000" pt_clust_7="13000.00000" pt_clust_8="13000.00000" pt_clust_9="24.51380"></scales>
<clustering>
<clus scale="   24.514">  2  9  1 -1</clus>
<clus scale="   82.029">  5  6 -1 -1</clus>
<clus scale="   95.351">  7  8 -1 -1</clus>
<clus scale="  151.452">  2  5  1 -1</clus>
<clus scale="   24.514">  2  5  1 -1</clus>
</clustering>
</event>
<event>
 9    2  0.1592151E-004  0.9288598E+02  0.7546771E-02  0.1301797E+00
          2   -1    0    0  502    0 -0.00000000000E+00  0.00000000000E+00  0.84777345710E+03  0.84777345710E+03  0.00000000000E+00 0. -1.
         21   -1    0    0  501  502  0.00000000000E+00 -0.00000000000E+00 -0.34713597093E+02  0.34713597093E+02  0.00000000000E+00 0. -1.
         24    2    1    2    0    0 -0.47267432408E+01  0.25285356581E+02  0.69123907948E+03  0.69639896864E+03  0.80612450452E+02 0.  0.
         23    2    1    2    0    0  0.33253142511E+01  0.14063540946E+01  0.12981523523E+03  0.15818964960E+03  0.90326819920E+02 0.  0.
        -13    1    3    3    0    0 -0.21477568214E+02  0.22846251319E+02  0.97490757067E+02  0.10240939825E+03  0.00000000000E+00 0.  1.
         14    1    3    3    0    0  0.16750824973E+02  0.24391052613E+01  0.59374832241E+03  0.59398957039E+03  0.00000000000E+00 0. -1.
        -13    1    4    4    0    0 -0.27309008505E+02 -0.24988291316E+02  0.22046147090E+02  0.43083979040E+02  0.00000000000E+00 0.  1.
         13    1    4    4    0    0  0.30634322756E+02  0.26394645410E+02  0.10776908814E+03  0.11510567056E+03  0.00000000000E+00 0. -1.
          1    1    1    2  501    0  0.14014289897E+01 -0.26691710675E+02 -0.79944547083E+01  0.27898435943E+02  0.00000000000E+00 0. -1.
<scales pt_clust_5="13000.00000" pt_clust_6="13000.00000" pt_clust_7="13000.00000" pt_clust_8="13000.00000" pt_clust_9="26.72848"></scales>
<clustering>
<clus scale="   26.728">  2  9  1 -1</clus>
<clus scale="   80.612">  5  6 -1 -1</clus>
<clus scale="   83.470">  1  5  2 -1</clus>
<clus scale="   90.327">  7  8 -1 -1</clus>
<clus scale="   26.728">  2  5  1 -1</clus>
</clustering>
</event>
<event>
 9    2  0.1592151E-004  0.1310147E+03  0.7546771E-02  0.1229132E+00
         21   -1    0    0  501  502  0.00000000000E+00  0.00000000000E+00  0.52879716649E+03  0.52879716649E+03  0.00000000000E+00 0.  1.
         -1   -1    0    0    0  501 -0.00000000000E+00 -0.00000000000E+00 -0.18165285851E+03  0.18165285851E+03  0.00000000000E+00 0.  1.
         23    2    1    2    0    0  0.35108362949E+02  0.85537945254E+02 -0.13897809303E+03  0.19045343706E+03  0.91696587277E+02 0.  0.
         24    2    1    2    0    0 -0.65277667405E+01 -0.11307549784E+03  0.30972068736E+03  0.33918527230E+03  0.79316233007E+02 0.  0.
        -13    1    4    4    0    0  0.22663541473E+02 -0.94560686397E+02  0.17607198454E+03  0.20113851761E+03  0.00000000000E+00 0.  1.
         14    1    4    4    0    0 -0.29191308213E+02 -0.18514811447E+02  0.13364870281E+03  0.13804675470E+03  0.00000000000E+00 0. -1.
        -11    1    3    3    0    0  0.20551186961E+02  0.10421151918E+03 -0.10822073278E+03  0.15163811862E+03  0.00000000000E+00 0.  1.
         11    1    3    3    0    0  0.14557175988E+02 -0.18673573926E+02 -0.30757360256E+02  0.38815318443E+02  0.00000000000E+00 0. -1.
         -2    1    1    2    0  502 -0.28580596209E+02  0.27537552590E+02  0.17640171365E+03  0.18081131564E+03  0.00000000000E+00 0.  1.
<scales pt_clust_5="13000.00000" pt_clust_6="13000.00000" pt_clust_7="13000.00000" pt_clust_8="13000.00000" pt_clust_9="39.68838"></scales>
<clustering>
<clus scale="   39.688">  1  9  2 -1</clus>
<clus scale="   79.316">  5  6 -1 -1</clus>
<clus scale="   91.697">  7  8 -1 -1</clus>
<clus scale="  122.669">  1  5  2 -1</clus>
<clus scale="   39.688">  1  5  2 -1</clus>
</clustering>
</event>
<event>
 9    2  0.1592151E-004  0.9299296E+02  0.7546771E-02  0.1297140E+00
         21   -1    0    0  501  502  0.00000000000E+00  0.00000000000E+00  0.12816123329E+03  0.12816123329E+03  0.00000000000E+00 0.  1.
         -3   -1    0    0    0  501 -0.00000000000E+00 -0.00000000000E+00 -0.30619043233E+03  0.30619043233E+03  0.00000000000E+00 0.  1.
         24    2    1    2    0    0 -0.13737979059E+02  0.23949001878E+02 -0.21178824999E+03  0.22989587427E+03  0.85062115030E+02 0.  0.
         23    2    1    2    0    0  0.78931569106E+02 -0.31790663218E+02  0.57073107866E+02  0.13477623132E+03  0.87558289251E+02 0.  0.
        -13    1    3    3    0    0  0.31585430146E+02  0.23491718366E+02 -0.13605734549E+03  0.14163721788E+03  0.00000000000E+00 0.  1.
         14    1    3    3    0    0 -0.45323409205E+02  0.45728351184E+00 -0.75730904503E+02  0.88258656386E+02  0.00000000000E+00 0. -1.
        -13    1    4    4    0    0  0.74596237497E+02  0.69984912159E+01  0.59492016838E+02  0.95670672599E+02  0.00000000000E+00 0.  1.
         13    1    4    4    0    0  0.43353316091E+01 -0.38789154434E+02 -0.24189089725E+01  0.39105558716E+02  0.00000000000E+00 0. -1.
         -4    1    1    2    0  502 -0.65193590047E+02  0.78416613400E+01 -0.23314056920E+02  0.69679560029E+02  0.00000000000E+00 0.  1.
<scales pt_clust_5="13000.00000" pt_clust_6="13000.00000" pt_clust_7="13000.00000" pt_clust_8="13000.00000" pt_clust_9="65.66350"></scales>
<clustering>
<clus scale="   65.664">  1  9  2 -1</clus>
<clus scale="   85.062">  5  6 -1 -1</clus>
<clus scale="   87.558">  7  8 -1 -1</clus>
<clus scale="   90.647">  2  5  1 -1</clus>
<clus scale="   65.664">  1  5  2 -1</clus>
</clustering>
</event>
<event>
 9    2  0.1592151E-004  0.9896633E+02  0.7546771E-02  0.1287715E+00
         21   -1    0    0  501  502  0.00000000000E+00  0.00000000000E+00  0.19858408878E+03  0.19858408878E+03  0.00000000000E+00 0. -1.
          2   -1    0    0  502    0 -0.00000000000E+00 -0.00000000000E+00 -0.14904323172E+03  0.14904323172E+03  0.00000000000E+00 0. -1.
         23    2    1    2    0    0 -0.11202379368E+02 -0.38096943604E+02 -0.10247496831E+03  0.14263807361E+03  0.90926511513E+02 0.  0.
         24    2    1    2    0    0  0.46714490648E+02  0.20186577624E+02  0.89015692041E+02  0.13048483054E+03  0.80701648172E+02 0.  0.
        -13    1    4    4    0    0 -0.17037548765E+02 -0.11624761374E+02  0.36677497727E+02  0.42079115775E+02  0.00000000000E+00 0.  1.
         14    1    4    4    0    0  0.63752039413E+02  0.31811338998E+02  0.52338194314E+02  0.88405714760E+02  0.00000000000E+00 0. -1.
        -11    1    3    3    0    0 -0.36243090814E+02  0.15826200404E+02 -0.45608890833E+02  0.60367219366E+02  0.00000000000E+00 0.  1.
         11    1    3    3    0    0  0.25040711446E+02 -0.53923144008E+02 -0.56866077482E+02  0.82270854241E+02  0.00000000000E+00 0. -1.
          1    1    1    2  501    0 -0.35512111280E+02  0.17910365979E+02  0.63000133333E+02  0.74504416360E+02  0.00000000000E+00 0. -1.
<scales pt_clust_5="13000.00000" pt_clust_6="13000.00000" pt_clust_7="13000.00000" pt_clust_8="13000.00000" pt_clust_9="39.77300"></scales>
<clustering>
<clus scale="   39.773">  1  9  2 -1</clus>
<clus scale="   80.702">  5  6 -1 -1</clus>
<clus scale="   89.663">  1  5  2 -1</clus>
<clus scale="   90.927">  7  8 -1 -1</clus>
<clus scale="   39.773">  1  5  2 -1</clus>
</clustering>
</event>
<event>
 9    2  0.1592151E-004  0.1127418E+03  0.7546771E-02  0.1258533E+00
         21   -1    0    0  501  502  0.00000000000E+00  0.00000000000E+00  0.94309690637E+02  0.94309690637E+02  0.00000000000E+00 0.  1.
          4   -1    0    0  502    0 -0.00000000000E+00 -0.00000000000E+00 -0.24764411198E+03  0.24764411198E+03  0.00000000000E+00 0. -1.
         24    2    1    2    0    0 -0.24302671070E+02 -0.29175330134E+02 -0.95999166115E+02  0.14309189859E+03  0.99083963572E+02 0.  0.
         23    2    1    2    0    0  0.84830680645E+02  0.34507009902E+02 -0.37431969266E+02  0.13492281157E+03  0.91738948374E+02 0.  0.
        -13    1    3    3    0    0  0.19284041781E+02  0.24084337999E+02 -0.54779294316E+02  0.62870507315E+02  0.00000000000E+00 0.  1.
         14    1    3    3    0    0 -0.43586712851E+02 -0.53259668133E+02 -0.41219871799E+02  0.80221391274E+02  0.00000000000E+00 0. -1.
        -11    1    4    4    0    0  0.54570011786E+02  0.51380247995E+02  0.10600911670E+02  0.75698054127E+02  0.00000000000E+00 0.  1.
         11    1    4    4    0    0  0.30260668859E+02 -0.16873238094E+02 -0.48032880936E+02  0.59224757447E+02  0.00000000000E+00 0. -1.
          3    1    1    2  501    0 -0.60528009575E+02 -0.53316797678E+01 -0.19903285966E+02  0.63939092459E+02  0.00000000000E+00 0. -1.
<scales pt_clust_5="13000.00000" pt_clust_6="13000.00000" pt_clust_7="13000.00000" pt_clust_8="13000.00000" pt_clust_9="60.76238"></scales>
<clustering>
<clus scale="   60.762">  1  9  2 -1</clus>
<clus scale="   91.739">  7  8 -1 -1</clus>
<clus scale="   99.084">  5  6 -1 -1</clus>
<clus scale="  106.344">  1  7  2 -1</clus>
<clus scale="   60.762">  1  5  2 -1</clus>
</clustering>
</event>
<event>
 9    2  0.1592151E-004  0.2413156E+03  0.7546771E-02  0.1119957E+00
          2   -1    0    0  502    0 -0.00000000000E+00  0.00000000000E+00  0.12396043121E+04  0.12396043121E+04  0.00000000000E+00 0. -1.
         21   -1    0    0  501  502  0.00000000000E+00 -0.00000000000E+00 -0.12928873071E+03  0.12928873071E+03  0.00000000000E+00 0.  1.
         23    2    1    2    0    0  0.87391103602E+02 -0.19882602213E+03  0.10257535850E+04  0.10528829490E+04  0.96036946685E+02 0.  0.
         24    2    1    2    0    0 -0.11831689408E+03  0.22334669597E+03  0.76844862537E+02  0.27579539350E+03  0.79216994072E+02 0.  0.
        -11    1    4    4    0    0 -0.10042425749E+03  0.11957637738E+03  0.24027572330E+02  0.15799008118E+03  0.00000000000E+00 0.  1.
         12    1    4    4    0    0 -0.17892636590E+02  0.10377031859E+03  0.52817290207E+02  0.11780531232E+03  0.00000000000E+00 0. -1.
        -13    1    3    3    0    0  0.13439057395E+02 -0.48218555153E+02  0.97618922217E+02  0.10970456371E+03  0.00000000000E+00 0.  1.
         13    1    3    3    0    0  0.73952046207E+02 -0.15060746698E+03  0.92813466280E+03  0.94317838532E+03  0.00000000000E+00 0. -1.
          1    1    1    2  501    0  0.30925790482E+02 -0.24520673837E+02  0.77171338114E+01  0.40214700255E+02  0.00000000000E+00 0. -1.
<scales pt_clust_5="13000.00000" pt_clust_6="13000.00000" pt_clust_7="13000.00000" pt_clust_8="13000.00000" pt_clust_9="39.46730"></scales>
<clustering>
<clus scale="   39.467">  2  9  1 -1</clus>
<clus scale="   79.217">  5  6 -1 -1</clus>
<clus scale="   96.037">  7  8 -1 -1</clus>
<clus scale="  235.129">  2  5  1 -1</clus>
<clus scale="   39.467">  2  5  1 -1</clus>
</clustering>
</event>
<event>
 9    2  0.1592151E-004  0.1151372E+03  0.7546771E-02  0.1255309E+00
         21   -1    0    0  501  502  0.00000000000E+00  0.00000000000E+00  0.16589284788E+03  0.16589284788E+03  0.00000000000E+00 0.  1.
         -1   -1    0    0    0  501 -0.00000000000E+00 -0.00000000000E+00 -0.19616173625E+03  0.19616173625E+03  0.00000000000E+00 0.  1.
         23    2    1    2    0    0 -0.10303732757E+01  0.66211831516E+02 -0.13081143717E+03  0.17324246002E+03  0.92283528090E+02 0.  0.
         24    2    1    2    0    0  0.34487739054E+02 -0.82019210810E+02  0.90016717275E+02  0.15034055416E+03  0.81133949430E+02 0.  0.
        -11    1    4    4    0    0  0.21843840602E+02 -0.92380274309E+02  0.93916528832E+02  0.13353494989E+03  0.00000000000E+00 0.  1.
         12    1    4    4    0    0  0.12643898451E+02  0.10361063499E+02 -0.38998115572E+01  0.16805604275E+02  0.00000000000E+00 0. -1.
        -11    1    3    3    0    0 -0.59055033064E+01  0.26563744652E+02  0.83472554257E+01  0.28463734336E+02  0.00000000000E+00 0. -1.
         11    1    3    3    0    0  0.48751300307E+01  0.39648086864E+02 -0.13915869260E+03  0.14477872568E+03  0.00000000000E+00 0.  1.
         -2    1    1    2    0  502 -0.33457365778E+02  0.15807379294E+02  0.10525831525E+02  0.38471569948E+02  0.00000000000E+00 0.  1.
<scales pt_clust_5="13000.00000" pt_clust_6="13000.00000" pt_clust_7="13000.00000" pt_clust_8="13000.00000" pt_clust_9="37.00363"></scales>
<clustering>
<clus scale="   37.004">  1  9  2 -1</clus>
<clus scale="   81.134">  5  6 -1 -1</clus>
<clus scale="   92.284">  7  8 -1 -1</clus>
<clus scale="  106.410">  1  5  2 -1</clus>
<clus scale="   37.004">  1  5  2 -1</clus>
</clustering>
</event>
<event>
 9    2  0.1592151E-004  0.9498546E+02  0.7546771E-02  0.1296404E+00
         21   -1    0    0  501  502  0.00000000000E+00  0.00000000000E+00  0.13578911289E+03  0.13578911289E+03  0.00000000000E+00 0. -1.
          2   -1    0    0  502    0 -0.00000000000E+00 -0.00000000000E+00 -0.30884954257E+03  0.30884954257E+03  0.00000000000E+00 0. -1.
         23    2    1    2    0    0  0.16491688840E+02 -0.22041628370E+02 -0.22818408407E+03  0.24672540575E+03  0.89708641929E+02 0.  0.
         24    2    1    2    0    0 -0.64082358123E+02  0.24393969225E+01 -0.22036600687E+02  0.10516183870E+03  0.80379731708E+02 0.  0.
        -13    1    4    4    0    0  0.12871518582E+02 -0.18922222246E+02 -0.32104827210E+01  0.23109168843E+02  0.00000000000E+00 0.  1.
         14    1    4    4    0    0 -0.76953876704E+02  0.21361619168E+02 -0.18826117966E+02  0.82052669859E+02  0.00000000000E+00 0. -1.
        -13    1    3    3    0    0  0.78012463611E+01  0.29505676245E+02 -0.34274499769E+02  0.45893198950E+02  0.00000000000E+00 0.  1.
         13    1    3    3    0    0  0.86904424787E+01 -0.51547304615E+02 -0.19390958431E+03  0.20083220680E+03  0.00000000000E+00 0. -1.
          1    1    1    2  501    0  0.47590669283E+02  0.19602231448E+02  0.77160255075E+02  0.92751411006E+02  0.00000000000E+00 0. -1.
<scales pt_clust_5="13000.00000" pt_clust_6="13000.00000" pt_clust_7="13000.00000" pt_clust_8="13000.00000" pt_clust_9="51.46960"></scales>
<clustering>
<clus scale="   51.470">  1  9  2 -1</clus>
<clus scale="   80.380">  5  6 -1 -1</clus>
<clus scale="   86.229">  1  5  2 -1</clus>
<clus scale="   89.709">  7  8 -1 -1</clus>
<clus scale="   51.470">  1  5  2 -1</clus>
</clustering>
</event>
<event>
 9    2  0.1592151E-004  0.2477699E+03  0.7546771E-02  0.1115412E+00
         21   -1    0    0  501  502  0.00000000000E+00  0.00000000000E+00  0.22346800193E+03  0.22346800193E+03  0.00000000000E+00 0. -1.
          2   -1    0    0  502    0 -0.00000000000E+00 -0.00000000000E+00 -0.58333358387E+03  0.58333358387E+03  0.00000000000E+00 0. -1.
         24    2    1    2    0    0 -0.24410305196E+03  0.10276650096E+03 -0.41284495384E+03  0.49805032761E+03  0.86405550903E+02 0.  0.
         23    2    1    2    0    0  0.12126098114E+03 -0.84714466682E+02  0.10951687871E+02  0.17766969377E+03  0.97804980462E+02 0.  0.
        -13    1    3    3    0    0 -0.30140352486E+02  0.49423811322E+02 -0.78535325050E+02  0.97565112896E+02  0.00000000000E+00 0.  1.
         14    1    3    3    0    0 -0.21396269948E+03  0.53342689636E+02 -0.33430962879E+03  0.40048521472E+03  0.00000000000E+00 0. -1.
        -11    1    4    4    0    0  0.22086659357E+02  0.19035435208E+02  0.17479766704E+02  0.33995743250E+02  0.00000000000E+00 0.  1.
         11    1    4    4    0    0  0.99174321783E+02 -0.10374990189E+03 -0.65280788323E+01  0.14367395052E+03  0.00000000000E+00 0. -1.
          1    1    1    2  501    0  0.12284207082E+03 -0.18052034276E+02  0.42027684033E+02  0.13108156442E+03  0.00000000000E+00 0. -1.
<scales pt_clust_5="13000.00000" pt_clust_6="13000.00000" pt_clust_7="13000.00000" pt_clust_8="13000.00000" pt_clust_9="124.16139"></scales>
<clustering>
<clus scale="   86.406">  5  6 -1 -1</clus>
<clus scale="   97.805">  7  8 -1 -1</clus>
<clus scale="  124.161">  1  9  2 -1</clus>
<clus scale="  243.495">  2  5  1 -1</clus>
<clus scale="  124.161">  1  5  2 -1</clus>
</clustering>
</event>
<event>
 9    2  0.1592151E-004  0.1534537E+03  0.7546771E-02  0.1197148E+00
          2   -1    0    0  502    0 -0.00000000000E+00  0.00000000000E+00  0.54534490403E+03  0.54534490403E+03  0.00000000000E+00 0. -1.
         21   -1    0    0  501  502  0.00000000000E+00 -0.00000000000E+00 -0.72182708456E+02  0.72182708456E+02  0.00000000000E+00 0.  1.
         24    2    1    2    0    0 -0.87904378615E+02 -0.86219450334E+02  0.35873519876E+03  0.38782830288E+03  0.80986889620E+02 0.  0.
         23    2    1    2    0    0  0.79383696409E+02  0.11602706118E+03  0.11041217753E+03  0.19843887993E+03  0.86157355706E+02 0.  0.
        -11    1    3    3    0    0 -0.61237114826E+02 -0.25333351415E+02  0.94899859399E+02  0.11574863386E+03  0.00000000000E+00 0.  1.
         12    1    3    3    0    0 -0.26667263789E+02 -0.60886098920E+02  0.26383533936E+03  0.27207966902E+03  0.00000000000E+00 0. -1.
        -13    1    4    4    0    0  0.19555931555E+02  0.56121100815E+01  0.59582212513E+02  0.62960068984E+02  0.00000000000E+00 0. -1.
         13    1    4    4    0    0  0.59827764854E+02  0.11041495110E+03  0.50829965013E+02  0.13547881095E+03  0.00000000000E+00 0.  1.
          1    1    1    2  501    0  0.85206822060E+01 -0.29807610844E+02  0.40148192906E+01  0.31260429674E+02  0.00000000000E+00 0. -1.
<scales pt_clust_5="13000.00000" pt_clust_6="13000.00000" pt_clust_7="13000.00000" pt_clust_8="13000.00000" pt_clust_9="31.00154"></scales>
<clustering>
<clus scale="   31.002">  2  9  1 -1</clus>
<clus scale="   80.987">  5  6 -1 -1</clus>
<clus scale="   86.157">  7  8 -1 -1</clus>
<clus scale="  150.612">  1  5  2 -1</clus>
<clus scale="   31.002">  2  5  1 -1</clus>
</clustering>
</event>
<event>
 9    2  0.1592151E-004  0.3478764E+03  0.7546771E-02  0.1063490E+00
         21   -1    0    0  501  502  0.00000000000E+00  0.00000000000E+00  0.19732732737E+03  0.19732732737E+03  0.00000000000E+00 0.  1.
          2   -1    0    0  502    0 -0.00000000000E+00 -0.00000000000E+00 -0.63868824745E+03  0.63868824745E+03  0.00000000000E+00 0. -1.
         24    2    1    2    0    0 -0.12548516331E+03  0.12082135524E+03  0.11773098196E+01  0.19230788063E+03  0.81465384065E+02 0.  0.
         23    2    1    2    0    0  0.10882982440E+02  0.12201161641E+03 -0.37106099646E+02  0.15741896902E+03  0.91643850479E+02 0.  0.
        -13    1    3    3    0    0 -0.64627718173E+02  0.11318717154E+03  0.80670110845E+01  0.13058772693E+03  0.00000000000E+00 0.  1.
         14    1    3    3    0    0 -0.60857445137E+02  0.76341837054E+01 -0.68897012649E+01  0.61720153701E+02  0.00000000000E+00 0. -1.
        -13    1    4    4    0    0 -0.20706571429E+02 -0.72436380348E+00 -0.21276679886E+02  0.29698213924E+02  0.00000000000E+00 0.  1.
         13    1    4    4    0    0  0.31589553870E+02  0.12273598021E+03 -0.15829419760E+02  0.12772075509E+03  0.00000000000E+00 0. -1.
          1    1    1    2  501    0  0.11460218087E+03 -0.24283297165E+03 -0.40543213026E+03  0.48628872517E+03  0.00000000000E+00 0. -1.
<scales pt_clust_5="13000.00000" pt_clust_6="13000.00000" pt_clust_7="13000.00000" pt_clust_8="13000.00000" pt_clust_9="268.51738"></scales>
<clustering>
<clus scale="   81.465">  5  6 -1 -1</clus>
<clus scale="   91.644">  7  8 -1 -1</clus>
<clus scale="  142.547">  5  7 -1 -1</clus>
<clus scale="  268.517">  1  9  2 -1</clus>
<clus scale="  268.517">  1  5  2 -1</clus>
</clustering>
</event>
<event>
 9    2  0.1592151E-004  0.1605221E+03  0.7546771E-02  0.1208260E+00
          2   -1    0    0  502    0 -0.00000000000E+00  0.00000000000E+00  0.82000744799E+03  0.82000744799E+03  0.00000000000E+00 0. -1.
         21   -1    0    0  501  502  0.00000000000E+00 -0.00000000000E+00 -0.68721631037E+02  0.68721631037E+02  0.00000000000E+00 0.  1.
         23    2    1    2    0    0 -0.49860187508E+01  0.45262254504E+02  0.83864826226E+02  0.13319572019E+03  0.92920712076E+02 0.  0.
         24    2    1    2    0    0 -0.84582458538E+02 -0.12147197297E+03  0.15167722312E+03  0.22655125410E+03  0.80061590098E+02 0.  0.
        -13    1    4    4    0    0 -0.75534509429E+02 -0.11308190817E+03  0.88661198243E+02  0.16233849865E+03  0.00000000000E+00 0.  1.
         14    1    4    4    0    0 -0.90479491095E+01 -0.83900648012E+01  0.63016024881E+02  0.64212755448E+02  0.00000000000E+00 0. -1.
        -13    1    3    3    0    0 -0.11655076619E+02 -0.23975527919E+02  0.48071333120E+02  0.54968352877E+02  0.00000000000E+00 0. -1.
         13    1    3    3    0    0  0.66690578687E+01  0.69237782423E+02  0.35793493106E+02  0.78227367312E+02  0.00000000000E+00 0.  1.
          1    1    1    2  501    0  0.89568477289E+02  0.76209718468E+02  0.51574376760E+03  0.52898210474E+03  0.00000000000E+00 0. -1.
<scales pt_clust_5="13000.00000" pt_clust_6="13000.00000" pt_clust_7="13000.00000" pt_clust_8="13000.00000" pt_clust_9="139.13125"></scales>
<clustering>
<clus scale="   80.062">  5  6 -1 -1</clus>
<clus scale="   92.921">  7  8 -1 -1</clus>
<clus scale="  103.479">  1  7  2 -1</clus>
<clus scale="  139.131">  2  9  1 -1</clus>
<clus scale="  139.131">  2  5  1 -1</clus>
</clustering>
</event>
<event>
 9    2  0.1676074E-004  0.1555929E+03  0.7546771E-02  0.1214573E+00
         -3   -1    0    0    0  501 -0.00000000000E+00  0.00000000000E+00  0.46152401585E+03  0.46152401585E+03  0.00000000000E+00 0.  1.
         21   -1    0    0  501  502  0.00000000000E+00 -0.00000000000E+00 -0.22612815624E+03  0.22612815624E+03  0.00000000000E+00 0.  1.
         23    2    1    2    0    0 -0.27620120525E+02 -0.21959257386E+02  0.32006626794E+03  0.33512536094E+03  0.92852095423E+02 0.  0.
         24    2    1    2    0    0  0.14268393325E+03 -0.35987783931E+02  0.39934865791E+02  0.17329507585E+03  0.82356325868E+02 0.  0.
        -11    1    4    4    0    0  0.12897552992E+03 -0.35196273525E+02  0.61951016934E+02  0.14734786557E+03  0.00000000000E+00 0.  1.
         12    1    4    4    0    0  0.13708403326E+02 -0.79151040588E+00 -0.22016151143E+02  0.25947210285E+02  0.00000000000E+00 0. -1.
        -13    1    3    3    0    0  0.28035879897E+02 -0.25082640759E+02  0.18883486578E+03  0.19254546466E+03  0.00000000000E+00 0.  1.
         13    1    3    3    0    0 -0.55656000423E+02  0.31233833734E+01  0.13123140217E+03  0.14257989627E+03  0.00000000000E+00 0. -1.
         -4    1    1    2    0  502 -0.11506381272E+03  0.57947041317E+02 -0.12460527413E+03  0.17923173529E+03  0.00000000000E+00 0.  1.
<scales pt_clust_5="13000.00000" pt_clust_6="13000.00000" pt_clust_7="13000.00000" pt_clust_8="13000.00000" pt_clust_9="132.00977"></scales>
<clustering>
<clus scale="   82.356">  5  6 -1 -1</clus>
<clus scale="   92.852">  7  8 -1 -1</clus>
<clus scale="   99.331">  1  7  2 -1</clus>
<clus scale="  132.010">  2  9  1 -1</clus>
<clus scale="  132.010">  2  5  1 -1</clus>
</clustering>
</event>
<event>
 9    2  0.1592151E-004  0.1075498E+03  0.7546771E-02  0.1270729E+00
          2   -1    0    0  502    0 -0.00000000000E+00  0.00000000000E+00  0.40028829360E+03  0.40028829360E+03  0.00000000000E+00 0. -1.
         21   -1    0    0  501  502  0.00000000000E+00 -0.00000000000E+00 -0.80841895556E+02  0.80841895556E+02  0.00000000000E+00 0.  1.
         23    2    1    2    0    0  0.10888722152E+02  0.37345754813E+02  0.27789186868E+03  0.29680687327E+03  0.96732412715E+02 0.  0.
         24    2    1    2    0    0  0.24860878974E+01 -0.90994309374E+02  0.32621848103E+02  0.12831576510E+03  0.84348121671E+02 0.  0.
        -11    1    4    4    0    0  0.13485130989E+02 -0.57687559675E+02 -0.22172708536E+02  0.63256085105E+02  0.00000000000E+00 0.  1.
         12    1    4    4    0    0 -0.10999043091E+02 -0.33306749699E+02  0.54794556639E+02  0.65059680000E+02  0.00000000000E+00 0. -1.
        -13    1    3    3    0    0 -0.32169394274E+02 -0.64226065707E+01  0.16567712482E+03  0.16889354484E+03  0.00000000000E+00 0.  1.
         13    1    3    3    0    0  0.43058116426E+02  0.43768361384E+02  0.11221474386E+03  0.12791332842E+03  0.00000000000E+00 0. -1.
          1    1    1    2  501    0 -0.13374810049E+02  0.53648554561E+02  0.89326812663E+01  0.56007550785E+02  0.00000000000E+00 0. -1.
<scales pt_clust_5="13000.00000" pt_clust_6="13000.00000" pt_clust_7="13000.00000" pt_clust_8="13000.00000" pt_clust_9="55.29062"></scales>
<clustering>
<clus scale="   55.291">  2  9  1 -1</clus>
<clus scale="   84.348">  5  6 -1 -1</clus>
<clus scale="   96.563">  2  5  1 -1</clus>
<clus scale="   96.732">  7  8 -1 -1</clus>
<clus scale="   55.291">  2  5  1 -1</clus>
</clustering>
</event>
<event>
 9    2  0.1592151E-004  0.9494674E+02  0.7546771E-02  0.1298749E+00
         21   -1    0    0  501  502  0.00000000000E+00  0.00000000000E+00  0.29576023351E+02  0.29576023351E+02  0.00000000000E+00 0.  1.
          2   -1    0    0  502    0 -0.00000000000E+00 -0.00000000000E+00 -0.75203772933E+03  0.75203772933E+03  0.00000000000E+00 0. -1.
         24    2    1    2    0    0 -0.11727420797E+02  0.27257471235E+02 -0.57079484624E+03  0.57685627135E+03  0.77948054264E+02 0.  0.
         23    2    1    2    0    0  0.35280431455E+02  0.37967027529E+01 -0.96535944801E+02  0.13724064036E+03  0.90866280500E+02 0.  0.
        -11    1    3    3    0    0  0.14371853567E+02  0.40209859585E+02 -0.18078220894E+03  0.18575680351E+03  0.00000000000E+00 0.  1.
         12    1    3    3    0    0 -0.26099274364E+02 -0.12952388350E+02 -0.39001263731E+03  0.39109946784E+03  0.00000000000E+00 0. -1.
        -13    1    4    4    0    0  0.65585277040E+02  0.10645725046E+02 -0.67506226579E+02  0.94719853532E+02  0.00000000000E+00 0.  1.
         13    1    4    4    0    0 -0.30304845585E+02 -0.68490222928E+01 -0.29029718221E+02  0.42520786826E+02  0.00000000000E+00 0. -1.
          1    1    1    2  501    0 -0.23553010657E+02 -0.31054173988E+02 -0.55130914930E+02  0.67516840967E+02  0.00000000000E+00 0. -1.
<scales pt_clust_5="13000.00000" pt_clust_6="13000.00000" pt_clust_7="13000.00000" pt_clust_8="13000.00000" pt_clust_9="38.97571"></scales>
<clustering>
<clus scale="   38.976">  1  9  2 -1</clus>
<clus scale="   77.948">  5  6 -1 -1</clus>
<clus scale="   82.669">  2  5  1 -1</clus>
<clus scale="   90.866">  7  8 -1 -1</clus>
<clus scale="   38.976">  1  5  2 -1</clus>
</clustering>
</event>
<event>
 9    2  0.1592151E-004  0.1118291E+03  0.7546771E-02  0.1262678E+00
          2   -1    0    0  502    0 -0.00000000000E+00  0.00000000000E+00  0.14941188618E+03  0.14941188618E+03  0.00000000000E+00 0. -1.
         21   -1    0    0  501  502  0.00000000000E+00 -0.00000000000E+00 -0.14970138017E+03  0.14970138017E+03  0.00000000000E+00 0.  1.
         23    2    1    2    0    0 -0.60754156975E+02  0.51015630023E+01  0.41431557598E+02  0.11958316850E+03  0.94161917402E+02 0.  0.
         24    2    1    2    0    0  0.44104247460E+02 -0.63203383611E+02 -0.42315136812E+02  0.11908678572E+03  0.80319607725E+02 0.  0.
        -13    1    4    4    0    0  0.24300624205E+01 -0.51784035081E+02  0.83376080168E+01  0.52507210934E+02  0.00000000000E+00 0.  1.
         14    1    4    4    0    0  0.41674185040E+02 -0.11419348530E+02 -0.50652744829E+02  0.66579574783E+02  0.00000000000E+00 0. -1.
        -11    1    3    3    0    0 -0.75270868766E+02  0.31633819844E+02  0.33967110085E+02  0.88431707041E+02  0.00000000000E+00 0. -1.
         11    1    3    3    0    0  0.14516711792E+02 -0.26532256841E+02  0.74644475124E+01  0.31151461458E+02  0.00000000000E+00 0.  1.
          1    1    1    2  501    0  0.16649909514E+02  0.58101820609E+02  0.59408522924E+00  0.60443312137E+02  0.00000000000E+00 0. -1.
<scales pt_clust_5="13000.00000" pt_clust_6="13000.00000" pt_clust_7="13000.00000" pt_clust_8="13000.00000" pt_clust_9="60.44042"></scales>
<clustering>
<clus scale="   60.440">  2  9  1 -1</clus>
<clus scale="   80.320">  5  6 -1 -1</clus>
<clus scale="   94.162">  7  8 -1 -1</clus>
<clus scale="  100.452">  2  5  1 -1</clus>
<clus scale="   60.440">  2  5  1 -1</clus>
</clustering>
</event>
<event>
 9    2  0.1592151E-004  0.1542206E+03  0.7546771E-02  0.1196936E+00
          2   -1    0    0  502    0 -0.00000000000E+00  0.00000000000E+00  0.22914824335E+03  0.22914824335E+03  0.00000000000E+00 0. -1.
         21   -1    0    0  501  502  0.00000000000E+00 -0.00000000000E+00 -0.26027967173E+03  0.26027967173E+03  0.00000000000E+00 0.  1.
         24    2    1    2    0    0 -0.12424467475E+03  0.25973082048E+02 -0.16242906524E+02  0.15086312906E+03  0.79903138249E+02 0.  0.
         23    2    1    2    0    0  0.12590673242E+03  0.40228138886E+01 -0.14092914586E+03  0.20899335743E+03  0.89154422183E+02 0.  0.
        -13    1    3    3    0    0 -0.10540405162E+03  0.38797583891E+02 -0.38767040561E+02  0.11881982178E+03  0.00000000000E+00 0.  1.
         14    1    3    3    0    0 -0.18840623137E+02 -0.12824501843E+02  0.22524134036E+02  0.32043307286E+02  0.00000000000E+00 0. -1.
        -13    1    4    4    0    0  0.10996045828E+03 -0.22606942360E+02 -0.13788532460E+03  0.17780534010E+03  0.00000000000E+00 0.  1.
         13    1    4    4    0    0  0.15946274150E+02  0.26629756249E+02 -0.30438212587E+01  0.31188017330E+02  0.00000000000E+00 0. -1.
          1    1    1    2  501    0 -0.16620576701E+01 -0.29995895936E+02  0.12604062400E+03  0.12957142859E+03  0.00000000000E+00 0. -1.
<scales pt_clust_5="13000.00000" pt_clust_6="13000.00000" pt_clust_7="13000.00000" pt_clust_8="13000.00000" pt_clust_9="30.04192"></scales>
<clustering>
<clus scale="   30.042">  2  9  1 -1</clus>
<clus scale="   79.903">  5  6 -1 -1</clus>
<clus scale="   89.154">  7  8 -1 -1</clus>
<clus scale="  149.064">  1  5  2 -1</clus>
<clus scale="   30.042">  2  5  1 -1</clus>
</clustering>
</event>
<event>
 9    2  0.1592151E-004  0.8712342E+02  0.7546771E-02  0.1310674E+00
         21   -1    0    0  501  502  0.00000000000E+00  0.00000000000E+00  0.82735353235E+02  0.82735353235E+02  0.00000000000E+00 0.  1.
          2   -1    0    0  502    0 -0.00000000000E+00 -0.00000000000E+00 -0.30394965035E+03  0.30394965035E+03  0.00000000000E+00 0. -1.
         24    2    1    2    0    0 -0.29920141058E+01 -0.25139482547E+02 -0.23431247577E+03  0.24925543779E+03  0.81147958925E+02 0.  0.
         23    2    1    2    0    0 -0.21209422372E+02  0.52536769777E+02  0.54242150816E+01  0.10007704791E+03  0.82316715393E+02 0.  0.
        -11    1    3    3    0    0  0.56009361273E+01 -0.21124926647E+02 -0.88262093699E+01  0.23569789630E+02  0.00000000000E+00 0.  1.
         12    1    3    3    0    0 -0.85929502331E+01 -0.40145558997E+01 -0.22548626640E+03  0.22568564816E+03  0.00000000000E+00 0. -1.
        -13    1    4    4    0    0 -0.40965245047E+02  0.34203091766E+02  0.32000620925E+02  0.62225738467E+02  0.00000000000E+00 0. -1.
         13    1    4    4    0    0  0.19755822675E+02  0.18333678011E+02 -0.26576405844E+02  0.37851309443E+02  0.00000000000E+00 0.  1.
          1    1    1    2  501    0  0.24201436478E+02 -0.27397287230E+02  0.76739635722E+01  0.37352517881E+02  0.00000000000E+00 0. -1.
<scales pt_clust_5="13000.00000" pt_clust_6="13000.00000" pt_clust_7="13000.00000" pt_clust_8="13000.00000" pt_clust_9="36.55572"></scales>
<clustering>
<clus scale="   36.556">  1  9  2 -1</clus>
<clus scale="   81.148">  5  6 -1 -1</clus>
<clus scale="   82.317">  7  8 -1 -1</clus>
<clus scale="   86.020">  2  5  1 -1</clus>
<clus scale="   36.556">  1  5  2 -1</clus>
</clustering>
</event>
<event>
 9    2  0.1592151E-004  0.9547896E+02  0.7546771E-02  0.1295842E+00
         21   -1    0    0  501  502  0.00000000000E+00  0.00000000000E+00  0.41687628675E+03  0.41687628675E+03  0.00000000000E+00 0. -1.
          2   -1    0    0  502    0 -0.00000000000E+00 -0.00000000000E+00 -0.11577509048E+03  0.11577509048E+03  0.00000000000E+00 0. -1.
         23    2    1    2    0    0 -0.24441833961E+02  0.17888758174E+02 -0.84584497194E+02  0.12767474494E+03  0.90713242768E+02 0.  0.
         24    2    1    2    0    0  0.59327588229E+01 -0.32588899573E+02  0.20425828616E+03  0.22201602413E+03  0.80451435680E+02 0.  0.
        -13    1    4    4    0    0  0.35971376730E+02 -0.10938206146E+01  0.49147716550E+02  0.60914977054E+02  0.00000000000E+00 0.  1.
         14    1    4    4    0    0 -0.30038617907E+02 -0.31495078958E+02  0.15511056961E+03  0.16110104707E+03  0.00000000000E+00 0. -1.
        -13    1    3    3    0    0 -0.32704604108E+02  0.50973335167E+02 -0.45148887034E+02  0.75540016073E+02  0.00000000000E+00 0. -1.
         13    1    3    3    0    0  0.82627701471E+01 -0.33084576993E+02 -0.39435610161E+02  0.52134728867E+02  0.00000000000E+00 0.  1.
          1    1    1    2  501    0  0.18509075138E+02  0.14700141399E+02  0.18142740730E+03  0.18296060816E+03  0.00000000000E+00 0. -1.
<scales pt_clust_5="13000.00000" pt_clust_6="13000.00000" pt_clust_7="13000.00000" pt_clust_8="13000.00000" pt_clust_9="23.63641"></scales>
<clustering>
<clus scale="   23.636">  1  9  2 -1</clus>
<clus scale="   80.451">  5  6 -1 -1</clus>
<clus scale="   85.789">  1  5  2 -1</clus>
<clus scale="   90.713">  7  8 -1 -1</clus>
<clus scale="   23.636">  1  5  2 -1</clus>
</clustering>
</event>
<event>
 9    2  0.1592151E-004  0.1030085E+03  0.7546771E-02  0.1280857E+00
         21   -1    0    0  501  502  0.00000000000E+00  0.00000000000E+00  0.13445046116E+03  0.13445046116E+03  0.00000000000E+00 0.  1.
          2   -1    0    0  502    0 -0.00000000000E+00 -0.00000000000E+00 -0.18445635805E+03  0.18445635805E+03  0.00000000000E+00 0. -1.
         24    2    1    2    0    0  0.54378897617E+02  0.13292490714E+02 -0.20498269755E+02  0.96530735633E+02  0.75922651715E+02 0.  0.
         23    2    1    2    0    0 -0.37131156513E+02  0.30030926528E+02  0.62047244672E+02  0.11963029239E+03  0.90448697916E+02 0.  0.
        -13    1    3    3    0    0  0.47117207559E+02 -0.22826280012E+02 -0.27332881095E+02  0.59060618828E+02  0.00000000000E+00 0.  1.
         14    1    3    3    0    0  0.72616900571E+01  0.36118770726E+02  0.68346113396E+01  0.37470116805E+02  0.00000000000E+00 0. -1.
        -13    1    4    4    0    0 -0.53003753899E+02  0.52610087971E+02  0.45074180661E+02  0.87229014932E+02  0.00000000000E+00 0.  1.
         13    1    4    4    0    0  0.15872597385E+02 -0.22579161443E+02  0.16973064011E+02  0.32401277462E+02  0.00000000000E+00 0. -1.
          1    1    1    2  501    0 -0.17247741103E+02 -0.43323417242E+02 -0.91554871803E+02  0.10274579118E+03  0.00000000000E+00 0. -1.
<scales pt_clust_5="13000.00000" pt_clust_6="13000.00000" pt_clust_7="13000.00000" pt_clust_8="13000.00000" pt_clust_9="46.63052"></scales>
<clustering>
<clus scale="   46.631">  1  9  2 -1</clus>
<clus scale="   75.923">  5  6 -1 -1</clus>
<clus scale="   90.449">  7  8 -1 -1</clus>
<clus scale="   90.521">  2  5  1 -1</clus>
<clus scale="   46.631">  1  5  2 -1</clus>
</clustering>
</event>
<event>
 9    2  0.1592151E-004  0.1503466E+03  0.7546771E-02  0.1201548E+00
         21   -1    0    0  501  502  0.00000000000E+00  0.00000000000E+00  0.33877358469E+02  0.33877358469E+02  0.00000000000E+00 0. -1.
          2   -1    0    0  502    0 -0.00000000000E+00 -0.00000000000E+00 -0.92788626058E+03  0.92788626058E+03  0.00000000000E+00 0. -1.
         23    2    1    2    0    0  0.10978810580E+03 -0.74524553869E+01 -0.31483635346E+03  0.34539623362E+03  0.89820161836E+02 0.  0.
         24    2    1    2    0    0 -0.12474574740E+03  0.51228567023E+02 -0.37026784192E+03  0.40240183800E+03  0.81505195479E+02 0.  0.
        -11    1    4    4    0    0 -0.70741761506E+02 -0.94415498326E+01 -0.22400334068E+03  0.23509792921E+03  0.00000000000E+00 0.  1.
         12    1    4    4    0    0 -0.54003985898E+02  0.60670116856E+02 -0.14626450124E+03  0.16730390879E+03  0.00000000000E+00 0. -1.
        -13    1    3    3    0    0  0.11449286718E+03 -0.27625019209E+02 -0.29031914327E+03  0.31330011694E+03  0.00000000000E+00 0. -1.
         13    1    3    3    0    0 -0.47047613811E+01  0.20172563822E+02 -0.24517210189E+02  0.32096116685E+02  0.00000000000E+00 0.  1.
          1    1    1    2  501    0  0.14957641602E+02 -0.43776111636E+02 -0.20890470673E+03  0.21396554743E+03  0.00000000000E+00 0. -1.
<scales pt_clust_5="13000.00000" pt_clust_6="13000.00000" pt_clust_7="13000.00000" pt_clust_8="13000.00000" pt_clust_9="46.26101"></scales>
<clustering>
<clus scale="   46.261">  1  9  2 -1</clus>
<clus scale="   81.505">  5  6 -1 -1</clus>
<clus scale="   89.820">  7  8 -1 -1</clus>
<clus scale="  145.532">  1  5  2 -1</clus>
<clus scale="   46.261">  1  5  2 -1</clus>
</clustering>
</event>
<event>
 9    2  0.1592151E-004  0.9222210E+02  0.7546771E-02  0.1303043E+00
          2   -1    0    0  502    0 -0.00000000000E+00  0.00000000000E+00  0.25688069779E+03  0.25688069779E+03  0.00000000000E+00 0. -1.
         21   -1    0    0  501  502  0.00000000000E+00 -0.00000000000E+00 -0.20969818547E+03  0.20969818547E+03  0.00000000000E+00 0. -1.
         23    2    1    2    0    0 -0.81082019875E+01 -0.25465373815E+01  0.14928039452E+03  0.17493338959E+03  0.90801028701E+02 0.  0.
         24    2    1    2    0    0 -0.58061214313E+02  0.38411336661E+02  0.52616065436E+02  0.11959584654E+03  0.81781298456E+02 0.  0.
        -13    1    4    4    0    0 -0.26737311564E+02  0.59128185171E+02  0.15337761706E+02  0.66680379764E+02  0.00000000000E+00 0.  1.
         14    1    4    4    0    0 -0.31323902749E+02 -0.20716848510E+02  0.37278303730E+02  0.52915466781E+02  0.00000000000E+00 0. -1.
        -13    1    3    3    0    0  0.31083059871E+02 -0.25905393272E+02  0.41830055166E+02  0.58197934041E+02  0.00000000000E+00 0.  1.
         13    1    3    3    0    0 -0.39191261859E+02  0.23358855891E+02  0.10745033936E+03  0.11673545555E+03  0.00000000000E+00 0. -1.
          1    1    1    2  501    0  0.66169416300E+02 -0.35864799280E+02 -0.15471394764E+03  0.17204964712E+03  0.00000000000E+00 0. -1.
<scales pt_clust_5="13000.00000" pt_clust_6="13000.00000" pt_clust_7="13000.00000" pt_clust_8="13000.00000" pt_clust_9="75.26404"></scales>
<clustering>
<clus scale="   75.264">  2  9  1 -1</clus>
<clus scale="   81.781">  5  6 -1 -1</clus>
<clus scale="   83.356">  2  5  1 -1</clus>
<clus scale="   90.801">  7  8 -1 -1</clus>
<clus scale="   75.264">  2  5  1 -1</clus>
</clustering>
</event>
<event>
 9    2  0.1592151E-004  0.9783515E+02  0.7546771E-02  0.1290689E+00
          2   -1    0    0  502    0 -0.00000000000E+00  0.00000000000E+00  0.70878276091E+03  0.70878276091E+03  0.00000000000E+00 0. -1.
         21   -1    0    0  501  502  0.00000000000E+00 -0.00000000000E+00 -0.95023996331E+02  0.95023996331E+02  0.00000000000E+00 0.  1.
         24    2    1    2    0    0 -0.30173818395E+02 -0.12466123238E+02  0.59097713819E+03  0.59730187639E+03  0.80309962821E+02 0.  0.
         23    2    1    2    0    0  0.63108277880E+02  0.24877277546E+01  0.82044476984E+02  0.13797508836E+03  0.91197506974E+02 0.  0.
        -13    1    3    3    0    0 -0.56005600088E+02 -0.19903101367E+01  0.31751035749E+03  0.32241807594E+03  0.00000000000E+00 0.  1.
         14    1    3    3    0    0  0.25831781693E+02 -0.10475813101E+02  0.27346678070E+03  0.27488380045E+03  0.00000000000E+00 0. -1.
        -13    1    4    4    0    0 -0.19881033762E+02  0.55802717974E+01 -0.80973000917E+00  0.20665202623E+02  0.00000000000E+00 0.  1.
         13    1    4    4    0    0  0.82989311642E+02 -0.30925440428E+01  0.82854206993E+02  0.11730988574E+03  0.00000000000E+00 0. -1.
          1    1    1    2  501    0 -0.32934459485E+02  0.99783954830E+01 -0.59262850597E+02  0.68529792491E+02  0.00000000000E+00 0. -1.
<scales pt_clust_5="13000.00000" pt_clust_6="13000.00000" pt_clust_7="13000.00000" pt_clust_8="13000.00000" pt_clust_9="34.41289"></scales>
<clustering>
<clus scale="   34.413">  2  9  1 -1</clus>
<clus scale="   80.310">  5  6 -1 -1</clus>
<clus scale="   87.775">  1  5  2 -1</clus>
<clus scale="   91.198">  7  8 -1 -1</clus>
<clus scale="   34.413">  2  5  1 -1</clus>
</clustering>
</event>
<event>
 9    2  0.1592151E-004  0.9802862E+02  0.7546771E-02  0.1286247E+00
         21   -1    0    0  501  502  0.00000000000E+00  0.00000000000E+00  0.34640340791E+03  0.34640340791E+03  0.00000000000E+00 0. -1.
         -3   -1    0    0    0  501 -0.00000000000E+00 -0.00000000000E+00 -0.12287448181E+03  0.12287448181E+03  0.00000000000E+00 0.  1.
         23    2    1    2    0    0  0.74885835265E+01  0.45355605540E+02 -0.29924283058E+02  0.10692970311E+03  0.91789372228E+02 0.  0.
         24    2    1    2    0    0  0.34983071169E+02  0.39447531264E+02  0.24931686306E+03  0.26741387868E+03  0.81063933478E+02 0.  0.
        -11    1    4    4    0    0  0.25136978969E+02 -0.68896498941E+01  0.18944933268E+02  0.32221816893E+02  0.00000000000E+00 0.  1.
         12    1    4    4    0    0  0.98460922001E+01  0.46337181159E+02  0.23037192980E+03  0.23519206179E+03  0.00000000000E+00 0. -1.
        -13    1    3    3    0    0 -0.17628229223E+02  0.50696311506E+02  0.14517856659E+02  0.55602505589E+02  0.00000000000E+00 0. -1.
         13    1    3    3    0    0  0.25116812749E+02 -0.53407059660E+01 -0.44442139717E+02  0.51327197523E+02  0.00000000000E+00 0.  1.
         -4    1    1    2    0  502 -0.42471654696E+02 -0.84803136804E+02  0.41363460946E+01  0.94934307937E+02  0.00000000000E+00 0.  1.
<scales pt_clust_5="13000.00000" pt_clust_6="13000.00000" pt_clust_7="13000.00000" pt_clust_8="13000.00000" pt_clust_9="94.84420"></scales>
<clustering>
<clus scale="   81.064">  5  6 -1 -1</clus>
<clus scale="   91.789">  7  8 -1 -1</clus>
<clus scale="   94.844">  1  9  2 -1</clus>
<clus scale="   94.844">  1  5  2 -1</clus>
<clus scale="   94.844">  1  5  2 -1</clus>
</clustering>
</event>
<event>
 9    2  0.1592151E-004  0.1510589E+03  0.7546771E-02  0.1199566E+00
          2   -1    0    0  502    0 -0.00000000000E+00  0.00000000000E+00  0.47887557761E+03  0.47887557761E+03  0.00000000000E+00 0. -1.
         21   -1    0    0  501  502  0.00000000000E+00 -0.00000000000E+00 -0.59523775196E+02  0.59523775196E+02  0.00000000000E+00 0.  1.
         23    2    1    2    0    0 -0.11419457988E+03 -0.53048683792E+02  0.23046750471E+03  0.27671139594E+03  0.87174313802E+02 0.  0.
         24    2    1    2    0    0  0.11687728572E+03  0.32836640603E+02  0.19037645359E+03  0.24124412822E+03  0.84952871880E+02 0.  0.
        -13    1    4    4    0    0  0.29682227838E+02 -0.24761786506E+02  0.26437390834E+02  0.46830720201E+02  0.00000000000E+00 0.  1.
         14    1    4    4    0    0  0.87195057879E+02  0.57598427109E+02  0.16393906275E+03  0.19441340802E+03  0.00000000000E+00 0. -1.
        -11    1    3    3    0    0 -0.45673348399E+02 -0.32808267565E+02  0.29672884760E+02  0.63583938731E+02  0.00000000000E+00 0.  1.
         11    1    3    3    0    0 -0.68521231477E+02 -0.20240416227E+02  0.20079461995E+03  0.21312745721E+03  0.00000000000E+00 0. -1.
          1    1    1    2  501    0 -0.26827058402E+01  0.20212043188E+02 -0.14921558859E+01  0.20443828645E+02  0.00000000000E+00 0. -1.
<scales pt_clust_5="13000.00000" pt_clust_6="13000.00000" pt_clust_7="13000.00000" pt_clust_8="13000.00000" pt_clust_9="20.38930"></scales>
<clustering>
<clus scale="   20.389">  2  9  1 -1</clus>
<clus scale="   84.953">  5  6 -1 -1</clus>
<clus scale="   87.174">  7  8 -1 -1</clus>
<clus scale="  149.788">  2  5  1 -1</clus>
<clus scale="   20.389">  2  5  1 -1</clus>
</clustering>
</event>
<event>
 9    2  0.1592151E-004  0.1689004E+03  0.7546771E-02  0.1180783E+00
         -3   -1    0    0    0  501 -0.00000000000E+00  0.00000000000E+00  0.29024109832E+03  0.29024109832E+03  0.00000000000E+00 0.  1.
         21   -1    0    0  501  502  0.00000000000E+00 -0.00000000000E+00 -0.23421020885E+03  0.23421020885E+03  0.00000000000E+00 0.  1.
         24    2    1    2    0    0 -0.10350866857E+03 -0.77090380363E+02 -0.20092946157E+02  0.15356811105E+03  0.80761791905E+02 0.  0.
         23    2    1    2    0    0  0.14868041460E+03  0.65432108143E+02 -0.83094070733E+02  0.20497134104E+03  0.93388433946E+02 0.  0.
        -11    1    3    3    0    0 -0.97499678145E+02 -0.86495769300E+02 -0.34991854388E+02  0.13495234425E+03  0.00000000000E+00 0.  1.
         12    1    3    3    0    0 -0.60089904264E+01  0.94053889371E+01  0.14898908231E+02  0.18615766798E+02  0.00000000000E+00 0. -1.
        -11    1    4    4    0    0  0.12973810213E+03  0.37968997699E+02 -0.24264585853E+02  0.13734041669E+03  0.00000000000E+00 0.  1.
         11    1    4    4    0    0  0.18942312470E+02  0.27463110444E+02 -0.58829484880E+02  0.67630924348E+02  0.00000000000E+00 0. -1.
         -4    1    1    2    0  502 -0.45171746025E+02  0.11658272220E+02  0.15921790636E+03  0.16591185508E+03  0.00000000000E+00 0.  1.
<scales pt_clust_5="13000.00000" pt_clust_6="13000.00000" pt_clust_7="13000.00000" pt_clust_8="13000.00000" pt_clust_9="46.65195"></scales>
<clustering>
<clus scale="   46.652">  2  9  1 -1</clus>
<clus scale="   80.762">  5  6 -1 -1</clus>
<clus scale="   93.388">  7  8 -1 -1</clus>
<clus scale="  162.260">  1  5  2 -1</clus>
<clus scale="   46.652">  2  5  1 -1</clus>
</clustering>
</event>
<event>
 9    2  0.1592151E-004  0.1515420E+03  0.7546771E-02  0.1211641E+00
         -1   -1    0    0    0  501 -0.00000000000E+00  0.00000000000E+00  0.87285497773E+03  0.87285497773E+03  0.00000000000E+00 0.  1.
         21   -1    0    0  501  502  0.00000000000E+00 -0.00000000000E+00 -0.51864274178E+02  0.51864274178E+02  0.00000000000E+00 0. -1.
         24    2    1    2    0    0  0.54720917635E+02  0.60326400139E+02  0.11550601753E+03  0.16258339686E+03  0.80362102184E+02 0.  0.
         23    2    1    2    0    0 -0.11695480058E+01  0.89781330009E+02  0.32701802690E+03  0.35148138728E+03  0.92392210822E+02 0.  0.
        -11    1    3    3    0    0  0.35071766886E+02 -0.72937536418E+01  0.12768189227E+02  0.38029650680E+02  0.00000000000E+00 0.  1.
         12    1    3    3    0    0  0.19649150749E+02  0.67620153781E+02  0.10273782830E+03  0.12455374618E+03  0.00000000000E+00 0. -1.
        -11    1    4    4    0    0 -0.15384257488E+02 -0.15783972185E+02  0.47851475538E+02  0.52683705902E+02  0.00000000000E+00 0. -1.
         11    1    4    4    0    0  0.14214709482E+02  0.10556530219E+03  0.27916655137E+03  0.29879768137E+03  0.00000000000E+00 0.  1.
         -2    1    1    2    0  502 -0.53551369630E+02 -0.15010773015E+03  0.37846665912E+03  0.41065446777E+03  0.00000000000E+00 0.  1.
<scales pt_clust_5="13000.00000" pt_clust_6="13000.00000" pt_clust_7="13000.00000" pt_clust_8="13000.00000" pt_clust_9="120.11938"></scales>
<clustering>
<clus scale="   80.362">  5  6 -1 -1</clus>
<clus scale="   92.392">  7  8 -1 -1</clus>
<clus scale="  114.419">  1  5  2 -1</clus>
<clus scale="  120.119">  2  9  1 -1</clus>
<clus scale="  120.119">  2  5  1 -1</clus>
</clustering>
</event>
<event>
 9    2  0.1592151E-004  0.9565583E+02  0.7546771E-02  0.1294560E+00
         -1   -1    0    0    0  501 -0.00000000000E+00  0.00000000000E+00  0.10126700845E+04  0.10126700845E+04  0.00000000000E+00 0.  1.
         21   -1    0    0  501  502  0.00000000000E+00 -0.00000000000E+00 -0.27640726972E+02  0.27640726972E+02  0.00000000000E+00 0.  1.
         24    2    1    2    0    0 -0.96479335717E+01 -0.19957745048E+02  0.43762350711E+03  0.44560728685E+03  0.80994604207E+02 0.  0.
         23    2    1    2    0    0 -0.69663850130E+02  0.45677809438E+02  0.45048322375E+03  0.46685253204E+03  0.89870114614E+02 0.  0.
        -11    1    3    3    0    0 -0.40410822074E+02 -0.21254493407E+02  0.16336401044E+03  0.16962484469E+03  0.00000000000E+00 0.  1.
         12    1    3    3    0    0  0.30762888502E+02  0.12967483590E+01  0.27425949667E+03  0.27598244215E+03  0.00000000000E+00 0. -1.
        -11    1    4    4    0    0 -0.65311673050E+02  0.71110123258E+02  0.36560072300E+03  0.37813509878E+03  0.00000000000E+00 0.  1.
         11    1    4    4    0    0 -0.43521770800E+01 -0.25432313820E+02  0.84882500746E+02  0.88717433261E+02  0.00000000000E+00 0. -1.
         -2    1    1    2    0  502  0.79311783702E+02 -0.25720064390E+02  0.96922626708E+02  0.12785099262E+03  0.00000000000E+00 0.  1.
<scales pt_clust_5="13000.00000" pt_clust_6="13000.00000" pt_clust_7="13000.00000" pt_clust_8="13000.00000" pt_clust_9="83.37794"></scales>
<clustering>
<clus scale="   80.995">  5  6 -1 -1</clus>
<clus scale="   83.378">  2  9  1 -1</clus>
<clus scale="   87.370">  1  5  2 -1</clus>
<clus scale="   89.870">  7  8 -1 -1</clus>
<clus scale="   83.378">  2  5  1 -1</clus>
</clustering>
</event>
<event>
 9    2  0.1592151E-004  0.9761752E+02  0.7546771E-02  0.1294528E+00
          2   -1    0    0  502    0 -0.00000000000E+00  0.00000000000E+00  0.71912866112E+03  0.71912866112E+03  0.00000000000E+00 0. -1.
         21   -1    0    0  501  502  0.00000000000E+00 -0.00000000000E+00 -0.79398419979E+02  0.79398419979E+02  0.00000000000E+00 0.  1.
         24    2    1    2    0    0 -0.23912631639E+02  0.12447936314E+02  0.48828542336E+03  0.49532195389E+03  0.78704626674E+02 0.  0.
         23    2    1    2    0    0  0.23666764592E+02  0.37463024661E+02  0.20493668675E+03  0.23004404109E+03  0.94644710907E+02 0.  0.
        -13    1    3    3    0    0  0.17052913142E+02 -0.22104226669E+02  0.12315880682E+03  0.12628337333E+03  0.00000000000E+00 0.  1.
         14    1    3    3    0    0 -0.40965544781E+02  0.34552162983E+02  0.36512661654E+03  0.36903858055E+03  0.00000000000E+00 0. -1.
        -11    1    4    4    0    0 -0.93544461826E+01  0.46681057118E+02  0.41835227849E+02  0.63378332624E+02  0.00000000000E+00 0.  1.
         11    1    4    4    0    0  0.33021210774E+02 -0.92180324565E+01  0.16310145890E+03  0.16666570847E+03  0.00000000000E+00 0. -1.
          1    1    1    2  501    0  0.24586704766E+00 -0.49910960975E+02 -0.53491868975E+02  0.73161086121E+02  0.00000000000E+00 0. -1.
<scales pt_clust_5="13000.00000" pt_clust_6="13000.00000" pt_clust_7="13000.00000" pt_clust_8="13000.00000" pt_clust_9="49.91157"></scales>
<clustering>
<clus scale="   49.912">  2  9  1 -1</clus>
<clus scale="   78.705">  5  6 -1 -1</clus>
<clus scale="   82.256">  1  5  2 -1</clus>
<clus scale="   94.645">  7  8 -1 -1</clus>
<clus scale="   49.912">  2  5  1 -1</clus>
</clustering>
</event>
<event>
 9    2  0.1592151E-004  0.9779604E+02  0.7546771E-02  0.1289141E+00
         21   -1    0    0  501  502  0.00000000000E+00  0.00000000000E+00  0.12229761360E+03  0.12229761360E+03  0.00000000000E+00 0. -1.
          2   -1    0    0  502    0 -0.00000000000E+00 -0.00000000000E+00 -0.53268291163E+03  0.53268291163E+03  0.00000000000E+00 0. -1.
         24    2    1    2    0    0 -0.20716974591E+01 -0.34876542385E+02 -0.36591698238E+03  0.37655421716E+03  0.81713984887E+02 0.  0.
         23    2    1    2    0    0  0.43357386553E+02  0.45634282751E+02 -0.13763039811E+03  0.17595967588E+03  0.89762633220E+02 0.  0.
        -13    1    3    3    0    0  0.20218737308E+02  0.59775630251E+01 -0.26038477542E+02  0.33504192435E+02  0.00000000000E+00 0.  1.
         14    1    3    3    0    0 -0.22290434767E+02 -0.40854105410E+02 -0.33987850484E+03  0.34305002473E+03  0.00000000000E+00 0. -1.
        -11    1    4    4    0    0  0.22837305963E+02 -0.27488333346E+01  0.53589146261E+01  0.23618141213E+02  0.00000000000E+00 0. -1.
         11    1    4    4    0    0  0.20520080590E+02  0.48383116085E+02 -0.14298931273E+03  0.15234153467E+03  0.00000000000E+00 0.  1.
          1    1    1    2  501    0 -0.41285689094E+02 -0.10757740366E+02  0.93162082459E+02  0.10246663218E+03  0.00000000000E+00 0. -1.
<scales pt_clust_5="13000.00000" pt_clust_6="13000.00000" pt_clust_7="13000.00000" pt_clust_8="13000.00000" pt_clust_9="42.66424"></scales>
<clustering>
<clus scale="   42.664">  1  9  2 -1</clus>
<clus scale="   81.714">  5  6 -1 -1</clus>
<clus scale="   89.763">  7  8 -1 -1</clus>
<clus scale="   90.465">  2  5  1 -1</clus>
<clus scale="   42.664">  1  5  2 -1</clus>
</clustering>
</event>
<event>
 9    2  0.1592151E-004  0.3377570E+03  0.7546771E-02  0.1067755E+00
          2   -1    0    0  502    0 -0.00000000000E+00  0.00000000000E+00  0.58730342623E+03  0.58730342623E+03  0.00000000000E+00 0. -1.
         21   -1    0    0  501  502  0.00000000000E+00 -0.00000000000E+00 -0.16305029265E+03  0.16305029265E+03  0.00000000000E+00 0.  1.
         24    2    1    2    0    0  0.53344015171E+02 -0.19082072161E+03  0.75808898788E+02  0.22673017203E+03  0.80009062112E+02 0.  0.
         23    2    1    2    0    0  0.56166979862E+02 -0.54939634454E+02  0.86067243449E+02  0.14781442478E+03  0.90930966776E+02 0.  0.
        -13    1    3    3    0    0  0.51252137207E+02 -0.18182749036E+03  0.44493138960E+02  0.19408157366E+03  0.00000000000E+00 0.  1.
         14    1    3    3    0    0  0.20918779636E+01 -0.89932312527E+01  0.31315759828E+02  0.32648598368E+02  0.00000000000E+00 0. -1.
        -13    1    4    4    0    0  0.41046651289E+02 -0.18629330818E+02 -0.80676610520E+01  0.45792649013E+02  0.00000000000E+00 0.  1.
         13    1    4    4    0    0  0.15120328573E+02 -0.36310303636E+02  0.94134904501E+02  0.10202177577E+03  0.00000000000E+00 0. -1.
          1    1    1    2  501    0 -0.10951099503E+03  0.24576035607E+03  0.26237699134E+03  0.37580912207E+03  0.00000000000E+00 0. -1.
<scales pt_clust_5="13000.00000" pt_clust_6="13000.00000" pt_clust_7="13000.00000" pt_clust_8="13000.00000" pt_clust_9="269.05554"></scales>
<clustering>
<clus scale="   80.009">  5  6 -1 -1</clus>
<clus scale="   90.931">  7  8 -1 -1</clus>
<clus scale="  103.463">  5  7 -1 -1</clus>
<clus scale="  269.056">  2  9  1 -1</clus>
<clus scale="  269.056">  2  5  1 -1</clus>
</clustering>
</event>
<event>
 9    2  0.1592151E-004  0.2142193E+03  0.7546771E-02  0.1139151E+00
          2   -1    0    0  502    0 -0.00000000000E+00  0.00000000000E+00  0.10537425563E+04  0.10537425563E+04  0.00000000000E+00 0. -1.
         21   -1    0    0  501  502  0.00000000000E+00 -0.00000000000E+00 -0.17681716633E+03  0.17681716633E+03  0.00000000000E+00 0. -1.
         24    2    1    2    0    0 -0.18597121414E+03 -0.87941631291E+02  0.67559186850E+03  0.71080423061E+03  0.80617978602E+02 0.  0.
         23    2    1    2    0    0  0.31453726674E+02  0.23153442116E+03  0.17757075612E+03  0.30748393893E+03  0.91746793788E+02 0.  0.
        -13    1    3    3    0    0 -0.10592503276E+01 -0.20178845223E+02  0.11166988201E+03  0.11348334836E+03  0.00000000000E+00 0.  1.
         14    1    3    3    0    0 -0.18491196381E+03 -0.67762786068E+02  0.56392198649E+03  0.59732088226E+03  0.00000000000E+00 0. -1.
        -11    1    4    4    0    0  0.63841382626E+02  0.16775767149E+03  0.12774460630E+03  0.22031124102E+03  0.00000000000E+00 0. -1.
         11    1    4    4    0    0 -0.32387655952E+02  0.63776749665E+02  0.49826149815E+02  0.87172697912E+02  0.00000000000E+00 0.  1.
          1    1    1    2  501    0  0.15451748747E+03 -0.14359278987E+03  0.23762765356E+02  0.21227155309E+03  0.00000000000E+00 0. -1.
<scales pt_clust_5="13000.00000" pt_clust_6="13000.00000" pt_clust_7="13000.00000" pt_clust_8="13000.00000" pt_clust_9="210.93730"></scales>
<clustering>
<clus scale="   80.618">  5  6 -1 -1</clus>
<clus scale="   91.747">  7  8 -1 -1</clus>
<clus scale="  210.937">  2  9  1 -1</clus>
<clus scale="  209.694">  1  5  2 -1</clus>
<clus scale="  210.937">  2  5  1 -1</clus>
</clustering>
</event>
<event>
 9    2  0.1592151E-004  0.1007401E+03  0.7546771E-02  0.1284586E+00
         21   -1    0    0  501  502  0.00000000000E+00  0.00000000000E+00  0.58118207983E+02  0.58118207983E+02  0.00000000000E+00 0. -1.
          4   -1    0    0  502    0 -0.00000000000E+00 -0.00000000000E+00 -0.39782500716E+03  0.39782500716E+03  0.00000000000E+00 0. -1.
         23    2    1    2    0    0 -0.52024757308E+02  0.11422522438E+02 -0.28190987844E+03  0.30116853918E+03  0.91609279208E+02 0.  0.
         24    2    1    2    0    0  0.14826007407E+02  0.29650110816E+02 -0.46711936990E+02  0.98262862496E+02  0.79841377252E+02 0.  0.
        -11    1    4    4    0    0  0.34892356736E+02 -0.13807062593E+02 -0.28207029771E+02  0.46944095098E+02  0.00000000000E+00 0.  1.
         12    1    4    4    0    0 -0.20066349329E+02  0.43457173409E+02 -0.18504907218E+02  0.51318767398E+02  0.00000000000E+00 0. -1.
        -13    1    3    3    0    0  0.36650591885E+01 -0.31724218794E+02 -0.55279413089E+02  0.63840991756E+02  0.00000000000E+00 0.  1.
         13    1    3    3    0    0 -0.55689816497E+02  0.43146741232E+02 -0.22663046535E+03  0.23732754742E+03  0.00000000000E+00 0. -1.
          3    1    1    2  501    0  0.37198749901E+02 -0.41072633254E+02 -0.11084983745E+02  0.56511813467E+02  0.00000000000E+00 0. -1.
<scales pt_clust_5="13000.00000" pt_clust_6="13000.00000" pt_clust_7="13000.00000" pt_clust_8="13000.00000" pt_clust_9="55.41397"></scales>
<clustering>
<clus scale="   55.414">  1  9  2 -1</clus>
<clus scale="   79.841">  5  6 -1 -1</clus>
<clus scale="   90.172">  1  5  2 -1</clus>
<clus scale="   91.609">  7  8 -1 -1</clus>
<clus scale="   55.414">  1  5  2 -1</clus>
</clustering>
</event>
<event>
 9    2  0.1592151E-004  0.1056795E+03  0.7546771E-02  0.1275123E+00
          2   -1    0    0  502    0 -0.00000000000E+00  0.00000000000E+00  0.30063312783E+03  0.30063312783E+03  0.00000000000E+00 0. -1.
         21   -1    0    0  501  502  0.00000000000E+00 -0.00000000000E+00 -0.76309494501E+02  0.76309494501E+02  0.00000000000E+00 0.  1.
         24    2    1    2    0    0 -0.23299120967E+02 -0.48136491194E+02  0.19268773225E+03  0.21460624738E+03  0.77892929264E+02 0.  0.
         23    2    1    2    0    0  0.38522391804E+02  0.27236228799E+02 -0.19226475547E+02  0.10527894512E+03  0.92131493504E+02 0.  0.
        -11    1    3    3    0    0 -0.25509604966E+02 -0.59949579423E+02  0.19179081058E+03  0.20255470135E+03  0.00000000000E+00 0.  1.
         12    1    3    3    0    0  0.22104839989E+01  0.11813088229E+02  0.89692167541E+00  0.12051546021E+02  0.00000000000E+00 0. -1.
        -11    1    4    4    0    0  0.36188343280E+02  0.57797072787E+02 -0.27506612849E+02  0.73530344502E+02  0.00000000000E+00 0.  1.
         11    1    4    4    0    0  0.23340485239E+01 -0.30560843988E+02  0.82801373026E+01  0.31748600623E+02  0.00000000000E+00 0. -1.
          1    1    1    2  501    0 -0.15223270837E+02  0.20900262396E+02  0.50862376623E+02  0.57057429831E+02  0.00000000000E+00 0. -1.
<scales pt_clust_5="13000.00000" pt_clust_6="13000.00000" pt_clust_7="13000.00000" pt_clust_8="13000.00000" pt_clust_9="25.85671"></scales>
<clustering>
<clus scale="   25.857">  2  9  1 -1</clus>
<clus scale="   77.893">  5  6 -1 -1</clus>
<clus scale="   92.131">  7  8 -1 -1</clus>
<clus scale="   93.527">  1  5  2 -1</clus>
<clus scale="   25.857">  2  5  1 -1</clus>
</clustering>
</event>
<event>
 9    2  0.1592151E-004  0.1437684E+03  0.7546771E-02  0.1228403E+00
         21   -1    0    0  501  502  0.00000000000E+00  0.00000000000E+00  0.13478259827E+04  0.13478259827E+04  0.00000000000E+00 0.  1.
         -1   -1    0    0    0  501 -0.00000000000E+00 -0.00000000000E+00 -0.46931149776E+02  0.46931149776E+02  0.00000000000E+00 0.  1.
         24    2    1    2    0    0  0.48644137974E+02 -0.47022195093E+01  0.32044907635E+02  0.99544062068E+02  0.80584000646E+02 0.  0.
         23    2    1    2    0    0  0.86807912937E+01 -0.10289611443E+03  0.68174746437E+03  0.69558581235E+03  0.91635422583E+02 0.  0.
        -11    1    3    3    0    0  0.21854222588E+02 -0.19690458134E+01 -0.26914674132E+02  0.34725838651E+02  0.00000000000E+00 0.  1.
         12    1    3    3    0    0  0.26789915386E+02 -0.27331736959E+01  0.58959581767E+02  0.64818223417E+02  0.00000000000E+00 0. -1.
        -11    1    4    4    0    0 -0.40857426464E+02 -0.42163672830E+02  0.33344900897E+03  0.33857841955E+03  0.00000000000E+00 0. -1.
         11    1    4    4    0    0  0.49538217757E+02 -0.60732441599E+02  0.34829845540E+03  0.35700739280E+03  0.00000000000E+00 0.  1.
         -2    1    1    2    0  502 -0.57324929268E+02  0.10759833394E+03  0.58710246091E+03  0.59962725805E+03  0.00000000000E+00 0.  1.
<scales pt_clust_5="13000.00000" pt_clust_6="13000.00000" pt_clust_7="13000.00000" pt_clust_8="13000.00000" pt_clust_9="110.78045"></scales>
<clustering>
<clus scale="   80.584">  5  6 -1 -1</clus>
<clus scale="   91.635">  7  8 -1 -1</clus>
<clus scale="   94.245">  2  5  1 -1</clus>
<clus scale="  110.780">  1  9  2 -1</clus>
<clus scale="  110.780">  1  5  2 -1</clus>
</clustering>
</event>
<event>
 9    2  0.1592151E-004  0.1105564E+03  0.7546771E-02  0.1262936E+00
         21   -1    0    0  501  502  0.00000000000E+00  0.00000000000E+00  0.24126528782E+03  0.24126528782E+03  0.00000000000E+00 0. -1.
          2   -1    0    0  502    0 -0.00000000000E+00 -0.00000000000E+00 -0.12404534859E+03  0.12404534859E+03  0.00000000000E+00 0. -1.
         24    2    1    2    0    0 -0.54801275372E+02  0.25211546927E+02 -0.27114997449E+02  0.10329757454E+03  0.79349630987E+02 0.  0.
         23    2    1    2    0    0  0.10490150124E+03  0.26240484067E+02  0.12546431742E+03  0.18776049022E+03  0.88429739217E+02 0.  0.
        -11    1    3    3    0    0 -0.20980838417E+02 -0.20886802296E+02  0.14125084370E+02  0.32802013646E+02  0.00000000000E+00 0.  1.
         12    1    3    3    0    0 -0.33820436955E+02  0.46098349223E+02 -0.41240081819E+02  0.70495560891E+02  0.00000000000E+00 0. -1.
        -11    1    4    4    0    0  0.40777114873E+02  0.18896059816E+02 -0.18923067336E+01  0.44982385427E+02  0.00000000000E+00 0.  1.
         11    1    4    4    0    0  0.64124386363E+02  0.73444242506E+01  0.12735662415E+03  0.14277810479E+03  0.00000000000E+00 0. -1.
          1    1    1    2  501    0 -0.50100225864E+02 -0.51452030994E+02  0.18870619268E+02  0.74252571649E+02  0.00000000000E+00 0. -1.
<scales pt_clust_5="13000.00000" pt_clust_6="13000.00000" pt_clust_7="13000.00000" pt_clust_8="13000.00000" pt_clust_9="71.81469"></scales>
<clustering>
<clus scale="   71.815">  1  9  2 -1</clus>
<clus scale="   79.350">  5  6 -1 -1</clus>
<clus scale="   88.430">  7  8 -1 -1</clus>
<clus scale="  103.437">  2  5  1 -1</clus>
<clus scale="   71.815">  1  5  2 -1</clus>
</clustering>
</event>
<event>
 9    2  0.1592151E-004  0.1030374E+03  0.7546771E-02  0.1277691E+00
         21   -1    0    0  501  502  0.00000000000E+00  0.00000000000E+00  0.10097025188E+03  0.10097025188E+03  0.00000000000E+00 0. -1.
         -1   -1    0    0    0  501 -0.00000000000E+00 -0.00000000000E+00 -0.32148263386E+03  0.32148263386E+03  0.00000000000E+00 0.  1.
         23    2    1    2    0    0 -0.52672349489E+02 -0.19880330059E+02 -0.26817791398E+03  0.28789531652E+03  0.88287687739E+02 0.  0.
         24    2    1    2    0    0  0.20868032408E+02  0.35626124861E+02  0.30121170409E+02  0.94969070094E+02  0.80044636413E+02 0.  0.
        -13    1    4    4    0    0  0.49495433633E+02  0.36299354927E+02  0.19045203786E+02  0.64266327932E+02  0.00000000000E+00 0.  1.
         14    1    4    4    0    0 -0.28627401225E+02 -0.67323006546E+00  0.11075966623E+02  0.30702742162E+02  0.00000000000E+00 0. -1.
        -11    1    3    3    0    0 -0.22248609036E+02  0.27965719008E+02 -0.44133924674E+02  0.56788074019E+02  0.00000000000E+00 0.  1.
         11    1    3    3    0    0 -0.30423740453E+02 -0.47846049067E+02 -0.22404398930E+03  0.23110724250E+03  0.00000000000E+00 0. -1.
         -2    1    1    2    0  502  0.31804317081E+02 -0.15745794802E+02  0.17544361590E+02  0.39588499120E+02  0.00000000000E+00 0.  1.
<scales pt_clust_5="13000.00000" pt_clust_6="13000.00000" pt_clust_7="13000.00000" pt_clust_8="13000.00000" pt_clust_9="35.48866"></scales>
<clustering>
<clus scale="   35.489">  1  9  2 -1</clus>
<clus scale="   80.045">  5  6 -1 -1</clus>
<clus scale="   88.288">  7  8 -1 -1</clus>
<clus scale="   96.068">  1  5  2 -1</clus>
<clus scale="   35.489">  1  5  2 -1</clus>
</clustering>
</event>
<event>
 9    2  0.1592151E-004  0.1774845E+03  0.7546771E-02  0.1190830E+00
         -1   -1    0    0    0  501 -0.00000000000E+00  0.00000000000E+00  0.40300756875E+03  0.40300756875E+03  0.00000000000E+00 0.  1.
         21   -1    0    0  501  502  0.00000000000E+00 -0.00000000000E+00 -0.26229751497E+03  0.26229751497E+03  0.00000000000E+00 0.  1.
         23    2    1    2    0    0 -0.39956506608E+02 -0.42765174070E+02  0.52342096508E+02  0.12346475726E+03  0.95280998553E+02 0.  0.
         24    2    1    2    0    0  0.26643895708E+02 -0.11396612462E+03  0.26621790917E+03  0.30441132446E+03  0.89978356053E+02 0.  0.
        -11    1    4    4    0    0  0.83262804596E+01 -0.11846990078E+03  0.17652912962E+03  0.21276037681E+03  0.00000000000E+00 0.  1.
         12    1    4    4    0    0  0.18317615249E+02  0.45037761543E+01  0.89688779557E+02  0.91650947657E+02  0.00000000000E+00 0. -1.
        -11    1    3    3    0    0 -0.69668820528E+02 -0.24621115561E+02  0.21505029589E+02  0.76957197083E+02  0.00000000000E+00 0. -1.
         11    1    3    3    0    0  0.29712313920E+02 -0.18144058509E+02  0.30837066919E+02  0.46507560178E+02  0.00000000000E+00 0.  1.
         -2    1    1    2    0  502  0.13312610900E+02  0.15673129869E+03 -0.17784995190E+03  0.23742900200E+03  0.00000000000E+00 0.  1.
<scales pt_clust_5="13000.00000" pt_clust_6="13000.00000" pt_clust_7="13000.00000" pt_clust_8="13000.00000" pt_clust_9="152.98578"></scales>
<clustering>
<clus scale="   89.978">  5  6 -1 -1</clus>
<clus scale="   95.281">  7  8 -1 -1</clus>
<clus scale="  111.821">  1  7  2 -1</clus>
<clus scale="  152.986">  2  9  1 -1</clus>
<clus scale="  152.986">  2  5  1 -1</clus>
</clustering>
</event>
<event>
 9    2  0.1592151E-004  0.1952917E+03  0.7546771E-02  0.1154774E+00
         21   -1    0    0  501  502  0.00000000000E+00  0.00000000000E+00  0.10299463287E+04  0.10299463287E+04  0.00000000000E+00 0.  1.
         -3   -1    0    0    0  501 -0.00000000000E+00 -0.00000000000E+00 -0.83099978695E+02  0.83099978695E+02  0.00000000000E+00 0.  1.
         24    2    1    2    0    0  0.11218856206E+02  0.17371418239E+03  0.83848435073E+02  0.20977561426E+03  0.81687014741E+02 0.  0.
         23    2    1    2    0    0 -0.58704920324E+02 -0.15846742878E+03  0.80068547532E+03  0.82345697306E+03  0.91793041266E+02 0.  0.
        -11    1    3    3    0    0  0.94203872599E+01  0.16438478014E+03  0.98828236633E+02  0.19203676730E+03  0.00000000000E+00 0.  1.
         12    1    3    3    0    0  0.17984689458E+01  0.93294022487E+01 -0.14979801560E+02  0.17738846965E+02  0.00000000000E+00 0. -1.
        -13    1    4    4    0    0 -0.76436159922E+02 -0.99837069668E+02  0.62149128841E+03  0.63408307704E+03  0.00000000000E+00 0.  1.
         13    1    4    4    0    0  0.17731239598E+02 -0.58630359107E+02  0.17919418692E+03  0.18937389601E+03  0.00000000000E+00 0. -1.
         -4    1    1    2    0  502  0.47486064119E+02 -0.15246753616E+02  0.62312439578E+02  0.79813720045E+02  0.00000000000E+00 0.  1.
<scales pt_clust_5="13000.00000" pt_clust_6="13000.00000" pt_clust_7="13000.00000" pt_clust_8="13000.00000" pt_clust_9="49.87376"></scales>
<clustering>
<clus scale="   49.874">  1  9  2 -1</clus>
<clus scale="   81.687">  5  6 -1 -1</clus>
<clus scale="   91.793">  7  8 -1 -1</clus>
<clus scale="  190.750">  2  5  1 -1</clus>
<clus scale="   49.874">  1  5  2 -1</clus>
</clustering>
</event>
<event>
 9    2  0.1592151E-004  0.1378923E+03  0.7546771E-02  0.1218009E+00
          4   -1    0    0  502    0 -0.00000000000E+00  0.00000000000E+00  0.13473669644E+03  0.13473669644E+03  0.00000000000E+00 0. -1.
         21   -1    0    0  501  502  0.00000000000E+00 -0.00000000000E+00 -0.15996788854E+03  0.15996788854E+03  0.00000000000E+00 0.  1.
         23    2    1    2    0    0  0.86009474425E+02 -0.42558361564E+02 -0.15251104628E+02  0.13155871228E+03  0.88691909190E+02 0.  0.
         24    2    1    2    0    0 -0.10400929279E+03  0.51315524748E+02 -0.16527261686E+02  0.14208532050E+03  0.80398208032E+02 0.  0.
        -11    1    4    4    0    0 -0.10247451266E+03  0.22888524440E+02  0.68868357198E+01  0.10522518141E+03  0.00000000000E+00 0.  1.
         12    1    4    4    0    0 -0.15347801343E+01  0.28427000307E+02 -0.23414097406E+02  0.36860139092E+02  0.00000000000E+00 0. -1.
        -13    1    3    3    0    0  0.26540852983E+02 -0.33801500025E+02 -0.46911108787E+02  0.63620833134E+02  0.00000000000E+00 0.  1.
         13    1    3    3    0    0  0.59468621441E+02 -0.87568615395E+01  0.31660004159E+02  0.67937879151E+02  0.00000000000E+00 0. -1.
          3    1    1    2  501    0  0.17999818369E+02 -0.87571631831E+01  0.65471742120E+01  0.21060552189E+02  0.00000000000E+00 0. -1.
<scales pt_clust_5="13000.00000" pt_clust_6="13000.00000" pt_clust_7="13000.00000" pt_clust_8="13000.00000" pt_clust_9="20.01704"></scales>
<clustering>
<clus scale="   20.017">  2  9  1 -1</clus>
<clus scale="   80.398">  5  6 -1 -1</clus>
<clus scale="   88.692">  7  8 -1 -1</clus>
<clus scale="  132.710">  2  5  1 -1</clus>
<clus scale="   20.017">  2  5  1 -1</clus>
</clustering>
</event>
<event>
 9    2  0.1592151E-004  0.1589462E+03  0.7546771E-02  0.1221117E+00
         21   -1    0    0  501  502  0.00000000000E+00  0.00000000000E+00  0.50870417673E+02  0.50870417673E+02  0.00000000000E+00 0.  1.
          2   -1    0    0  502    0 -0.00000000000E+00 -0.00000000000E+00 -0.73751121745E+03  0.73751121745E+03  0.00000000000E+00 0. -1.
         24    2    1    2    0    0 -0.72363433311E+01  0.28827707532E+01 -0.26541007521E+03  0.27754566726E+03  0.80798603677E+02 0.  0.
         23    2    1    2    0    0 -0.17736788835E+02  0.12421371862E+03 -0.26368985468E+03  0.30688425636E+03  0.94350229300E+02 0.  0.
        -13    1    3    3    0    0 -0.28746270688E+02 -0.16001026283E+02 -0.47601119725E+02  0.57864043409E+02  0.00000000000E+00 0.  1.
         14    1    3    3    0    0  0.21509927357E+02  0.18883797036E+02 -0.21780895549E+03  0.21968162385E+03  0.00000000000E+00 0. -1.
        -13    1    4    4    0    0 -0.45300783105E+02  0.20589217879E+02 -0.83034057288E+02  0.96802538771E+02  0.00000000000E+00 0. -1.
         13    1    4    4    0    0  0.27563994269E+02  0.10362450074E+03 -0.18065579740E+03  0.21008171759E+03  0.00000000000E+00 0.  1.
          1    1    1    2  501    0  0.24973132166E+02 -0.12709648938E+03 -0.15754086988E+03  0.20395171151E+03  0.00000000000E+00 0. -1.
<scales pt_clust_5="13000.00000" pt_clust_6="13000.00000" pt_clust_7="13000.00000" pt_clust_8="13000.00000" pt_clust_9="127.91374"></scales>
<clustering>
<clus scale="   80.799">  5  6 -1 -1</clus>
<clus scale="   81.173">  2  5  1 -1</clus>
<clus scale="   94.350">  7  8 -1 -1</clus>
<clus scale="  127.914">  1  9  2 -1</clus>
<clus scale="  127.914">  1  5  2 -1</clus>
</clustering>
</event>
<event>
 9    2  0.1592151E-004  0.1401003E+03  0.7546771E-02  0.1235694E+00
         21   -1    0    0  501  502  0.00000000000E+00  0.00000000000E+00  0.12106673006E+03  0.12106673006E+03  0.00000000000E+00 0.  1.
          2   -1    0    0  502    0 -0.00000000000E+00 -0.00000000000E+00 -0.26934595090E+03  0.26934595090E+03  0.00000000000E+00 0. -1.
         24    2    1    2    0    0 -0.27473385214E+02 -0.20503717959E+02 -0.74810662789E+02  0.11523857425E+03  0.80672823073E+02 0.  0.
         23    2    1    2    0    0 -0.30773773206E+02  0.10506285606E+03  0.92205929773E+01  0.14333907723E+03  0.92064341013E+02 0.  0.
        -13    1    3    3    0    0 -0.41500698678E+02 -0.20810196637E+02 -0.81730744646E+01  0.47139913248E+02  0.00000000000E+00 0.  1.
         14    1    3    3    0    0  0.14027313465E+02  0.30647867844E+00 -0.66637588325E+02  0.68098661000E+02  0.00000000000E+00 0. -1.
        -13    1    4    4    0    0  0.23966617363E+02  0.46376208907E+02  0.30305371883E+02  0.60361967043E+02  0.00000000000E+00 0.  1.
         13    1    4    4    0    0 -0.54740390570E+02  0.58686647153E+02 -0.21084778905E+02  0.82977110188E+02  0.00000000000E+00 0. -1.
          1    1    1    2  501    0  0.58247158420E+02 -0.84559138100E+02 -0.82689151024E+02  0.13183502948E+03  0.00000000000E+00 0. -1.
<scales pt_clust_5="13000.00000" pt_clust_6="13000.00000" pt_clust_7="13000.00000" pt_clust_8="13000.00000" pt_clust_9="105.60423"></scales>
<clustering>
<clus scale="   80.673">  5  6 -1 -1</clus>
<clus scale="   87.654">  2  5  1 -1</clus>
<clus scale="   92.064">  7  8 -1 -1</clus>
<clus scale="  105.604">  1  9  2 -1</clus>
<clus scale="  105.604">  1  5  2 -1</clus>
</clustering>
</event>
<event>
 9    2  0.1592151E-004  0.1124455E+03  0.7546771E-02  0.1260179E+00
         21   -1    0    0  501  502  0.00000000000E+00  0.00000000000E+00  0.12468389537E+03  0.12468389537E+03  0.00000000000E+00 0.  1.
          2   -1    0    0  502    0 -0.00000000000E+00 -0.00000000000E+00 -0.30674847527E+03  0.30674847527E+03  0.00000000000E+00 0. -1.
         23    2    1    2    0    0 -0.12378228383E+02 -0.63168802697E+02 -0.13655123536E+03  0.17720710110E+03  0.92804087345E+02 0.  0.
         24    2    1    2    0    0 -0.52410853620E+02  0.58485141284E+02 -0.11322828105E+03  0.16039097700E+03  0.82080524761E+02 0.  0.
        -13    1    4    4    0    0 -0.37429308316E+02 -0.68644340991E+01 -0.72676529809E+02  0.82036281983E+02  0.00000000000E+00 0.  1.
         14    1    4    4    0    0 -0.14981545303E+02  0.65349575384E+02 -0.40551751244E+02  0.78354695018E+02  0.00000000000E+00 0. -1.
        -13    1    3    3    0    0 -0.33619154912E+02 -0.46696924680E+02 -0.25479028459E+02  0.62928779130E+02  0.00000000000E+00 0.  1.
         13    1    3    3    0    0  0.21240926529E+02 -0.16471878017E+02 -0.11107220690E+03  0.11427832197E+03  0.00000000000E+00 0. -1.
          1    1    1    2  501    0  0.64789082003E+02  0.46836614126E+01  0.67714936507E+02  0.93834292544E+02  0.00000000000E+00 0. -1.
<scales pt_clust_5="13000.00000" pt_clust_6="13000.00000" pt_clust_7="13000.00000" pt_clust_8="13000.00000" pt_clust_9="64.95815"></scales>
<clustering>
<clus scale="   64.958">  1  9  2 -1</clus>
<clus scale="   82.081">  5  6 -1 -1</clus>
<clus scale="   92.804">  7  8 -1 -1</clus>
<clus scale="  103.772">  1  5  2 -1</clus>
<clus scale="   64.958">  1  5  2 -1</clus>
</clustering>
</event>
<event>
 9    2  0.1592151E-004  0.1533249E+03  0.7546771E-02  0.1198772E+00
          2   -1    0    0  502    0 -0.00000000000E+00  0.00000000000E+00  0.43686362252E+03  0.43686362252E+03  0.00000000000E+00 0. -1.
         21   -1    0    0  501  502  0.00000000000E+00 -0.00000000000E+00 -0.12824983855E+03  0.12824983855E+03  0.00000000000E+00 0. -1.
         24    2    1    2    0    0 -0.11960432086E+03 -0.10510340540E+03  0.14626425651E+03  0.23128631313E+03  0.82147468094E+02 0.  0.
         23    2    1    2    0    0 -0.22324394970E+02  0.11291626127E+03  0.75177402721E+02  0.16708249157E+03  0.94955023246E+02 0.  0.
        -13    1    3    3    0    0 -0.29013818634E+02  0.78372188023E+01  0.80274379577E+01  0.31107289024E+02  0.00000000000E+00 0.  1.
         14    1    3    3    0    0 -0.90590502222E+02 -0.11294062420E+03  0.13823681855E+03  0.20017902410E+03  0.00000000000E+00 0. -1.
        -13    1    4    4    0    0 -0.48864155629E+02  0.52566238377E+02  0.67884431779E+01  0.72090207956E+02  0.00000000000E+00 0. -1.
         13    1    4    4    0    0  0.26539760658E+02  0.60350022897E+02  0.68388959543E+02  0.94992283617E+02  0.00000000000E+00 0.  1.
          1    1    1    2  501    0  0.14192871583E+03 -0.78128558728E+01  0.87172124745E+02  0.16674465636E+03  0.00000000000E+00 0. -1.
<scales pt_clust_5="13000.00000" pt_clust_6="13000.00000" pt_clust_7="13000.00000" pt_clust_8="13000.00000" pt_clust_9="142.14359"></scales>
<clustering>
<clus scale="   82.147">  5  6 -1 -1</clus>
<clus scale="   94.955">  7  8 -1 -1</clus>
<clus scale="  142.144">  2  9  1 -1</clus>
<clus scale="  145.740">  1  5  2 -1</clus>
<clus scale="  142.144">  2  5  1 -1</clus>
</clustering>
</event>
<event>
 9    2  0.1592151E-004  0.1690798E+03  0.7546771E-02  0.1202088E+00
         21   -1    0    0  501  502  0.00000000000E+00  0.00000000000E+00  0.37416576214E+03  0.37416576214E+03  0.00000000000E+00 0.  1.
         -3   -1    0    0    0  501 -0.00000000000E+00 -0.00000000000E+00 -0.14637911641E+03  0.14637911641E+03  0.00000000000E+00 0.  1.
         23    2    1    2    0    0 -0.31707055652E+02 -0.28452769898E+02  0.15107605995E+03  0.18180171236E+03  0.91722348611E+02 0.  0.
         24    2    1    2    0    0 -0.13295910311E+03 -0.33947649378E+01  0.65478487582E+02  0.17064983097E+03  0.84523872041E+02 0.  0.
        -11    1    4    4    0    0 -0.13823506435E+03 -0.18418255264E+02  0.49206484456E+02  0.14788320816E+03  0.00000000000E+00 0.  1.
         12    1    4    4    0    0  0.52759612373E+01  0.15023490326E+02  0.16272003126E+02  0.22766622813E+02  0.00000000000E+00 0. -1.
        -13    1    3    3    0    0  0.11369575437E+02 -0.50925112925E+02  0.85955700457E+02  0.10055355197E+03  0.00000000000E+00 0.  1.
         13    1    3    3    0    0 -0.43076631089E+02  0.22472343027E+02  0.65120359489E+02  0.81248160392E+02  0.00000000000E+00 0. -1.
         -4    1    1    2    0  502  0.16466615876E+03  0.31847534835E+02  0.11232098199E+02  0.16809333522E+03  0.00000000000E+00 0.  1.
<scales pt_clust_5="13000.00000" pt_clust_6="13000.00000" pt_clust_7="13000.00000" pt_clust_8="13000.00000" pt_clust_9="146.43668"></scales>
<clustering>
<clus scale="   84.524">  5  6 -1 -1</clus>
<clus scale="   91.722">  7  8 -1 -1</clus>
<clus scale="  101.133">  2  7  1 -1</clus>
<clus scale="  146.437">  1  9  2 -1</clus>
<clus scale="  146.437">  1  5  2 -1</clus>
</clustering>
</event>
<event>
 9    2  0.1592151E-004  0.1028756E+03  0.7546771E-02  0.1277354E+00
         21   -1    0    0  501  502  0.00000000000E+00  0.00000000000E+00  0.16572774044E+03  0.16572774044E+03  0.00000000000E+00 0. -1.
          4   -1    0    0  502    0 -0.00000000000E+00 -0.00000000000E+00 -0.11046408523E+03  0.11046408523E+03  0.00000000000E+00 0. -1.
         23    2    1    2    0    0  0.43391426115E+02  0.39841999269E+01  0.22081542761E+02  0.10240943672E+03  0.90007824597E+02 0.  0.
         24    2    1    2    0    0 -0.56836507284E+02 -0.22916696569E+02  0.73719458292E+02  0.12706530380E+03  0.83399456577E+02 0.  0.
        -13    1    4    4    0    0 -0.17334426855E+02  0.30542778771E+02  0.37461688222E+02  0.51349019211E+02  0.00000000000E+00 0.  1.
         14    1    4    4    0    0 -0.39502080429E+02 -0.53459475340E+02  0.36257770070E+02  0.75716284591E+02  0.00000000000E+00 0. -1.
        -13    1    3    3    0    0  0.46410795591E+02 -0.31979540476E+02 -0.60011613345E+01  0.56680392499E+02  0.00000000000E+00 0. -1.
         13    1    3    3    0    0 -0.30193694759E+01  0.35963740403E+02  0.28082704096E+02  0.45729044218E+02  0.00000000000E+00 0.  1.
          3    1    1    2  501    0  0.13445081169E+02  0.18932496642E+02 -0.40537345849E+02  0.46717085154E+02  0.00000000000E+00 0. -1.
<scales pt_clust_5="13000.00000" pt_clust_6="13000.00000" pt_clust_7="13000.00000" pt_clust_8="13000.00000" pt_clust_9="23.22090"></scales>
<clustering>
<clus scale="   23.221">  1  9  2 -1</clus>
<clus scale="   83.399">  5  6 -1 -1</clus>
<clus scale="   90.008">  7  8 -1 -1</clus>
<clus scale="   97.147">  1  5  2 -1</clus>
<clus scale="   23.221">  1  5  2 -1</clus>
</clustering>
</event>
<event>
 9    2  0.1592151E-004  0.1651947E+03  0.7546771E-02  0.1192177E+00
         21   -1    0    0  501  502  0.00000000000E+00  0.00000000000E+00  0.26854129229E+03  0.26854129229E+03  0.00000000000E+00 0. -1.
          2   -1    0    0  502    0 -0.00000000000E+00 -0.00000000000E+00 -0.26715466465E+03  0.26715466465E+03  0.00000000000E+00 0. -1.
         23    2    1    2    0    0 -0.69620343930E+01 -0.98829108170E+02 -0.37463099954E+02  0.13973934743E+03  0.91147895294E+02 0.  0.
         24    2    1    2    0    0  0.10299807059E+03 -0.80185136093E+02  0.10111141313E+03  0.18348181716E+03  0.80023751258E+02 0.  0.
        -13    1    4    4    0    0  0.19346072259E+02  0.16374554325E+02  0.17398765963E+02  0.30742699918E+02  0.00000000000E+00 0.  1.
         14    1    4    4    0    0  0.83651998335E+02 -0.96559690419E+02  0.83712647169E+02  0.15273911724E+03  0.00000000000E+00 0. -1.
        -11    1    3    3    0    0  0.39341130448E+02 -0.68977468238E+02 -0.19160014993E+02  0.81686729914E+02  0.00000000000E+00 0.  1.
         11    1    3    3    0    0 -0.46303164841E+02 -0.29851639932E+02 -0.18303084962E+02  0.58052617513E+02  0.00000000000E+00 0. -1.
          1    1    1    2  501    0 -0.96036036202E+02  0.17901424426E+03 -0.62261685542E+02  0.21247479235E+03  0.00000000000E+00 0. -1.
<scales pt_clust_5="13000.00000" pt_clust_6="13000.00000" pt_clust_7="13000.00000" pt_clust_8="13000.00000" pt_clust_9="144.51819"></scales>
<clustering>
<clus scale="   80.024">  5  6 -1 -1</clus>
<clus scale="   91.148">  7  8 -1 -1</clus>
<clus scale="  134.624">  2  7  1 -1</clus>
<clus scale="  144.518">  1  9  2 -1</clus>
<clus scale="  144.518">  1  5  2 -1</clus>
</clustering>
</event>
<event>
 9    2  0.1592151E-004  0.9736138E+02  0.7546771E-02  0.1290921E+00
         21   -1    0    0  501  502  0.00000000000E+00  0.00000000000E+00  0.33554990750E+03  0.33554990750E+03  0.00000000000E+00 0. -1.
          2   -1    0    0  502    0 -0.00000000000E+00 -0.00000000000E+00 -0.39992288394E+02  0.39992288394E+02  0.00000000000E+00 0. -1.
         23    2    1    2    0    0  0.16918445826E+02 -0.24601848704E+02  0.68018986815E+02  0.11695819092E+03  0.90339089477E+02 0.  0.
         24    2    1    2    0    0 -0.10269345671E+02  0.50605703463E+02  0.17541837321E+03  0.19995864867E+03  0.80904009998E+02 0.  0.
        -11    1    4    4    0    0  0.18931322478E+02  0.61380277647E+02  0.10712112055E+03  0.12490343439E+03  0.00000000000E+00 0.  1.
         12    1    4    4    0    0 -0.29200668148E+02 -0.10774574184E+02  0.68297252654E+02  0.75055214271E+02  0.00000000000E+00 0. -1.
        -13    1    3    3    0    0 -0.14741358830E+02 -0.50107682279E+02  0.50620723881E+02  0.72736133866E+02  0.00000000000E+00 0.  1.
         13    1    3    3    0    0  0.31659804655E+02  0.25505833575E+02  0.17398262934E+02  0.44222057056E+02  0.00000000000E+00 0. -1.
          1    1    1    2  501    0 -0.66491001549E+01 -0.26003854759E+02  0.52120259087E+02  0.58625356310E+02  0.00000000000E+00 0. -1.
<scales pt_clust_5="13000.00000" pt_clust_6="13000.00000" pt_clust_7="13000.00000" pt_clust_8="13000.00000" pt_clust_9="26.84047"></scales>
<clustering>
<clus scale="   26.840">  1  9  2 -1</clus>
<clus scale="   80.904">  5  6 -1 -1</clus>
<clus scale="   88.677">  1  5  2 -1</clus>
<clus scale="   90.339">  7  8 -1 -1</clus>
<clus scale="   26.840">  1  5  2 -1</clus>
</clustering>
</event>
<event>
 9    2  0.1592151E-004  0.9293389E+02  0.7546771E-02  0.1302007E+00
          2   -1    0    0  502    0 -0.00000000000E+00  0.00000000000E+00  0.91815977502E+02  0.91815977502E+02  0.00000000000E+00 0. -1.
         21   -1    0    0  501  502  0.00000000000E+00 -0.00000000000E+00 -0.37330947881E+03  0.37330947881E+03  0.00000000000E+00 0. -1.
         24    2    1    2    0    0 -0.17431744523E+02 -0.54427505127E+01  0.43671658888E+02  0.93549911980E+02  0.80690042702E+02 0.  0.
         23    2    1    2    0    0  0.25948508550E+01  0.48625686455E+02 -0.10659205893E+03  0.14828403091E+03  0.90857559737E+02 0.  0.
        -13    1    3    3    0    0  0.28289961097E+02  0.12733591304E+02  0.28326868707E+02  0.42010447952E+02  0.00000000000E+00 0.  1.
         14    1    3    3    0    0 -0.45721705620E+02 -0.18176341817E+02  0.15344790180E+02  0.51539464028E+02  0.00000000000E+00 0. -1.
        -13    1    4    4    0    0  0.33104765179E+02  0.45823459035E+02 -0.26307974189E+02  0.62352420815E+02  0.00000000000E+00 0. -1.
         13    1    4    4    0    0 -0.30509914324E+02  0.28022274194E+01 -0.80284084741E+02  0.85931610094E+02  0.00000000000E+00 0.  1.
          1    1    1    2  501    0  0.14836893668E+02 -0.43182935942E+02 -0.21857310126E+03  0.22329151342E+03  0.00000000000E+00 0. -1.
<scales pt_clust_5="13000.00000" pt_clust_6="13000.00000" pt_clust_7="13000.00000" pt_clust_8="13000.00000" pt_clust_9="45.66070"></scales>
<clustering>
<clus scale="   45.661">  2  9  1 -1</clus>
<clus scale="   80.690">  5  6 -1 -1</clus>
<clus scale="   83.021">  1  5  2 -1</clus>
<clus scale="   90.858">  7  8 -1 -1</clus>
<clus scale="   45.661">  2  5  1 -1</clus>
</clustering>
</event>
<event>
 9    2  0.1592151E-004  0.1624064E+03  0.7546771E-02  0.1187802E+00
          2   -1    0    0  502    0 -0.00000000000E+00  0.00000000000E+00  0.12273815460E+04  0.12273815460E+04  0.00000000000E+00 0. -1.
         21   -1    0    0  501  502  0.00000000000E+00 -0.00000000000E+00 -0.43706649447E+02  0.43706649447E+02  0.00000000000E+00 0.  1.
         23    2    1    2    0    0 -0.83249580730E+02  0.99997761556E+02  0.77702638704E+03  0.79308067812E+03  0.90977529341E+02 0.  0.
         24    2    1    2    0    0  0.10418927766E+03 -0.98855482437E+02  0.42152903560E+03  0.45229359567E+03  0.79088285123E+02 0.  0.
        -11    1    4    4    0    0  0.43727494506E+02 -0.19829382426E+02  0.57498077636E+02  0.74908791974E+02  0.00000000000E+00 0.  1.
         12    1    4    4    0    0  0.60461783157E+02 -0.79026100011E+02  0.36403095796E+03  0.37738480370E+03  0.00000000000E+00 0. -1.
        -11    1    3    3    0    0 -0.62707296476E+02  0.11657352108E+03  0.64635762884E+03  0.65977251777E+03  0.00000000000E+00 0. -1.
         11    1    3    3    0    0 -0.20542284254E+02 -0.16575759522E+02  0.13066875820E+03  0.13330816035E+03  0.00000000000E+00 0.  1.
          1    1    1    2  501    0 -0.20939696932E+02 -0.11422791188E+01 -0.14880526099E+02  0.25713921642E+02  0.00000000000E+00 0. -1.
<scales pt_clust_5="13000.00000" pt_clust_6="13000.00000" pt_clust_7="13000.00000" pt_clust_8="13000.00000" pt_clust_9="20.97083"></scales>
<clustering>
<clus scale="   20.971">  2  9  1 -1</clus>
<clus scale="   79.088">  5  6 -1 -1</clus>
<clus scale="   90.978">  7  8 -1 -1</clus>
<clus scale="  156.057">  2  5  1 -1</clus>
<clus scale="   20.971">  2  5  1 -1</clus>
</clustering>
</event>
<event>
 9    2  0.1592151E-004  0.9463244E+02  0.7546771E-02  0.1295440E+00
          2   -1    0    0  502    0 -0.00000000000E+00  0.00000000000E+00  0.28750630875E+03  0.28750630875E+03  0.00000000000E+00 0. -1.
         21   -1    0    0  501  502  0.00000000000E+00 -0.00000000000E+00 -0.12464083647E+03  0.12464083647E+03  0.00000000000E+00 0. -1.
         24    2    1    2    0    0 -0.12811333450E+02  0.11733593141E+02  0.18110835811E+03  0.20099898165E+03  0.85431526818E+02 0.  0.
         23    2    1    2    0    0 -0.16778322641E+02 -0.70598881705E+02  0.39760771993E+02  0.12336949722E+03  0.91506282007E+02 0.  0.
        -11    1    3    3    0    0 -0.25852679238E+02  0.44743664866E+02  0.10574486180E+03  0.11769593182E+03  0.00000000000E+00 0.  1.
         12    1    3    3    0    0  0.13041345788E+02 -0.33010071726E+02  0.75363496304E+02  0.83303049826E+02  0.00000000000E+00 0. -1.
        -13    1    4    4    0    0 -0.48998427350E+02 -0.16259198216E+02  0.66729525913E+01  0.52055121800E+02  0.00000000000E+00 0. -1.
         13    1    4    4    0    0  0.32220104708E+02 -0.54339683489E+02  0.33087819401E+02  0.71314375422E+02  0.00000000000E+00 0.  1.
          1    1    1    2  501    0  0.29589656092E+02  0.58865288564E+02 -0.58003657818E+02  0.87778666347E+02  0.00000000000E+00 0. -1.
<scales pt_clust_5="13000.00000" pt_clust_6="13000.00000" pt_clust_7="13000.00000" pt_clust_8="13000.00000" pt_clust_9="65.88376"></scales>
<clustering>
<clus scale="   65.884">  2  9  1 -1</clus>
<clus scale="   85.432">  5  6 -1 -1</clus>
<clus scale="   88.772">  1  5  2 -1</clus>
<clus scale="   91.506">  7  8 -1 -1</clus>
<clus scale="   65.884">  2  5  1 -1</clus>
</clustering>
</event>
<event>
 9    2  0.1592151E-004  0.1188877E+03  0.7546771E-02  0.1246782E+00
          2   -1    0    0  502    0 -0.00000000000E+00  0.00000000000E+00  0.22914955242E+03  0.22914955242E+03  0.00000000000E+00 0. -1.
         21   -1    0    0  501  502  0.00000000000E+00 -0.00000000000E+00 -0.91155937560E+02  0.91155937560E+02  0.00000000000E+00 0.  1.
         23    2    1    2    0    0  0.71324351491E+02  0.49176492209E+02  0.14995045261E+03  0.19391883507E+03  0.87257583360E+02 0.  0.
         24    2    1    2    0    0 -0.52286930781E+02 -0.39720764839E+02 -0.82884216559E+01  0.10481603962E+03  0.81277561104E+02 0.  0.
        -11    1    4    4    0    0 -0.45987057952E+02  0.15690320510E+02 -0.12558046830E+01  0.48606303112E+02  0.00000000000E+00 0.  1.
         12    1    4    4    0    0 -0.62998728286E+01 -0.55411085349E+02 -0.70326169729E+01  0.56209736512E+02  0.00000000000E+00 0. -1.
        -13    1    3    3    0    0  0.27181512752E+02  0.17503577393E+02 -0.21551032215E+01  0.32401455630E+02  0.00000000000E+00 0.  1.
         13    1    3    3    0    0  0.44142838739E+02  0.31672914816E+02  0.15210555584E+03  0.16151737944E+03  0.00000000000E+00 0. -1.
          1    1    1    2  501    0 -0.19037420710E+02 -0.94557273699E+01 -0.36684160945E+01  0.21570615291E+02  0.00000000000E+00 0. -1.
<scales pt_clust_5="13000.00000" pt_clust_6="13000.00000" pt_clust_7="13000.00000" pt_clust_8="13000.00000" pt_clust_9="21.25639"></scales>
<clustering>
<clus scale="   21.256">  2  9  1 -1</clus>
<clus scale="   81.278">  5  6 -1 -1</clus>
<clus scale="   87.258">  7  8 -1 -1</clus>
<clus scale="  114.571">  2  5  1 -1</clus>
<clus scale="   21.256">  2  5  1 -1</clus>
</clustering>
</event>
<event>
 9    2  0.1592151E-004  0.1898824E+03  0.7546771E-02  0.1189669E+00
          4   -1    0    0  502    0 -0.00000000000E+00  0.00000000000E+00  0.13077680629E+03  0.13077680629E+03  0.00000000000E+00 0. -1.
         21   -1    0    0  501  502  0.00000000000E+00 -0.00000000000E+00 -0.44104299700E+03  0.44104299700E+03  0.00000000000E+00 0. -1.
         24    2    1    2    0    0  0.47812540192E+02  0.17505784308E+02 -0.24109567284E+01  0.93718379041E+02  0.78643692524E+02 0.  0.
         23    2    1    2    0    0 -0.15398607012E+03 -0.11821432550E+03 -0.23072151294E+03  0.31267881501E+03  0.82760426984E+02 0.  0.
        -13    1    3    3    0    0  0.59385599365E+02  0.28194253220E+02 -0.21317573129E+02  0.69108640927E+02  0.00000000000E+00 0.  1.
         14    1    3    3    0    0 -0.11573059173E+02 -0.10688468912E+02  0.18906616401E+02  0.24609738114E+02  0.00000000000E+00 0. -1.
        -13    1    4    4    0    0 -0.18552183883E+02  0.92143992785E+01 -0.72291717699E+01  0.21939681068E+02  0.00000000000E+00 0.  1.
         13    1    4    4    0    0 -0.13543388624E+03 -0.12742872478E+03 -0.22349234117E+03  0.29073913394E+03  0.00000000000E+00 0. -1.
          3    1    1    2  501    0  0.10617352993E+03  0.10070854120E+03 -0.77133721037E+02  0.16542260924E+03  0.00000000000E+00 0. -1.
<scales pt_clust_5="13000.00000" pt_clust_6="13000.00000" pt_clust_7="13000.00000" pt_clust_8="13000.00000" pt_clust_9="170.89780"></scales>
<clustering>
<clus scale="   78.644">  5  6 -1 -1</clus>
<clus scale="   82.760">  7  8 -1 -1</clus>
<clus scale="   93.687">  1  5  2 -1</clus>
<clus scale="  170.898">  2  9  1 -1</clus>
<clus scale="  170.898">  2  5  1 -1</clus>
</clustering>
</event>
<event>
 9    2  0.1592151E-004  0.1317295E+03  0.7546771E-02  0.1228207E+00
         21   -1    0    0  501  502  0.00000000000E+00  0.00000000000E+00  0.90106339091E+02  0.90106339091E+02  0.00000000000E+00 0.  1.
          2   -1    0    0  502    0 -0.00000000000E+00 -0.00000000000E+00 -0.43951180392E+03  0.43951180392E+03  0.00000000000E+00 0. -1.
         23    2    1    2    0    0 -0.10583861486E+03  0.42249414681E+02 -0.90619201954E+02  0.17214309206E+03  0.91839963764E+02 0.  0.
         24    2    1    2    0    0  0.34911306820E+02 -0.83205957563E+02 -0.44068048500E+02  0.12766636310E+03  0.78833220472E+02 0.  0.
        -13    1    4    4    0    0  0.57621883461E+02 -0.74455580129E+02 -0.27011544422E+02  0.97946609936E+02  0.00000000000E+00 0.  1.
         14    1    4    4    0    0 -0.22710576640E+02 -0.87503774340E+01 -0.17056504079E+02  0.29719753161E+02  0.00000000000E+00 0. -1.
        -13    1    3    3    0    0 -0.74030689838E+02 -0.19245719874E+02 -0.55543937092E+02  0.94530787149E+02  0.00000000000E+00 0. -1.
         13    1    3    3    0    0 -0.31807925020E+02  0.61495134555E+02 -0.35075264862E+02  0.77612304908E+02  0.00000000000E+00 0.  1.
          1    1    1    2  501    0  0.70927308038E+02  0.40956542881E+02 -0.21471821437E+03  0.22980868785E+03  0.00000000000E+00 0. -1.
<scales pt_clust_5="13000.00000" pt_clust_6="13000.00000" pt_clust_7="13000.00000" pt_clust_8="13000.00000" pt_clust_9="81.90316"></scales>
<clustering>
<clus scale="   78.833">  5  6 -1 -1</clus>
<clus scale="   81.903">  1  9  2 -1</clus>
<clus scale="   91.840">  7  8 -1 -1</clus>
<clus scale="  123.015">  1  5  2 -1</clus>
<clus scale="   81.903">  1  5  2 -1</clus>
</clustering>
</event>
<event>
 9    2  0.1592151E-004  0.1211361E+03  0.7546771E-02  0.1251936E+00
         21   -1    0    0  501  502  0.00000000000E+00  0.00000000000E+00  0.20542393386E+03  0.20542393386E+03  0.00000000000E+00 0. -1.
         -1   -1    0    0    0  501 -0.00000000000E+00 -0.00000000000E+00 -0.21806881398E+03  0.21806881398E+03  0.00000000000E+00 0.  1.
         23    2    1    2    0    0  0.29893203272E+00 -0.37201372948E+02  0.13054569374E+03  0.16305706241E+03  0.90340444639E+02 0.  0.
         24    2    1    2    0    0 -0.57867004085E+02 -0.52275239896E+02 -0.86825856617E+02  0.14003166342E+03  0.77387638002E+02 0.  0.
        -13    1    4    4    0    0 -0.45441677251E+02  0.82530388121E+01 -0.50148030417E+02  0.68175388783E+02  0.00000000000E+00 0.  1.
         14    1    4    4    0    0 -0.12425326835E+02 -0.60528278708E+02 -0.36677826199E+02  0.71856274639E+02  0.00000000000E+00 0. -1.
        -13    1    3    3    0    0  0.19909044734E+02  0.14556161085E+02  0.40639222381E+01  0.24995346601E+02  0.00000000000E+00 0.  1.
         13    1    3    3    0    0 -0.19610112701E+02 -0.51757534033E+02  0.12648177151E+03  0.13806171581E+03  0.00000000000E+00 0. -1.
         -2    1    1    2    0  502  0.57568072053E+02  0.89476612844E+02 -0.56364717250E+02  0.12040402201E+03  0.00000000000E+00 0.  1.
<scales pt_clust_5="13000.00000" pt_clust_6="13000.00000" pt_clust_7="13000.00000" pt_clust_8="13000.00000" pt_clust_9="93.19394"></scales>
<clustering>
<clus scale="   77.388">  5  6 -1 -1</clus>
<clus scale="   90.340">  7  8 -1 -1</clus>
<clus scale="   97.701">  2  7  1 -1</clus>
<clus scale="   93.194">  1  9  2 -1</clus>
<clus scale="   93.194">  1  5  2 -1</clus>
</clustering>
</event>
<event>
 9    2  0.1592151E-004  0.1400639E+03  0.7546771E-02  0.1216341E+00
          4   -1    0    0  502    0 -0.00000000000E+00  0.00000000000E+00  0.30303658836E+03  0.30303658836E+03  0.00000000000E+00 0. -1.
         21   -1    0    0  501  502  0.00000000000E+00 -0.00000000000E+00 -0.91928766389E+02  0.91928766389E+02  0.00000000000E+00 0. -1.
         24    2    1    2    0    0 -0.11018272009E+03  0.65973150219E+02  0.13691438279E+03  0.20297277295E+03  0.77199157944E+02 0.  0.
         23    2    1    2    0    0  0.78163749337E+02 -0.21663181695E+02  0.54686793208E+02  0.13394865847E+03  0.91502637133E+02 0.  0.
        -13    1    3    3    0    0 -0.29091992194E+02 -0.89373811159E+01  0.63437359724E+02  0.70359927514E+02  0.00000000000E+00 0.  1.
         14    1    3    3    0    0 -0.81090727897E+02  0.74910531335E+02  0.73477023068E+02  0.13261284544E+03  0.00000000000E+00 0. -1.
        -13    1    4    4    0    0  0.80283100485E+02  0.14653584199E+01  0.69671173761E+02  0.10630896459E+03  0.00000000000E+00 0. -1.
         13    1    4    4    0    0 -0.21193511476E+01 -0.23128540115E+02 -0.14984380553E+02  0.27639693879E+02  0.00000000000E+00 0.  1.
          3    1    1    2  501    0  0.32018970754E+02 -0.44309968524E+02  0.19506645970E+02  0.58043923331E+02  0.00000000000E+00 0. -1.
<scales pt_clust_5="13000.00000" pt_clust_6="13000.00000" pt_clust_7="13000.00000" pt_clust_8="13000.00000" pt_clust_9="54.66798"></scales>
<clustering>
<clus scale="   54.668">  2  9  1 -1</clus>
<clus scale="   77.199">  5  6 -1 -1</clus>
<clus scale="   91.503">  7  8 -1 -1</clus>
<clus scale="  131.167">  1  5  2 -1</clus>
<clus scale="   54.668">  2  5  1 -1</clus>
</clustering>
</event>
<event>
 9    2  0.1592151E-004  0.3682153E+03  0.7546771E-02  0.1055377E+00
          4   -1    0    0  502    0 -0.00000000000E+00  0.00000000000E+00  0.34077623768E+03  0.34077623768E+03  0.00000000000E+00 0. -1.
         21   -1    0    0  501  502  0.00000000000E+00 -0.00000000000E+00 -0.35552039198E+03  0.35552039198E+03  0.00000000000E+00 0. -1.
         24    2    1    2    0    0 -0.20231401943E+03 -0.13305371326E+03  0.61141953307E+02  0.26231426414E+03  0.80225816574E+02 0.  0.
         23    2    1    2    0    0 -0.63988327755E+02  0.13770153385E+02  0.40749005161E+02  0.11973841999E+03  0.91611596352E+02 0.  0.
        -13    1    3    3    0    0 -0.59867971257E+02 -0.41634957911E+02 -0.18534081309E+02  0.75240653058E+02  0.00000000000E+00 0.  1.
         14    1    3    3    0    0 -0.14244604817E+03 -0.91418755351E+02  0.79676034616E+02  0.18707361108E+03  0.00000000000E+00 0. -1.
        -13    1    4    4    0    0  0.20319690255E+02  0.35862963488E+01 -0.76352186364E+01  0.22001088545E+02  0.00000000000E+00 0.  1.
         13    1    4    4    0    0 -0.84308018009E+02  0.10183857036E+02  0.48384223797E+02  0.97737331441E+02  0.00000000000E+00 0. -1.
          3    1    1    2  501    0  0.26630234718E+03  0.11928355988E+03 -0.11663511277E+03  0.31424394553E+03  0.00000000000E+00 0. -1.
<scales pt_clust_5="13000.00000" pt_clust_6="13000.00000" pt_clust_7="13000.00000" pt_clust_8="13000.00000" pt_clust_9="291.79703"></scales>
<clustering>
<clus scale="   80.226">  5  6 -1 -1</clus>
<clus scale="   91.612">  7  8 -1 -1</clus>
<clus scale="  107.140">  5  7 -1 -1</clus>
<clus scale="  291.797">  2  9  1 -1</clus>
<clus scale="  291.797">  2  5  1 -1</clus>
</clustering>
</event>
<event>
 9    2  0.1592151E-004  0.2681300E+03  0.7546771E-02  0.1137154E+00
          2   -1    0    0  502    0 -0.00000000000E+00  0.00000000000E+00  0.14852467390E+04  0.14852467390E+04  0.00000000000E+00 0. -1.
         21   -1    0    0  501  502  0.00000000000E+00 -0.00000000000E+00 -0.17450579859E+03  0.17450579859E+03  0.00000000000E+00 0. -1.
         23    2    1    2    0    0 -0.43495660777E+00 -0.65383684797E+02 -0.75421519042E+02  0.13521940946E+03  0.91217694205E+02 0.  0.
         24    2    1    2    0    0  0.70761477884E+02 -0.19387866950E+03  0.11358551253E+04  0.11573593961E+04  0.81962069590E+02 0.  0.
        -13    1    4    4    0    0  0.24104382502E+01 -0.41119419896E+02  0.10127131240E+03  0.10932746965E+03  0.00000000000E+00 0.  1.
         14    1    4    4    0    0  0.68351039634E+02 -0.15275924960E+03  0.10345838129E+04  0.10480319265E+04  0.00000000000E+00 0. -1.
        -11    1    3    3    0    0 -0.28109256751E+02 -0.49148631155E+02 -0.38081275677E+01  0.56746983136E+02  0.00000000000E+00 0.  1.
         11    1    3    3    0    0  0.27674300144E+02 -0.16235053642E+02 -0.71613391474E+02  0.78472426327E+02  0.00000000000E+00 0. -1.
          1    1    1    2  501    0 -0.70326521276E+02  0.25926235429E+03  0.25030733411E+03  0.36717373199E+03  0.00000000000E+00 0. -1.
<scales pt_clust_5="13000.00000" pt_clust_6="13000.00000" pt_clust_7="13000.00000" pt_clust_8="13000.00000" pt_clust_9="255.29572"></scales>
<clustering>
<clus scale="   81.962">  5  6 -1 -1</clus>
<clus scale="   91.218">  7  8 -1 -1</clus>
<clus scale="  112.231">  1  7  2 -1</clus>
<clus scale="  255.296">  2  9  1 -1</clus>
<clus scale="  255.296">  2  5  1 -1</clus>
</clustering>
</event>
<event>
 9    2  0.1592151E-004  0.1017725E+03  0.7546771E-02  0.1282572E+00
         21   -1    0    0  501  502  0.00000000000E+00  0.00000000000E+00  0.18137914949E+03  0.18137914949E+03  0.00000000000E+00 0. -1.
          4   -1    0    0  502    0 -0.00000000000E+00 -0.00000000000E+00 -0.16839221250E+03  0.16839221250E+03  0.00000000000E+00 0. -1.
         23    2    1    2    0    0  0.60687758404E+02 -0.97448239398E+00 -0.92951512104E+02  0.14484258329E+03  0.93034599457E+02 0.  0.
         24    2    1    2    0    0  0.22090750755E+02 -0.26384284507E+02  0.59033814300E+02  0.10592964502E+03  0.80944219835E+02 0.  0.
        -13    1    4    4    0    0 -0.30588506366E+02 -0.64645256172E+01  0.25804248528E+02  0.40537711520E+02  0.00000000000E+00 0.  1.
         14    1    4    4    0    0  0.52679257121E+02 -0.19919758890E+02  0.33229565772E+02  0.65391933497E+02  0.00000000000E+00 0. -1.
        -13    1    3    3    0    0 -0.20752810968E+02  0.14897412516E+02 -0.97617856612E+01  0.27347843097E+02  0.00000000000E+00 0.  1.
         13    1    3    3    0    0  0.81440569373E+02 -0.15871894910E+02 -0.83189726442E+02  0.11749474019E+03  0.00000000000E+00 0. -1.
          3    1    1    2  501    0 -0.82778509160E+02  0.27358766901E+02  0.46904634797E+02  0.98999133685E+02  0.00000000000E+00 0. -1.
<scales pt_clust_5="13000.00000" pt_clust_6="13000.00000" pt_clust_7="13000.00000" pt_clust_8="13000.00000" pt_clust_9="87.18247"></scales>
<clustering>
<clus scale="   80.944">  5  6 -1 -1</clus>
<clus scale="   87.182">  1  9  2 -1</clus>
<clus scale="   90.852">  1  5  2 -1</clus>
<clus scale="   93.035">  7  8 -1 -1</clus>
<clus scale="   87.182">  1  5  2 -1</clus>
</clustering>
</event>
<event>
 9    2  0.1592151E-004  0.1463958E+03  0.7546771E-02  0.1232358E+00
          2   -1    0    0  502    0 -0.00000000000E+00  0.00000000000E+00  0.41464504611E+03  0.41464504611E+03  0.00000000000E+00 0. -1.
         21   -1    0    0  501  502  0.00000000000E+00 -0.00000000000E+00 -0.20464080655E+03  0.20464080655E+03  0.00000000000E+00 0.  1.
         24    2    1    2    0    0 -0.98757421905E+01 -0.14843603779E+02  0.67254400273E+02  0.10625775216E+03  0.80309978719E+02 0.  0.
         23    2    1    2    0    0 -0.46644405396E+02 -0.10301267434E+03 -0.13993628775E+03  0.20158617045E+03  0.90925837135E+02 0.  0.
        -13    1    3    3    0    0 -0.25478891030E+02 -0.24177046777E+01 -0.92363988478E+01  0.27209010414E+02  0.00000000000E+00 0.  1.
         14    1    3    3    0    0  0.15603148839E+02 -0.12425899101E+02  0.76490799121E+02  0.79048741750E+02  0.00000000000E+00 0. -1.
        -13    1    4    4    0    0 -0.10291153777E+02 -0.91186953428E+02 -0.51472744175E+02  0.10521602404E+03  0.00000000000E+00 0.  1.
         13    1    4    4    0    0 -0.36353251619E+02 -0.11825720917E+02 -0.88463543573E+02  0.96370146415E+02  0.00000000000E+00 0. -1.
          1    1    1    2  501    0  0.56520147586E+02  0.11785627812E+03  0.28268612703E+03  0.31144193004E+03  0.00000000000E+00 0. -1.
<scales pt_clust_5="13000.00000" pt_clust_6="13000.00000" pt_clust_7="13000.00000" pt_clust_8="13000.00000" pt_clust_9="114.73554"></scales>
<clustering>
<clus scale="   80.310">  5  6 -1 -1</clus>
<clus scale="   82.265">  1  5  2 -1</clus>
<clus scale="   90.926">  7  8 -1 -1</clus>
<clus scale="  114.736">  2  9  1 -1</clus>
<clus scale="  114.736">  2  5  1 -1</clus>
</clustering>
</event>
<event>
 9    2  0.1592151E-004  0.9958408E+02  0.7546771E-02  0.1288102E+00
         21   -1    0    0  501  502  0.00000000000E+00  0.00000000000E+00  0.53547480212E+02  0.53547480212E+02  0.00000000000E+00 0.  1.
         -3   -1    0    0    0  501 -0.00000000000E+00 -0.00000000000E+00 -0.35722085108E+03  0.35722085108E+03  0.00000000000E+00 0.  1.
         24    2    1    2    0    0 -0.18164853967E+02  0.44677122863E+02 -0.19694460910E+03  0.21666924529E+03  0.76369991315E+02 0.  0.
         23    2    1    2    0    0 -0.38004296450E+02 -0.34422473451E+02 -0.56539065934E+02  0.11807845156E+03  0.90092294447E+02 0.  0.
        -11    1    3    3    0    0 -0.20158814707E+02  0.54674210480E+02 -0.78384950369E+02  0.97672143144E+02  0.00000000000E+00 0.  1.
         12    1    3    3    0    0  0.19939607399E+01 -0.99970876174E+01 -0.11855965873E+03  0.11899710215E+03  0.00000000000E+00 0. -1.
        -11    1    4    4    0    0 -0.35936799537E+02 -0.64113901532E+02 -0.35451044791E+02  0.81601608485E+02  0.00000000000E+00 0.  1.
         11    1    4    4    0    0 -0.20674969137E+01  0.29691428080E+02 -0.21088021143E+02  0.36476843075E+02  0.00000000000E+00 0. -1.
         -4    1    1    2    0  502  0.56169150418E+02 -0.10254649411E+02 -0.50189695831E+02  0.76020634441E+02  0.00000000000E+00 0.  1.
<scales pt_clust_5="13000.00000" pt_clust_6="13000.00000" pt_clust_7="13000.00000" pt_clust_8="13000.00000" pt_clust_9="57.09756"></scales>
<clustering>
<clus scale="   57.098">  1  9  2 -1</clus>
<clus scale="   76.370">  5  6 -1 -1</clus>
<clus scale="   87.366">  2  5  1 -1</clus>
<clus scale="   90.092">  7  8 -1 -1</clus>
<clus scale="   57.098">  1  5  2 -1</clus>
</clustering>
</event>
<event>
 9    2  0.1592151E-004  0.2028075E+03  0.7546771E-02  0.1179970E+00
         -1   -1    0    0    0  501 -0.00000000000E+00  0.00000000000E+00  0.48427994532E+03  0.48427994532E+03  0.00000000000E+00 0.  1.
         21   -1    0    0  501  502  0.00000000000E+00 -0.00000000000E+00 -0.36788235705E+03  0.36788235705E+03  0.00000000000E+00 0.  1.
         23    2    1    2    0    0 -0.74308805881E+00  0.31943681091E+02  0.28364548934E+03  0.29927586221E+03  0.89946245827E+02 0.  0.
         24    2    1    2    0    0  0.11526821197E+03  0.12010063808E+03  0.11132917339E+03  0.21548658033E+03  0.79557259230E+02 0.  0.
        -13    1    4    4    0    0  0.68197621918E+01  0.53664647389E+02  0.15587629714E+02  0.56297226715E+02  0.00000000000E+00 0.  1.
         14    1    4    4    0    0  0.10844844978E+03  0.66435990691E+02  0.95741543677E+02  0.15918935361E+03  0.00000000000E+00 0. -1.
        -13    1    3    3    0    0  0.34651564947E+02 -0.13429378457E+02  0.93551437191E+02  0.10066255788E+03  0.00000000000E+00 0.  1.
         13    1    3    3    0    0 -0.35394653006E+02  0.45373059549E+02  0.19009405215E+03  0.19861330433E+03  0.00000000000E+00 0. -1.
         -2    1    1    2    0  502 -0.11452512391E+03 -0.15204431917E+03 -0.27857707446E+03  0.33739985983E+03  0.00000000000E+00 0.  1.
<scales pt_clust_5="13000.00000" pt_clust_6="13000.00000" pt_clust_7="13000.00000" pt_clust_8="13000.00000" pt_clust_9="186.55168"></scales>
<clustering>
<clus scale="   79.557">  5  6 -1 -1</clus>
<clus scale="   89.946">  7  8 -1 -1</clus>
<clus scale="   95.453">  1  7  2 -1</clus>
<clus scale="  186.552">  2  9  1 -1</clus>
<clus scale="  186.552">  2  5  1 -1</clus>
</clustering>
</event>
<event>
 9    2  0.1592151E-004  0.1619047E+03  0.7546771E-02  0.1188348E+00
         -1   -1    0    0    0  501 -0.00000000000E+00  0.00000000000E+00  0.27670596748E+03  0.27670596748E+03  0.00000000000E+00 0.  1.
         21   -1    0    0  501  502  0.00000000000E+00 -0.00000000000E+00 -0.21464355798E+03  0.21464355798E+03  0.00000000000E+00 0.  1.
         24    2    1    2    0    0  0.97151395141E+02 -0.83611336371E+02 -0.30291907981E+02  0.15432842870E+03  0.80438890267E+02 0.  0.
         23    2    1    2    0    0 -0.54753346842E+02  0.13784130158E+03 -0.47717422346E+02  0.18094875481E+03  0.92018183312E+02 0.  0.
        -11    1    3    3    0    0  0.71312406075E+02 -0.97868393165E+02 -0.18277760247E+02  0.12246533453E+03  0.00000000000E+00 0.  1.
         12    1    3    3    0    0  0.25838989066E+02  0.14257056794E+02 -0.12014147734E+02  0.31863094171E+02  0.00000000000E+00 0. -1.
        -11    1    4    4    0    0 -0.20773350284E+01  0.11483686590E+03 -0.45150088561E+02  0.12341131062E+03  0.00000000000E+00 0.  1.
         11    1    4    4    0    0 -0.52676011814E+02  0.23004435678E+02 -0.25673337857E+01  0.57537444193E+02  0.00000000000E+00 0. -1.
         -2    1    1    2    0  502 -0.42398048300E+02 -0.54229965211E+02  0.14007173982E+03  0.15607234195E+03  0.00000000000E+00 0.  1.
<scales pt_clust_5="13000.00000" pt_clust_6="13000.00000" pt_clust_7="13000.00000" pt_clust_8="13000.00000" pt_clust_9="68.83668"></scales>
<clustering>
<clus scale="   68.837">  2  9  1 -1</clus>
<clus scale="   80.439">  5  6 -1 -1</clus>
<clus scale="   92.018">  7  8 -1 -1</clus>
<clus scale="  155.616">  1  5  2 -1</clus>
<clus scale="   68.837">  2  5  1 -1</clus>
</clustering>
</event>
<event>
 9    2  0.1592151E-004  0.1066928E+03  0.7546771E-02  0.1271027E+00
          2   -1    0    0  502    0 -0.00000000000E+00  0.00000000000E+00  0.61612663833E+03  0.61612663833E+03  0.00000000000E+00 0. -1.
         21   -1    0    0  501  502  0.00000000000E+00 -0.00000000000E+00 -0.12317184478E+03  0.12317184478E+03  0.00000000000E+00 0. -1.
         24    2    1    2    0    0  0.62581264147E+02  0.73883069264E+00  0.50308103692E+03  0.51348238891E+03  0.81588439887E+02 0.  0.
         23    2    1    2    0    0 -0.22980083238E+02 -0.58110343129E+01  0.82185211884E+02  0.12524082115E+03  0.91482249008E+02 0.  0.
        -11    1    3    3    0    0  0.55184740990E+02  0.37870581467E+01  0.14319352152E+03  0.15350596748E+03  0.00000000000E+00 0.  1.
         12    1    3    3    0    0  0.73965231567E+01 -0.30482274541E+01  0.35988751540E+03  0.35997642143E+03  0.00000000000E+00 0. -1.
        -11    1    4    4    0    0  0.32302206081E+02  0.45773787640E+01  0.52043710598E+02  0.61424203104E+02  0.00000000000E+00 0. -1.
         11    1    4    4    0    0 -0.55282289320E+02 -0.10388413077E+02  0.30141501286E+02  0.63816618043E+02  0.00000000000E+00 0.  1.
          1    1    1    2  501    0 -0.39601180908E+02  0.50722036203E+01 -0.92311455254E+02  0.10057527305E+03  0.00000000000E+00 0. -1.
<scales pt_clust_5="13000.00000" pt_clust_6="13000.00000" pt_clust_7="13000.00000" pt_clust_8="13000.00000" pt_clust_9="39.92469"></scales>
<clustering>
<clus scale="   39.925">  2  9  1 -1</clus>
<clus scale="   81.588">  5  6 -1 -1</clus>
<clus scale="   91.482">  7  8 -1 -1</clus>
<clus scale="   98.341">  1  5  2 -1</clus>
<clus scale="   39.925">  2  5  1 -1</clus>
</clustering>
</event>
<event>
 9    2  0.1592151E-004  0.9781740E+02  0.7546771E-02  0.1290650E+00
          2   -1    0    0  502    0 -0.00000000000E+00  0.00000000000E+00  0.25485803643E+03  0.25485803643E+03  0.00000000000E+00 0. -1.
         21   -1    0    0  501  502  0.00000000000E+00 -0.00000000000E+00 -0.59386803986E+02  0.59386803986E+02  0.00000000000E+00 0.  1.
         24    2    1    2    0    0  0.10727155719E+02 -0.39072467374E+02  0.16789251721E+03  0.19051824393E+03  0.80421230750E+02 0.  0.
         23    2    1    2    0    0 -0.67353366122E+01  0.15274010397E+02  0.87074263413E+01  0.93092845191E+02  0.91169064926E+02 0.  0.
        -13    1    3    3    0    0 -0.32059522606E+02 -0.33239814003E+02  0.98467629752E+02  0.10875924022E+03  0.00000000000E+00 0.  1.
         14    1    3    3    0    0  0.42786678325E+02 -0.58326533710E+01  0.69424887462E+02  0.81759003703E+02  0.00000000000E+00 0. -1.
        -13    1    4    4    0    0  0.29047521944E+02 -0.62723096293E+01 -0.25457869924E+02  0.39130595961E+02  0.00000000000E+00 0. -1.
         13    1    4    4    0    0 -0.35782858556E+02  0.21546320026E+02  0.34165296265E+02  0.53962249231E+02  0.00000000000E+00 0.  1.
          1    1    1    2  501    0 -0.39918191071E+01  0.23798456977E+02  0.18871288887E+02  0.30633751297E+02  0.00000000000E+00 0. -1.
<scales pt_clust_5="13000.00000" pt_clust_6="13000.00000" pt_clust_7="13000.00000" pt_clust_8="13000.00000" pt_clust_9="24.13092"></scales>
<clustering>
<clus scale="   24.131">  2  9  1 -1</clus>
<clus scale="   80.421">  5  6 -1 -1</clus>
<clus scale="   87.886">  1  5  2 -1</clus>
<clus scale="   91.169">  7  8 -1 -1</clus>
<clus scale="   24.131">  2  5  1 -1</clus>
</clustering>
</event>
<event>
 9    2  0.1592151E-004  0.1228278E+03  0.7546771E-02  0.1242361E+00
         21   -1    0    0  501  502  0.00000000000E+00  0.00000000000E+00  0.21709205498E+03  0.21709205498E+03  0.00000000000E+00 0. -1.
          2   -1    0    0  502    0 -0.00000000000E+00 -0.00000000000E+00 -0.15338251265E+03  0.15338251265E+03  0.00000000000E+00 0. -1.
         23    2    1    2    0    0  0.87960015168E+02  0.37994318411E+01 -0.90094597241E+02  0.15621617184E+03  0.92385366498E+02 0.  0.
         24    2    1    2    0    0 -0.47165600209E+02  0.40493201503E+01  0.14453141263E+03  0.17169349634E+03  0.79676449529E+02 0.  0.
        -13    1    4    4    0    0 -0.25394134411E+02  0.35494765836E+02  0.35853608222E+02  0.56482047473E+02  0.00000000000E+00 0.  1.
         14    1    4    4    0    0 -0.21771465799E+02 -0.31445445686E+02  0.10867780441E+03  0.11521144886E+03  0.00000000000E+00 0. -1.
        -11    1    3    3    0    0  0.43307096348E+02 -0.10644582093E+02  0.99662098037E+01  0.45696138348E+02  0.00000000000E+00 0.  1.
         11    1    3    3    0    0  0.44652918820E+02  0.14444013934E+02 -0.10006080704E+03  0.11052003350E+03  0.00000000000E+00 0. -1.
          1    1    1    2  501    0 -0.40794414959E+02 -0.78487519914E+01  0.92727269383E+01  0.42564899442E+02  0.00000000000E+00 0. -1.
<scales pt_clust_5="13000.00000" pt_clust_6="13000.00000" pt_clust_7="13000.00000" pt_clust_8="13000.00000" pt_clust_9="41.54260"></scales>
<clustering>
<clus scale="   41.543">  1  9  2 -1</clus>
<clus scale="   79.676">  5  6 -1 -1</clus>
<clus scale="   92.385">  7  8 -1 -1</clus>
<clus scale="  113.578">  1  5  2 -1</clus>
<clus scale="   41.543">  1  5  2 -1</clus>
</clustering>
</event>
<event>
 9    2  0.1592151E-004  0.2190173E+03  0.7546771E-02  0.1141096E+00
         21   -1    0    0  501  502  0.00000000000E+00  0.00000000000E+00  0.10095540614E+03  0.10095540614E+03  0.00000000000E+00 0. -1.
          2   -1    0    0  502    0 -0.00000000000E+00 -0.00000000000E+00 -0.24407015073E+04  0.24407015073E+04  0.00000000000E+00 0. -1.
         23    2    1    2    0    0 -0.14211016316E+03 -0.80419486702E+02 -0.56128995461E+03  0.59169084871E+03  0.91591784506E+02 0.  0.
         24    2    1    2    0    0 -0.19155932022E+03  0.26972580972E+02 -0.88665103130E+02  0.22671748536E+03  0.78210129573E+02 0.  0.
        -13    1    4    4    0    0 -0.11593717413E+03  0.21914293840E+01 -0.90537439236E+02  0.14711647974E+03  0.00000000000E+00 0.  1.
         14    1    4    4    0    0 -0.75622146084E+02  0.24781151588E+02  0.18723361059E+01  0.79601005615E+02  0.00000000000E+00 0. -1.
        -11    1    3    3    0    0  0.70216309143E+01 -0.28133804641E+02 -0.97128308173E+02  0.10136430591E+03  0.00000000000E+00 0. -1.
         11    1    3    3    0    0 -0.14913179407E+03 -0.52285682061E+02 -0.46416164644E+03  0.49032654280E+03  0.00000000000E+00 0.  1.
          1    1    1    2  501    0  0.33366948337E+03  0.53446905730E+02 -0.16897910434E+04  0.17232485794E+04  0.00000000000E+00 0. -1.
<scales pt_clust_5="13000.00000" pt_clust_6="13000.00000" pt_clust_7="13000.00000" pt_clust_8="13000.00000" pt_clust_9="204.57709"></scales>
<clustering>
<clus scale="   78.210">  5  6 -1 -1</clus>
<clus scale="   91.592">  7  8 -1 -1</clus>
<clus scale="  187.221">  2  7  1 -1</clus>
<clus scale="  204.577">  1  9  2 -1</clus>
<clus scale="  204.577">  1  5  2 -1</clus>
</clustering>
</event>
<event>
 9    2  0.1592151E-004  0.1033524E+03  0.7546771E-02  0.1281220E+00
         21   -1    0    0  501  502  0.00000000000E+00  0.00000000000E+00  0.65942808220E+02  0.65942808220E+02  0.00000000000E+00 0.  1.
          2   -1    0    0  502    0 -0.00000000000E+00 -0.00000000000E+00 -0.33109598494E+03  0.33109598494E+03  0.00000000000E+00 0. -1.
         23    2    1    2    0    0 -0.23393090207E+02 -0.16068445736E+02 -0.16118413107E+03  0.18953553040E+03  0.95592685690E+02 0.  0.
         24    2    1    2    0    0  0.78501406372E+02 -0.10431149594E+00 -0.34104619469E+02  0.11706254940E+03  0.79862592748E+02 0.  0.
        -13    1    4    4    0    0  0.63830211141E+02  0.15072197623E+02  0.11706556136E+02  0.66622146859E+02  0.00000000000E+00 0.  1.
         14    1    4    4    0    0  0.14671195231E+02 -0.15176509119E+02 -0.45811175605E+02  0.50440402544E+02  0.00000000000E+00 0. -1.
        -11    1    3    3    0    0 -0.51356306050E+02  0.52677306876E+01 -0.46157338194E+02  0.69251130148E+02  0.00000000000E+00 0. -1.
         11    1    3    3    0    0  0.27963215843E+02 -0.21336176423E+02 -0.11502679287E+03  0.12028440025E+03  0.00000000000E+00 0.  1.
          1    1    1    2  501    0 -0.55108316164E+02  0.16172757232E+02 -0.69864426183E+02  0.90440713358E+02  0.00000000000E+00 0. -1.
<scales pt_clust_5="13000.00000" pt_clust_6="13000.00000" pt_clust_7="13000.00000" pt_clust_8="13000.00000" pt_clust_9="57.43246"></scales>
<clustering>
<clus scale="   57.432">  1  9  2 -1</clus>
<clus scale="   79.863">  5  6 -1 -1</clus>
<clus scale="   89.004">  1  5  2 -1</clus>
<clus scale="   95.593">  7  8 -1 -1</clus>
<clus scale="   57.432">  1  5  2 -1</clus>
</clustering>
</event>
<event>
 9    2  0.1592151E-004  0.1038706E+03  0.7546771E-02  0.1277334E+00
         -1   -1    0    0    0  501 -0.00000000000E+00  0.00000000000E+00  0.95042484469E+02  0.95042484469E+02  0.00000000000E+00 0.  1.
         21   -1    0    0  501  502  0.00000000000E+00 -0.00000000000E+00 -0.16516378874E+03  0.16516378874E+03  0.00000000000E+00 0.  1.
         23    2    1    2    0    0 -0.48317538723E+02 -0.40705513327E+02 -0.11201542483E+02  0.10978142902E+03  0.89078416244E+02 0.  0.
         24    2    1    2    0    0  0.43171291368E+02  0.55283400200E+01 -0.69788852068E+02  0.11324885049E+03  0.77849183184E+02 0.  0.
        -13    1    4    4    0    0  0.52423192017E+02 -0.16941119265E+02 -0.69833771396E+02  0.88949132714E+02  0.00000000000E+00 0.  1.
         14    1    4    4    0    0 -0.92519006483E+01  0.22469459285E+02  0.44919328713E-01  0.24299717775E+02  0.00000000000E+00 0. -1.
        -13    1    3    3    0    0 -0.47617840816E+02 -0.67388686299E+02 -0.82330069161E+01  0.82924521150E+02  0.00000000000E+00 0.  1.
         13    1    3    3    0    0 -0.69969790767E+00  0.26683172972E+02 -0.29685355673E+01  0.26856907872E+02  0.00000000000E+00 0. -1.
         -2    1    1    2    0  502  0.51462473550E+01  0.35177173307E+02  0.10869090283E+02  0.37175993696E+02  0.00000000000E+00 0.  1.
<scales pt_clust_5="13000.00000" pt_clust_6="13000.00000" pt_clust_7="13000.00000" pt_clust_8="13000.00000" pt_clust_9="35.55163"></scales>
<clustering>
<clus scale="   35.552">  2  9  1 -1</clus>
<clus scale="   77.849">  5  6 -1 -1</clus>
<clus scale="   89.078">  7  8 -1 -1</clus>
<clus scale="   94.417">  2  5  1 -1</clus>
<clus scale="   35.552">  2  5  1 -1</clus>
</clustering>
</event>
<event>
 9    2  0.1592151E-004  0.2385106E+03  0.7546771E-02  0.1121394E+00
         21   -1    0    0  501  502  0.00000000000E+00  0.00000000000E+00  0.15822897487E+03  0.15822897487E+03  0.00000000000E+00 0.  1.
         -1   -1    0    0    0  501 -0.00000000000E+00 -0.00000000000E+00 -0.45084571149E+03  0.45084571149E+03  0.00000000000E+00 0.  1.
         24    2    1    2    0    0  0.16516675038E+03  0.13617425317E+03 -0.14919569138E+03  0.27276715890E+03  0.79492678850E+02 0.  0.
         23    2    1    2    0    0 -0.20573665997E+03 -0.11038588856E+03 -0.93375636370E+02  0.26691372182E+03  0.89505909209E+02 0.  0.
        -13    1    3    3    0    0  0.16384722710E+03  0.10089300294E+03 -0.11848537076E+03  0.22597365987E+03  0.00000000000E+00 0.  1.
         14    1    3    3    0    0  0.13195232857E+01  0.35281250226E+02 -0.30710320617E+02  0.46793499031E+02  0.00000000000E+00 0. -1.
        -13    1    4    4    0    0 -0.18037202041E+03 -0.55091499032E+02 -0.62439891515E+02  0.19866524372E+03  0.00000000000E+00 0.  1.
         13    1    4    4    0    0 -0.25364639558E+02 -0.55294389529E+02 -0.30935744854E+02  0.68248478101E+02  0.00000000000E+00 0. -1.
         -2    1    1    2    0  502  0.40569909585E+02 -0.25788364605E+02 -0.50045408860E+02  0.69393805636E+02  0.00000000000E+00 0.  1.
<scales pt_clust_5="13000.00000" pt_clust_6="13000.00000" pt_clust_7="13000.00000" pt_clust_8="13000.00000" pt_clust_9="48.07244"></scales>
<clustering>
<clus scale="   48.072">  1  9  2 -1</clus>
<clus scale="   79.493">  5  6 -1 -1</clus>
<clus scale="   89.506">  7  8 -1 -1</clus>
<clus scale="  234.936">  2  5  1 -1</clus>
<clus scale="   48.072">  1  5  2 -1</clus>
</clustering>
</event>
<event>
 9    2  0.1592151E-004  0.1185597E+03  0.7546771E-02  0.1256470E+00
          4   -1    0    0  502    0 -0.00000000000E+00  0.00000000000E+00  0.20276847266E+03  0.20276847266E+03  0.00000000000E+00 0. -1.
         21   -1    0    0  501  502  0.00000000000E+00 -0.00000000000E+00 -0.33148537594E+03  0.33148537594E+03  0.00000000000E+00 0. -1.
         24    2    1    2    0    0  0.27705873056E+02 -0.41678016708E+02  0.15388489958E+03  0.18084686341E+03  0.80748704065E+02 0.  0.
         23    2    1    2    0    0 -0.83048676566E+02  0.14210407750E+02 -0.24684391957E+03  0.28202126071E+03  0.10726160773E+03 0.  0.
        -11    1    3    3    0    0  0.36267127115E+02 -0.29375097139E+01  0.20665398511E+02  0.41844858323E+02  0.00000000000E+00 0.  1.
         12    1    3    3    0    0 -0.85612540583E+01 -0.38740506994E+02  0.13321950107E+03  0.13900200509E+03  0.00000000000E+00 0. -1.
        -11    1    4    4    0    0 -0.31539984385E+02  0.56007011499E+02 -0.81009118326E+02  0.10341195871E+03  0.00000000000E+00 0.  1.
         11    1    4    4    0    0 -0.51508692181E+02 -0.41796603749E+02 -0.16583480125E+03  0.17860930200E+03  0.00000000000E+00 0. -1.
          3    1    1    2  501    0  0.55342803510E+02  0.27467608958E+02 -0.35757883294E+02  0.71385724482E+02  0.00000000000E+00 0. -1.
<scales pt_clust_5="13000.00000" pt_clust_6="13000.00000" pt_clust_7="13000.00000" pt_clust_8="13000.00000" pt_clust_9="61.78427"></scales>
<clustering>
<clus scale="   61.784">  2  9  1 -1</clus>
<clus scale="   80.749">  5  6 -1 -1</clus>
<clus scale="   95.245">  1  5  2 -1</clus>
<clus scale="  107.262">  7  8 -1 -1</clus>
<clus scale="   61.784">  2  5  1 -1</clus>
</clustering>
</event>
<event>
 9    2  0.1592151E-004  0.9191182E+02  0.7546771E-02  0.1303457E+00
         21   -1    0    0  501  502  0.00000000000E+00  0.00000000000E+00  0.28680676046E+03  0.28680676046E+03  0.00000000000E+00 0. -1.
         -1   -1    0    0    0  501 -0.00000000000E+00 -0.00000000000E+00 -0.55132482856E+02  0.55132482856E+02  0.00000000000E+00 0.  1.
         23    2    1    2    0    0  0.11982845135E+02  0.13582838107E+02  0.50391425411E+02  0.10449103672E+03  0.89727358881E+02 0.  0.
         24    2    1    2    0    0  0.15749561016E+02 -0.34234915871E+02  0.18206127548E+03  0.20286207339E+03  0.81158084338E+02 0.  0.
        -11    1    4    4    0    0  0.15284365823E+02  0.21507475223E+02  0.25584968217E+02  0.36752876455E+02  0.00000000000E+00 0.  1.
         12    1    4    4    0    0  0.46519519292E+00 -0.55742391093E+02  0.15647630726E+03  0.16610919693E+03  0.00000000000E+00 0. -1.
        -13    1    3    3    0    0  0.38836628303E+02  0.10125092630E+02  0.62941194160E+02  0.74648477017E+02  0.00000000000E+00 0.  1.
         13    1    3    3    0    0 -0.26853783167E+02  0.34577454768E+01 -0.12549768748E+02  0.29842559706E+02  0.00000000000E+00 0. -1.
         -2    1    1    2    0  502 -0.27732406151E+02  0.20652077764E+02 -0.77842329241E+00  0.34586133200E+02  0.00000000000E+00 0.  1.
<scales pt_clust_5="13000.00000" pt_clust_6="13000.00000" pt_clust_7="13000.00000" pt_clust_8="13000.00000" pt_clust_9="34.57739"></scales>
<clustering>
<clus scale="   34.577">  1  9  2 -1</clus>
<clus scale="   81.158">  5  6 -1 -1</clus>
<clus scale="   83.567">  1  5  2 -1</clus>
<clus scale="   89.727">  7  8 -1 -1</clus>
<clus scale="   34.577">  1  5  2 -1</clus>
</clustering>
</event>
<event>
 9    2  0.1592151E-004  0.5083688E+03  0.7546771E-02  0.1042809E+00
         21   -1    0    0  501  502  0.00000000000E+00  0.00000000000E+00  0.20277086223E+03  0.20277086223E+03  0.00000000000E+00 0. -1.
          2   -1    0    0  502    0 -0.00000000000E+00 -0.00000000000E+00 -0.19729627960E+04  0.19729627960E+04  0.00000000000E+00 0. -1.
         23    2    1    2    0    0 -0.17793059648E+03 -0.14558345412E+02 -0.45343137011E+03  0.49574128765E+03  0.91039410678E+02 0.  0.
         24    2    1    2    0    0  0.40850073715E+03  0.37979797726E+03 -0.48762802918E+03  0.74510021735E+03  0.79207848570E+02 0.  0.
        -13    1    4    4    0    0  0.14529185472E+03  0.11593227893E+03 -0.11786000115E+03  0.22009315349E+03  0.00000000000E+00 0.  1.
         14    1    4    4    0    0  0.26320888243E+03  0.26386569833E+03 -0.36976802802E+03  0.52500706385E+03  0.00000000000E+00 0. -1.
        -11    1    3    3    0    0 -0.16849194863E+03  0.45170867942E+01 -0.43840000135E+03  0.46968553523E+03  0.00000000000E+00 0. -1.
         11    1    3    3    0    0 -0.94386478536E+01 -0.19075432206E+02 -0.15031368759E+02  0.26055752415E+02  0.00000000000E+00 0.  1.
          1    1    1    2  501    0 -0.23057014067E+03 -0.36523963184E+03 -0.82913253445E+03  0.93489215320E+03  0.00000000000E+00 0. -1.
<scales pt_clust_5="13000.00000" pt_clust_6="13000.00000" pt_clust_7="13000.00000" pt_clust_8="13000.00000" pt_clust_9="502.16056"></scales>
<clustering>
<clus scale="   79.208">  5  6 -1 -1</clus>
<clus scale="   91.039">  7  8 -1 -1</clus>
<clus scale="  200.398">  2  7  1 -1</clus>
<clus scale="  502.161">  1  9  2 -1</clus>
<clus scale="  502.161">  1  5  2 -1</clus>
</clustering>
</event>
<event>
 9    2  0.1592151E-004  0.9577292E+02  0.7546771E-02  0.1295703E+00
         21   -1    0    0  501  502  0.00000000000E+00  0.00000000000E+00  0.30666782592E+02  0.30666782592E+02  0.00000000000E+00 0. -1.
          2   -1    0    0  502    0 -0.00000000000E+00 -0.00000000000E+00 -0.11491867289E+04  0.11491867289E+04  0.00000000000E+00 0. -1.
         24    2    1    2    0    0 -0.17666967943E+02  0.31698872163E+02 -0.77684984544E+03  0.78177057094E+03  0.79703218036E+02 0.  0.
         23    2    1    2    0    0  0.18952677071E+02 -0.59010816489E+01 -0.35640262203E+03  0.36834699891E+03  0.90899152292E+02 0.  0.
        -13    1    3    3    0    0 -0.31396915714E+02 -0.60969347470E+01 -0.13805996926E+03  0.14171624480E+03  0.00000000000E+00 0.  1.
         14    1    3    3    0    0  0.13729947770E+02  0.37795806910E+02 -0.63878987618E+03  0.64005432613E+03  0.00000000000E+00 0. -1.
        -13    1    4    4    0    0  0.37992477304E+02 -0.35136858815E+02 -0.27430021276E+03  0.27913909418E+03  0.00000000000E+00 0.  1.
         13    1    4    4    0    0 -0.19039800233E+02  0.29235777166E+02 -0.82102409265E+02  0.89207904731E+02  0.00000000000E+00 0. -1.
          1    1    1    2  501    0 -0.12857091280E+01 -0.25797790514E+02  0.14732521188E+02  0.29735941618E+02  0.00000000000E+00 0. -1.
<scales pt_clust_5="13000.00000" pt_clust_6="13000.00000" pt_clust_7="13000.00000" pt_clust_8="13000.00000" pt_clust_9="25.82981"></scales>
<clustering>
<clus scale="   25.830">  1  9  2 -1</clus>
<clus scale="   79.703">  5  6 -1 -1</clus>
<clus scale="   85.220">  2  5  1 -1</clus>
<clus scale="   90.899">  7  8 -1 -1</clus>
<clus scale="   25.830">  1  5  2 -1</clus>
</clustering>
</event>
<event>
 9    2  0.1592151E-004  0.1303413E+03  0.7546771E-02  0.1243926E+00
         -1   -1    0    0    0  501 -0.00000000000E+00  0.00000000000E+00  0.71539157517E+02  0.71539157517E+02  0.00000000000E+00 0.  1.
         21   -1    0    0  501  502  0.00000000000E+00 -0.00000000000E+00 -0.42318018125E+03  0.42318018125E+03  0.00000000000E+00 0.  1.
         23    2    1    2    0    0  0.32505257207E+01 -0.97544113539E+01 -0.17852969816E+03  0.20088110046E+03  0.91513108013E+02 0.  0.
         24    2    1    2    0    0  0.54638536506E+02  0.91132474617E+02 -0.72627990011E+02  0.15216808114E+03  0.81177597798E+02 0.  0.
        -13    1    4    4    0    0  0.61245238372E+02  0.81387797259E+02 -0.86742553538E+02  0.13378797913E+03  0.00000000000E+00 0.  1.
         14    1    4    4    0    0 -0.66067018661E+01  0.97446773584E+01  0.14114563527E+02  0.18380102011E+02  0.00000000000E+00 0. -1.
        -13    1    3    3    0    0 -0.34987404052E+02  0.18214169504E+01 -0.14360311018E+03  0.14781505084E+03  0.00000000000E+00 0.  1.
         13    1    3    3    0    0  0.38237929772E+02 -0.11575828304E+02 -0.34926587984E+02  0.53066049622E+02  0.00000000000E+00 0. -1.
         -2    1    1    2    0  502 -0.57889062227E+02 -0.81378063263E+02 -0.10048333556E+03  0.14167015717E+03  0.00000000000E+00 0.  1.
<scales pt_clust_5="13000.00000" pt_clust_6="13000.00000" pt_clust_7="13000.00000" pt_clust_8="13000.00000" pt_clust_9="101.97580"></scales>
<clustering>
<clus scale="   81.178">  5  6 -1 -1</clus>
<clus scale="   91.513">  7  8 -1 -1</clus>
<clus scale="   92.089">  1  7  2 -1</clus>
<clus scale="  101.976">  2  9  1 -1</clus>
<clus scale="  101.976">  2  5  1 -1</clus>
</clustering>
</event>
<event>
 9    2  0.1592151E-004  0.9450813E+02  0.7546771E-02  0.1294088E+00
         -1   -1    0    0    0  501 -0.00000000000E+00  0.00000000000E+00  0.48669132758E+03  0.48669132758E+03  0.00000000000E+00 0.  1.
         21   -1    0    0  501  502  0.00000000000E+00 -0.00000000000E+00 -0.46132632575E+02  0.46132632575E+02  0.00000000000E+00 0.  1.
         23    2    1    2    0    0  0.16037588035E+02 -0.31175296631E+02  0.35536211846E+03  0.36763954004E+03  0.87449944600E+02 0.  0.
         24    2    1    2    0    0  0.94315157699E+01 -0.10045636208E+02  0.44796986207E+02  0.10209743690E+03  0.90704180449E+02 0.  0.
        -11    1    4    4    0    0  0.17243248735E+02  0.15329693068E+02  0.64845445433E+02  0.68827762639E+02  0.00000000000E+00 0.  1.
         12    1    4    4    0    0 -0.78117329646E+01 -0.25375329276E+02 -0.20048459226E+02  0.33269674257E+02  0.00000000000E+00 0. -1.
        -11    1    3    3    0    0  0.39431931237E+02  0.13737459840E+02  0.19703546236E+03  0.20141144067E+03  0.00000000000E+00 0.  1.
         11    1    3    3    0    0 -0.23394343202E+02 -0.44912756471E+02  0.15832665610E+03  0.16622809937E+03  0.00000000000E+00 0. -1.
         -2    1    1    2    0  502 -0.25469103805E+02  0.41220932839E+02  0.40399590333E+02  0.63086983220E+02  0.00000000000E+00 0.  1.
<scales pt_clust_5="13000.00000" pt_clust_6="13000.00000" pt_clust_7="13000.00000" pt_clust_8="13000.00000" pt_clust_9="48.45452"></scales>
<clustering>
<clus scale="   48.455">  2  9  1 -1</clus>
<clus scale="   87.450">  7  8 -1 -1</clus>
<clus scale="   90.704">  5  6 -1 -1</clus>
<clus scale="   91.389">  1  7  2 -1</clus>
<clus scale="   48.455">  2  5  1 -1</clus>
</clustering>
</event>
<event>
 9    2  0.1592151E-004  0.1390051E+03  0.7546771E-02  0.1215907E+00
         21   -1    0    0  501  502  0.00000000000E+00  0.00000000000E+00  0.69743843147E+02  0.69743843147E+02  0.00000000000E+00 0.  1.
         -1   -1    0    0    0  501 -0.00000000000E+00 -0.00000000000E+00 -0.62420472468E+03  0.62420472468E+03  0.00000000000E+00 0.  1.
         24    2    1    2    0    0  0.12446684146E+03 -0.32745685501E+02 -0.44831509477E+03  0.47373486653E+03  0.82909740224E+02 0.  0.
         23    2    1    2    0    0 -0.67578683852E+02  0.87973059060E+01 -0.11194720976E+03  0.15821818638E+03  0.88637157149E+02 0.  0.
        -11    1    3    3    0    0  0.13232565778E+03 -0.35360950494E+02 -0.44346794541E+03  0.46413822848E+03  0.00000000000E+00 0.  1.
         12    1    3    3    0    0 -0.78588163211E+01  0.26152649927E+01 -0.48471493565E+01  0.95966380486E+01  0.00000000000E+00 0. -1.
        -11    1    4    4    0    0 -0.28618454068E+02  0.35585275204E+02 -0.99266081880E+02  0.10926610973E+03  0.00000000000E+00 0. -1.
         11    1    4    4    0    0 -0.38960229784E+02 -0.26787969298E+02 -0.12681127875E+02  0.48952076647E+02  0.00000000000E+00 0.  1.
         -2    1    1    2    0  502 -0.56888157612E+02  0.23948379595E+02  0.58014229878E+01  0.61995514921E+02  0.00000000000E+00 0.  1.
<scales pt_clust_5="13000.00000" pt_clust_6="13000.00000" pt_clust_7="13000.00000" pt_clust_8="13000.00000" pt_clust_9="61.72347"></scales>
<clustering>
<clus scale="   61.723">  1  9  2 -1</clus>
<clus scale="   82.910">  5  6 -1 -1</clus>
<clus scale="   88.637">  7  8 -1 -1</clus>
<clus scale="  135.425">  2  5  1 -1</clus>
<clus scale="   61.723">  1  5  2 -1</clus>
</clustering>
</event>
<event>
 9    2  0.1592151E-004  0.1360635E+03  0.7546771E-02  0.1221928E+00
         21   -1    0    0  501  502  0.00000000000E+00  0.00000000000E+00  0.24094471082E+03  0.24094471082E+03  0.00000000000E+00 0.  1.
         -3   -1    0    0    0  501 -0.00000000000E+00 -0.00000000000E+00 -0.14889512944E+03  0.14889512944E+03  0.00000000000E+00 0.  1.
         24    2    1    2    0    0  0.83780755435E+01 -0.86706169587E+02  0.12394781597E+02  0.11959748579E+03  0.81004789989E+02 0.  0.
         23    2    1    2    0    0 -0.10060139622E+03  0.91987663510E+02  0.54992410923E+02  0.17463237342E+03  0.94286422281E+02 0.  0.
        -13    1    3    3    0    0 -0.32269804559E+02 -0.14014986071E+02 -0.12445783281E+01  0.35203822180E+02  0.00000000000E+00 0.  1.
         14    1    3    3    0    0  0.40647880102E+02 -0.72691183516E+02  0.13639359925E+02  0.84393663606E+02  0.00000000000E+00 0. -1.
        -13    1    4    4    0    0 -0.20449988262E+02  0.21883533252E+02  0.61023609669E+02  0.67977731534E+02  0.00000000000E+00 0.  1.
         13    1    4    4    0    0 -0.80151407957E+02  0.70104130258E+02 -0.60311987460E+01  0.10665464188E+03  0.00000000000E+00 0. -1.
         -4    1    1    2    0  502  0.92223320675E+02 -0.52814939234E+01  0.24662388858E+02  0.95609981061E+02  0.00000000000E+00 0.  1.
<scales pt_clust_5="13000.00000" pt_clust_6="13000.00000" pt_clust_7="13000.00000" pt_clust_8="13000.00000" pt_clust_9="92.37443"></scales>
<clustering>
<clus scale="   81.005">  5  6 -1 -1</clus>
<clus scale="   92.374">  1  9  2 -1</clus>
<clus scale="   94.286">  7  8 -1 -1</clus>
<clus scale="  127.221">  2  5  1 -1</clus>
<clus scale="   92.374">  1  5  2 -1</clus>
</clustering>
</event>
<event>
 9    2  0.1592151E-004  0.1437388E+03  0.7546771E-02  0.1210661E+00
          2   -1    0    0  502    0 -0.00000000000E+00  0.00000000000E+00  0.18040122751E+03  0.18040122751E+03  0.00000000000E+00 0. -1.
         21   -1    0    0  501  502  0.00000000000E+00 -0.00000000000E+00 -0.21381329000E+03  0.21381329000E+03  0.00000000000E+00 0. -1.
         23    2    1    2    0    0  0.13199653799E+03  0.49016278171E+02 -0.51368553453E+01  0.16792898299E+03  0.91367797823E+02 0.  0.
         24    2    1    2    0    0 -0.45582787570E+02 -0.83386689612E+02 -0.44117935886E+02  0.13194755967E+03  0.80203713806E+02 0.  0.
        -13    1    4    4    0    0 -0.15083760850E+02 -0.51888920400E+02  0.17073650068E+02  0.56670004661E+02  0.00000000000E+00 0.  1.
         14    1    4    4    0    0 -0.30499026720E+02 -0.31497769212E+02 -0.61191585954E+02  0.75277555007E+02  0.00000000000E+00 0. -1.
        -13    1    3    3    0    0  0.84050580589E+02  0.66698531551E+02  0.22790384457E+02  0.10969318954E+03  0.00000000000E+00 0. -1.
         13    1    3    3    0    0  0.47945957403E+02 -0.17682253380E+02 -0.27927239802E+02  0.58235793451E+02  0.00000000000E+00 0.  1.
          1    1    1    2  501    0 -0.86413750421E+02  0.34370411441E+02  0.15842728748E+02  0.94337974849E+02  0.00000000000E+00 0. -1.
<scales pt_clust_5="13000.00000" pt_clust_6="13000.00000" pt_clust_7="13000.00000" pt_clust_8="13000.00000" pt_clust_9="92.99823"></scales>
<clustering>
<clus scale="   80.204">  5  6 -1 -1</clus>
<clus scale="   91.368">  7  8 -1 -1</clus>
<clus scale="   92.998">  2  9  1 -1</clus>
<clus scale="  136.914">  2  5  1 -1</clus>
<clus scale="   92.998">  2  5  1 -1</clus>
</clustering>
</event>
<event>
 9    2  0.1592151E-004  0.1006402E+03  0.7546771E-02  0.1288838E+00
          2   -1    0    0  502    0 -0.00000000000E+00  0.00000000000E+00  0.34208379338E+03  0.34208379338E+03  0.00000000000E+00 0. -1.
         21   -1    0    0  501  502  0.00000000000E+00 -0.00000000000E+00 -0.37911615719E+02  0.37911615719E+02  0.00000000000E+00 0.  1.
         24    2    1    2    0    0  0.28536455647E+01  0.38318176007E+02  0.17961066573E+03  0.19686044308E+03  0.70835138874E+02 0.  0.
         23    2    1    2    0    0 -0.21410090591E+01 -0.61376614213E+02  0.90055392098E+02  0.14162747598E+03  0.90425082888E+02 0.  0.
        -11    1    3    3    0    0 -0.24608647964E+02  0.32692212289E+02  0.51802470291E+02  0.66014106274E+02  0.00000000000E+00 0.  1.
         12    1    3    3    0    0  0.27462293528E+02  0.56259637190E+01  0.12780819544E+03  0.13084633680E+03  0.00000000000E+00 0. -1.
        -11    1    4    4    0    0  0.38797944983E+02 -0.66980588173E+01  0.21535820117E+02  0.44876899124E+02  0.00000000000E+00 0. -1.
         11    1    4    4    0    0 -0.40938954042E+02 -0.54678555396E+02  0.68519571981E+02  0.96750576860E+02  0.00000000000E+00 0.  1.
          1    1    1    2  501    0 -0.71263650557E+00  0.23058438206E+02  0.34506119837E+02  0.41507490041E+02  0.00000000000E+00 0. -1.
<scales pt_clust_5="13000.00000" pt_clust_6="13000.00000" pt_clust_7="13000.00000" pt_clust_8="13000.00000" pt_clust_9="23.06946"></scales>
<clustering>
<clus scale="   23.069">  2  9  1 -1</clus>
<clus scale="   70.835">  5  6 -1 -1</clus>
<clus scale="   83.483">  1  5  2 -1</clus>
<clus scale="   90.425">  7  8 -1 -1</clus>
<clus scale="   23.069">  2  5  1 -1</clus>
</clustering>
</event>
<event>
 9    2  0.1592151E-004  0.1007866E+03  0.7546771E-02  0.1284772E+00
         21   -1    0    0  501  502  0.00000000000E+00  0.00000000000E+00  0.13021661126E+03  0.13021661126E+03  0.00000000000E+00 0. -1.
          4   -1    0    0  502    0 -0.00000000000E+00 -0.00000000000E+00 -0.17386201399E+03  0.17386201399E+03  0.00000000000E+00 0. -1.
         24    2    1    2    0    0 -0.33180845170E+02 -0.59451859768E+02 -0.69596373762E+02  0.12512624612E+03  0.78596629129E+02 0.  0.
         23    2    1    2    0    0  0.15021989990E+02  0.72518769495E+01 -0.32912103777E+02  0.98209306351E+02  0.91014347091E+02 0.  0.
        -11    1    3    3    0    0  0.11587026620E+02 -0.56868866269E+02 -0.48192170003E+02  0.75437473356E+02  0.00000000000E+00 0.  1.
         12    1    3    3    0    0 -0.44767871790E+02 -0.25829934986E+01 -0.21404203759E+02  0.49688772761E+02  0.00000000000E+00 0. -1.
        -11    1    4    4    0    0  0.27822116218E+02  0.34795080523E+02  0.99778276155E+01  0.45654406396E+02  0.00000000000E+00 0.  1.
         11    1    4    4    0    0 -0.12800126227E+02 -0.27543203573E+02 -0.42889931392E+02  0.52554899955E+02  0.00000000000E+00 0. -1.
          3    1    1    2  501    0  0.18158855180E+02  0.52199982818E+02  0.58863074809E+02  0.80743072791E+02  0.00000000000E+00 0. -1.
<scales pt_clust_5="13000.00000" pt_clust_6="13000.00000" pt_clust_7="13000.00000" pt_clust_8="13000.00000" pt_clust_9="55.26828"></scales>
<clustering>
<clus scale="   55.268">  1  9  2 -1</clus>
<clus scale="   78.597">  5  6 -1 -1</clus>
<clus scale="   89.732">  2  5  1 -1</clus>
<clus scale="   91.014">  7  8 -1 -1</clus>
<clus scale="   55.268">  1  5  2 -1</clus>
</clustering>
</event>
<event>
 9    2  0.1592151E-004  0.1711500E+03  0.7546771E-02  0.1178259E+00
         21   -1    0    0  501  502  0.00000000000E+00  0.00000000000E+00  0.21758741014E+03  0.21758741014E+03  0.00000000000E+00 0. -1.
          2   -1    0    0  502    0 -0.00000000000E+00 -0.00000000000E+00 -0.22554630376E+03  0.22554630376E+03  0.00000000000E+00 0. -1.
         23    2    1    2    0    0 -0.15461405153E+03 -0.19159381921E+02 -0.26429960888E+02  0.18319140674E+03  0.92671256732E+02 0.  0.
         24    2    1    2    0    0  0.12571708193E+03 -0.20284829745E+02  0.88226143677E+02  0.17475632609E+03  0.80868177136E+02 0.  0.
        -11    1    4    4    0    0  0.78793381888E+02 -0.50598372697E+02  0.43785069486E+02  0.10337177883E+03  0.00000000000E+00 0.  1.
         12    1    4    4    0    0  0.46923700041E+02  0.30313542952E+02  0.44441074191E+02  0.71384547256E+02  0.00000000000E+00 0. -1.
        -11    1    3    3    0    0 -0.62132913025E+02  0.23372623535E+02  0.22706935221E+02  0.70159698681E+02  0.00000000000E+00 0.  1.
         11    1    3    3    0    0 -0.92481138502E+02 -0.42532005455E+02 -0.49136896109E+02  0.11303170806E+03  0.00000000000E+00 0. -1.
          1    1    1    2  501    0  0.28896969598E+02  0.39444211666E+02 -0.69755076409E+02  0.85185981069E+02  0.00000000000E+00 0. -1.
<scales pt_clust_5="13000.00000" pt_clust_6="13000.00000" pt_clust_7="13000.00000" pt_clust_8="13000.00000" pt_clust_9="48.89666"></scales>
<clustering>
<clus scale="   48.897">  1  9  2 -1</clus>
<clus scale="   80.868">  5  6 -1 -1</clus>
<clus scale="   92.671">  7  8 -1 -1</clus>
<clus scale="  165.058">  1  5  2 -1</clus>
<clus scale="   48.897">  1  5  2 -1</clus>
</clustering>
</event>
<event>
 9    2  0.1592151E-004  0.3394316E+03  0.7546771E-02  0.1117217E+00
         21   -1    0    0  501  502  0.00000000000E+00  0.00000000000E+00  0.46794264846E+03  0.46794264846E+03  0.00000000000E+00 0. -1.
          2   -1    0    0  502    0 -0.00000000000E+00 -0.00000000000E+00 -0.53575804945E+03  0.53575804945E+03  0.00000000000E+00 0. -1.
         24    2    1    2    0    0 -0.41646340091E+02  0.26998623174E+01  0.51026943135E+02  0.10389281162E+03  0.80301061515E+02 0.  0.
         23    2    1    2    0    0 -0.27859082388E+03  0.83764965629E+02 -0.37223736922E+03  0.48239077308E+03  0.97523239757E+02 0.  0.
        -13    1    3    3    0    0 -0.25290168816E+02  0.37407999276E+02  0.73376981203E+01  0.45747053045E+02  0.00000000000E+00 0.  1.
         14    1    3    3    0    0 -0.16356171275E+02 -0.34708136959E+02  0.43689245015E+02  0.58145758572E+02  0.00000000000E+00 0. -1.
        -13    1    4    4    0    0 -0.23021130094E+03  0.10034812815E+03 -0.33701342939E+03  0.42029161483E+03  0.00000000000E+00 0. -1.
         13    1    4    4    0    0 -0.48379522933E+02 -0.16583162521E+02 -0.35223939834E+02  0.62099158254E+02  0.00000000000E+00 0.  1.
          1    1    1    2  501    0  0.32023716397E+03 -0.86464827947E+02  0.25339502510E+03  0.41741711321E+03  0.00000000000E+00 0. -1.
<scales pt_clust_5="13000.00000" pt_clust_6="13000.00000" pt_clust_7="13000.00000" pt_clust_8="13000.00000" pt_clust_9="325.12007"></scales>
<clustering>
<clus scale="   80.301">  5  6 -1 -1</clus>
<clus scale="   90.498">  2  5  1 -1</clus>
<clus scale="   97.523">  7  8 -1 -1</clus>
<clus scale="  325.120">  1  9  2 -1</clus>
<clus scale="  325.120">  1  5  2 -1</clus>
</clustering>
</event>
<event>
 9    2  0.1592151E-004  0.1611426E+03  0.7546771E-02  0.1189501E+00
         -1   -1    0    0    0  501 -0.00000000000E+00  0.00000000000E+00  0.47496514443E+02  0.47496514443E+02  0.00000000000E+00 0.  1.
         21   -1    0    0  501  502  0.00000000000E+00 -0.00000000000E+00 -0.10544580027E+04  0.10544580027E+04  0.00000000000E+00 0.  1.
         23    2    1    2    0    0 -0.20394287504E+02  0.11976442254E+03 -0.20016016913E+03  0.25121569939E+03  0.91026317317E+02 0.  0.
         24    2    1    2    0    0  0.43999937081E+02 -0.16651136978E+03 -0.75032542571E+03  0.77371914297E+03  0.77401789327E+02 0.  0.
        -11    1    4    4    0    0  0.64019834593E+02 -0.10199167473E+03 -0.51485429586E+03  0.52874926657E+03  0.00000000000E+00 0.  1.
         12    1    4    4    0    0 -0.20019897512E+02 -0.64519695053E+02 -0.23547112985E+03  0.24496987639E+03  0.00000000000E+00 0. -1.
        -13    1    3    3    0    0 -0.11298001780E+02  0.23828875710E+02  0.28199364270E+01  0.26521919298E+02  0.00000000000E+00 0. -1.
         13    1    3    3    0    0 -0.90962857244E+01  0.95935546831E+02 -0.20298010556E+03  0.22469378009E+03  0.00000000000E+00 0.  1.
         -2    1    1    2    0  502 -0.23605649576E+02  0.46746947239E+02 -0.56475893432E+02  0.77019674805E+02  0.00000000000E+00 0.  1.
<scales pt_clust_5="13000.00000" pt_clust_6="13000.00000" pt_clust_7="13000.00000" pt_clust_8="13000.00000" pt_clust_9="52.36895"></scales>
<clustering>
<clus scale="   52.369">  2  9  1 -1</clus>
<clus scale="   77.402">  5  6 -1 -1</clus>
<clus scale="   91.026">  7  8 -1 -1</clus>
<clus scale="  153.858">  2  5  1 -1</clus>
<clus scale="   52.369">  2  5  1 -1</clus>
</clustering>
</event>
<event>
 9    2  0.1592151E-004  0.4641983E+03  0.7546771E-02  0.1064794E+00
         21   -1    0    0  501  502  0.00000000000E+00  0.00000000000E+00  0.64600543612E+03  0.64600543612E+03  0.00000000000E+00 0. -1.
          2   -1    0    0  502    0 -0.00000000000E+00 -0.00000000000E+00 -0.47847873951E+03  0.47847873951E+03  0.00000000000E+00 0. -1.
         24    2    1    2    0    0 -0.11295243192E+03 -0.22659618017E+02  0.87914670905E+01  0.14148311000E+03  0.81660702634E+02 0.  0.
         23    2    1    2    0    0 -0.24273795783E+03  0.36400123111E+03  0.19624740701E+03  0.48859544911E+03  0.93775560340E+02 0.  0.
        -11    1    3    3    0    0 -0.12287987111E+03 -0.76522105934E+01  0.59064043084E+01  0.12325950131E+03  0.00000000000E+00 0.  1.
         12    1    3    3    0    0  0.99274391865E+01 -0.15007407423E+02  0.28850627821E+01  0.18223608688E+02  0.00000000000E+00 0. -1.
        -13    1    4    4    0    0 -0.15791231206E+03  0.15908732322E+03  0.78525384888E+02  0.23751065404E+03  0.00000000000E+00 0.  1.
         13    1    4    4    0    0 -0.84825645768E+02  0.20491390789E+03  0.11772202212E+03  0.25108479507E+03  0.00000000000E+00 0. -1.
          1    1    1    2  501    0  0.35569038975E+03 -0.34134161309E+03 -0.37512177495E+02  0.49440561652E+03  0.00000000000E+00 0. -1.
<scales pt_clust_5="13000.00000" pt_clust_6="13000.00000" pt_clust_7="13000.00000" pt_clust_8="13000.00000" pt_clust_9="454.62782"></scales>
<clustering>
<clus scale="   81.661">  5  6 -1 -1</clus>
<clus scale="   93.776">  7  8 -1 -1</clus>
<clus scale="  141.210">  2  5  1 -1</clus>
<clus scale="  454.628">  1  9  2 -1</clus>
<clus scale="  454.628">  1  5  2 -1</clus>
</clustering>
</event>
<event>
 9    2  0.1592151E-004  0.9554925E+02  0.7546771E-02  0.1296148E+00
          2   -1    0    0  502    0 -0.00000000000E+00  0.00000000000E+00  0.76609654489E+02  0.76609654489E+02  0.00000000000E+00 0. -1.
         21   -1    0    0  501  502  0.00000000000E+00 -0.00000000000E+00 -0.14828579462E+03  0.14828579462E+03  0.00000000000E+00 0.  1.
         23    2    1    2    0    0  0.62821200789E+01  0.18315314538E+02 -0.17208928634E+02  0.94295550740E+02  0.90667457697E+02 0.  0.
         24    2    1    2    0    0 -0.27737951300E+02 -0.33696793218E+02 -0.33049113036E+02  0.96604641033E+02  0.79594880370E+02 0.  0.
        -13    1    4    4    0    0 -0.29355364152E+02 -0.48642298411E+02 -0.48753763108E+02  0.74864811603E+02  0.00000000000E+00 0.  1.
         14    1    4    4    0    0  0.16174128520E+01  0.14945505192E+02  0.15704650071E+02  0.21739829430E+02  0.00000000000E+00 0. -1.
        -13    1    3    3    0    0  0.19619597887E+01  0.52445033283E+02 -0.26313846064E+02  0.58709022279E+02  0.00000000000E+00 0. -1.
         13    1    3    3    0    0  0.43201602902E+01 -0.34129718745E+02  0.91049174300E+01  0.35586528461E+02  0.00000000000E+00 0.  1.
          1    1    1    2  501    0  0.21455831221E+02  0.15381478680E+02 -0.21418098463E+02  0.33995257339E+02  0.00000000000E+00 0. -1.
<scales pt_clust_5="13000.00000" pt_clust_6="13000.00000" pt_clust_7="13000.00000" pt_clust_8="13000.00000" pt_clust_9="26.39967"></scales>
<clustering>
<clus scale="   26.400">  2  9  1 -1</clus>
<clus scale="   79.595">  5  6 -1 -1</clus>
<clus scale="   85.114">  2  5  1 -1</clus>
<clus scale="   90.667">  7  8 -1 -1</clus>
<clus scale="   26.400">  2  5  1 -1</clus>
</clustering>
</event>
<event>
 9    2  0.1592151E-004  0.2081513E+03  0.7546771E-02  0.1172775E+00
          2   -1    0    0  502    0 -0.00000000000E+00  0.00000000000E+00  0.81068401656E+03  0.81068401656E+03  0.00000000000E+00 0. -1.
         21   -1    0    0  501  502  0.00000000000E+00 -0.00000000000E+00 -0.14423654352E+03  0.14423654352E+03  0.00000000000E+00 0.  1.
         23    2    1    2    0    0  0.37489381988E+02  0.18252507916E+02  0.12486218834E+03  0.16243293791E+03  0.95159263531E+02 0.  0.
         24    2    1    2    0    0  0.57579774098E+02  0.18177301875E+03 -0.35392311977E+01  0.20409226733E+03  0.72692961800E+02 0.  0.
        -11    1    4    4    0    0  0.59182785663E+02  0.18581097558E+03  0.43821233393E+01  0.19505774470E+03  0.00000000000E+00 0.  1.
         12    1    4    4    0    0 -0.16030115648E+01 -0.40379568255E+01 -0.79213545370E+01  0.90345226273E+01  0.00000000000E+00 0. -1.
        -13    1    3    3    0    0  0.27515040029E+02  0.46080270556E+02  0.12131859725E+03  0.13265998192E+03  0.00000000000E+00 0. -1.
         13    1    3    3    0    0  0.99743419585E+01 -0.27827762640E+02  0.35435910843E+01  0.29772955998E+02  0.00000000000E+00 0.  1.
          1    1    1    2  501    0 -0.95069156086E+02 -0.20002552667E+03  0.54512451590E+03  0.58839535483E+03  0.00000000000E+00 0. -1.
<scales pt_clust_5="13000.00000" pt_clust_6="13000.00000" pt_clust_7="13000.00000" pt_clust_8="13000.00000" pt_clust_9="195.04552"></scales>
<clustering>
<clus scale="   72.693">  5  6 -1 -1</clus>
<clus scale="   95.159">  7  8 -1 -1</clus>
<clus scale="  103.894">  1  7  2 -1</clus>
<clus scale="  195.046">  2  9  1 -1</clus>
<clus scale="  195.046">  2  5  1 -1</clus>
</clustering>
</event>
<event>
 9    2  0.1592151E-004  0.2268318E+03  0.7546771E-02  0.1130013E+00
         21   -1    0    0  501  502  0.00000000000E+00  0.00000000000E+00  0.19095001032E+03  0.19095001032E+03  0.00000000000E+00 0. -1.
          2   -1    0    0  502    0 -0.00000000000E+00 -0.00000000000E+00 -0.72451970583E+03  0.72451970583E+03  0.00000000000E+00 0. -1.
         24    2    1    2    0    0 -0.40246400276E+00 -0.22052343872E+03 -0.31117525587E+03  0.38884241675E+03  0.75747186075E+02 0.  0.
         23    2    1    2    0    0  0.19988108712E+03  0.14688108425E+03 -0.11799032266E+03  0.28974096147E+03  0.92204157244E+02 0.  0.
        -13    1    3    3    0    0 -0.58386735758E+01 -0.46325260919E+02 -0.12684185311E+03  0.13516277449E+03  0.00000000000E+00 0.  1.
         14    1    3    3    0    0  0.54362095730E+01 -0.17419817780E+03 -0.18433340275E+03  0.25367964225E+03  0.00000000000E+00 0. -1.
        -11    1    4    4    0    0  0.10661742371E+03  0.39130963391E+02 -0.16444504057E+02  0.11475595430E+03  0.00000000000E+00 0. -1.
         11    1    4    4    0    0  0.93263663418E+02  0.10775012086E+03 -0.10154581861E+03  0.17498500717E+03  0.00000000000E+00 0.  1.
          1    1    1    2  501    0 -0.19947862312E+03  0.73642354472E+02 -0.10440411698E+03  0.23688633793E+03  0.00000000000E+00 0. -1.
<scales pt_clust_5="13000.00000" pt_clust_6="13000.00000" pt_clust_7="13000.00000" pt_clust_8="13000.00000" pt_clust_9="212.63800"></scales>
<clustering>
<clus scale="   75.747">  5  6 -1 -1</clus>
<clus scale="   92.204">  7  8 -1 -1</clus>
<clus scale="  212.638">  1  9  2 -1</clus>
<clus scale="  220.655">  2  5  1 -1</clus>
<clus scale="  212.638">  1  5  2 -1</clus>
</clustering>
</event>
<event>
 9    2  0.1592151E-004  0.1235573E+03  0.7546771E-02  0.1241913E+00
          2   -1    0    0  502    0 -0.00000000000E+00  0.00000000000E+00  0.52504554189E+03  0.52504554189E+03  0.00000000000E+00 0. -1.
         21   -1    0    0  501  502  0.00000000000E+00 -0.00000000000E+00 -0.54999363007E+02  0.54999363007E+02  0.00000000000E+00 0. -1.
         24    2    1    2    0    0 -0.47610766096E+02  0.31777432966E+02  0.14490875488E+03  0.17600065407E+03  0.81860202177E+02 0.  0.
         23    2    1    2    0    0  0.37601930273E+02 -0.11577574901E+03  0.21228401052E+03  0.26300600485E+03  0.96383236318E+02 0.  0.
        -13    1    3    3    0    0 -0.57653315207E+02 -0.50884975005E+01  0.10975368597E+03  0.12407928572E+03  0.00000000000E+00 0.  1.
         14    1    3    3    0    0  0.10042549112E+02  0.36865930466E+02  0.35155068909E+02  0.51921368354E+02  0.00000000000E+00 0. -1.
        -13    1    4    4    0    0  0.63695231172E+02 -0.41030847082E+02  0.11240177359E+03  0.13555357462E+03  0.00000000000E+00 0.  1.
         13    1    4    4    0    0 -0.26093300899E+02 -0.74744901927E+02  0.99882236934E+02  0.12745243023E+03  0.00000000000E+00 0. -1.
          1    1    1    2  501    0  0.10008835823E+02  0.83998316043E+02  0.11285341348E+03  0.14103824597E+03  0.00000000000E+00 0. -1.
<scales pt_clust_5="13000.00000" pt_clust_6="13000.00000" pt_clust_7="13000.00000" pt_clust_8="13000.00000" pt_clust_9="84.59252"></scales>
<clustering>
<clus scale="   81.860">  5  6 -1 -1</clus>
<clus scale="   84.593">  2  9  1 -1</clus>
<clus scale="   96.383">  7  8 -1 -1</clus>
<clus scale="  112.596">  1  5  2 -1</clus>
<clus scale="   84.593">  2  5  1 -1</clus>
</clustering>
</event>
<event>
 9    2  0.1592151E-004  0.1022938E+03  0.7546771E-02  0.1280209E+00
          2   -1    0    0  502    0 -0.00000000000E+00  0.00000000000E+00  0.30913415820E+03  0.30913415820E+03  0.00000000000E+00 0. -1.
         21   -1    0    0  501  502  0.00000000000E+00 -0.00000000000E+00 -0.13691794476E+03  0.13691794476E+03  0.00000000000E+00 0.  1.
         24    2    1    2    0    0  0.47573973620E+02  0.10962060448E+02  0.18549361861E+03  0.20905341552E+03  0.83138428292E+02 0.  0.
         23    2    1    2    0    0 -0.43399315466E+01  0.70942433969E+02 -0.62006372660E+02  0.13234668855E+03  0.92839602413E+02 0.  0.
        -13    1    3    3    0    0  0.22224590544E+02  0.36746589660E+02  0.15771276337E+03  0.16345507029E+03  0.00000000000E+00 0.  1.
         14    1    3    3    0    0  0.25349383076E+02 -0.25784529212E+02  0.27780855249E+02  0.45598345226E+02  0.00000000000E+00 0. -1.
        -11    1    4    4    0    0  0.17349306502E+01  0.50516286461E+02 -0.86311085601E+02  0.10002254086E+03  0.00000000000E+00 0.  1.
         11    1    4    4    0    0 -0.60748621968E+01  0.20426147508E+02  0.24304712941E+02  0.32324147690E+02  0.00000000000E+00 0. -1.
          1    1    1    2  501    0 -0.43234042073E+02 -0.81904494418E+02  0.48728967483E+02  0.10465199889E+03  0.00000000000E+00 0. -1.
<scales pt_clust_5="13000.00000" pt_clust_6="13000.00000" pt_clust_7="13000.00000" pt_clust_8="13000.00000" pt_clust_9="92.61499"></scales>
<clustering>
<clus scale="   83.138">  5  6 -1 -1</clus>
<clus scale="   92.615">  2  9  1 -1</clus>
<clus scale="   92.840">  7  8 -1 -1</clus>
<clus scale="   93.578">  1  5  2 -1</clus>
<clus scale="   92.615">  2  5  1 -1</clus>
</clustering>
</event>
<event>
 9    2  0.1592151E-004  0.1750101E+03  0.7546771E-02  0.1186978E+00
          2   -1    0    0  502    0 -0.00000000000E+00  0.00000000000E+00  0.71315031818E+03  0.71315031818E+03  0.00000000000E+00 0. -1.
         21   -1    0    0  501  502  0.00000000000E+00 -0.00000000000E+00 -0.13108565016E+03  0.13108565016E+03  0.00000000000E+00 0. -1.
         23    2    1    2    0    0 -0.72409837428E+02  0.31750576723E+02  0.46327583988E+03  0.48037151451E+03  0.99403241685E+02 0.  0.
         24    2    1    2    0    0 -0.91175491641E+02 -0.10944904544E+03  0.50523021412E+02  0.17032522706E+03  0.78524158434E+02 0.  0.
        -11    1    4    4    0    0 -0.56757483239E+02 -0.13540588939E+02  0.45206117220E+01  0.58525168797E+02  0.00000000000E+00 0.  1.
         12    1    4    4    0    0 -0.34418008402E+02 -0.95908456503E+02  0.46002409690E+02  0.11180005827E+03  0.00000000000E+00 0. -1.
        -11    1    3    3    0    0  0.14481374071E+02  0.26634908595E+02  0.53869043580E+02  0.61814257312E+02  0.00000000000E+00 0.  1.
         11    1    3    3    0    0 -0.86891211499E+02  0.51156681279E+01  0.40940679630E+03  0.41855725720E+03  0.00000000000E+00 0. -1.
          1    1    1    2  501    0  0.16358532907E+03  0.77698468718E+02  0.68265806735E+02  0.19353922676E+03  0.00000000000E+00 0. -1.
<scales pt_clust_5="13000.00000" pt_clust_6="13000.00000" pt_clust_7="13000.00000" pt_clust_8="13000.00000" pt_clust_9="156.40498"></scales>
<clustering>
<clus scale="   78.524">  5  6 -1 -1</clus>
<clus scale="   99.403">  7  8 -1 -1</clus>
<clus scale="  127.013">  1  7  2 -1</clus>
<clus scale="  156.405">  2  9  1 -1</clus>
<clus scale="  156.405">  2  5  1 -1</clus>
</clustering>
</event>
<event>
 9    2  0.1592151E-004  0.1258721E+03  0.7546771E-02  0.1236605E+00
         21   -1    0    0  501  502  0.00000000000E+00  0.00000000000E+00  0.92420123833E+02  0.92420123833E+02  0.00000000000E+00 0. -1.
          2   -1    0    0  502    0 -0.00000000000E+00 -0.00000000000E+00 -0.11697433545E+04  0.11697433545E+04  0.00000000000E+00 0. -1.
         23    2    1    2    0    0 -0.74615219570E+02  0.23171814002E+02 -0.61972303407E+03  0.63104182799E+03  0.89737315270E+02 0.  0.
         24    2    1    2    0    0  0.96266438951E+02 -0.33999439060E+02 -0.53480911079E+03  0.55020669988E+03  0.79268142959E+02 0.  0.
        -13    1    4    4    0    0  0.69839102150E+02  0.11221422118E+02 -0.22063011804E+03  0.23169175533E+03  0.00000000000E+00 0.  1.
         14    1    4    4    0    0  0.26427336802E+02 -0.45220861178E+02 -0.31417899275E+03  0.31851494455E+03  0.00000000000E+00 0. -1.
        -11    1    3    3    0    0 -0.43101651334E+02  0.57488591086E+02 -0.40470760696E+03  0.41103641880E+03  0.00000000000E+00 0.  1.
         11    1    3    3    0    0 -0.31513568236E+02 -0.34316777084E+02 -0.21501542712E+03  0.22000540918E+03  0.00000000000E+00 0. -1.
          1    1    1    2  501    0 -0.21651219381E+02  0.10827625058E+02  0.77208914234E+02  0.80914950425E+02  0.00000000000E+00 0. -1.
<scales pt_clust_5="13000.00000" pt_clust_6="13000.00000" pt_clust_7="13000.00000" pt_clust_8="13000.00000" pt_clust_9="24.20770"></scales>
<clustering>
<clus scale="   24.208">  1  9  2 -1</clus>
<clus scale="   79.268">  5  6 -1 -1</clus>
<clus scale="   89.737">  7  8 -1 -1</clus>
<clus scale="  118.636">  1  5  2 -1</clus>
<clus scale="   24.208">  1  5  2 -1</clus>
</clustering>
</event>
<event>
 9    2  0.1592151E-004  0.1525519E+03  0.7546771E-02  0.1215119E+00
         21   -1    0    0  501  502  0.00000000000E+00  0.00000000000E+00  0.19639418403E+03  0.19639418403E+03  0.00000000000E+00 0. -1.
          2   -1    0    0  502    0 -0.00000000000E+00 -0.00000000000E+00 -0.22403196899E+03  0.22403196899E+03  0.00000000000E+00 0. -1.
         24    2    1    2    0    0 -0.24531604352E+02 -0.60445792154E+02 -0.77630349166E+02  0.12992218272E+03  0.81226898563E+02 0.  0.
         23    2    1    2    0    0 -0.10423444227E+03  0.31303258668E+02 -0.13349826413E+02  0.14407227813E+03  0.93455286116E+02 0.  0.
        -13    1    3    3    0    0 -0.38947672066E+02 -0.29050888282E+02 -0.81781948876E+02  0.95127085686E+02  0.00000000000E+00 0.  1.
         14    1    3    3    0    0  0.14416067714E+02 -0.31394903872E+02  0.41515997097E+01  0.34795097035E+02  0.00000000000E+00 0. -1.
        -11    1    4    4    0    0 -0.10792319847E+03 -0.39576131441E+01 -0.96216566759E+01  0.10842350182E+03  0.00000000000E+00 0. -1.
         11    1    4    4    0    0  0.36887561984E+01  0.35260871812E+02 -0.37281697366E+01  0.35648776316E+02  0.00000000000E+00 0.  1.
          1    1    1    2  501    0  0.12876604662E+03  0.29142533486E+02  0.63342390624E+02  0.14643169217E+03  0.00000000000E+00 0. -1.
<scales pt_clust_5="13000.00000" pt_clust_6="13000.00000" pt_clust_7="13000.00000" pt_clust_8="13000.00000" pt_clust_9="120.57442"></scales>
<clustering>
<clus scale="   81.227">  5  6 -1 -1</clus>
<clus scale="   93.455">  7  8 -1 -1</clus>
<clus scale="  104.179">  2  5  1 -1</clus>
<clus scale="  120.574">  1  9  2 -1</clus>
<clus scale="  120.574">  1  5  2 -1</clus>
</clustering>
</event>
<event>
 9    2  0.1592151E-004  0.1136453E+03  0.7546771E-02  0.1256932E+00
         -3   -1    0    0    0  501 -0.00000000000E+00  0.00000000000E+00  0.26152614307E+03  0.26152614307E+03  0.00000000000E+00 0.  1.
         21   -1    0    0  501  502  0.00000000000E+00 -0.00000000000E+00 -0.19529114128E+03  0.19529114128E+03  0.00000000000E+00 0.  1.
         23    2    1    2    0    0 -0.68517617878E+02  0.72584644259E+01  0.20619476975E+03  0.23580257101E+03  0.91319330711E+02 0.  0.
         24    2    1    2    0    0  0.62951771789E+02  0.12913877441E+02 -0.30246194005E+02  0.10932330665E+03  0.83108719901E+02 0.  0.
        -11    1    4    4    0    0  0.45564234037E+02 -0.13138144617E+02  0.18897197263E+02  0.51047177510E+02  0.00000000000E+00 0.  1.
         12    1    4    4    0    0  0.17387537752E+02  0.26052022058E+02 -0.49143391269E+02  0.58276129142E+02  0.00000000000E+00 0. -1.
        -11    1    3    3    0    0 -0.10968045836E+02  0.37872280014E+02  0.35389534112E+02  0.52981381141E+02  0.00000000000E+00 0. -1.
         11    1    3    3    0    0 -0.57549572043E+02 -0.30613815589E+02  0.17080523563E+03  0.18282118987E+03  0.00000000000E+00 0.  1.
         -4    1    1    2    0  502  0.55658460894E+01 -0.20172341866E+02 -0.10971357395E+03  0.11169140669E+03  0.00000000000E+00 0.  1.
<scales pt_clust_5="13000.00000" pt_clust_6="13000.00000" pt_clust_7="13000.00000" pt_clust_8="13000.00000" pt_clust_9="20.92611"></scales>
<clustering>
<clus scale="   20.926">  2  9  1 -1</clus>
<clus scale="   83.109">  5  6 -1 -1</clus>
<clus scale="   91.319">  7  8 -1 -1</clus>
<clus scale="  107.159">  2  5  1 -1</clus>
<clus scale="   20.926">  2  5  1 -1</clus>
</clustering>
</event>
<event>
 9    2  0.1592151E-004  0.1000857E+03  0.7546771E-02  0.1286795E+00
          2   -1    0    0  502    0 -0.00000000000E+00  0.00000000000E+00  0.35039310127E+03  0.35039310127E+03  0.00000000000E+00 0. -1.
         21   -1    0    0  501  502  0.00000000000E+00 -0.00000000000E+00 -0.17332546947E+03  0.17332546947E+03  0.00000000000E+00 0. -1.
         23    2    1    2    0    0 -0.35312192244E+02  0.29463523846E+02  0.17453411063E+03  0.20334775172E+03  0.93664839708E+02 0.  0.
         24    2    1    2    0    0  0.35174564802E+02  0.24560009515E+02  0.14305345171E+03  0.16982377660E+03  0.80841703197E+02 0.  0.
        -13    1    4    4    0    0  0.17988076487E+01 -0.27530900660E+02  0.28716130844E+02  0.39822134182E+02  0.00000000000E+00 0.  1.
         14    1    4    4    0    0  0.33375757154E+02  0.52090910175E+02  0.11433732087E+03  0.13000164242E+03  0.00000000000E+00 0. -1.
        -13    1    3    3    0    0  0.30754979148E+00  0.57434377634E+02  0.11500102944E+03  0.12854586378E+03  0.00000000000E+00 0. -1.
         13    1    3    3    0    0 -0.35619742035E+02 -0.27970853788E+02  0.59533081190E+02  0.74801887946E+02  0.00000000000E+00 0.  1.
          1    1    1    2  501    0  0.13762744128E+00 -0.54023533361E+02 -0.14051993055E+03  0.15054704242E+03  0.00000000000E+00 0. -1.
<scales pt_clust_5="13000.00000" pt_clust_6="13000.00000" pt_clust_7="13000.00000" pt_clust_8="13000.00000" pt_clust_9="54.02371"></scales>
<clustering>
<clus scale="   54.024">  2  9  1 -1</clus>
<clus scale="   80.842">  5  6 -1 -1</clus>
<clus scale="   88.201">  2  5  1 -1</clus>
<clus scale="   93.665">  7  8 -1 -1</clus>
<clus scale="   54.024">  2  5  1 -1</clus>
</clustering>
</event>
<event>
 9    2  0.1592151E-004  0.2419149E+03  0.7546771E-02  0.1163029E+00
          2   -1    0    0  502    0 -0.00000000000E+00  0.00000000000E+00  0.93083107331E+03  0.93083107331E+03  0.00000000000E+00 0. -1.
         21   -1    0    0  501  502  0.00000000000E+00 -0.00000000000E+00 -0.92040188022E+02  0.92040188022E+02  0.00000000000E+00 0. -1.
         24    2    1    2    0    0 -0.97999208424E+00 -0.15615648805E+01  0.26176824098E+03  0.27454417879E+03  0.82755635770E+02 0.  0.
         23    2    1    2    0    0 -0.16444755477E+03  0.15899759559E+03  0.23730941823E+03  0.33898925996E+03  0.79213159981E+02 0.  0.
        -11    1    3    3    0    0  0.22709153155E+02 -0.99456545176E+00  0.16388143211E+02  0.28022598655E+02  0.00000000000E+00 0.  1.
         12    1    3    3    0    0 -0.23689145240E+02 -0.56699942873E+00  0.24538009777E+03  0.24652158013E+03  0.00000000000E+00 0. -1.
        -13    1    4    4    0    0 -0.28164365817E+02 -0.50243975078E+01  0.32784795761E+02  0.43512284533E+02  0.00000000000E+00 0.  1.
         13    1    4    4    0    0 -0.13628318895E+03  0.16402199310E+03  0.20452462247E+03  0.29547697543E+03  0.00000000000E+00 0. -1.
          1    1    1    2  501    0  0.16542754685E+03 -0.15743603071E+03  0.33971322608E+03  0.40933782258E+03  0.00000000000E+00 0. -1.
<scales pt_clust_5="13000.00000" pt_clust_6="13000.00000" pt_clust_7="13000.00000" pt_clust_8="13000.00000" pt_clust_9="228.57856"></scales>
<clustering>
<clus scale="   79.213">  7  8 -1 -1</clus>
<clus scale="   82.756">  5  6 -1 -1</clus>
<clus scale="   82.776">  1  5  2 -1</clus>
<clus scale="  228.579">  2  9  1 -1</clus>
<clus scale="  228.579">  2  5  1 -1</clus>
</clustering>
</event>
<event>
 9    2  0.1592151E-004  0.1688967E+03  0.7546771E-02  0.1180712E+00
          2   -1    0    0  502    0 -0.00000000000E+00  0.00000000000E+00  0.16480698545E+04  0.16480698545E+04  0.00000000000E+00 0. -1.
         21   -1    0    0  501  502  0.00000000000E+00 -0.00000000000E+00 -0.91236584956E+02  0.91236584956E+02  0.00000000000E+00 0. -1.
         24    2    1    2    0    0 -0.99969869818E+01  0.16492121882E+03  0.13593027093E+04  0.13716241137E+04  0.79686295848E+02 0.  0.
         23    2    1    2    0    0 -0.15729023552E+02 -0.83735307485E+02  0.24130064333E+03  0.27192847464E+03  0.91978752691E+02 0.  0.
        -11    1    3    3    0    0  0.64071323294E+01  0.79045102482E+02  0.36664260156E+03  0.37512128285E+03  0.00000000000E+00 0.  1.
         12    1    3    3    0    0 -0.16404119311E+02  0.85876116342E+02  0.99266010772E+03  0.99650283087E+03  0.00000000000E+00 0. -1.
        -13    1    4    4    0    0  0.12805980405E+02 -0.50488951704E+02  0.21413073350E+03  0.22037490421E+03  0.00000000000E+00 0.  1.
         13    1    4    4    0    0 -0.28535003957E+02 -0.33246355781E+02  0.27169909834E+02  0.51553570429E+02  0.00000000000E+00 0. -1.
          1    1    1    2  501    0  0.25726010533E+02 -0.81185911339E+02 -0.43770083095E+02  0.95753851056E+02  0.00000000000E+00 0. -1.
<scales pt_clust_5="13000.00000" pt_clust_6="13000.00000" pt_clust_7="13000.00000" pt_clust_8="13000.00000" pt_clust_9="85.16443"></scales>
<clustering>
<clus scale="   79.686">  5  6 -1 -1</clus>
<clus scale="   85.164">  2  9  1 -1</clus>
<clus scale="   91.979">  7  8 -1 -1</clus>
<clus scale="  162.530">  1  5  2 -1</clus>
<clus scale="   85.164">  2  5  1 -1</clus>
</clustering>
</event>
<event>
 9    2  0.1592151E-004  0.1738111E+03  0.7546771E-02  0.1206826E+00
         21   -1    0    0  501  502  0.00000000000E+00  0.00000000000E+00  0.69267768585E+02  0.69267768585E+02  0.00000000000E+00 0. -1.
          2   -1    0    0  502    0 -0.00000000000E+00 -0.00000000000E+00 -0.71785933846E+03  0.71785933846E+03  0.00000000000E+00 0. -1.
         24    2    1    2    0    0 -0.16439486563E+02  0.22559663075E+02 -0.10600854692E+03  0.13529036342E+03  0.79287295934E+02 0.  0.
         23    2    1    2    0    0  0.96398294082E+02 -0.13620881103E+03 -0.43692740445E+03  0.47727257361E+03  0.95068824863E+02 0.  0.
        -11    1    3    3    0    0  0.27360817297E+02  0.27223030232E+02 -0.37299934655E+02  0.53674880749E+02  0.00000000000E+00 0.  1.
         12    1    3    3    0    0 -0.43800303860E+02 -0.46633671563E+01 -0.68708612267E+02  0.81615482668E+02  0.00000000000E+00 0. -1.
        -13    1    4    4    0    0  0.95876277649E+02 -0.65260700294E+02 -0.21510324732E+03  0.24437804040E+03  0.00000000000E+00 0. -1.
         13    1    4    4    0    0  0.52201643351E+00 -0.70948110737E+02 -0.22182415713E+03  0.23289453322E+03  0.00000000000E+00 0.  1.
          1    1    1    2  501    0 -0.79958807519E+02  0.11364914796E+03 -0.10565561850E+03  0.17456417001E+03  0.00000000000E+00 0. -1.
<scales pt_clust_5="13000.00000" pt_clust_6="13000.00000" pt_clust_7="13000.00000" pt_clust_8="13000.00000" pt_clust_9="145.50675"></scales>
<clustering>
<clus scale="   79.287">  5  6 -1 -1</clus>
<clus scale="   84.058">  2  5  1 -1</clus>
<clus scale="   95.069">  7  8 -1 -1</clus>
<clus scale="  145.507">  1  9  2 -1</clus>
<clus scale="  145.507">  1  5  2 -1</clus>
</clustering>
</event>
<event>
 9    2  0.1592151E-004  0.8381787E+02  0.7546771E-02  0.1321056E+00
          2   -1    0    0  502    0 -0.00000000000E+00  0.00000000000E+00  0.66274099609E+02  0.66274099609E+02  0.00000000000E+00 0. -1.
         21   -1    0    0  501  502  0.00000000000E+00 -0.00000000000E+00 -0.47217466613E+03  0.47217466613E+03  0.00000000000E+00 0.  1.
         24    2    1    2    0    0  0.29898566190E+01 -0.25855323313E+02  0.11514972773E+02  0.82457424292E+02  0.77389891049E+02 0.  0.
         23    2    1    2    0    0  0.17550282174E+02 -0.31670333712E+02 -0.36447933791E+03  0.37516226292E+03  0.81181976564E+02 0.  0.
        -13    1    3    3    0    0  0.60529891634E+01 -0.52797395683E+02  0.14742942483E+02  0.55150322046E+02  0.00000000000E+00 0.  1.
         14    1    3    3    0    0 -0.30631325445E+01  0.26942072370E+02 -0.32279697101E+01  0.27307102245E+02  0.00000000000E+00 0. -1.
        -11    1    4    4    0    0 -0.11015924909E+02 -0.52395232145E+02 -0.21302549020E+03  0.21965079201E+03  0.00000000000E+00 0.  1.
         11    1    4    4    0    0  0.28566207084E+02  0.20724898433E+02 -0.15145384770E+03  0.15551147091E+03  0.00000000000E+00 0. -1.
          1    1    1    2  501    0 -0.20540138793E+02  0.57525657025E+02 -0.52936201389E+02  0.80829078526E+02  0.00000000000E+00 0. -1.
<scales pt_clust_5="13000.00000" pt_clust_6="13000.00000" pt_clust_7="13000.00000" pt_clust_8="13000.00000" pt_clust_9="61.08275"></scales>
<clustering>
<clus scale="   61.083">  2  9  1 -1</clus>
<clus scale="   77.390">  5  6 -1 -1</clus>
<clus scale="   80.151">  1  5  2 -1</clus>
<clus scale="   81.182">  7  8 -1 -1</clus>
<clus scale="   61.083">  2  5  1 -1</clus>
</clustering>
</event>
<event>
 9    2  0.1592151E-004  0.1137087E+03  0.7546771E-02  0.1258019E+00
         21   -1    0    0  501  502  0.00000000000E+00  0.00000000000E+00  0.14820033348E+03  0.14820033348E+03  0.00000000000E+00 0.  1.
          2   -1    0    0  502    0 -0.00000000000E+00 -0.00000000000E+00 -0.27507116333E+03  0.27507116333E+03  0.00000000000E+00 0. -1.
         23    2    1    2    0    0 -0.53174705342E+02 -0.42045380792E+02 -0.10920625480E+03  0.15799837521E+03  0.91880994479E+02 0.  0.
         24    2    1    2    0    0  0.16904080773E+02  0.75467218129E+02  0.92247898540E+02  0.14480184175E+03  0.80478876921E+02 0.  0.
        -11    1    4    4    0    0 -0.76005557586E+01  0.67273443191E+02  0.97239050934E+02  0.11848593855E+03  0.00000000000E+00 0.  1.
         12    1    4    4    0    0  0.24504636531E+02  0.81937749383E+01 -0.49911523939E+01  0.26315903205E+02  0.00000000000E+00 0. -1.
        -13    1    3    3    0    0 -0.20207453901E+02  0.24613272898E+02 -0.62601617463E+02  0.70236150983E+02  0.00000000000E+00 0.  1.
         13    1    3    3    0    0 -0.32967251441E+02 -0.66658653690E+02 -0.46604637336E+02  0.87762224223E+02  0.00000000000E+00 0. -1.
          1    1    1    2  501    0  0.36270624569E+02 -0.33421837337E+02 -0.10991247359E+03  0.12047127985E+03  0.00000000000E+00 0. -1.
<scales pt_clust_5="13000.00000" pt_clust_6="13000.00000" pt_clust_7="13000.00000" pt_clust_8="13000.00000" pt_clust_9="49.32119"></scales>
<clustering>
<clus scale="   49.321">  1  9  2 -1</clus>
<clus scale="   80.479">  5  6 -1 -1</clus>
<clus scale="   91.881">  7  8 -1 -1</clus>
<clus scale="  104.711">  1  5  2 -1</clus>
<clus scale="   49.321">  1  5  2 -1</clus>
</clustering>
</event>
<event>
 9    2  0.1592151E-004  0.9264831E+02  0.7546771E-02  0.1303802E+00
         21   -1    0    0  501  502  0.00000000000E+00  0.00000000000E+00  0.16814386925E+02  0.16814386925E+02  0.00000000000E+00 0.  1.
          2   -1    0    0  502    0 -0.00000000000E+00 -0.00000000000E+00 -0.10993036450E+04  0.10993036450E+04  0.00000000000E+00 0. -1.
         24    2    1    2    0    0 -0.10437683866E+02 -0.25076436871E+01 -0.78484744354E+03  0.78898446765E+03  0.79973414589E+02 0.  0.
         23    2    1    2    0    0  0.11850765309E+02  0.37963240323E+02 -0.20947758903E+03  0.23209658836E+03  0.91685973672E+02 0.  0.
        -11    1    3    3    0    0 -0.16339371282E+02  0.26685612705E+02 -0.14019979813E+03  0.14364915724E+03  0.00000000000E+00 0.  1.
         12    1    3    3    0    0  0.59016874165E+01 -0.29193256392E+02 -0.64464764541E+03  0.64533531041E+03  0.00000000000E+00 0. -1.
        -13    1    4    4    0    0 -0.25991285653E+02  0.52513263612E+02 -0.13794863509E+03  0.14987666833E+03  0.00000000000E+00 0.  1.
         13    1    4    4    0    0  0.37842050961E+02 -0.14550023290E+02 -0.71528953935E+02  0.82219920030E+02  0.00000000000E+00 0. -1.
          1    1    1    2  501    0 -0.14130814431E+01 -0.35455596636E+02 -0.88164225483E+02  0.95036975894E+02  0.00000000000E+00 0. -1.
<scales pt_clust_5="13000.00000" pt_clust_6="13000.00000" pt_clust_7="13000.00000" pt_clust_8="13000.00000" pt_clust_9="35.48374"></scales>
<clustering>
<clus scale="   35.484">  1  9  2 -1</clus>
<clus scale="   79.973">  5  6 -1 -1</clus>
<clus scale="   81.075">  2  5  1 -1</clus>
<clus scale="   91.686">  7  8 -1 -1</clus>
<clus scale="   35.484">  1  5  2 -1</clus>
</clustering>
</event>
<event>
 9    2  0.1592151E-004  0.1126553E+03  0.7546771E-02  0.1258990E+00
         21   -1    0    0  501  502  0.00000000000E+00  0.00000000000E+00  0.58958185320E+02  0.58958185320E+02  0.00000000000E+00 0. -1.
          2   -1    0    0  502    0 -0.00000000000E+00 -0.00000000000E+00 -0.68265740926E+03  0.68265740926E+03  0.00000000000E+00 0. -1.
         23    2    1    2    0    0 -0.85800487803E+02 -0.13818407999E+02 -0.54268469771E+03  0.55707783632E+03  0.90974515561E+02 0.  0.
         24    2    1    2    0    0  0.76338276873E+01  0.36101945299E+01 -0.62547750695E+02  0.10357322174E+03  0.82121144137E+02 0.  0.
        -11    1    4    4    0    0  0.39485764732E+02 -0.13950182795E+02 -0.49718437977E+02  0.65005048199E+02  0.00000000000E+00 0.  1.
         12    1    4    4    0    0 -0.31851937045E+02  0.17560377324E+02 -0.12829312718E+02  0.38568173539E+02  0.00000000000E+00 0. -1.
        -11    1    3    3    0    0 -0.95265747686E+02  0.80228908464E+01 -0.49036417423E+03  0.49959679025E+03  0.00000000000E+00 0. -1.
         11    1    3    3    0    0  0.94652598833E+01 -0.21841298845E+02 -0.52320523483E+02  0.57481046071E+02  0.00000000000E+00 0.  1.
          1    1    1    2  501    0  0.78166660115E+02  0.10208213469E+02 -0.18466775533E+02  0.80964536523E+02  0.00000000000E+00 0. -1.
<scales pt_clust_5="13000.00000" pt_clust_6="13000.00000" pt_clust_7="13000.00000" pt_clust_8="13000.00000" pt_clust_9="78.83042"></scales>
<clustering>
<clus scale="   78.830">  1  9  2 -1</clus>
<clus scale="   82.121">  5  6 -1 -1</clus>
<clus scale="   90.975">  7  8 -1 -1</clus>
<clus scale="  105.635">  1  5  2 -1</clus>
<clus scale="   78.830">  1  5  2 -1</clus>
</clustering>
</event>
<event>
 9    2  0.1592151E-004  0.9473023E+02  0.7546771E-02  0.1298623E+00
         21   -1    0    0  501  502  0.00000000000E+00  0.00000000000E+00  0.49331280974E+02  0.49331280974E+02  0.00000000000E+00 0.  1.
         -1   -1    0    0    0  501 -0.00000000000E+00 -0.00000000000E+00 -0.41324697976E+03  0.41324697976E+03  0.00000000000E+00 0.  1.
         24    2    1    2    0    0  0.45776440318E+01 -0.35353373919E+01 -0.17616819548E+03  0.19369293219E+03  0.80301092425E+02 0.  0.
         23    2    1    2    0    0  0.11759123036E+02  0.74706281448E+02 -0.12448043491E+03  0.17226796375E+03  0.91986777303E+02 0.  0.
        -13    1    3    3    0    0  0.24044550428E+02 -0.27337158731E+02 -0.14653206762E+03  0.15098711036E+03  0.00000000000E+00 0.  1.
         14    1    3    3    0    0 -0.19466906396E+02  0.23801821339E+02 -0.29636127865E+02  0.42705821834E+02  0.00000000000E+00 0. -1.
        -13    1    4    4    0    0  0.44228643512E+02  0.66464195874E+02 -0.10964489282E+03  0.13563061882E+03  0.00000000000E+00 0.  1.
         13    1    4    4    0    0 -0.32469520477E+02  0.82420855733E+01 -0.14835542085E+02  0.36637344930E+02  0.00000000000E+00 0. -1.
         -2    1    1    2    0  502 -0.16336767068E+02 -0.71170944056E+02 -0.63267068393E+02  0.96617364791E+02  0.00000000000E+00 0.  1.
<scales pt_clust_5="13000.00000" pt_clust_6="13000.00000" pt_clust_7="13000.00000" pt_clust_8="13000.00000" pt_clust_9="73.02187"></scales>
<clustering>
<clus scale="   73.022">  1  9  2 -1</clus>
<clus scale="   80.301">  5  6 -1 -1</clus>
<clus scale="   83.430">  2  5  1 -1</clus>
<clus scale="   91.987">  7  8 -1 -1</clus>
<clus scale="   73.022">  1  5  2 -1</clus>
</clustering>
</event>
<event>
 9    2  0.1592151E-004  0.2709545E+03  0.7546771E-02  0.1101157E+00
          2   -1    0    0  502    0 -0.00000000000E+00  0.00000000000E+00  0.14323902891E+04  0.14323902891E+04  0.00000000000E+00 0. -1.
         21   -1    0    0  501  502  0.00000000000E+00 -0.00000000000E+00 -0.99495014902E+02  0.99495014902E+02  0.00000000000E+00 0. -1.
         23    2    1    2    0    0 -0.26560928638E+03 -0.91009964518E+01  0.10944481250E+04  0.11298274514E+04  0.89790036148E+02 0.  0.
         24    2    1    2    0    0  0.21470827825E+03 -0.38986268940E+02  0.11342497963E+03  0.25876151413E+03  0.80453224144E+02 0.  0.
        -11    1    4    4    0    0  0.29857951879E+02 -0.26129940541E+02  0.47949362750E+02  0.62236745346E+02  0.00000000000E+00 0.  1.
         12    1    4    4    0    0  0.18485032637E+03 -0.12856328399E+02  0.65475616879E+02  0.19652476878E+03  0.00000000000E+00 0. -1.
        -11    1    3    3    0    0 -0.70563592025E+02  0.30424265549E+02  0.22047204069E+03  0.23347971470E+03  0.00000000000E+00 0.  1.
         11    1    3    3    0    0 -0.19504569435E+03 -0.39525262000E+02  0.87397608429E+03  0.89634773673E+03  0.00000000000E+00 0. -1.
          1    1    1    2  501    0  0.50901008128E+02  0.48087265392E+02  0.12502216958E+03  0.14329633843E+03  0.00000000000E+00 0. -1.
<scales pt_clust_5="13000.00000" pt_clust_6="13000.00000" pt_clust_7="13000.00000" pt_clust_8="13000.00000" pt_clust_9="70.02359"></scales>
<clustering>
<clus scale="   70.024">  2  9  1 -1</clus>
<clus scale="   80.453">  5  6 -1 -1</clus>
<clus scale="   89.790">  7  8 -1 -1</clus>
<clus scale="  268.005">  2  5  1 -1</clus>
<clus scale="   70.024">  2  5  1 -1</clus>
</clustering>
</event>
<event>
 9    2  0.1592151E-004  0.1787786E+03  0.7546771E-02  0.1170423E+00
          2   -1    0    0  502    0 -0.00000000000E+00  0.00000000000E+00  0.57254907558E+03  0.57254907558E+03  0.00000000000E+00 0. -1.
         21   -1    0    0  501  502  0.00000000000E+00 -0.00000000000E+00 -0.89328335977E+02  0.89328335977E+02  0.00000000000E+00 0. -1.
         24    2    1    2    0    0  0.52811146329E+01  0.18047339733E+03  0.28234418246E+03  0.34463822341E+03  0.80366226421E+02 0.  0.
         23    2    1    2    0    0 -0.25270208688E+02 -0.10881745451E+03  0.57664410643E+02  0.15585809593E+03  0.92123503824E+02 0.  0.
        -13    1    3    3    0    0  0.37807582765E+02  0.93593881077E+02  0.11277824376E+03  0.15135441901E+03  0.00000000000E+00 0.  1.
         14    1    3    3    0    0 -0.32526468132E+02  0.86879516252E+02  0.16956593870E+03  0.19328380439E+03  0.00000000000E+00 0. -1.
        -13    1    4    4    0    0  0.91996772753E+01 -0.29227070715E+02 -0.22292721896E+02  0.37892231052E+02  0.00000000000E+00 0. -1.
         13    1    4    4    0    0 -0.34469885963E+02 -0.79590383800E+02  0.79957132539E+02  0.11796586487E+03  0.00000000000E+00 0.  1.
          1    1    1    2  501    0  0.19989094055E+02 -0.71655942815E+02  0.14321214650E+03  0.16138109222E+03  0.00000000000E+00 0. -1.
<scales pt_clust_5="13000.00000" pt_clust_6="13000.00000" pt_clust_7="13000.00000" pt_clust_8="13000.00000" pt_clust_9="74.39182"></scales>
<clustering>
<clus scale="   74.392">  2  9  1 -1</clus>
<clus scale="   80.366">  5  6 -1 -1</clus>
<clus scale="   92.124">  7  8 -1 -1</clus>
<clus scale="  173.014">  1  5  2 -1</clus>
<clus scale="   74.392">  2  5  1 -1</clus>
</clustering>
</event>
<event>
 9    2  0.1592151E-004  0.1084969E+03  0.7546771E-02  0.1267546E+00
         21   -1    0    0  501  502  0.00000000000E+00  0.00000000000E+00  0.94986452051E+02  0.94986452051E+02  0.00000000000E+00 0. -1.
          4   -1    0    0  502    0 -0.00000000000E+00 -0.00000000000E+00 -0.16936961837E+03  0.16936961837E+03  0.00000000000E+00 0. -1.
         24    2    1    2    0    0 -0.47478457584E+02 -0.76921231427E+01 -0.23722342112E+02  0.96741907871E+02  0.80516299779E+02 0.  0.
         23    2    1    2    0    0  0.64724772879E+02  0.42013638968E+02 -0.26013809163E+02  0.12197561316E+03  0.90812388224E+02 0.  0.
        -11    1    3    3    0    0 -0.27653377066E+02  0.49748639961E+01 -0.52515481633E+02  0.59559502567E+02  0.00000000000E+00 0.  1.
         12    1    3    3    0    0 -0.19825080519E+02 -0.12666987139E+02  0.28793139520E+02  0.37182405304E+02  0.00000000000E+00 0. -1.
        -13    1    4    4    0    0  0.84846296834E+02  0.30290798116E+02 -0.43919923199E+01  0.90198204714E+02  0.00000000000E+00 0. -1.
         13    1    4    4    0    0 -0.20121523956E+02  0.11722840852E+02 -0.21621816843E+02  0.31777408446E+02  0.00000000000E+00 0.  1.
          3    1    1    2  501    0 -0.17246315294E+02 -0.34321515826E+02 -0.24647015039E+02  0.45638549387E+02  0.00000000000E+00 0. -1.
<scales pt_clust_5="13000.00000" pt_clust_6="13000.00000" pt_clust_7="13000.00000" pt_clust_8="13000.00000" pt_clust_9="38.41098"></scales>
<clustering>
<clus scale="   38.411">  1  9  2 -1</clus>
<clus scale="   80.516">  5  6 -1 -1</clus>
<clus scale="   90.812">  7  8 -1 -1</clus>
<clus scale="  100.038">  2  5  1 -1</clus>
<clus scale="   38.411">  1  5  2 -1</clus>
</clustering>
</event>
<event>
 9    2  0.1592151E-004  0.1282743E+03  0.7546771E-02  0.1231957E+00
          2   -1    0    0  502    0 -0.00000000000E+00  0.00000000000E+00  0.50630727536E+03  0.50630727536E+03  0.00000000000E+00 0. -1.
         21   -1    0    0  501  502  0.00000000000E+00 -0.00000000000E+00 -0.98634850206E+02  0.98634850206E+02  0.00000000000E+00 0.  1.
         24    2    1    2    0    0 -0.64930809399E+02 -0.34988663890E+02  0.28043161313E+03  0.30604504951E+03  0.97884963499E+02 0.  0.
         23    2    1    2    0    0  0.73732401850E+02  0.12496372503E+03  0.46308677950E+02  0.17755874748E+03  0.91270014226E+02 0.  0.
        -13    1    3    3    0    0 -0.67936083268E+02 -0.52647721827E+02  0.13859508209E+03  0.16308185308E+03  0.00000000000E+00 0.  1.
         14    1    3    3    0    0  0.30052738681E+01  0.17659057938E+02  0.14183653104E+03  0.14296319643E+03  0.00000000000E+00 0. -1.
        -11    1    4    4    0    0  0.55999473901E+02  0.13714188154E+03  0.31511704121E+02  0.15144908137E+03  0.00000000000E+00 0. -1.
         11    1    4    4    0    0  0.17732927949E+02 -0.12178156518E+02  0.14796973829E+02  0.26109666109E+02  0.00000000000E+00 0.  1.
          1    1    1    2  501    0 -0.88015924505E+01 -0.89975061135E+02  0.80932134075E+02  0.12133832858E+03  0.00000000000E+00 0. -1.
<scales pt_clust_5="13000.00000" pt_clust_6="13000.00000" pt_clust_7="13000.00000" pt_clust_8="13000.00000" pt_clust_9="90.40453"></scales>
<clustering>
<clus scale="   90.405">  2  9  1 -1</clus>
<clus scale="   91.270">  7  8 -1 -1</clus>
<clus scale="   97.885">  5  6 -1 -1</clus>
<clus scale="  123.301">  2  7  1 -1</clus>
<clus scale="   90.405">  2  5  1 -1</clus>
</clustering>
</event>
<event>
 9    2  0.1592151E-004  0.1110769E+03  0.7546771E-02  0.1262660E+00
          2   -1    0    0  502    0 -0.00000000000E+00  0.00000000000E+00  0.53860909411E+03  0.53860909411E+03  0.00000000000E+00 0. -1.
         21   -1    0    0  501  502  0.00000000000E+00 -0.00000000000E+00 -0.94192099929E+02  0.94192099929E+02  0.00000000000E+00 0. -1.
         24    2    1    2    0    0 -0.51069617473E+02  0.48964795293E+02  0.38369423541E+03  0.39836374934E+03  0.80416127080E+02 0.  0.
         23    2    1    2    0    0  0.46437844259E+02 -0.15973803977E+02  0.12487072770E+03  0.16215452315E+03  0.91048091413E+02 0.  0.
        -11    1    3    3    0    0 -0.71924521542E+02  0.37071496200E+02  0.32560975821E+03  0.33551325946E+03  0.00000000000E+00 0.  1.
         12    1    3    3    0    0  0.20854904068E+02  0.11893299092E+02  0.58084477194E+02  0.62850489878E+02  0.00000000000E+00 0. -1.
        -13    1    4    4    0    0  0.37241680299E+02 -0.38707689109E+02  0.12664679945E+03  0.13756685560E+03  0.00000000000E+00 0. -1.
         13    1    4    4    0    0  0.91961639599E+01  0.22733885132E+02 -0.17760717561E+01  0.24587667552E+02  0.00000000000E+00 0.  1.
          1    1    1    2  501    0  0.46317732141E+01 -0.32990991316E+02 -0.64147968922E+02  0.72282921551E+02  0.00000000000E+00 0. -1.
<scales pt_clust_5="13000.00000" pt_clust_6="13000.00000" pt_clust_7="13000.00000" pt_clust_8="13000.00000" pt_clust_9="33.31454"></scales>
<clustering>
<clus scale="   33.315">  2  9  1 -1</clus>
<clus scale="   80.416">  5  6 -1 -1</clus>
<clus scale="   91.048">  7  8 -1 -1</clus>
<clus scale="  102.543">  1  5  2 -1</clus>
<clus scale="   33.315">  2  5  1 -1</clus>
</clustering>
</event>
<event>
 9    2  0.1592151E-004  0.1064277E+03  0.7546771E-02  0.1277084E+00
         21   -1    0    0  501  502  0.00000000000E+00  0.00000000000E+00  0.70555335087E+02  0.70555335087E+02  0.00000000000E+00 0. -1.
          2   -1    0    0  502    0 -0.00000000000E+00 -0.00000000000E+00 -0.41347037484E+03  0.41347037484E+03  0.00000000000E+00 0. -1.
         24    2    1    2    0    0 -0.49808114138E+02 -0.54236173775E+02 -0.10913633542E+03  0.15213674596E+03  0.76239353226E+02 0.  0.
         23    2    1    2    0    0 -0.39678849633E+02  0.17153947674E+02 -0.36444762512E+02  0.11206245790E+03  0.96752802169E+02 0.  0.
        -11    1    3    3    0    0  0.18420684958E+02 -0.21631438271E+02 -0.43764000845E+02  0.52177854746E+02  0.00000000000E+00 0.  1.
         12    1    3    3    0    0 -0.68228799096E+02 -0.32604735504E+02 -0.65372334579E+02  0.99958891209E+02  0.00000000000E+00 0. -1.
        -13    1    4    4    0    0 -0.68243381624E+02  0.15773324337E+02 -0.60100514196E+01  0.70299911907E+02  0.00000000000E+00 0. -1.
         13    1    4    4    0    0  0.28564531991E+02  0.13806233369E+01 -0.30434711093E+02  0.41762545995E+02  0.00000000000E+00 0.  1.
          1    1    1    2  501    0  0.89486963771E+02  0.37082226101E+02 -0.19733394182E+03  0.21982650607E+03  0.00000000000E+00 0. -1.
<scales pt_clust_5="13000.00000" pt_clust_6="13000.00000" pt_clust_7="13000.00000" pt_clust_8="13000.00000" pt_clust_9="96.86598"></scales>
<clustering>
<clus scale="   76.239">  5  6 -1 -1</clus>
<clus scale="   96.753">  7  8 -1 -1</clus>
<clus scale="   96.866">  1  9  2 -1</clus>
<clus scale="   88.194">  2  5  1 -1</clus>
<clus scale="   96.866">  1  5  2 -1</clus>
</clustering>
</event>
<event>
 9    2  0.1592151E-004  0.9254039E+02  0.7546771E-02  0.1303929E+00
         21   -1    0    0  501  502  0.00000000000E+00  0.00000000000E+00  0.30857059908E+03  0.30857059908E+03  0.00000000000E+00 0.  1.
          2   -1    0    0  502    0 -0.00000000000E+00 -0.00000000000E+00 -0.48033559335E+02  0.48033559335E+02  0.00000000000E+00 0. -1.
         24    2    1    2    0    0  0.11215689432E+02  0.71556837740E+01  0.14114118585E+02  0.82696233309E+02  0.80389446822E+02 0.  0.
         23    2    1    2    0    0 -0.81638069769E+01  0.14443890851E+02  0.22377700332E+03  0.24246443285E+03  0.91856302204E+02 0.  0.
        -13    1    3    3    0    0 -0.17242197581E+02 -0.25756812743E+02  0.22609158466E+02  0.38365099070E+02  0.00000000000E+00 0.  1.
         14    1    3    3    0    0  0.28457887013E+02  0.32912496517E+02 -0.84950398812E+01  0.44331134238E+02  0.00000000000E+00 0. -1.
        -13    1    4    4    0    0  0.65872288071E+01 -0.37914519511E+02  0.10479714558E+03  0.11163934832E+03  0.00000000000E+00 0. -1.
         13    1    4    4    0    0 -0.14751035784E+02  0.52358410363E+02  0.11897985775E+03  0.13082508453E+03  0.00000000000E+00 0.  1.
          1    1    1    2  501    0 -0.30518824556E+01 -0.21599574625E+02  0.22645917836E+02  0.31443492255E+02  0.00000000000E+00 0. -1.
<scales pt_clust_5="13000.00000" pt_clust_6="13000.00000" pt_clust_7="13000.00000" pt_clust_8="13000.00000" pt_clust_9="21.81413"></scales>
<clustering>
<clus scale="   21.814">  1  9  2 -1</clus>
<clus scale="   80.389">  5  6 -1 -1</clus>
<clus scale="   81.170">  2  5  1 -1</clus>
<clus scale="   91.856">  7  8 -1 -1</clus>
<clus scale="   21.814">  1  5  2 -1</clus>
</clustering>
</event>
<event>
 9    2  0.1592151E-004  0.1014819E+03  0.7546771E-02  0.1277353E+00
         21   -1    0    0  501  502  0.00000000000E+00  0.00000000000E+00  0.48051180534E+02  0.48051180534E+02  0.00000000000E+00 0. -1.
          2   -1    0    0  502    0 -0.00000000000E+00 -0.00000000000E+00 -0.64079794476E+03  0.64079794476E+03  0.00000000000E+00 0. -1.
         23    2    1    2    0    0 -0.11100686014E+02 -0.47038974787E+02 -0.29434539013E+03  0.30916802794E+03  0.81300494646E+02 0.  0.
         24    2    1    2    0    0 -0.60987196395E+02  0.90002831157E+02 -0.24562691214E+03  0.28054634270E+03  0.80955065919E+02 0.  0.
        -13    1    4    4    0    0 -0.48878131541E+02  0.35147193410E+02 -0.54060853119E+02  0.80913365938E+02  0.00000000000E+00 0.  1.
         14    1    4    4    0    0 -0.12109064854E+02  0.54855637747E+02 -0.19156605902E+03  0.19963297677E+03  0.00000000000E+00 0. -1.
        -13    1    3    3    0    0 -0.42549548862E+02 -0.22790461011E+02 -0.21606325717E+03  0.22138925069E+03  0.00000000000E+00 0.  1.
         13    1    3    3    0    0  0.31448862848E+02 -0.24248513776E+02 -0.78282132962E+02  0.87778777252E+02  0.00000000000E+00 0. -1.
          1    1    1    2  501    0  0.72087882409E+02 -0.42963856370E+02 -0.52774461954E+02  0.99134754647E+02  0.00000000000E+00 0. -1.
<scales pt_clust_5="13000.00000" pt_clust_6="13000.00000" pt_clust_7="13000.00000" pt_clust_8="13000.00000" pt_clust_9="83.91994"></scales>
<clustering>
<clus scale="   80.955">  5  6 -1 -1</clus>
<clus scale="   81.300">  7  8 -1 -1</clus>
<clus scale="   83.920">  1  9  2 -1</clus>
<clus scale="  101.205">  1  5  2 -1</clus>
<clus scale="   83.920">  1  5  2 -1</clus>
</clustering>
</event>
<event>
 9    2  0.1592151E-004  0.2218310E+03  0.7546771E-02  0.1133194E+00
         21   -1    0    0  501  502  0.00000000000E+00  0.00000000000E+00  0.28368182274E+03  0.28368182274E+03  0.00000000000E+00 0.  1.
          2   -1    0    0  502    0 -0.00000000000E+00 -0.00000000000E+00 -0.40776176957E+03  0.40776176957E+03  0.00000000000E+00 0. -1.
         24    2    1    2    0    0  0.37350398979E+02 -0.23610470806E+03 -0.25832446610E+03  0.36136405805E+03  0.81926596368E+02 0.  0.
         23    2    1    2    0    0 -0.74913101092E+02  0.93205377563E+02  0.92694633580E+02  0.17659478503E+03  0.91072541877E+02 0.  0.
        -13    1    3    3    0    0  0.36239968434E+02 -0.32871981062E+02 -0.41215216552E+02  0.63973404837E+02  0.00000000000E+00 0.  1.
         14    1    3    3    0    0  0.11104305450E+01 -0.20323272700E+03 -0.21710924955E+03  0.29739065321E+03  0.00000000000E+00 0. -1.
        -13    1    4    4    0    0  0.19843074594E+02  0.13399968756E+02  0.41048042189E+01  0.24293130504E+02  0.00000000000E+00 0. -1.
         13    1    4    4    0    0 -0.94756175686E+02  0.79805408807E+02  0.88589829361E+02  0.15230165453E+03  0.00000000000E+00 0.  1.
          1    1    1    2  501    0  0.37562702113E+02  0.14289933049E+03  0.41549885692E+02  0.15348474923E+03  0.00000000000E+00 0. -1.
<scales pt_clust_5="13000.00000" pt_clust_6="13000.00000" pt_clust_7="13000.00000" pt_clust_8="13000.00000" pt_clust_9="147.75377"></scales>
<clustering>
<clus scale="   81.927">  5  6 -1 -1</clus>
<clus scale="   91.073">  7  8 -1 -1</clus>
<clus scale="  147.754">  1  9  2 -1</clus>
<clus scale="  218.236">  2  5  1 -1</clus>
<clus scale="  147.754">  1  5  2 -1</clus>
</clustering>
</event>
<event>
 9    2  0.1592151E-004  0.1244176E+03  0.7546771E-02  0.1241393E+00
          2   -1    0    0  502    0 -0.00000000000E+00  0.00000000000E+00  0.39554744302E+03  0.39554744302E+03  0.00000000000E+00 0. -1.
         21   -1    0    0  501  502  0.00000000000E+00 -0.00000000000E+00 -0.79115156459E+02  0.79115156459E+02  0.00000000000E+00 0. -1.
         24    2    1    2    0    0  0.78993076632E+02  0.16929185074E+02  0.11199797986E+03  0.15911449087E+03  0.79040307749E+02 0.  0.
         23    2    1    2    0    0 -0.75763331428E+02  0.62626698004E+02  0.59188921136E+02  0.14991057719E+03  0.96476251359E+02 0.  0.
        -13    1    3    3    0    0  0.15910431803E+02  0.42162276733E+02  0.45937525365E+02  0.64351034616E+02  0.00000000000E+00 0.  1.
         14    1    3    3    0    0  0.63082644829E+02 -0.25233091659E+02  0.66060454498E+02  0.94763456256E+02  0.00000000000E+00 0. -1.
        -11    1    4    4    0    0 -0.57283424135E+02 -0.60855106199E+01  0.39217468813E+00  0.57607099572E+02  0.00000000000E+00 0.  1.
         11    1    4    4    0    0 -0.18479907294E+02  0.68712208624E+02  0.58796746448E+02  0.92303477618E+02  0.00000000000E+00 0. -1.
          1    1    1    2  501    0 -0.32297452034E+01 -0.79555883078E+02  0.14524538556E+03  0.16563753141E+03  0.00000000000E+00 0. -1.
<scales pt_clust_5="13000.00000" pt_clust_6="13000.00000" pt_clust_7="13000.00000" pt_clust_8="13000.00000" pt_clust_9="79.62146"></scales>
<clustering>
<clus scale="   79.040">  5  6 -1 -1</clus>
<clus scale="   79.621">  2  9  1 -1</clus>
<clus scale="   96.476">  7  8 -1 -1</clus>
<clus scale="  111.443">  1  5  2 -1</clus>
<clus scale="   79.621">  2  5  1 -1</clus>
</clustering>
</event>
<event>
 9    2  0.1592151E-004  0.1335760E+03  0.7546771E-02  0.1224076E+00
          2   -1    0    0  502    0 -0.00000000000E+00  0.00000000000E+00  0.57430732449E+03  0.57430732449E+03  0.00000000000E+00 0. -1.
         21   -1    0    0  501  502  0.00000000000E+00 -0.00000000000E+00 -0.73977817127E+02  0.73977817127E+02  0.00000000000E+00 0.  1.
         23    2    1    2    0    0  0.68621606195E+02 -0.67237605148E+02  0.41721111003E+03  0.43720231143E+03  0.88605476112E+02 0.  0.
         24    2    1    2    0    0 -0.56014705311E+02  0.11109436366E+03  0.62369239411E+02  0.16095422787E+03  0.80850087172E+02 0.  0.
        -11    1    4    4    0    0 -0.29720397193E+02  0.78706865529E+02 -0.21084031963E+01  0.84157697537E+02  0.00000000000E+00 0.  1.
         12    1    4    4    0    0 -0.26294308118E+02  0.32387498130E+02  0.64477642608E+02  0.76796530330E+02  0.00000000000E+00 0. -1.
        -11    1    3    3    0    0  0.67515991586E+02 -0.56251918023E+01  0.18731807495E+03  0.19919365729E+03  0.00000000000E+00 0. -1.
         11    1    3    3    0    0  0.11056146093E+01 -0.61612413346E+02  0.22989303508E+03  0.23800865413E+03  0.00000000000E+00 0.  1.
          1    1    1    2  501    0 -0.12606900884E+02 -0.43856758511E+02  0.20749157922E+02  0.50128602329E+02  0.00000000000E+00 0. -1.
<scales pt_clust_5="13000.00000" pt_clust_6="13000.00000" pt_clust_7="13000.00000" pt_clust_8="13000.00000" pt_clust_9="45.63276"></scales>
<clustering>
<clus scale="   45.633">  2  9  1 -1</clus>
<clus scale="   80.850">  5  6 -1 -1</clus>
<clus scale="   88.605">  7  8 -1 -1</clus>
<clus scale="  128.563">  2  5  1 -1</clus>
<clus scale="   45.633">  2  5  1 -1</clus>
</clustering>
</event>
<event>
 9    2  0.1592151E-004  0.9461836E+02  0.7546771E-02  0.1298619E+00
          2   -1    0    0  502    0 -0.00000000000E+00  0.00000000000E+00  0.96280538020E+03  0.96280538020E+03  0.00000000000E+00 0. -1.
         21   -1    0    0  501  502  0.00000000000E+00 -0.00000000000E+00 -0.49245927821E+02  0.49245927821E+02  0.00000000000E+00 0. -1.
         24    2    1    2    0    0 -0.28631081185E+02 -0.15139194423E+02  0.78574364560E+03  0.79041724993E+03  0.79482189028E+02 0.  0.
         23    2    1    2    0    0 -0.22184207860E+00 -0.27934554834E+02  0.13918492072E+03  0.16855773749E+03  0.90878381067E+02 0.  0.
        -11    1    3    3    0    0 -0.11211758878E+02 -0.26653386324E+02  0.93734272499E+02  0.98092917077E+02  0.00000000000E+00 0.  1.
         12    1    3    3    0    0 -0.17419322307E+02  0.11514191901E+02  0.69200937310E+03  0.69232433285E+03  0.00000000000E+00 0. -1.
        -11    1    4    4    0    0  0.31199048455E+02  0.20874094539E+01  0.10903884261E+02  0.33115443447E+02  0.00000000000E+00 0.  1.
         11    1    4    4    0    0 -0.31420890533E+02 -0.30021964288E+02  0.12828103646E+03  0.13544229405E+03  0.00000000000E+00 0. -1.
          1    1    1    2  501    0  0.28852923264E+02  0.43073749258E+02 -0.11369113941E+02  0.53076320594E+02  0.00000000000E+00 0. -1.
<scales pt_clust_5="13000.00000" pt_clust_6="13000.00000" pt_clust_7="13000.00000" pt_clust_8="13000.00000" pt_clust_9="51.84437"></scales>
<clustering>
<clus scale="   51.844">  2  9  1 -1</clus>
<clus scale="   79.482">  5  6 -1 -1</clus>
<clus scale="   83.733">  1  5  2 -1</clus>
<clus scale="   90.878">  7  8 -1 -1</clus>
<clus scale="   51.844">  2  5  1 -1</clus>
</clustering>
</event>
<event>
 9    2  0.1592151E-004  0.4533820E+03  0.7546771E-02  0.1026718E+00
          2   -1    0    0  502    0 -0.00000000000E+00  0.00000000000E+00  0.13189554472E+04  0.13189554472E+04  0.00000000000E+00 0. -1.
         21   -1    0    0  501  502  0.00000000000E+00 -0.00000000000E+00 -0.14721798942E+03  0.14721798942E+03  0.00000000000E+00 0. -1.
         24    2    1    2    0    0  0.19985137402E+03  0.24229691345E+03  0.69469863209E+03  0.76676793018E+03  0.81722110559E+02 0.  0.
         23    2    1    2    0    0 -0.33653078386E+01  0.82561875012E+02  0.17592807221E+03  0.21483591135E+03  0.91520455145E+02 0.  0.
        -13    1    3    3    0    0  0.73628309439E+02  0.12877869144E+03  0.24905261003E+03  0.28988322112E+03  0.00000000000E+00 0.  1.
         14    1    3    3    0    0  0.12622306458E+03  0.11351822201E+03  0.44564602206E+03  0.47688470906E+03  0.00000000000E+00 0. -1.
        -11    1    4    4    0    0 -0.26401061952E+01  0.45619509339E+02  0.17166319684E+03  0.17764110713E+03  0.00000000000E+00 0. -1.
         11    1    4    4    0    0 -0.72520164349E+00  0.36942365673E+02  0.42648753735E+01  0.37194804219E+02  0.00000000000E+00 0.  1.
          1    1    1    2  501    0 -0.19648606618E+03 -0.32485878846E+03  0.30111075350E+03  0.48456959512E+03  0.00000000000E+00 0. -1.
<scales pt_clust_5="13000.00000" pt_clust_6="13000.00000" pt_clust_7="13000.00000" pt_clust_8="13000.00000" pt_clust_9="379.65775"></scales>
<clustering>
<clus scale="   81.722">  5  6 -1 -1</clus>
<clus scale="   91.520">  7  8 -1 -1</clus>
<clus scale="  112.421">  5  7 -1 -1</clus>
<clus scale="  379.658">  2  9  1 -1</clus>
<clus scale="  379.658">  2  5  1 -1</clus>
</clustering>
</event>
<event>
 9    2  0.1592151E-004  0.1137651E+03  0.7546771E-02  0.1255963E+00
         21   -1    0    0  501  502  0.00000000000E+00  0.00000000000E+00  0.40078838178E+03  0.40078838178E+03  0.00000000000E+00 0. -1.
          2   -1    0    0  502    0 -0.00000000000E+00 -0.00000000000E+00 -0.16923257321E+03  0.16923257321E+03  0.00000000000E+00 0. -1.
         23    2    1    2    0    0 -0.38978730737E+02  0.60494255133E+02 -0.84758151599E+02  0.14473478303E+03  0.92656984639E+02 0.  0.
         24    2    1    2    0    0 -0.26928891131E+02 -0.69937099533E+02  0.13589641136E+02  0.11532650479E+03  0.86597697967E+02 0.  0.
        -11    1    4    4    0    0 -0.12282612428E+01 -0.81319394598E+02  0.24859234146E+02  0.85043130739E+02  0.00000000000E+00 0.  1.
         12    1    4    4    0    0 -0.25700629888E+02  0.11382295065E+02 -0.11269593010E+02  0.30283374056E+02  0.00000000000E+00 0. -1.
        -11    1    3    3    0    0 -0.63967910471E+02  0.46858297191E+02 -0.85030494647E+02  0.11626598215E+03  0.00000000000E+00 0. -1.
         11    1    3    3    0    0  0.24989179734E+02  0.13635957942E+02  0.27234304787E+00  0.28468800879E+02  0.00000000000E+00 0.  1.
          1    1    1    2  501    0  0.65907621868E+02  0.94428444000E+01  0.30272431903E+03  0.30995966716E+03  0.00000000000E+00 0. -1.
<scales pt_clust_5="13000.00000" pt_clust_6="13000.00000" pt_clust_7="13000.00000" pt_clust_8="13000.00000" pt_clust_9="66.58064"></scales>
<clustering>
<clus scale="   66.581">  1  9  2 -1</clus>
<clus scale="   86.598">  5  6 -1 -1</clus>
<clus scale="   92.657">  7  8 -1 -1</clus>
<clus scale="  108.887">  1  5  2 -1</clus>
<clus scale="   66.581">  1  5  2 -1</clus>
</clustering>
</event>
<event>
 9    2  0.2316559E-004  0.1479825E+03  0.7546771E-02  0.1221263E+00
         -1   -1    0    0    0  501 -0.00000000000E+00  0.00000000000E+00  0.10149968497E+04  0.10149968497E+04  0.00000000000E+00 0.  1.
         21   -1    0    0  501  502  0.00000000000E+00 -0.00000000000E+00 -0.73058723952E+02  0.73058723952E+02  0.00000000000E+00 0.  1.
         24    2    1    2    0    0 -0.57068496588E+02  0.17361376451E+02  0.64816093060E+03  0.65587203803E+03  0.80605878263E+02 0.  0.
         23    2    1    2    0    0 -0.69362350045E+02  0.64891714635E+02  0.51273935282E+02  0.14659964073E+03  0.99198628980E+02 0.  0.
        -13    1    3    3    0    0 -0.65886756685E+02  0.38340813388E+02  0.45032870439E+03  0.45673518003E+03  0.00000000000E+00 0.  1.
         14    1    3    3    0    0  0.88182600968E+01 -0.20979436937E+02  0.19783222621E+03  0.19913685800E+03  0.00000000000E+00 0. -1.
        -13    1    4    4    0    0 -0.94786556670E+02  0.57105317020E+02  0.43433280736E+02  0.11887791398E+03  0.00000000000E+00 0.  1.
         13    1    4    4    0    0  0.25424206625E+02  0.77863976149E+01  0.78406545460E+01  0.27721726750E+02  0.00000000000E+00 0. -1.
         -2    1    1    2    0  502  0.12643084663E+03 -0.82253091086E+02  0.24250325982E+03  0.28558389485E+03  0.00000000000E+00 0.  1.
<scales pt_clust_5="13000.00000" pt_clust_6="13000.00000" pt_clust_7="13000.00000" pt_clust_8="13000.00000" pt_clust_9="109.81101"></scales>
<clustering>
<clus scale="   80.606">  5  6 -1 -1</clus>
<clus scale="   99.199">  7  8 -1 -1</clus>
<clus scale="  100.277">  1  5  2 -1</clus>
<clus scale="  109.811">  2  9  1 -1</clus>
<clus scale="  109.811">  2  5  1 -1</clus>
</clustering>
</event>
<event>
 9    2  0.1592151E-004  0.1066635E+03  0.7546771E-02  0.1269662E+00
         21   -1    0    0  501  502  0.00000000000E+00  0.00000000000E+00  0.10143105700E+03  0.10143105700E+03  0.00000000000E+00 0. -1.
          2   -1    0    0  502    0 -0.00000000000E+00 -0.00000000000E+00 -0.27616768131E+03  0.27616768131E+03  0.00000000000E+00 0. -1.
         24    2    1    2    0    0 -0.62066505626E+02 -0.14164465371E+02 -0.50364941425E+02  0.11625972292E+03  0.83227475325E+02 0.  0.
         23    2    1    2    0    0  0.32644427391E+02  0.42356306745E+02  0.24090065543E+02  0.10738665472E+03  0.89954694117E+02 0.  0.
        -11    1    3    3    0    0 -0.14773798522E+02  0.19820681433E+02 -0.52451271652E+02  0.57985001795E+02  0.00000000000E+00 0.  1.
         12    1    3    3    0    0 -0.47292707104E+02 -0.33985146804E+02  0.20863302271E+01  0.58274721126E+02  0.00000000000E+00 0. -1.
        -11    1    4    4    0    0  0.45245124870E+02  0.63349616220E+02  0.27716912467E+02  0.82634874215E+02  0.00000000000E+00 0. -1.
         11    1    4    4    0    0 -0.12600697479E+02 -0.20993309475E+02 -0.36268469243E+01  0.24751780507E+02  0.00000000000E+00 0.  1.
          1    1    1    2  501    0  0.29422078235E+02 -0.28191841374E+02 -0.14846174843E+03  0.15395236067E+03  0.00000000000E+00 0. -1.
<scales pt_clust_5="13000.00000" pt_clust_6="13000.00000" pt_clust_7="13000.00000" pt_clust_8="13000.00000" pt_clust_9="40.74850"></scales>
<clustering>
<clus scale="   40.749">  1  9  2 -1</clus>
<clus scale="   83.227">  5  6 -1 -1</clus>
<clus scale="   89.955">  7  8 -1 -1</clus>
<clus scale="  101.055">  2  5  1 -1</clus>
<clus scale="   40.749">  1  5  2 -1</clus>
</clustering>
</event>
<event>
 9    2  0.1592151E-004  0.1303871E+03  0.7546771E-02  0.1227773E+00
          2   -1    0    0  502    0 -0.00000000000E+00  0.00000000000E+00  0.11349295804E+04  0.11349295804E+04  0.00000000000E+00 0. -1.
         21   -1    0    0  501  502  0.00000000000E+00 -0.00000000000E+00 -0.37610525933E+02  0.37610525933E+02  0.00000000000E+00 0. -1.
         24    2    1    2    0    0  0.32757920383E+02  0.10212281286E+03  0.30943809777E+03  0.33866741679E+03  0.86264318195E+02 0.  0.
         23    2    1    2    0    0  0.73173572756E+02 -0.82732849982E+02  0.27325196892E+03  0.30809664695E+03  0.89765300234E+02 0.  0.
        -11    1    3    3    0    0  0.14616238971E+02  0.42289725523E+02  0.24435622906E+03  0.24841904518E+03  0.00000000000E+00 0.  1.
         12    1    3    3    0    0  0.18141681412E+02  0.59833087341E+02  0.65081868707E+02  0.90248371618E+02  0.00000000000E+00 0. -1.
        -13    1    4    4    0    0  0.83651117828E+02 -0.30490854650E+02  0.17267658572E+03  0.19427919340E+03  0.00000000000E+00 0. -1.
         13    1    4    4    0    0 -0.10477545073E+02 -0.52241995332E+02  0.10057538319E+03  0.11381745355E+03  0.00000000000E+00 0.  1.
          1    1    1    2  501    0 -0.10593149314E+03 -0.19389962881E+02  0.51462898780E+03  0.52577604261E+03  0.00000000000E+00 0. -1.
<scales pt_clust_5="13000.00000" pt_clust_6="13000.00000" pt_clust_7="13000.00000" pt_clust_8="13000.00000" pt_clust_9="107.69152"></scales>
<clustering>
<clus scale="   86.264">  5  6 -1 -1</clus>
<clus scale="   89.765">  7  8 -1 -1</clus>
<clus scale="  107.692">  2  9  1 -1</clus>
<clus scale="  128.002">  1  5  2 -1</clus>
<clus scale="  107.692">  2  5  1 -1</clus>
</clustering>
</event>
<event>
 9    2  0.1592151E-004  0.1900090E+03  0.7546771E-02  0.1159759E+00
          2   -1    0    0  502    0 -0.00000000000E+00  0.00000000000E+00  0.20188616145E+03  0.20188616145E+03  0.00000000000E+00 0. -1.
         21   -1    0    0  501  502  0.00000000000E+00 -0.00000000000E+00 -0.34266951367E+03  0.34266951367E+03  0.00000000000E+00 0.  1.
         23    2    1    2    0    0  0.16354220119E+03  0.42231818761E+02  0.81620151284E+02  0.20869160419E+03  0.91437183244E+02 0.  0.
         24    2    1    2    0    0 -0.16551247087E+03  0.18355107296E+02 -0.19808693544E+03  0.27054980714E+03  0.78914359740E+02 0.  0.
        -13    1    4    4    0    0 -0.14935047563E+03  0.67615765733E+01 -0.20094011438E+03  0.25045601022E+03  0.00000000000E+00 0.  1.
         14    1    4    4    0    0 -0.16161995243E+02  0.11593530723E+02  0.28531789318E+01  0.20093796926E+02  0.00000000000E+00 0. -1.
        -13    1    3    3    0    0  0.14569219621E+03 -0.36838153049E+00  0.57992473538E+02  0.15681032724E+03  0.00000000000E+00 0. -1.
         13    1    3    3    0    0  0.17850004974E+02  0.42600200291E+02  0.23627677746E+02  0.51881276951E+02  0.00000000000E+00 0.  1.
          1    1    1    2  501    0  0.19702696853E+01 -0.60586926057E+02 -0.24316568063E+02  0.65314263787E+02  0.00000000000E+00 0. -1.
<scales pt_clust_5="13000.00000" pt_clust_6="13000.00000" pt_clust_7="13000.00000" pt_clust_8="13000.00000" pt_clust_9="60.61895"></scales>
<clustering>
<clus scale="   60.619">  2  9  1 -1</clus>
<clus scale="   78.914">  5  6 -1 -1</clus>
<clus scale="   91.437">  7  8 -1 -1</clus>
<clus scale="  184.310">  2  5  1 -1</clus>
<clus scale="   60.619">  2  5  1 -1</clus>
</clustering>
</event>
<event>
 9    2  0.1592151E-004  0.1179621E+03  0.7546771E-02  0.1252659E+00
         21   -1    0    0  501  502  0.00000000000E+00  0.00000000000E+00  0.17705680936E+03  0.17705680936E+03  0.00000000000E+00 0.  1.
          2   -1    0    0  502    0 -0.00000000000E+00 -0.00000000000E+00 -0.16727988443E+03  0.16727988443E+03  0.00000000000E+00 0. -1.
         24    2    1    2    0    0 -0.96934080987E+01 -0.46970844070E+02 -0.10599316385E+03  0.15715537262E+03  0.10565527912E+03 0.  0.
         23    2    1    2    0    0  0.18343656167E+02  0.67108753430E+02  0.63202339021E+02  0.13022756361E+03  0.90136608314E+02 0.  0.
        -11    1    3    3    0    0 -0.27658960062E+02  0.17667081571E+02 -0.13429565712E+01  0.32847334371E+02  0.00000000000E+00 0.  1.
         12    1    3    3    0    0  0.17965551963E+02 -0.64637925641E+02 -0.10465020728E+03  0.12430803825E+03  0.00000000000E+00 0. -1.
        -13    1    4    4    0    0 -0.32044864968E+02  0.52311441937E+02  0.34023517879E+02  0.70149555217E+02  0.00000000000E+00 0.  1.
         13    1    4    4    0    0  0.50388521134E+02  0.14797311493E+02  0.29178821143E+02  0.60078008396E+02  0.00000000000E+00 0. -1.
          1    1    1    2  501    0 -0.86502480679E+01 -0.20137909360E+02  0.52567749763E+02  0.56953757560E+02  0.00000000000E+00 0. -1.
<scales pt_clust_5="13000.00000" pt_clust_6="13000.00000" pt_clust_7="13000.00000" pt_clust_8="13000.00000" pt_clust_9="21.91717"></scales>
<clustering>
<clus scale="   21.917">  1  9  2 -1</clus>
<clus scale="   90.137">  7  8 -1 -1</clus>
<clus scale="  104.291">  1  7  2 -1</clus>
<clus scale="  105.655">  5  6 -1 -1</clus>
<clus scale="   21.917">  1  5  2 -1</clus>
</clustering>
</event>
<event>
 9    2  0.1592151E-004  0.8541532E+02  0.7546771E-02  0.1323502E+00
         -1   -1    0    0    0  501 -0.00000000000E+00  0.00000000000E+00  0.31491342882E+03  0.31491342882E+03  0.00000000000E+00 0.  1.
         21   -1    0    0  501  502  0.00000000000E+00 -0.00000000000E+00 -0.12870594411E+03  0.12870594411E+03  0.00000000000E+00 0.  1.
         24    2    1    2    0    0 -0.11367203999E+01  0.19195406283E+02  0.25283013553E+03  0.26720359531E+03  0.84290735909E+02 0.  0.
         23    2    1    2    0    0 -0.29976273626E+01  0.40129948350E+01  0.29669124092E+02  0.77280372086E+02  0.71182224523E+02 0.  0.
        -11    1    3    3    0    0  0.40601918334E+02  0.27027710794E+01  0.10130499306E+03  0.10917198525E+03  0.00000000000E+00 0.  1.
         12    1    3    3    0    0 -0.41738638734E+02  0.16492635203E+02  0.15152514247E+03  0.15803161006E+03  0.00000000000E+00 0. -1.
        -11    1    4    4    0    0 -0.11185110227E+02 -0.22971272001E+02  0.39818330553E+02  0.47310521834E+02  0.00000000000E+00 0. -1.
         11    1    4    4    0    0  0.81874828639E+01  0.26984266836E+02 -0.10149206461E+02  0.29969850252E+02  0.00000000000E+00 0.  1.
         -2    1    1    2    0  502  0.41343477625E+01 -0.23208401118E+02 -0.96291774911E+02  0.99135405529E+02  0.00000000000E+00 0.  1.
<scales pt_clust_5="13000.00000" pt_clust_6="13000.00000" pt_clust_7="13000.00000" pt_clust_8="13000.00000" pt_clust_9="23.57377"></scales>
<clustering>
<clus scale="   23.574">  2  9  1 -1</clus>
<clus scale="   71.182">  7  8 -1 -1</clus>
<clus scale="   72.510">  2  7  1 -1</clus>
<clus scale="   84.291">  5  6 -1 -1</clus>
<clus scale="   23.574">  2  5  1 -1</clus>
</clustering>
</event>
<event>
 9    2  0.1592151E-004  0.2295522E+03  0.7546771E-02  0.1165235E+00
          2   -1    0    0  502    0 -0.00000000000E+00  0.00000000000E+00  0.53703895069E+03  0.53703895069E+03  0.00000000000E+00 0. -1.
         21   -1    0    0  501  502  0.00000000000E+00 -0.00000000000E+00 -0.21979971380E+03  0.21979971380E+03  0.00000000000E+00 0. -1.
         23    2    1    2    0    0 -0.13252614855E+02  0.18871225885E+02  0.88224742818E+00  0.92073145991E+02  0.89134341784E+02 0.  0.
         24    2    1    2    0    0  0.12543707575E+03 -0.19591352490E+03  0.37297606739E+03  0.44765944098E+03  0.84683286723E+02 0.  0.
        -11    1    4    4    0    0  0.36013336845E+02 -0.10912564508E+03  0.12289991128E+03  0.16825502976E+03  0.00000000000E+00 0.  1.
         12    1    4    4    0    0  0.89423738904E+02 -0.86787879815E+02  0.25007615610E+03  0.27940441123E+03  0.00000000000E+00 0. -1.
        -11    1    3    3    0    0  0.26871665446E+02  0.42525149363E+01  0.29913661937E+02  0.40435101800E+02  0.00000000000E+00 0.  1.
         11    1    3    3    0    0 -0.40124280301E+02  0.14618710949E+02 -0.29031414509E+02  0.51638044191E+02  0.00000000000E+00 0. -1.
          1    1    1    2  501    0 -0.11218446089E+03  0.17704229901E+03 -0.56619077927E+02  0.21710607751E+03  0.00000000000E+00 0. -1.
<scales pt_clust_5="13000.00000" pt_clust_6="13000.00000" pt_clust_7="13000.00000" pt_clust_8="13000.00000" pt_clust_9="213.36108"></scales>
<clustering>
<clus scale="   84.683">  5  6 -1 -1</clus>
<clus scale="   89.134">  7  8 -1 -1</clus>
<clus scale="   92.069">  1  7  2 -1</clus>
<clus scale="  213.361">  2  9  1 -1</clus>
<clus scale="  213.361">  2  5  1 -1</clus>
</clustering>
</event>
<event>
 9    2  0.1592151E-004  0.1119866E+03  0.7546771E-02  0.1259653E+00
         21   -1    0    0  501  502  0.00000000000E+00  0.00000000000E+00  0.11024177625E+03  0.11024177625E+03  0.00000000000E+00 0. -1.
         -3   -1    0    0    0  501 -0.00000000000E+00 -0.00000000000E+00 -0.27446695366E+03  0.27446695366E+03  0.00000000000E+00 0.  1.
         23    2    1    2    0    0 -0.80488966502E+01 -0.74308248181E+02 -0.18495207017E+03  0.21829452942E+03  0.88649494232E+02 0.  0.
         24    2    1    2    0    0 -0.41028288275E+02  0.43368760279E+02  0.35039303803E+02  0.10665914128E+03  0.81143390365E+02 0.  0.
        -13    1    4    4    0    0 -0.49139518984E+02  0.30308151630E+02 -0.10422745165E+02  0.58667793533E+02  0.00000000000E+00 0.  1.
         14    1    4    4    0    0  0.81112307089E+01  0.13060608649E+02  0.45462048968E+02  0.47991347744E+02  0.00000000000E+00 0. -1.
        -13    1    3    3    0    0  0.40118144059E+02 -0.30201395851E+02 -0.89765959026E+02  0.10285678001E+03  0.00000000000E+00 0.  1.
         13    1    3    3    0    0 -0.48167040710E+02 -0.44106852330E+02 -0.95186111144E+02  0.11543774941E+03  0.00000000000E+00 0. -1.
         -4    1    1    2    0  502  0.49077184925E+02  0.30939487902E+02 -0.14312411043E+02  0.59755059214E+02  0.00000000000E+00 0.  1.
<scales pt_clust_5="13000.00000" pt_clust_6="13000.00000" pt_clust_7="13000.00000" pt_clust_8="13000.00000" pt_clust_9="58.01570"></scales>
<clustering>
<clus scale="   58.016">  1  9  2 -1</clus>
<clus scale="   81.143">  5  6 -1 -1</clus>
<clus scale="   88.649">  7  8 -1 -1</clus>
<clus scale="  106.144">  1  5  2 -1</clus>
<clus scale="   58.016">  1  5  2 -1</clus>
</clustering>
</event>
<event>
 9    2  0.1592151E-004  0.1140692E+03  0.7546771E-02  0.1256093E+00
          2   -1    0    0  502    0 -0.00000000000E+00  0.00000000000E+00  0.31951715330E+03  0.31951715330E+03  0.00000000000E+00 0. -1.
         21   -1    0    0  501  502  0.00000000000E+00 -0.00000000000E+00 -0.75900876803E+02  0.75900876803E+02  0.00000000000E+00 0. -1.
         23    2    1    2    0    0 -0.14072386709E+02  0.62036085448E+02  0.14475270317E+03  0.17967081137E+03  0.85333155453E+02 0.  0.
         24    2    1    2    0    0 -0.47988537462E+01 -0.11073980251E+03  0.48633255531E+02  0.14328163657E+03  0.76668774459E+02 0.  0.
        -11    1    4    4    0    0  0.20734816721E+02 -0.10535682046E+03  0.46766551103E+02  0.11712003477E+03  0.00000000000E+00 0.  1.
         12    1    4    4    0    0 -0.25533670467E+02 -0.53829820470E+01  0.18667044283E+01  0.26161601799E+02  0.00000000000E+00 0. -1.
        -11    1    3    3    0    0 -0.36993206319E+02  0.70693992768E+01  0.94566374288E+02  0.10179033778E+03  0.00000000000E+00 0.  1.
         11    1    3    3    0    0  0.22920819610E+02  0.54966686171E+02  0.50186328882E+02  0.77880473591E+02  0.00000000000E+00 0. -1.
          1    1    1    2  501    0  0.18871240455E+02  0.48703717061E+02  0.50230317795E+02  0.72465582159E+02  0.00000000000E+00 0. -1.
<scales pt_clust_5="13000.00000" pt_clust_6="13000.00000" pt_clust_7="13000.00000" pt_clust_8="13000.00000" pt_clust_9="52.23197"></scales>
<clustering>
<clus scale="   52.232">  2  9  1 -1</clus>
<clus scale="   76.669">  5  6 -1 -1</clus>
<clus scale="   85.333">  7  8 -1 -1</clus>
<clus scale="  107.741">  2  5  1 -1</clus>
<clus scale="   52.232">  2  5  1 -1</clus>
</clustering>
</event>
<event>
 9    2  0.1592151E-004  0.1615312E+03  0.7546771E-02  0.1210712E+00
          4   -1    0    0  502    0 -0.00000000000E+00  0.00000000000E+00  0.28601091658E+03  0.28601091658E+03  0.00000000000E+00 0. -1.
         21   -1    0    0  501  502  0.00000000000E+00 -0.00000000000E+00 -0.21964140501E+03  0.21964140501E+03  0.00000000000E+00 0.  1.
         24    2    1    2    0    0  0.18819008685E+02 -0.49632364762E+02  0.16206010523E+03  0.18854720979E+03  0.80430379167E+02 0.  0.
         23    2    1    2    0    0 -0.72547076947E+02  0.14421941553E+03 -0.97268565416E+02  0.20831216401E+03  0.88715644997E+02 0.  0.
        -11    1    3    3    0    0  0.19854914893E+02  0.10201872978E+02  0.99501661513E+02  0.10197488172E+03  0.00000000000E+00 0.  1.
         12    1    3    3    0    0 -0.10359062079E+01 -0.59834237740E+02  0.62558443720E+02  0.86572328075E+02  0.00000000000E+00 0. -1.
        -11    1    4    4    0    0 -0.87792022672E+01  0.11184436669E+03 -0.51829976510E+02  0.12358229330E+03  0.00000000000E+00 0.  1.
         11    1    4    4    0    0 -0.63767874679E+02  0.32375048840E+02 -0.45438588906E+02  0.84729870709E+02  0.00000000000E+00 0. -1.
          3    1    1    2  501    0  0.53728068262E+02 -0.94587050769E+02  0.15779717500E+01  0.10879294778E+03  0.00000000000E+00 0. -1.
<scales pt_clust_5="13000.00000" pt_clust_6="13000.00000" pt_clust_7="13000.00000" pt_clust_8="13000.00000" pt_clust_9="134.98850"></scales>
<clustering>
<clus scale="   80.430">  5  6 -1 -1</clus>
<clus scale="   88.716">  7  8 -1 -1</clus>
<clus scale="   96.367">  1  5  2 -1</clus>
<clus scale="  134.989">  2  9  1 -1</clus>
<clus scale="  134.989">  2  5  1 -1</clus>
</clustering>
</event>
<event>
 9    2  0.1592151E-004  0.1644092E+03  0.7546771E-02  0.1185945E+00
          2   -1    0    0  502    0 -0.00000000000E+00  0.00000000000E+00  0.36155377740E+03  0.36155377740E+03  0.00000000000E+00 0. -1.
         21   -1    0    0  501  502  0.00000000000E+00 -0.00000000000E+00 -0.12085540426E+03  0.12085540426E+03  0.00000000000E+00 0.  1.
         24    2    1    2    0    0 -0.10830129138E+03 -0.91955033447E+02  0.24746584120E+03  0.29563051495E+03  0.77286227240E+02 0.  0.
         23    2    1    2    0    0  0.93466023387E+02  0.76264717238E+02  0.19417487864E+02  0.15283867385E+03  0.91817301010E+02 0.  0.
        -11    1    3    3    0    0 -0.32083017158E+02 -0.23606263830E+02  0.16729920263E+02  0.43202614666E+02  0.00000000000E+00 0.  1.
         12    1    3    3    0    0 -0.76218274219E+02 -0.68348769617E+02  0.23073592094E+03  0.25242790029E+03  0.00000000000E+00 0. -1.
        -13    1    4    4    0    0  0.32875313456E+00  0.56236333991E+02  0.98452630570E+01  0.57092578712E+02  0.00000000000E+00 0.  1.
         13    1    4    4    0    0  0.93137270252E+02  0.20028383247E+02  0.95722248075E+01  0.95746095133E+02  0.00000000000E+00 0. -1.
          1    1    1    2  501    0  0.14835267990E+02  0.15690316208E+02 -0.26184955917E+02  0.33939992862E+02  0.00000000000E+00 0. -1.
<scales pt_clust_5="13000.00000" pt_clust_6="13000.00000" pt_clust_7="13000.00000" pt_clust_8="13000.00000" pt_clust_9="21.59331"></scales>
<clustering>
<clus scale="   21.593">  2  9  1 -1</clus>
<clus scale="   77.286">  5  6 -1 -1</clus>
<clus scale="   91.817">  7  8 -1 -1</clus>
<clus scale="  156.758">  1  5  2 -1</clus>
<clus scale="   21.593">  2  5  1 -1</clus>
</clustering>
</event>
<event>
 9    2  0.1592151E-004  0.9112082E+02  0.7546771E-02  0.1304068E+00
         21   -1    0    0  501  502  0.00000000000E+00  0.00000000000E+00  0.64273706350E+02  0.64273706350E+02  0.00000000000E+00 0. -1.
          2   -1    0    0  502    0 -0.00000000000E+00 -0.00000000000E+00 -0.40378266982E+03  0.40378266982E+03  0.00000000000E+00 0. -1.
         24    2    1    2    0    0  0.17664444137E+02  0.20796030744E+02 -0.32391644235E+03  0.33492970259E+03  0.80694092538E+02 0.  0.
         23    2    1    2    0    0  0.15504004078E+02 -0.31017554258E+02  0.25258730080E+01  0.93974384941E+02  0.87306026000E+02 0.  0.
        -13    1    3    3    0    0  0.47409563734E+02  0.90073461115E+01 -0.24619329720E+03  0.25087833426E+03  0.00000000000E+00 0.  1.
         14    1    3    3    0    0 -0.29745119597E+02  0.11788684632E+02 -0.77723145154E+02  0.84051368328E+02  0.00000000000E+00 0. -1.
        -11    1    4    4    0    0 -0.21280986618E+02 -0.39764152566E+02 -0.20674366800E+02  0.49613482677E+02  0.00000000000E+00 0.  1.
         11    1    4    4    0    0  0.36784990697E+02  0.87465983075E+01  0.23200239808E+02  0.44360902264E+02  0.00000000000E+00 0. -1.
          1    1    1    2  501    0 -0.33168448215E+02  0.10221523515E+02 -0.18118394129E+02  0.39152288640E+02  0.00000000000E+00 0. -1.
<scales pt_clust_5="13000.00000" pt_clust_6="13000.00000" pt_clust_7="13000.00000" pt_clust_8="13000.00000" pt_clust_9="34.70772"></scales>
<clustering>
<clus scale="   34.708">  1  9  2 -1</clus>
<clus scale="   80.694">  5  6 -1 -1</clus>
<clus scale="   84.807">  2  5  1 -1</clus>
<clus scale="   87.306">  7  8 -1 -1</clus>
<clus scale="   34.708">  1  5  2 -1</clus>
</clustering>
</event>
<event>
 9    2  0.1592151E-004  0.1521339E+03  0.7546771E-02  0.1199842E+00
         21   -1    0    0  501  502  0.00000000000E+00  0.00000000000E+00  0.11908087515E+03  0.11908087515E+03  0.00000000000E+00 0. -1.
          2   -1    0    0  502    0 -0.00000000000E+00 -0.00000000000E+00 -0.10261771863E+04  0.10261771863E+04  0.00000000000E+00 0. -1.
         24    2    1    2    0    0 -0.32148680771E+02  0.11334861478E+03 -0.78122684874E+03  0.79410065014E+03  0.79993794775E+02 0.  0.
         23    2    1    2    0    0 -0.19021129473E+01 -0.14696259818E+03 -0.19908531210E+03  0.26369360697E+03  0.91091896279E+02 0.  0.
        -13    1    3    3    0    0  0.80575705727E+01  0.56044895600E+02 -0.17708544052E+03  0.18591720741E+03  0.00000000000E+00 0.  1.
         14    1    3    3    0    0 -0.40206251343E+02  0.57303719180E+02 -0.60414140822E+03  0.60818344273E+03  0.00000000000E+00 0. -1.
        -13    1    4    4    0    0 -0.24821460632E+02 -0.13542397330E+03 -0.12750136548E+03  0.18764955543E+03  0.00000000000E+00 0.  1.
         13    1    4    4    0    0  0.22919347685E+02 -0.11538624882E+02 -0.71583946616E+02  0.76044051546E+02  0.00000000000E+00 0. -1.
          1    1    1    2  501    0  0.34050793718E+02  0.33613983403E+02  0.73215849657E+02  0.87463804366E+02  0.00000000000E+00 0. -1.
<scales pt_clust_5="13000.00000" pt_clust_6="13000.00000" pt_clust_7="13000.00000" pt_clust_8="13000.00000" pt_clust_9="47.84722"></scales>
<clustering>
<clus scale="   47.847">  1  9  2 -1</clus>
<clus scale="   79.994">  5  6 -1 -1</clus>
<clus scale="   91.092">  7  8 -1 -1</clus>
<clus scale="  145.760">  2  5  1 -1</clus>
<clus scale="   47.847">  1  5  2 -1</clus>
</clustering>
</event>
<event>
 9    2  0.1592151E-004  0.1125720E+03  0.7546771E-02  0.1259320E+00
          2   -1    0    0  502    0 -0.00000000000E+00  0.00000000000E+00  0.10133853591E+03  0.10133853591E+03  0.00000000000E+00 0. -1.
         21   -1    0    0  501  502  0.00000000000E+00 -0.00000000000E+00 -0.27045071670E+03  0.27045071670E+03  0.00000000000E+00 0. -1.
         23    2    1    2    0    0 -0.60859796691E+02 -0.63613761590E+01 -0.11215903866E+02  0.10944277760E+03  0.90041896411E+02 0.  0.
         24    2    1    2    0    0  0.63092827774E+02  0.49657386865E+02 -0.17135807698E+02  0.11506089979E+03  0.80615220448E+02 0.  0.
        -11    1    4    4    0    0  0.50566562760E+02  0.73744230596E+01 -0.40454260583E+02  0.65175966308E+02  0.00000000000E+00 0.  1.
         12    1    4    4    0    0  0.12526265014E+02  0.42282963805E+02  0.23318452885E+02  0.49884933480E+02  0.00000000000E+00 0. -1.
        -11    1    3    3    0    0 -0.54722725788E+02 -0.42892108922E+02 -0.17912944501E+02  0.71799605194E+02  0.00000000000E+00 0. -1.
         11    1    3    3    0    0 -0.61370709031E+01  0.36530732763E+02  0.66970406343E+01  0.37643172405E+02  0.00000000000E+00 0.  1.
          1    1    1    2  501    0 -0.22330310830E+01 -0.43296010706E+02 -0.14076046922E+03  0.14728557522E+03  0.00000000000E+00 0. -1.
<scales pt_clust_5="13000.00000" pt_clust_6="13000.00000" pt_clust_7="13000.00000" pt_clust_8="13000.00000" pt_clust_9="43.35356"></scales>
<clustering>
<clus scale="   43.354">  2  9  1 -1</clus>
<clus scale="   80.615">  5  6 -1 -1</clus>
<clus scale="   90.042">  7  8 -1 -1</clus>
<clus scale="  105.184">  2  5  1 -1</clus>
<clus scale="   43.354">  2  5  1 -1</clus>
</clustering>
</event>
<event>
 9    2  0.1592151E-004  0.1855568E+03  0.7546771E-02  0.1163226E+00
          2   -1    0    0  502    0 -0.00000000000E+00  0.00000000000E+00  0.49106418588E+03  0.49106418588E+03  0.00000000000E+00 0. -1.
         21   -1    0    0  501  502  0.00000000000E+00 -0.00000000000E+00 -0.12522315953E+03  0.12522315953E+03  0.00000000000E+00 0. -1.
         24    2    1    2    0    0 -0.15808376294E+03  0.48538144822E+02  0.26974096627E+03  0.32596365558E+03  0.78394440275E+02 0.  0.
         23    2    1    2    0    0  0.14064001165E+03 -0.93155162673E+02  0.68775063136E+01  0.18905362100E+03  0.85067469172E+02 0.  0.
        -13    1    3    3    0    0 -0.31260544954E+02  0.41831740381E+02  0.50799177166E+02  0.72853775296E+02  0.00000000000E+00 0.  1.
         14    1    3    3    0    0 -0.12682321799E+03  0.67064044416E+01  0.21894178910E+03  0.25310988028E+03  0.00000000000E+00 0. -1.
        -11    1    4    4    0    0  0.10237773970E+03 -0.10711885903E+03  0.41696032381E+01  0.14823305009E+03  0.00000000000E+00 0. -1.
         11    1    4    4    0    0  0.38262271953E+02  0.13963696360E+02  0.27079030755E+01  0.40820570918E+02  0.00000000000E+00 0.  1.
          1    1    1    2  501    0  0.17443751287E+02  0.44617017850E+02  0.89222553765E+02  0.10127006883E+03  0.00000000000E+00 0. -1.
<scales pt_clust_5="13000.00000" pt_clust_6="13000.00000" pt_clust_7="13000.00000" pt_clust_8="13000.00000" pt_clust_9="47.90579"></scales>
<clustering>
<clus scale="   47.906">  2  9  1 -1</clus>
<clus scale="   78.394">  5  6 -1 -1</clus>
<clus scale="   85.067">  7  8 -1 -1</clus>
<clus scale="  182.594">  1  5  2 -1</clus>
<clus scale="   47.906">  2  5  1 -1</clus>
</clustering>
</event>
<event>
 9    2  0.1592151E-004  0.9991701E+02  0.7546771E-02  0.1285553E+00
         21   -1    0    0  501  502  0.00000000000E+00  0.00000000000E+00  0.98558624561E+02  0.98558624561E+02  0.00000000000E+00 0. -1.
          2   -1    0    0  502    0 -0.00000000000E+00 -0.00000000000E+00 -0.34561532231E+03  0.34561532231E+03  0.00000000000E+00 0. -1.
         24    2    1    2    0    0  0.32348583164E+02 -0.42830383840E+02 -0.25462521584E+03  0.27258247347E+03  0.81156217795E+02 0.  0.
         23    2    1    2    0    0  0.17209418003E+02 -0.13975608122E+02 -0.90956667386E+01  0.94386478373E+02  0.91294000109E+02 0.  0.
        -11    1    3    3    0    0  0.53007748080E+02 -0.79787629484E+01 -0.10963563258E+03  0.12203873953E+03  0.00000000000E+00 0.  1.
         12    1    3    3    0    0 -0.20659164916E+02 -0.34851620892E+02 -0.14498958326E+03  0.15054373394E+03  0.00000000000E+00 0. -1.
        -11    1    4    4    0    0 -0.52679323815E+01  0.32662562826E+02 -0.23578461086E+02  0.40626813179E+02  0.00000000000E+00 0.  1.
         11    1    4    4    0    0  0.22477350384E+02 -0.46638170947E+02  0.14482794348E+02  0.53759665194E+02  0.00000000000E+00 0. -1.
          1    1    1    2  501    0 -0.49558001167E+02  0.56805991962E+02  0.16664184827E+02  0.77204995035E+02  0.00000000000E+00 0. -1.
<scales pt_clust_5="13000.00000" pt_clust_6="13000.00000" pt_clust_7="13000.00000" pt_clust_8="13000.00000" pt_clust_9="75.38512"></scales>
<clustering>
<clus scale="   75.385">  1  9  2 -1</clus>
<clus scale="   81.156">  5  6 -1 -1</clus>
<clus scale="   90.748">  2  5  1 -1</clus>
<clus scale="   91.294">  7  8 -1 -1</clus>
<clus scale="   75.385">  1  5  2 -1</clus>
</clustering>
</event>
<event>
 9    2  0.1592151E-004  0.9869053E+02  0.7546771E-02  0.1283596E+00
          2   -1    0    0  502    0 -0.00000000000E+00  0.00000000000E+00  0.61659884055E+03  0.61659884055E+03  0.00000000000E+00 0. -1.
         21   -1    0    0  501  502  0.00000000000E+00 -0.00000000000E+00 -0.39629857462E+02  0.39629857462E+02  0.00000000000E+00 0. -1.
         24    2    1    2    0    0  0.65935210430E+02  0.42272352339E+02  0.24317384973E+03  0.26872820445E+03  0.83348202899E+02 0.  0.
         23    2    1    2    0    0  0.14440255393E+01 -0.16623156035E+02  0.56847461630E+02  0.10132247976E+03  0.82196085577E+02 0.  0.
        -13    1    3    3    0    0  0.40706922758E+02  0.22018360034E+02  0.34920322144E+02  0.57976638723E+02  0.00000000000E+00 0.  1.
         14    1    3    3    0    0  0.25228287672E+02  0.20253992306E+02  0.20825352759E+03  0.21075156573E+03  0.00000000000E+00 0. -1.
        -13    1    4    4    0    0  0.27709572004E+02  0.96827966023E+01 -0.43960195886E+01  0.29679991896E+02  0.00000000000E+00 0. -1.
         13    1    4    4    0    0 -0.26265546465E+02 -0.26305952638E+02  0.61243481218E+02  0.71642487862E+02  0.00000000000E+00 0.  1.
          1    1    1    2  501    0 -0.67379235969E+02 -0.25649196304E+02  0.27694767173E+03  0.28617801381E+03  0.00000000000E+00 0. -1.
<scales pt_clust_5="13000.00000" pt_clust_6="13000.00000" pt_clust_7="13000.00000" pt_clust_8="13000.00000" pt_clust_9="72.09610"></scales>
<clustering>
<clus scale="   72.096">  2  9  1 -1</clus>
<clus scale="   82.196">  7  8 -1 -1</clus>
<clus scale="   83.348">  5  6 -1 -1</clus>
<clus scale="   97.719">  2  7  1 -1</clus>
<clus scale="   72.096">  2  5  1 -1</clus>
</clustering>
</event>
<event>
 9    2  0.1592151E-004  0.2471600E+03  0.7546771E-02  0.1115540E+00
          2   -1    0    0  502    0 -0.00000000000E+00  0.00000000000E+00  0.53747713538E+03  0.53747713538E+03  0.00000000000E+00 0. -1.
         21   -1    0    0  501  502  0.00000000000E+00 -0.00000000000E+00 -0.36335038044E+03  0.36335038044E+03  0.00000000000E+00 0.  1.
         24    2    1    2    0    0  0.20576563934E+03 -0.10981036179E+03  0.25206158796E+03  0.35353607086E+03  0.83993424651E+02 0.  0.
         23    2    1    2    0    0 -0.89896320366E+02  0.25501228656E+03 -0.17790694040E+03  0.33633239611E+03  0.91411085319E+02 0.  0.
        -11    1    3    3    0    0  0.16921334128E+02 -0.26157951996E+02  0.50664494258E+01  0.31563252543E+02  0.00000000000E+00 0.  1.
         12    1    3    3    0    0  0.18884430522E+03 -0.83652409791E+02  0.24699513853E+03  0.32197281832E+03  0.00000000000E+00 0. -1.
        -13    1    4    4    0    0 -0.26023724463E+02  0.10143709724E+02 -0.17303331664E+01  0.27984337311E+02  0.00000000000E+00 0. -1.
         13    1    4    4    0    0 -0.63872595903E+02  0.24486857683E+03 -0.17617660723E+03  0.30834805880E+03  0.00000000000E+00 0.  1.
          1    1    1    2  501    0 -0.11586931898E+03 -0.14520192477E+03  0.99972107375E+02  0.21095904885E+03  0.00000000000E+00 0. -1.
<scales pt_clust_5="13000.00000" pt_clust_6="13000.00000" pt_clust_7="13000.00000" pt_clust_8="13000.00000" pt_clust_9="185.76688"></scales>
<clustering>
<clus scale="   83.993">  5  6 -1 -1</clus>
<clus scale="   91.411">  7  8 -1 -1</clus>
<clus scale="  185.767">  2  9  1 -1</clus>
<clus scale="  244.514">  1  5  2 -1</clus>
<clus scale="  185.767">  2  5  1 -1</clus>
</clustering>
</event>
<event>
 9    2  0.1592151E-004  0.1472042E+03  0.7546771E-02  0.1229454E+00
          2   -1    0    0  502    0 -0.00000000000E+00  0.00000000000E+00  0.11236074670E+03  0.11236074670E+03  0.00000000000E+00 0. -1.
         21   -1    0    0  501  502  0.00000000000E+00 -0.00000000000E+00 -0.28848725366E+03  0.28848725366E+03  0.00000000000E+00 0. -1.
         24    2    1    2    0    0  0.23873912272E+02  0.19718166844E+02 -0.29504140146E+02  0.90836418613E+02  0.80137325073E+02 0.  0.
         23    2    1    2    0    0 -0.94924658316E+02 -0.84706615379E+02 -0.14431133266E+03  0.21369414908E+03  0.93024336466E+02 0.  0.
        -11    1    3    3    0    0 -0.24138109804E+02  0.28191327014E+02 -0.11313213768E+02  0.38799330786E+02  0.00000000000E+00 0.  1.
         12    1    3    3    0    0  0.48012022076E+02 -0.84731601701E+01 -0.18190926378E+02  0.52037087827E+02  0.00000000000E+00 0. -1.
        -11    1    4    4    0    0 -0.57225529984E+02 -0.59712864586E+02 -0.25475550090E+02  0.86541268372E+02  0.00000000000E+00 0. -1.
         11    1    4    4    0    0 -0.37699128332E+02 -0.24993750793E+02 -0.11883578257E+03  0.12715288071E+03  0.00000000000E+00 0.  1.
          1    1    1    2  501    0  0.71050746044E+02  0.64988448535E+02 -0.23110341588E+01  0.96317432665E+02  0.00000000000E+00 0. -1.
<scales pt_clust_5="13000.00000" pt_clust_6="13000.00000" pt_clust_7="13000.00000" pt_clust_8="13000.00000" pt_clust_9="114.08580"></scales>
<clustering>
<clus scale="   80.137">  5  6 -1 -1</clus>
<clus scale="   85.911">  1  5  2 -1</clus>
<clus scale="   93.024">  7  8 -1 -1</clus>
<clus scale="  114.086">  2  9  1 -1</clus>
<clus scale="  114.086">  2  5  1 -1</clus>
</clustering>
</event>
<event>
 9    2  0.1592151E-004  0.1117231E+03  0.7546771E-02  0.1261736E+00
          4   -1    0    0  502    0 -0.00000000000E+00  0.00000000000E+00  0.39222964368E+03  0.39222964368E+03  0.00000000000E+00 0. -1.
         21   -1    0    0  501  502  0.00000000000E+00 -0.00000000000E+00 -0.95849916505E+02  0.95849916505E+02  0.00000000000E+00 0. -1.
         24    2    1    2    0    0 -0.57637730789E+02  0.37032153091E+02  0.28392940533E+03  0.30250725397E+03  0.78747972145E+02 0.  0.
         23    2    1    2    0    0  0.25715225416E+02 -0.36437694731E+02 -0.52224143623E+02  0.11344612364E+03  0.90297748457E+02 0.  0.
        -11    1    3    3    0    0 -0.52952169824E+02 -0.83805994610E+01  0.10563522432E+03  0.11846082624E+03  0.00000000000E+00 0.  1.
         12    1    3    3    0    0 -0.46855609650E+01  0.45412752552E+02  0.17829418101E+03  0.18404642773E+03  0.00000000000E+00 0. -1.
        -11    1    4    4    0    0 -0.18657779469E+02 -0.25843059566E+02  0.12518869683E+02  0.34244686603E+02  0.00000000000E+00 0.  1.
         11    1    4    4    0    0  0.44373004885E+02 -0.10594635165E+02 -0.64743013306E+02  0.79201437037E+02  0.00000000000E+00 0. -1.
          3    1    1    2  501    0  0.31922505372E+02 -0.59445836090E+00  0.64674465471E+02  0.72126182583E+02  0.00000000000E+00 0. -1.
<scales pt_clust_5="13000.00000" pt_clust_6="13000.00000" pt_clust_7="13000.00000" pt_clust_8="13000.00000" pt_clust_9="31.92806"></scales>
<clustering>
<clus scale="   31.928">  2  9  1 -1</clus>
<clus scale="   78.748">  5  6 -1 -1</clus>
<clus scale="   90.298">  7  8 -1 -1</clus>
<clus scale="  102.614">  1  5  2 -1</clus>
<clus scale="   31.928">  2  5  1 -1</clus>
</clustering>
</event>
<event>
 9    2  0.1592151E-004  0.1257063E+03  0.7546771E-02  0.1236537E+00
         21   -1    0    0  501  502  0.00000000000E+00  0.00000000000E+00  0.14551669077E+03  0.14551669077E+03  0.00000000000E+00 0. -1.
         -1   -1    0    0    0  501 -0.00000000000E+00 -0.00000000000E+00 -0.30855794970E+03  0.30855794970E+03  0.00000000000E+00 0.  1.
         23    2    1    2    0    0 -0.47248971300E+02 -0.69494106762E+02 -0.22830036993E+03  0.25959947228E+03  0.90603150783E+02 0.  0.
         24    2    1    2    0    0  0.33455689524E+02  0.10789540611E+03  0.64974339567E+02  0.15367081171E+03  0.81439251885E+02 0.  0.
        -11    1    4    4    0    0  0.57911171963E+02  0.52541596286E+02  0.29831920751E+02  0.83691497024E+02  0.00000000000E+00 0.  1.
         12    1    4    4    0    0 -0.24455482439E+02  0.55353809823E+02  0.35142418816E+02  0.69979314683E+02  0.00000000000E+00 0. -1.
        -11    1    3    3    0    0 -0.69277680579E+02 -0.68190687576E+02 -0.20809179490E+03  0.22967708202E+03  0.00000000000E+00 0.  1.
         11    1    3    3    0    0  0.22028709279E+02 -0.13034191858E+01 -0.20208575029E+02  0.29922390258E+02  0.00000000000E+00 0. -1.
         -2    1    1    2    0  502  0.13793281776E+02 -0.38401299348E+02  0.28477143700E+00  0.40804356489E+02  0.00000000000E+00 0.  1.
<scales pt_clust_5="13000.00000" pt_clust_6="13000.00000" pt_clust_7="13000.00000" pt_clust_8="13000.00000" pt_clust_9="40.80336"></scales>
<clustering>
<clus scale="   40.803">  1  9  2 -1</clus>
<clus scale="   81.439">  5  6 -1 -1</clus>
<clus scale="   90.603">  7  8 -1 -1</clus>
<clus scale="  119.271">  1  5  2 -1</clus>
<clus scale="   40.803">  1  5  2 -1</clus>
</clustering>
</event>
<event>
 9    2  0.1592151E-004  0.1009117E+03  0.7546771E-02  0.1282718E+00
         21   -1    0    0  501  502  0.00000000000E+00  0.00000000000E+00  0.64923705452E+02  0.64923705452E+02  0.00000000000E+00 0. -1.
          2   -1    0    0  502    0 -0.00000000000E+00 -0.00000000000E+00 -0.35585503673E+03  0.35585503673E+03  0.00000000000E+00 0. -1.
         24    2    1    2    0    0  0.14511302191E+02 -0.29416119969E+02 -0.24146544364E+03  0.25783508123E+03  0.84246558613E+02 0.  0.
         23    2    1    2    0    0 -0.27604868787E+02  0.63656913256E+02 -0.49901205183E+02  0.12628219736E+03  0.92966831211E+02 0.  0.
        -11    1    3    3    0    0  0.41870715350E+02 -0.41208727949E+02 -0.13391707403E+03  0.14623644819E+03  0.00000000000E+00 0.  1.
         12    1    3    3    0    0 -0.27359413159E+02  0.11792607980E+02 -0.10754836961E+03  0.11159863304E+03  0.00000000000E+00 0. -1.
        -11    1    4    4    0    0 -0.48043738333E+02  0.75603956846E+02 -0.50041057706E+02  0.10260734155E+03  0.00000000000E+00 0. -1.
         11    1    4    4    0    0  0.20438869546E+02 -0.11947043590E+02  0.13985252310E+00  0.23674855809E+02  0.00000000000E+00 0.  1.
          1    1    1    2  501    0  0.13093566597E+02 -0.34240793287E+02  0.43531754187E+00  0.36661463590E+02  0.00000000000E+00 0. -1.
<scales pt_clust_5="13000.00000" pt_clust_6="13000.00000" pt_clust_7="13000.00000" pt_clust_8="13000.00000" pt_clust_9="36.65888"></scales>
<clustering>
<clus scale="   36.659">  1  9  2 -1</clus>
<clus scale="   84.247">  5  6 -1 -1</clus>
<clus scale="   92.940">  2  5  1 -1</clus>
<clus scale="   92.967">  7  8 -1 -1</clus>
<clus scale="   36.659">  1  5  2 -1</clus>
</clustering>
</event>
<event>
 9    2  0.1592151E-004  0.1664642E+03  0.7546771E-02  0.1198787E+00
         21   -1    0    0  501  502  0.00000000000E+00  0.00000000000E+00  0.43905489790E+02  0.43905489790E+02  0.00000000000E+00 0. -1.
          2   -1    0    0  502    0 -0.00000000000E+00 -0.00000000000E+00 -0.12333395016E+04  0.12333395016E+04  0.00000000000E+00 0. -1.
         23    2    1    2    0    0 -0.16926347055E+02  0.67179383946E+02 -0.53757586045E+03  0.54949854781E+03  0.90339788915E+02 0.  0.
         24    2    1    2    0    0  0.14706519939E+03  0.12155535246E+02 -0.29126475742E+03  0.33626496759E+03  0.80393032032E+02 0.  0.
        -11    1    4    4    0    0  0.19934698921E+02  0.25877505948E+02 -0.10776952147E+03  0.11261131068E+03  0.00000000000E+00 0.  1.
         12    1    4    4    0    0  0.12713050047E+03 -0.13721970701E+02 -0.18349523596E+03  0.22365365691E+03  0.00000000000E+00 0. -1.
        -13    1    3    3    0    0 -0.29262303347E+02  0.85955350820E+02 -0.40714554562E+03  0.41714757586E+03  0.00000000000E+00 0. -1.
         13    1    3    3    0    0  0.12335956292E+02 -0.18775966874E+02 -0.13043031483E+03  0.13235097195E+03  0.00000000000E+00 0.  1.
          1    1    1    2  501    0 -0.13013885234E+03 -0.79334919193E+02 -0.36059339393E+03  0.39148147599E+03  0.00000000000E+00 0. -1.
<scales pt_clust_5="13000.00000" pt_clust_6="13000.00000" pt_clust_7="13000.00000" pt_clust_8="13000.00000" pt_clust_9="145.76456"></scales>
<clustering>
<clus scale="   80.393">  5  6 -1 -1</clus>
<clus scale="   90.340">  7  8 -1 -1</clus>
<clus scale="  113.846">  2  7  1 -1</clus>
<clus scale="  145.765">  1  9  2 -1</clus>
<clus scale="  145.765">  1  5  2 -1</clus>
</clustering>
</event>
<event>
 9    2  0.1592151E-004  0.2343180E+03  0.7546771E-02  0.1154775E+00
         21   -1    0    0  501  502  0.00000000000E+00  0.00000000000E+00  0.15965590908E+03  0.15965590908E+03  0.00000000000E+00 0.  1.
          2   -1    0    0  502    0 -0.00000000000E+00 -0.00000000000E+00 -0.82939010025E+03  0.82939010025E+03  0.00000000000E+00 0. -1.
         23    2    1    2    0    0 -0.33025954305E+02 -0.56002931701E+02 -0.25216815410E+02  0.11327265805E+03  0.89262339573E+02 0.  0.
         24    2    1    2    0    0  0.21848035174E+03  0.69656682570E+02 -0.43646103586E+02  0.24678523997E+03  0.80076555792E+02 0.  0.
        -11    1    4    4    0    0  0.21742898488E+03  0.77239895409E+02 -0.32145206743E+02  0.23296926670E+03  0.00000000000E+00 0.  1.
         12    1    4    4    0    0  0.10513668520E+01 -0.75832128381E+01 -0.11500896843E+02  0.13815973270E+02  0.00000000000E+00 0. -1.
        -11    1    3    3    0    0 -0.82312722146E+01 -0.54231763106E+02  0.22642829168E+02  0.59342528465E+02  0.00000000000E+00 0.  1.
         11    1    3    3    0    0 -0.24794682090E+02 -0.17711685946E+01 -0.47859644579E+02  0.53930129588E+02  0.00000000000E+00 0. -1.
          1    1    1    2  501    0 -0.18545439743E+03 -0.13653750870E+02 -0.60087127217E+03  0.62898811130E+03  0.00000000000E+00 0. -1.
<scales pt_clust_5="13000.00000" pt_clust_6="13000.00000" pt_clust_7="13000.00000" pt_clust_8="13000.00000" pt_clust_9="220.21061"></scales>
<clustering>
<clus scale="   80.077">  5  6 -1 -1</clus>
<clus scale="   89.262">  7  8 -1 -1</clus>
<clus scale="  110.430">  2  7  1 -1</clus>
<clus scale="  220.211">  1  9  2 -1</clus>
<clus scale="  220.211">  1  5  2 -1</clus>
</clustering>
</event>
<event>
 9    2  0.1592151E-004  0.1950800E+03  0.7546771E-02  0.1154841E+00
         21   -1    0    0  501  502  0.00000000000E+00  0.00000000000E+00  0.22039952174E+03  0.22039952174E+03  0.00000000000E+00 0. -1.
          2   -1    0    0  502    0 -0.00000000000E+00 -0.00000000000E+00 -0.33861210297E+03  0.33861210297E+03  0.00000000000E+00 0. -1.
         24    2    1    2    0    0  0.80255498552E+02 -0.15260774229E+03 -0.21876343473E+03  0.29229783729E+03  0.88603144744E+02 0.  0.
         23    2    1    2    0    0 -0.44883263550E+02  0.17718860332E+03  0.61454463463E+02  0.20854213236E+03  0.79390562397E+02 0.  0.
        -11    1    3    3    0    0  0.42249636412E+02 -0.10792344882E+03 -0.77729432195E+02  0.13955059015E+03  0.00000000000E+00 0.  1.
         12    1    3    3    0    0  0.38005862140E+02 -0.44684293471E+02 -0.14103400253E+03  0.15274724714E+03  0.00000000000E+00 0. -1.
        -13    1    4    4    0    0  0.18925134171E+02  0.56781777449E+02  0.20505294701E+01  0.59887691764E+02  0.00000000000E+00 0.  1.
         13    1    4    4    0    0 -0.63808397721E+02  0.12040682587E+03  0.59403933993E+02  0.14865444060E+03  0.00000000000E+00 0. -1.
          1    1    1    2  501    0 -0.35372235002E+02 -0.24580861030E+02  0.39096390041E+02  0.58171655058E+02  0.00000000000E+00 0. -1.
<scales pt_clust_5="13000.00000" pt_clust_6="13000.00000" pt_clust_7="13000.00000" pt_clust_8="13000.00000" pt_clust_9="43.07451"></scales>
<clustering>
<clus scale="   43.075">  1  9  2 -1</clus>
<clus scale="   79.391">  7  8 -1 -1</clus>
<clus scale="   88.603">  5  6 -1 -1</clus>
<clus scale="  191.072">  1  7  2 -1</clus>
<clus scale="   43.075">  1  5  2 -1</clus>
</clustering>
</event>
<event>
 9    2  0.1592151E-004  0.5288484E+03  0.7546771E-02  0.1040171E+00
         21   -1    0    0  501  502  0.00000000000E+00  0.00000000000E+00  0.65159838703E+03  0.65159838703E+03  0.00000000000E+00 0. -1.
         -3   -1    0    0    0  501 -0.00000000000E+00 -0.00000000000E+00 -0.86368691565E+03  0.86368691565E+03  0.00000000000E+00 0.  1.
         23    2    1    2    0    0  0.16984367757E+03  0.47842138148E+01 -0.34679361752E+03  0.39647524793E+03  0.89761046990E+02 0.  0.
         24    2    1    2    0    0  0.33745192327E+03  0.26836494662E+03 -0.16637628486E+03  0.46872599550E+03  0.78290775986E+02 0.  0.
        -13    1    4    4    0    0  0.32027078260E+02  0.38656905092E+01 -0.13484282664E+01  0.32287699883E+02  0.00000000000E+00 0.  1.
         14    1    4    4    0    0  0.30542484501E+03  0.26449925611E+03 -0.16502785659E+03  0.43643829562E+03  0.00000000000E+00 0. -1.
        -11    1    3    3    0    0  0.14870518459E+03 -0.29745918595E+02 -0.27634094341E+03  0.31521796998E+03  0.00000000000E+00 0.  1.
         11    1    3    3    0    0  0.21138492977E+02  0.34530132410E+02 -0.70452674112E+02  0.81257277946E+02  0.00000000000E+00 0. -1.
         -4    1    1    2    0  502 -0.50729560084E+03 -0.27314916043E+03  0.30108137376E+03  0.65008405926E+03  0.00000000000E+00 0.  1.
<scales pt_clust_5="13000.00000" pt_clust_6="13000.00000" pt_clust_7="13000.00000" pt_clust_8="13000.00000" pt_clust_9="523.02117"></scales>
<clustering>
<clus scale="   78.291">  5  6 -1 -1</clus>
<clus scale="   89.761">  7  8 -1 -1</clus>
<clus scale="  192.163">  2  7  1 -1</clus>
<clus scale="  523.021">  1  9  2 -1</clus>
<clus scale="  523.021">  1  5  2 -1</clus>
</clustering>
</event>
<event>
 9    2  0.1592151E-004  0.1165262E+03  0.7546771E-02  0.1251989E+00
         -1   -1    0    0    0  501 -0.00000000000E+00  0.00000000000E+00  0.30186025697E+03  0.30186025697E+03  0.00000000000E+00 0.  1.
         21   -1    0    0  501  502  0.00000000000E+00 -0.00000000000E+00 -0.82753069048E+02  0.82753069048E+02  0.00000000000E+00 0.  1.
         24    2    1    2    0    0  0.49027472310E+02  0.51445623537E+02  0.65260687881E+02  0.12693992086E+03  0.82489035050E+02 0.  0.
         23    2    1    2    0    0 -0.85450561165E+02 -0.81100223444E+01  0.41896562042E+02  0.13222459348E+03  0.91435498276E+02 0.  0.
        -11    1    3    3    0    0  0.11485266111E+02  0.31170326640E+02  0.75999146701E+02  0.82941973088E+02  0.00000000000E+00 0.  1.
         12    1    3    3    0    0  0.37542206199E+02  0.20275296897E+02 -0.10738458819E+02  0.43997947774E+02  0.00000000000E+00 0. -1.
        -13    1    4    4    0    0 -0.10105726906E+03  0.45196583874E+01  0.21133298800E+02  0.10334222400E+03  0.00000000000E+00 0.  1.
         13    1    4    4    0    0  0.15606707897E+02 -0.12629680732E+02  0.20763263242E+02  0.28882369488E+02  0.00000000000E+00 0. -1.
         -2    1    1    2    0  502  0.36423088855E+02 -0.43335601193E+02  0.11194993800E+03  0.12544881168E+03  0.00000000000E+00 0.  1.
<scales pt_clust_5="13000.00000" pt_clust_6="13000.00000" pt_clust_7="13000.00000" pt_clust_8="13000.00000" pt_clust_9="56.60935"></scales>
<clustering>
<clus scale="   56.609">  2  9  1 -1</clus>
<clus scale="   82.489">  5  6 -1 -1</clus>
<clus scale="   91.435">  7  8 -1 -1</clus>
<clus scale="  109.646">  1  5  2 -1</clus>
<clus scale="   56.609">  2  5  1 -1</clus>
</clustering>
</event>
<event>
 9    2  0.1592151E-004  0.9988515E+03  0.7546771E-02  0.9309805E-01
         21   -1    0    0  501  502  0.00000000000E+00  0.00000000000E+00  0.10370962576E+04  0.10370962576E+04  0.00000000000E+00 0. -1.
          2   -1    0    0  502    0 -0.00000000000E+00 -0.00000000000E+00 -0.87846985478E+03  0.87846985478E+03  0.00000000000E+00 0. -1.
         24    2    1    2    0    0 -0.44997808501E+03  0.16555150152E+03  0.89953401709E+02  0.49395363698E+03  0.77530667220E+02 0.  0.
         23    2    1    2    0    0 -0.44125278636E+03 -0.24478499858E+03  0.11484050532E+03  0.52567617655E+03  0.92322174625E+02 0.  0.
        -13    1    3    3    0    0 -0.19322948053E+03  0.50037019598E+02  0.42048126846E+01  0.19964722869E+03  0.00000000000E+00 0.  1.
         14    1    3    3    0    0 -0.25674860448E+03  0.11551448193E+03  0.85748589025E+02  0.29430640828E+03  0.00000000000E+00 0. -1.
        -11    1    4    4    0    0 -0.35258458184E+03 -0.23015853265E+03  0.11229336332E+03  0.43577360745E+03  0.00000000000E+00 0. -1.
         11    1    4    4    0    0 -0.88668204517E+02 -0.14626465927E+02  0.25471420037E+01  0.89902569096E+02  0.00000000000E+00 0.  1.
          1    1    1    2  501    0  0.89123087137E+03  0.79233497051E+02 -0.46167504238E+02  0.89593629884E+03  0.00000000000E+00 0. -1.
<scales pt_clust_5="13000.00000" pt_clust_6="13000.00000" pt_clust_7="13000.00000" pt_clust_8="13000.00000" pt_clust_9="894.74645"></scales>
<clustering>
<clus scale="   77.531">  5  6 -1 -1</clus>
<clus scale="   92.322">  7  8 -1 -1</clus>
<clus scale="  410.282">  5  7 -1 -1</clus>
<clus scale="  894.746">  1  9  2 -1</clus>
<clus scale="  894.746">  1  5  2 -1</clus>
</clustering>
</event>
<event>
 9    2  0.1592151E-004  0.8576311E+02  0.7546771E-02  0.1313578E+00
          2   -1    0    0  502    0 -0.00000000000E+00  0.00000000000E+00  0.66732958550E+03  0.66732958550E+03  0.00000000000E+00 0. -1.
         21   -1    0    0  501  502  0.00000000000E+00 -0.00000000000E+00 -0.27288456089E+02  0.27288456089E+02  0.00000000000E+00 0. -1.
         23    2    1    2    0    0  0.30181166880E+02  0.24292198024E+02  0.30144908985E+03  0.31453591672E+03  0.80995527148E+02 0.  0.
         24    2    1    2    0    0  0.40892143938E+02 -0.33228937728E+02  0.14987452822E+03  0.17822678084E+03  0.80784165895E+02 0.  0.
        -13    1    4    4    0    0  0.11910372783E+02  0.22974509548E+02  0.16693042178E+02  0.30795173745E+02  0.00000000000E+00 0.  1.
         14    1    4    4    0    0  0.28981771155E+02 -0.56203447276E+02  0.13318148604E+03  0.14743160709E+03  0.00000000000E+00 0. -1.
        -13    1    3    3    0    0  0.46108195963E+02  0.42278750810E+02  0.25070284207E+03  0.25838996406E+03  0.00000000000E+00 0. -1.
         13    1    3    3    0    0 -0.15927029084E+02 -0.17986552786E+02  0.50746247776E+02  0.56145952658E+02  0.00000000000E+00 0.  1.
          1    1    1    2  501    0 -0.71073310818E+02  0.89367397044E+01  0.18871751134E+03  0.20185534403E+03  0.00000000000E+00 0. -1.
<scales pt_clust_5="13000.00000" pt_clust_6="13000.00000" pt_clust_7="13000.00000" pt_clust_8="13000.00000" pt_clust_9="71.63299"></scales>
<clustering>
<clus scale="   71.633">  2  9  1 -1</clus>
<clus scale="   80.784">  5  6 -1 -1</clus>
<clus scale="   80.996">  7  8 -1 -1</clus>
<clus scale="   85.564">  2  5  1 -1</clus>
<clus scale="   71.633">  2  5  1 -1</clus>
</clustering>
</event>
<event>
 9    2  0.1592151E-004  0.2340644E+03  0.7546771E-02  0.1158467E+00
         -1   -1    0    0    0  501 -0.00000000000E+00  0.00000000000E+00  0.22177344473E+03  0.22177344473E+03  0.00000000000E+00 0.  1.
         21   -1    0    0  501  502  0.00000000000E+00 -0.00000000000E+00 -0.42636155370E+03  0.42636155370E+03  0.00000000000E+00 0.  1.
         24    2    1    2    0    0  0.42367835857E+02 -0.47820659548E+02  0.57451669453E+02  0.11673089567E+03  0.79016192559E+02 0.  0.
         23    2    1    2    0    0 -0.17053610144E+03  0.18882980249E+03 -0.13685404503E+03  0.30340815863E+03  0.92672676000E+02 0.  0.
        -11    1    3    3    0    0 -0.56269727242E+01 -0.46836893744E+02  0.48945737570E+02  0.67978251404E+02  0.00000000000E+00 0.  1.
         12    1    3    3    0    0  0.47994808581E+02 -0.98376580401E+00  0.85059318828E+01  0.48752644268E+02  0.00000000000E+00 0. -1.
        -11    1    4    4    0    0 -0.69020572506E+02  0.14314034826E+03 -0.89984521749E+02  0.18262040654E+03  0.00000000000E+00 0.  1.
         11    1    4    4    0    0 -0.10151552893E+03  0.45689454233E+02 -0.46869523279E+02  0.12078775209E+03  0.00000000000E+00 0. -1.
         -2    1    1    2    0  502  0.12816826558E+03 -0.14100914295E+03 -0.12518573339E+03  0.22799594413E+03  0.00000000000E+00 0.  1.
<scales pt_clust_5="13000.00000" pt_clust_6="13000.00000" pt_clust_7="13000.00000" pt_clust_8="13000.00000" pt_clust_9="214.93698"></scales>
<clustering>
<clus scale="   79.016">  5  6 -1 -1</clus>
<clus scale="   92.673">  7  8 -1 -1</clus>
<clus scale="  101.614">  1  5  2 -1</clus>
<clus scale="  214.937">  2  9  1 -1</clus>
<clus scale="  214.937">  2  5  1 -1</clus>
</clustering>
</event>
<event>
 9    2  0.1592151E-004  0.4596461E+03  0.7546771E-02  0.1076582E+00
         21   -1    0    0  501  502  0.00000000000E+00  0.00000000000E+00  0.10230859801E+04  0.10230859801E+04  0.00000000000E+00 0. -1.
          2   -1    0    0  502    0 -0.00000000000E+00 -0.00000000000E+00 -0.26430253782E+03  0.26430253782E+03  0.00000000000E+00 0. -1.
         24    2    1    2    0    0 -0.14968304584E+02  0.65301973609E+02  0.14001900559E+02  0.10620399291E+03  0.81208601707E+02 0.  0.
         23    2    1    2    0    0  0.16179123664E+03 -0.45314793060E+03  0.49932821937E+03  0.69928329740E+03  0.90271856669E+02 0.  0.
        -11    1    3    3    0    0  0.21342206557E+02  0.53019671756E+02  0.30139498807E+02  0.64613967238E+02  0.00000000000E+00 0.  1.
         12    1    3    3    0    0 -0.36310511141E+02  0.12282301853E+02 -0.16137598248E+02  0.41590025672E+02  0.00000000000E+00 0. -1.
        -13    1    4    4    0    0  0.79940085648E+02 -0.33316778703E+03  0.32337553742E+03  0.47112941938E+03  0.00000000000E+00 0. -1.
         13    1    4    4    0    0  0.81851150988E+02 -0.11998014357E+03  0.17595268195E+03  0.22815387802E+03  0.00000000000E+00 0.  1.
          1    1    1    2  501    0 -0.14682293205E+03  0.38784595699E+03  0.24545332240E+03  0.48190122765E+03  0.00000000000E+00 0. -1.
<scales pt_clust_5="13000.00000" pt_clust_6="13000.00000" pt_clust_7="13000.00000" pt_clust_8="13000.00000" pt_clust_9="450.69474"></scales>
<clustering>
<clus scale="   81.209">  5  6 -1 -1</clus>
<clus scale="   90.272">  7  8 -1 -1</clus>
<clus scale="  105.277">  2  5  1 -1</clus>
<clus scale="  450.695">  1  9  2 -1</clus>
<clus scale="  450.695">  1  5  2 -1</clus>
</clustering>
</event>
<event>
 9    2  0.1592151E-004  0.2962914E+03  0.7546771E-02  0.1118851E+00
         -1   -1    0    0    0  501 -0.00000000000E+00  0.00000000000E+00  0.54160291576E+03  0.54160291576E+03  0.00000000000E+00 0.  1.
         21   -1    0    0  501  502  0.00000000000E+00 -0.00000000000E+00 -0.33594307275E+03  0.33594307275E+03  0.00000000000E+00 0.  1.
         24    2    1    2    0    0  0.66288866401E+02 -0.78232193316E+02  0.85553910395E+02  0.15612501149E+03  0.80876806000E+02 0.  0.
         23    2    1    2    0    0 -0.14381644433E+03 -0.20283413272E+03  0.28191757682E+03  0.38796661257E+03  0.95998527577E+02 0.  0.
        -11    1    3    3    0    0  0.56781582340E+02 -0.85209251761E+02  0.41441309588E+02  0.11046332794E+03  0.00000000000E+00 0.  1.
         12    1    3    3    0    0  0.95072840612E+01  0.69770584455E+01  0.44112600807E+02  0.45661683551E+02  0.00000000000E+00 0. -1.
        -11    1    4    4    0    0 -0.93180004678E+02 -0.12796656728E+03  0.24196778207E+03  0.28914764943E+03  0.00000000000E+00 0. -1.
         11    1    4    4    0    0 -0.50636439654E+02 -0.74867565440E+02  0.39949794747E+02  0.98818963140E+02  0.00000000000E+00 0.  1.
         -2    1    1    2    0  502  0.77527577931E+02  0.28106632603E+03 -0.16181164420E+03  0.33345436445E+03  0.00000000000E+00 0.  1.
<scales pt_clust_5="13000.00000" pt_clust_6="13000.00000" pt_clust_7="13000.00000" pt_clust_8="13000.00000" pt_clust_9="280.30858"></scales>
<clustering>
<clus scale="   80.877">  5  6 -1 -1</clus>
<clus scale="   95.999">  7  8 -1 -1</clus>
<clus scale="  130.597">  1  5  2 -1</clus>
<clus scale="  280.309">  2  9  1 -1</clus>
<clus scale="  280.309">  2  5  1 -1</clus>
</clustering>
</event>
<event>
 9    2  0.1592151E-004  0.9669703E+02  0.7546771E-02  0.1297347E+00
          4   -1    0    0  502    0 -0.00000000000E+00  0.00000000000E+00  0.16548142488E+03  0.16548142488E+03  0.00000000000E+00 0. -1.
         21   -1    0    0  501  502  0.00000000000E+00 -0.00000000000E+00 -0.18868553681E+03  0.18868553681E+03  0.00000000000E+00 0.  1.
         23    2    1    2    0    0 -0.52659840906E+01 -0.11771651151E+02  0.44820155550E+02  0.10553900955E+03  0.94674884920E+02 0.  0.
         24    2    1    2    0    0 -0.26340263157E+02  0.58074093213E+02 -0.13042400762E+03  0.16474351630E+03  0.77869086525E+02 0.  0.
        -13    1    4    4    0    0 -0.46829549079E+02  0.24531245934E+02 -0.10604330783E+03  0.11849038708E+03  0.00000000000E+00 0.  1.
         14    1    4    4    0    0  0.20489285922E+02  0.33542847279E+02 -0.24380699781E+02  0.46253129224E+02  0.00000000000E+00 0. -1.
        -13    1    3    3    0    0  0.39424005201E+02  0.14436641085E+02  0.30168036494E+02  0.51698928594E+02  0.00000000000E+00 0.  1.
         13    1    3    3    0    0 -0.44689989292E+02 -0.26208292236E+02  0.14652119056E+02  0.53840080959E+02  0.00000000000E+00 0. -1.
          3    1    1    2  501    0  0.31606247247E+02 -0.46302442061E+02  0.62399740133E+02  0.83884435830E+02  0.00000000000E+00 0. -1.
<scales pt_clust_5="13000.00000" pt_clust_6="13000.00000" pt_clust_7="13000.00000" pt_clust_8="13000.00000" pt_clust_9="56.06134"></scales>
<clustering>
<clus scale="   56.061">  2  9  1 -1</clus>
<clus scale="   77.869">  5  6 -1 -1</clus>
<clus scale="   80.315">  2  5  1 -1</clus>
<clus scale="   94.675">  7  8 -1 -1</clus>
<clus scale="   56.061">  2  5  1 -1</clus>
</clustering>
</event>
<event>
 9    2  0.1592151E-004  0.1007787E+03  0.7546771E-02  0.1287135E+00
          2   -1    0    0  502    0 -0.00000000000E+00  0.00000000000E+00  0.34766786003E+03  0.34766786003E+03  0.00000000000E+00 0. -1.
         21   -1    0    0  501  502  0.00000000000E+00 -0.00000000000E+00 -0.59976335883E+03  0.59976335883E+03  0.00000000000E+00 0. -1.
         24    2    1    2    0    0 -0.30298906160E+02 -0.16421470412E+02  0.31004661887E+03  0.32148855216E+03  0.77706466245E+02 0.  0.
         23    2    1    2    0    0  0.68405510139E+02  0.84884400156E+02 -0.15571435513E+03  0.21203106722E+03  0.93944333855E+02 0.  0.
        -13    1    3    3    0    0 -0.26096335515E+02 -0.23361134131E+00  0.25622072202E+02  0.36572720510E+02  0.00000000000E+00 0.  1.
         14    1    3    3    0    0 -0.42025706453E+01 -0.16187859071E+02  0.28442454667E+03  0.28491583165E+03  0.00000000000E+00 0. -1.
        -11    1    4    4    0    0  0.77342177094E+02  0.29867246808E+02 -0.64120486091E+02  0.10481078917E+03  0.00000000000E+00 0. -1.
         11    1    4    4    0    0 -0.89366669552E+01  0.55017153348E+02 -0.91593869043E+02  0.10722027805E+03  0.00000000000E+00 0.  1.
          1    1    1    2  501    0 -0.38106603978E+02 -0.68462929744E+02 -0.40642776254E+03  0.41391159948E+03  0.00000000000E+00 0. -1.
<scales pt_clust_5="13000.00000" pt_clust_6="13000.00000" pt_clust_7="13000.00000" pt_clust_8="13000.00000" pt_clust_9="78.35360"></scales>
<clustering>
<clus scale="   77.706">  5  6 -1 -1</clus>
<clus scale="   78.354">  2  9  1 -1</clus>
<clus scale="   85.843">  1  5  2 -1</clus>
<clus scale="   93.944">  7  8 -1 -1</clus>
<clus scale="   78.354">  2  5  1 -1</clus>
</clustering>
</event>
<event>
 9    2  0.1592151E-004  0.1000399E+03  0.7546771E-02  0.1288623E+00
         21   -1    0    0  501  502  0.00000000000E+00  0.00000000000E+00  0.47651049643E+02  0.47651049643E+02  0.00000000000E+00 0.  1.
          2   -1    0    0  502    0 -0.00000000000E+00 -0.00000000000E+00 -0.36715791833E+03  0.36715791833E+03  0.00000000000E+00 0. -1.
         23    2    1    2    0    0 -0.32763024334E+02 -0.64107569728E+01 -0.28529623998E+03  0.30260421453E+03  0.95188510541E+02 0.  0.
         24    2    1    2    0    0  0.23847780585E+02 -0.13795914719E+02 -0.31613897776E+02  0.89966629342E+02  0.79595929298E+02 0.  0.
        -11    1    4    4    0    0  0.53133723698E+02 -0.58973046067E+01 -0.15725357600E+02  0.55724838872E+02  0.00000000000E+00 0.  1.
         12    1    4    4    0    0 -0.29285943112E+02 -0.78986101121E+01 -0.15888540176E+02  0.34241790471E+02  0.00000000000E+00 0. -1.
        -11    1    3    3    0    0  0.72872209541E+01 -0.40256323890E+02 -0.70594372575E+02  0.81591915296E+02  0.00000000000E+00 0.  1.
         11    1    3    3    0    0 -0.40050245288E+02  0.33845566918E+02 -0.21470186740E+03  0.22101229924E+03  0.00000000000E+00 0. -1.
          1    1    1    2  501    0  0.89152437487E+01  0.20206671692E+02 -0.25967309345E+01  0.22238124100E+02  0.00000000000E+00 0. -1.
<scales pt_clust_5="13000.00000" pt_clust_6="13000.00000" pt_clust_7="13000.00000" pt_clust_8="13000.00000" pt_clust_9="22.08599"></scales>
<clustering>
<clus scale="   22.086">  1  9  2 -1</clus>
<clus scale="   79.596">  5  6 -1 -1</clus>
<clus scale="   85.338">  1  5  2 -1</clus>
<clus scale="   95.189">  7  8 -1 -1</clus>
<clus scale="   22.086">  1  5  2 -1</clus>
</clustering>
</event>
<event>
 9    2  0.1592151E-004  0.1954370E+03  0.7546771E-02  0.1155081E+00
         -3   -1    0    0    0  501 -0.00000000000E+00  0.00000000000E+00  0.33305631527E+03  0.33305631527E+03  0.00000000000E+00 0.  1.
         21   -1    0    0  501  502  0.00000000000E+00 -0.00000000000E+00 -0.16493424048E+03  0.16493424048E+03  0.00000000000E+00 0. -1.
         24    2    1    2    0    0  0.15356110356E+03  0.91980171596E+02  0.20594920195E+03  0.28429420854E+03  0.79791971591E+02 0.  0.
         23    2    1    2    0    0 -0.13611698938E+03 -0.64433093872E+02 -0.34665315367E+02  0.18093759777E+03  0.94113079923E+02 0.  0.
        -11    1    3    3    0    0  0.38980808806E+02  0.49345811256E+02  0.11793368986E+03  0.13365203982E+03  0.00000000000E+00 0.  1.
         12    1    3    3    0    0  0.11458029475E+03  0.42634360340E+02  0.88015512091E+02  0.15064216872E+03  0.00000000000E+00 0. -1.
        -11    1    4    4    0    0 -0.45842963969E+02 -0.74790949174E+01 -0.55303634560E+02  0.72221923277E+02  0.00000000000E+00 0. -1.
         11    1    4    4    0    0 -0.90274025412E+02 -0.56953998955E+02  0.20638319193E+02  0.10871567449E+03  0.00000000000E+00 0.  1.
         -4    1    1    2    0  502 -0.17444114180E+02 -0.27547077724E+02 -0.31618117992E+01  0.32758749434E+02  0.00000000000E+00 0.  1.
<scales pt_clust_5="13000.00000" pt_clust_6="13000.00000" pt_clust_7="13000.00000" pt_clust_8="13000.00000" pt_clust_9="32.60581"></scales>
<clustering>
<clus scale="   32.606">  2  9  1 -1</clus>
<clus scale="   79.792">  5  6 -1 -1</clus>
<clus scale="   94.113">  7  8 -1 -1</clus>
<clus scale="  188.958">  1  5  2 -1</clus>
<clus scale="   32.606">  2  5  1 -1</clus>
</clustering>
</event>
<event>
 9    2  0.1592151E-004  0.1122896E+03  0.7546771E-02  0.1259841E+00
         21   -1    0    0  501  502  0.00000000000E+00  0.00000000000E+00  0.11876018764E+03  0.11876018764E+03  0.00000000000E+00 0. -1.
          2   -1    0    0  502    0 -0.00000000000E+00 -0.00000000000E+00 -0.43410706695E+03  0.43410706695E+03  0.00000000000E+00 0. -1.
         24    2    1    2    0    0 -0.66359697965E+02  0.54410755757E+01 -0.36516448726E+03  0.38004337081E+03  0.81576014397E+02 0.  0.
         23    2    1    2    0    0  0.54883324857E+02 -0.22648923714E+02  0.80970349585E+02  0.13542989378E+03  0.90884022378E+02 0.  0.
        -13    1    3    3    0    0 -0.15809921598E+02 -0.34387794794E+02 -0.18223380837E+03  0.18612263421E+03  0.00000000000E+00 0.  1.
         14    1    3    3    0    0 -0.50549776366E+02  0.39828870369E+02 -0.18293067888E+03  0.19392073660E+03  0.00000000000E+00 0. -1.
        -13    1    4    4    0    0 -0.49889427535E+00 -0.37372960211E+02  0.14399462786E+01  0.37404017106E+02  0.00000000000E+00 0.  1.
         13    1    4    4    0    0  0.55382219132E+02  0.14724036497E+02  0.79530403306E+02  0.98025876669E+02  0.00000000000E+00 0. -1.
          1    1    1    2  501    0  0.11476373108E+02  0.17207848138E+02 -0.31152741633E+02  0.37393990005E+02  0.00000000000E+00 0. -1.
<scales pt_clust_5="13000.00000" pt_clust_6="13000.00000" pt_clust_7="13000.00000" pt_clust_8="13000.00000" pt_clust_9="20.68375"></scales>
<clustering>
<clus scale="   20.684">  1  9  2 -1</clus>
<clus scale="   81.576">  5  6 -1 -1</clus>
<clus scale="   90.884">  7  8 -1 -1</clus>
<clus scale="  104.898">  2  5  1 -1</clus>
<clus scale="   20.684">  1  5  2 -1</clus>
</clustering>
</event>
<event>
 9    2  0.1592151E-004  0.2299749E+03  0.7546771E-02  0.1127148E+00
         21   -1    0    0  501  502  0.00000000000E+00  0.00000000000E+00  0.15551496963E+03  0.15551496963E+03  0.00000000000E+00 0. -1.
          2   -1    0    0  502    0 -0.00000000000E+00 -0.00000000000E+00 -0.12337672895E+04  0.12337672895E+04  0.00000000000E+00 0. -1.
         23    2    1    2    0    0  0.10638874893E+03  0.16504801140E+03 -0.72081237953E+03  0.75229829667E+03  0.88446756428E+02 0.  0.
         24    2    1    2    0    0 -0.24229438721E+03 -0.14328557165E+03 -0.39738379081E+03  0.49366802653E+03  0.80974799232E+02 0.  0.
        -13    1    4    4    0    0 -0.16005173910E+02 -0.13633032804E+02 -0.80823077900E+02  0.83512843901E+02  0.00000000000E+00 0.  1.
         14    1    4    4    0    0 -0.22628921330E+03 -0.12965253885E+03 -0.31656071291E+03  0.41015518263E+03  0.00000000000E+00 0. -1.
        -11    1    3    3    0    0  0.30078449571E+02  0.11137392750E+03 -0.48882516537E+03  0.50225382742E+03  0.00000000000E+00 0. -1.
         11    1    3    3    0    0  0.76310299356E+02  0.53674083894E+02 -0.23198721416E+03  0.25004446925E+03  0.00000000000E+00 0.  1.
          1    1    1    2  501    0  0.13590563828E+03 -0.21762439747E+02  0.39943850470E+02  0.14331593593E+03  0.00000000000E+00 0. -1.
<scales pt_clust_5="13000.00000" pt_clust_6="13000.00000" pt_clust_7="13000.00000" pt_clust_8="13000.00000" pt_clust_9="137.63701"></scales>
<clustering>
<clus scale="   80.975">  5  6 -1 -1</clus>
<clus scale="   88.447">  7  8 -1 -1</clus>
<clus scale="  137.637">  1  9  2 -1</clus>
<clus scale="  227.206">  1  5  2 -1</clus>
<clus scale="  137.637">  1  5  2 -1</clus>
</clustering>
</event>
<event>
 9    2  0.1592151E-004  0.1092792E+03  0.7546771E-02  0.1267501E+00
         -3   -1    0    0    0  501 -0.00000000000E+00  0.00000000000E+00  0.75063511126E+02  0.75063511126E+02  0.00000000000E+00 0.  1.
         21   -1    0    0  501  502  0.00000000000E+00 -0.00000000000E+00 -0.34254289000E+03  0.34254289000E+03  0.00000000000E+00 0.  1.
         24    2    1    2    0    0 -0.11273608046E+02 -0.61314434870E+02  0.13983293984E+01  0.98799622169E+02  0.76634560440E+02 0.  0.
         23    2    1    2    0    0 -0.43074815247E+02  0.60023605067E+02 -0.18515551678E+03  0.21898282039E+03  0.90623602652E+02 0.  0.
        -13    1    3    3    0    0  0.30831742196E+02 -0.40387741842E+02  0.75894787214E+01  0.51374762337E+02  0.00000000000E+00 0.  1.
         14    1    3    3    0    0 -0.42105350242E+02 -0.20926693028E+02 -0.61911493230E+01  0.47424859831E+02  0.00000000000E+00 0. -1.
        -11    1    4    4    0    0 -0.67697260970E+02  0.41797056843E+02 -0.95842504047E+02  0.12456202746E+03  0.00000000000E+00 0.  1.
         11    1    4    4    0    0  0.24622445723E+02  0.18226548224E+02 -0.89313012730E+02  0.94420792924E+02  0.00000000000E+00 0. -1.
         -4    1    1    2    0  502  0.54348423293E+02  0.12908298026E+01 -0.83722191495E+02  0.99823958570E+02  0.00000000000E+00 0.  1.
<scales pt_clust_5="13000.00000" pt_clust_6="13000.00000" pt_clust_7="13000.00000" pt_clust_8="13000.00000" pt_clust_9="54.36375"></scales>
<clustering>
<clus scale="   54.364">  2  9  1 -1</clus>
<clus scale="   76.635">  5  6 -1 -1</clus>
<clus scale="   90.624">  7  8 -1 -1</clus>
<clus scale="   97.991">  1  5  2 -1</clus>
<clus scale="   54.364">  2  5  1 -1</clus>
</clustering>
</event>
<event>
 9    2  0.1592151E-004  0.9502623E+02  0.7546771E-02  0.1298208E+00
         21   -1    0    0  501  502  0.00000000000E+00  0.00000000000E+00  0.66781242383E+02  0.66781242383E+02  0.00000000000E+00 0.  1.
          2   -1    0    0  502    0 -0.00000000000E+00 -0.00000000000E+00 -0.31849057230E+03  0.31849057230E+03  0.00000000000E+00 0. -1.
         23    2    1    2    0    0  0.43267392500E+01 -0.28561473982E+02 -0.76572375249E+02  0.12232779054E+03  0.90919091608E+02 0.  0.
         24    2    1    2    0    0 -0.24620501901E+02  0.18839677239E+02  0.18948931693E+01  0.84487796222E+02  0.78571588618E+02 0.  0.
        -11    1    4    4    0    0 -0.39555014387E+02 -0.16626361321E+02  0.12278056214E+02  0.44629426597E+02  0.00000000000E+00 0.  1.
         12    1    4    4    0    0  0.14934512486E+02  0.35466038560E+02 -0.10383163044E+02  0.39858369625E+02  0.00000000000E+00 0. -1.
        -13    1    3    3    0    0 -0.13735603000E+02  0.27968793569E+02 -0.90815490256E+01  0.32456043138E+02  0.00000000000E+00 0.  1.
         13    1    3    3    0    0  0.18062342250E+02 -0.56530267551E+02 -0.67490826223E+02  0.89871747403E+02  0.00000000000E+00 0. -1.
          1    1    1    2  501    0  0.20293762651E+02  0.97217967436E+01 -0.17703184784E+03  0.17845622792E+03  0.00000000000E+00 0. -1.
<scales pt_clust_5="13000.00000" pt_clust_6="13000.00000" pt_clust_7="13000.00000" pt_clust_8="13000.00000" pt_clust_9="22.50224"></scales>
<clustering>
<clus scale="   22.502">  1  9  2 -1</clus>
<clus scale="   78.572">  5  6 -1 -1</clus>
<clus scale="   83.290">  1  5  2 -1</clus>
<clus scale="   90.919">  7  8 -1 -1</clus>
<clus scale="   22.502">  1  5  2 -1</clus>
</clustering>
</event>
<event>
 9    2  0.1592151E-004  0.2352866E+03  0.7546771E-02  0.1123419E+00
         21   -1    0    0  501  502  0.00000000000E+00  0.00000000000E+00  0.11537724057E+03  0.11537724057E+03  0.00000000000E+00 0. -1.
          2   -1    0    0  502    0 -0.00000000000E+00 -0.00000000000E+00 -0.73359724045E+03  0.73359724045E+03  0.00000000000E+00 0. -1.
         23    2    1    2    0    0 -0.22675055748E+03 -0.72132533840E+02 -0.39320541273E+03  0.46807993614E+03  0.88709707796E+02 0.  0.
         24    2    1    2    0    0  0.18155687410E+03  0.77373113813E+02 -0.25015576980E+03  0.32891366609E+03  0.81589173916E+02 0.  0.
        -11    1    4    4    0    0  0.76374132879E+02  0.53975730526E+02 -0.62379371909E+02  0.11241696357E+03  0.00000000000E+00 0.  1.
         12    1    4    4    0    0  0.10518274122E+03  0.23397383287E+02 -0.18777639789E+03  0.21649670251E+03  0.00000000000E+00 0. -1.
        -11    1    3    3    0    0 -0.93287532798E+02  0.97835845802E-01 -0.21270127180E+03  0.23225934722E+03  0.00000000000E+00 0. -1.
         11    1    3    3    0    0 -0.13346302468E+03 -0.72230369686E+02 -0.18050414093E+03  0.23582058891E+03  0.00000000000E+00 0.  1.
          1    1    1    2  501    0  0.45193683377E+02 -0.52405799726E+01  0.25141182646E+02  0.51980878797E+02  0.00000000000E+00 0. -1.
<scales pt_clust_5="13000.00000" pt_clust_6="13000.00000" pt_clust_7="13000.00000" pt_clust_8="13000.00000" pt_clust_9="45.49651"></scales>
<clustering>
<clus scale="   45.497">  1  9  2 -1</clus>
<clus scale="   81.589">  5  6 -1 -1</clus>
<clus scale="   88.710">  7  8 -1 -1</clus>
<clus scale="  232.695">  1  5  2 -1</clus>
<clus scale="   45.497">  1  5  2 -1</clus>
</clustering>
</event>
<event>
 9    2  0.1592151E-004  0.1398682E+03  0.7546771E-02  0.1229294E+00
         -3   -1    0    0    0  501 -0.00000000000E+00  0.00000000000E+00  0.23869278913E+03  0.23869278913E+03  0.00000000000E+00 0.  1.
         21   -1    0    0  501  502  0.00000000000E+00 -0.00000000000E+00 -0.23639852274E+03  0.23639852274E+03  0.00000000000E+00 0.  1.
         23    2    1    2    0    0  0.41044767156E+02  0.85023754991E+01  0.14375898273E+03  0.17539481351E+03  0.91322134178E+02 0.  0.
         24    2    1    2    0    0 -0.10877948638E+02  0.11133930193E+03 -0.43362583225E+02  0.14191153991E+03  0.75787872487E+02 0.  0.
        -13    1    4    4    0    0 -0.34983397118E+02  0.10429532695E+03 -0.35756933862E+02  0.11567156788E+03  0.00000000000E+00 0.  1.
         14    1    4    4    0    0  0.24105448480E+02  0.70439749806E+01 -0.76056493632E+01  0.26239972031E+02  0.00000000000E+00 0. -1.
        -13    1    3    3    0    0 -0.24098521707E+02 -0.17756803007E+02  0.36816388849E+02  0.47449860794E+02  0.00000000000E+00 0. -1.
         13    1    3    3    0    0  0.65143288863E+02  0.26259178506E+02  0.10694259388E+03  0.12794495272E+03  0.00000000000E+00 0.  1.
         -4    1    1    2    0  502 -0.30166818518E+02 -0.11984167743E+03 -0.98102133115E+02  0.15778495844E+03  0.00000000000E+00 0.  1.
<scales pt_clust_5="13000.00000" pt_clust_6="13000.00000" pt_clust_7="13000.00000" pt_clust_8="13000.00000" pt_clust_9="117.55557"></scales>
<clustering>
<clus scale="   75.788">  5  6 -1 -1</clus>
<clus scale="   91.322">  7  8 -1 -1</clus>
<clus scale="  100.482">  1  7  2 -1</clus>
<clus scale="  117.556">  2  9  1 -1</clus>
<clus scale="  117.556">  2  5  1 -1</clus>
</clustering>
</event>
<event>
 9    2  0.1592151E-004  0.1066062E+03  0.7546771E-02  0.1269090E+00
         21   -1    0    0  501  502  0.00000000000E+00  0.00000000000E+00  0.51538621307E+02  0.51538621307E+02  0.00000000000E+00 0. -1.
          2   -1    0    0  502    0 -0.00000000000E+00 -0.00000000000E+00 -0.41485211399E+03  0.41485211399E+03  0.00000000000E+00 0. -1.
         23    2    1    2    0    0 -0.45985282648E+02  0.14005265497E+02 -0.21580797683E+03  0.23764230445E+03  0.87120539035E+02 0.  0.
         24    2    1    2    0    0  0.82768261134E+02 -0.43211585486E+02 -0.12663565357E+03  0.17735244087E+03  0.81850310661E+02 0.  0.
        -13    1    4    4    0    0  0.49627011450E+02  0.18833669277E+02 -0.44968699184E+02  0.69568177137E+02  0.00000000000E+00 0.  1.
         14    1    4    4    0    0  0.33141249684E+02 -0.62045254763E+02 -0.81666954387E+02  0.10778426373E+03  0.00000000000E+00 0. -1.
        -13    1    3    3    0    0  0.17738878112E+02  0.11882011776E+02 -0.12425006261E+03  0.12607112302E+03  0.00000000000E+00 0.  1.
         13    1    3    3    0    0 -0.63724160759E+02  0.21232537205E+01 -0.91557914213E+02  0.11157118143E+03  0.00000000000E+00 0. -1.
          1    1    1    2  501    0 -0.36782978486E+02  0.29206319989E+02 -0.20869862283E+02  0.51395989973E+02  0.00000000000E+00 0. -1.
<scales pt_clust_5="13000.00000" pt_clust_6="13000.00000" pt_clust_7="13000.00000" pt_clust_8="13000.00000" pt_clust_9="46.96804"></scales>
<clustering>
<clus scale="   46.968">  1  9  2 -1</clus>
<clus scale="   81.850">  5  6 -1 -1</clus>
<clus scale="   87.121">  7  8 -1 -1</clus>
<clus scale="  102.344">  1  5  2 -1</clus>
<clus scale="   46.968">  1  5  2 -1</clus>
</clustering>
</event>
<event>
 9    2  0.1592151E-004  0.9809809E+02  0.7546771E-02  0.1287186E+00
         21   -1    0    0  501  502  0.00000000000E+00  0.00000000000E+00  0.12527377741E+03  0.12527377741E+03  0.00000000000E+00 0. -1.
          2   -1    0    0  502    0 -0.00000000000E+00 -0.00000000000E+00 -0.16720721090E+03  0.16720721090E+03  0.00000000000E+00 0. -1.
         23    2    1    2    0    0  0.37846793415E+02  0.19268188162E+02 -0.69062590435E+02  0.12129700100E+03  0.90220165186E+02 0.  0.
         24    2    1    2    0    0 -0.20245080464E+02 -0.30643164611E+02 -0.40224108339E+02  0.10064553871E+03  0.84632610443E+02 0.  0.
        -13    1    4    4    0    0 -0.53564113237E+02 -0.16481439022E+02 -0.25224361937E+02  0.61457468986E+02  0.00000000000E+00 0.  1.
         14    1    4    4    0    0  0.33319032773E+02 -0.14161725590E+02 -0.14999746403E+02  0.39188069725E+02  0.00000000000E+00 0. -1.
        -11    1    3    3    0    0  0.30517835082E+01  0.42395190959E+02 -0.67151904940E+02  0.79473542365E+02  0.00000000000E+00 0.  1.
         11    1    3    3    0    0  0.34795009907E+02 -0.23127002797E+02 -0.19106854957E+01  0.41823458631E+02  0.00000000000E+00 0. -1.
          1    1    1    2  501    0 -0.17601712951E+02  0.11374976450E+02  0.67353265277E+02  0.70538448604E+02  0.00000000000E+00 0. -1.
<scales pt_clust_5="13000.00000" pt_clust_6="13000.00000" pt_clust_7="13000.00000" pt_clust_8="13000.00000" pt_clust_9="20.95735"></scales>
<clustering>
<clus scale="   20.957">  1  9  2 -1</clus>
<clus scale="   84.633">  5  6 -1 -1</clus>
<clus scale="   90.220">  7  8 -1 -1</clus>
<clus scale="   92.985">  1  5  2 -1</clus>
<clus scale="   20.957">  1  5  2 -1</clus>
</clustering>
</event>
<event>
 9    2  0.1592151E-004  0.9931610E+02  0.7546771E-02  0.1287401E+00
         21   -1    0    0  501  502  0.00000000000E+00  0.00000000000E+00  0.26463449744E+03  0.26463449744E+03  0.00000000000E+00 0.  1.
          2   -1    0    0  502    0 -0.00000000000E+00 -0.00000000000E+00 -0.56347857248E+02  0.56347857248E+02  0.00000000000E+00 0. -1.
         24    2    1    2    0    0  0.27660493734E+02  0.56700800877E+02  0.73777052812E+02  0.12547687206E+03  0.79506654856E+02 0.  0.
         23    2    1    2    0    0 -0.14105736930E+02 -0.93004852479E+01  0.94095397379E+02  0.13175732103E+03  0.90667397654E+02 0.  0.
        -11    1    3    3    0    0 -0.20042513632E+02 -0.25305843004E+01  0.34255680165E+02  0.39768804774E+02  0.00000000000E+00 0.  1.
         12    1    3    3    0    0  0.47703007366E+02  0.59231385178E+02  0.39521372646E+02  0.85708067285E+02  0.00000000000E+00 0. -1.
        -11    1    4    4    0    0  0.17441469754E+01  0.35842148540E+02  0.68899225803E+02  0.77684007214E+02  0.00000000000E+00 0.  1.
         11    1    4    4    0    0 -0.15849883905E+02 -0.45142633788E+02  0.25196171576E+02  0.54073313817E+02  0.00000000000E+00 0. -1.
          1    1    1    2  501    0 -0.13554756804E+02 -0.47400315630E+02  0.40414190004E+02  0.63748161601E+02  0.00000000000E+00 0. -1.
<scales pt_clust_5="13000.00000" pt_clust_6="13000.00000" pt_clust_7="13000.00000" pt_clust_8="13000.00000" pt_clust_9="49.30034"></scales>
<clustering>
<clus scale="   49.300">  1  9  2 -1</clus>
<clus scale="   79.507">  5  6 -1 -1</clus>
<clus scale="   89.244">  2  5  1 -1</clus>
<clus scale="   90.667">  7  8 -1 -1</clus>
<clus scale="   49.300">  1  5  2 -1</clus>
</clustering>
</event>
<event>
 9    2  0.1592151E-004  0.2170786E+03  0.7546771E-02  0.1160136E+00
         21   -1    0    0  501  502  0.00000000000E+00  0.00000000000E+00  0.16508200832E+03  0.16508200832E+03  0.00000000000E+00 0.  1.
          2   -1    0    0  502    0 -0.00000000000E+00 -0.00000000000E+00 -0.76223193153E+03  0.76223193153E+03  0.00000000000E+00 0. -1.
         24    2    1    2    0    0 -0.67202596622E+02  0.67999468992E+02  0.32220328299E+02  0.12668753129E+03  0.76625480440E+02 0.  0.
         23    2    1    2    0    0 -0.18003051632E+03 -0.24851304286E+02 -0.12785293751E+03  0.23981842673E+03  0.90210476317E+02 0.  0.
        -11    1    3    3    0    0 -0.73578237198E+02  0.23768911688E+02  0.14808047708E+02  0.78727355023E+02  0.00000000000E+00 0.  1.
         12    1    3    3    0    0  0.63756405761E+01  0.44230557304E+02  0.17412280591E+02  0.47960176267E+02  0.00000000000E+00 0. -1.
        -13    1    4    4    0    0 -0.39986018045E+02  0.32421657307E+02 -0.35983898850E+02  0.62808331279E+02  0.00000000000E+00 0. -1.
         13    1    4    4    0    0 -0.14004449827E+03 -0.57272961593E+02 -0.91869038664E+02  0.17701009545E+03  0.00000000000E+00 0.  1.
          1    1    1    2  501    0  0.24723311294E+03 -0.43148164705E+02 -0.50151731399E+03  0.56080798183E+03  0.00000000000E+00 0. -1.
<scales pt_clust_5="13000.00000" pt_clust_6="13000.00000" pt_clust_7="13000.00000" pt_clust_8="13000.00000" pt_clust_9="197.44682"></scales>
<clustering>
<clus scale="   76.625">  5  6 -1 -1</clus>
<clus scale="   90.210">  7  8 -1 -1</clus>
<clus scale="  122.522">  2  5  1 -1</clus>
<clus scale="  197.447">  1  9  2 -1</clus>
<clus scale="  197.447">  1  5  2 -1</clus>
</clustering>
</event>
<event>
 9    2  0.1592151E-004  0.2450373E+03  0.7546771E-02  0.1149417E+00
         21   -1    0    0  501  502  0.00000000000E+00  0.00000000000E+00  0.21891892179E+03  0.21891892179E+03  0.00000000000E+00 0. -1.
          2   -1    0    0  502    0 -0.00000000000E+00 -0.00000000000E+00 -0.47136021390E+03  0.47136021390E+03  0.00000000000E+00 0. -1.
         24    2    1    2    0    0 -0.54792889313E+02 -0.44338318910E+02  0.53734055634E+02  0.12204744167E+03  0.83905196742E+02 0.  0.
         23    2    1    2    0    0  0.13827377808E+02  0.25126306456E+03 -0.16693660758E+03  0.31547993782E+03  0.91298610225E+02 0.  0.
        -13    1    3    3    0    0  0.19292567135E+02 -0.10176532607E+02  0.29983957657E+02  0.37078331669E+02  0.00000000000E+00 0.  1.
         14    1    3    3    0    0 -0.74085456447E+02 -0.34161786303E+02  0.23750097976E+02  0.84969110001E+02  0.00000000000E+00 0. -1.
        -11    1    4    4    0    0  0.49331908626E+02  0.19516417797E+03 -0.12585245365E+03  0.23740584167E+03  0.00000000000E+00 0. -1.
         11    1    4    4    0    0 -0.35504530818E+02  0.56098886595E+02 -0.41084153928E+02  0.78074096151E+02  0.00000000000E+00 0.  1.
          1    1    1    2  501    0  0.40965511505E+02 -0.20692474565E+03 -0.13923874017E+03  0.25275175620E+03  0.00000000000E+00 0. -1.
<scales pt_clust_5="13000.00000" pt_clust_6="13000.00000" pt_clust_7="13000.00000" pt_clust_8="13000.00000" pt_clust_9="227.39363"></scales>
<clustering>
<clus scale="   83.905">  5  6 -1 -1</clus>
<clus scale="   91.299">  7  8 -1 -1</clus>
<clus scale="  109.582">  2  5  1 -1</clus>
<clus scale="  227.394">  1  9  2 -1</clus>
<clus scale="  227.394">  1  5  2 -1</clus>
</clustering>
</event>
<event>
 9    2  0.1592151E-004  0.1806108E+03  0.7546771E-02  0.1168319E+00
         21   -1    0    0  501  502  0.00000000000E+00  0.00000000000E+00  0.79916178378E+03  0.79916178378E+03  0.00000000000E+00 0.  1.
          2   -1    0    0  502    0 -0.00000000000E+00 -0.00000000000E+00 -0.10369014657E+03  0.10369014657E+03  0.00000000000E+00 0. -1.
         24    2    1    2    0    0 -0.81802140791E+02 -0.14186780034E+03  0.54828998454E+01  0.18263327075E+03  0.80664653853E+02 0.  0.
         23    2    1    2    0    0  0.46456723384E+02  0.11438194119E+03  0.42900850084E+03  0.45542542926E+03  0.90125313889E+02 0.  0.
        -13    1    3    3    0    0 -0.22583728201E+02 -0.49920468570E+00  0.17955292668E+02  0.28855961595E+02  0.00000000000E+00 0.  1.
         14    1    3    3    0    0 -0.59218412590E+02 -0.14136859565E+03 -0.12472392822E+02  0.15377730915E+03  0.00000000000E+00 0. -1.
        -11    1    4    4    0    0 -0.88200247206E+01  0.80024497336E+02  0.16613307154E+03  0.18461286648E+03  0.00000000000E+00 0. -1.
         11    1    4    4    0    0  0.55276748105E+02  0.34357443850E+02  0.26287542930E+03  0.27081256278E+03  0.00000000000E+00 0.  1.
          1    1    1    2  501    0  0.35345417406E+02  0.27485859155E+02  0.26098023653E+03  0.26479323036E+03  0.00000000000E+00 0. -1.
<scales pt_clust_5="13000.00000" pt_clust_6="13000.00000" pt_clust_7="13000.00000" pt_clust_8="13000.00000" pt_clust_9="44.77467"></scales>
<clustering>
<clus scale="   44.775">  1  9  2 -1</clus>
<clus scale="   80.665">  5  6 -1 -1</clus>
<clus scale="   90.125">  7  8 -1 -1</clus>
<clus scale="  176.081">  2  5  1 -1</clus>
<clus scale="   44.775">  1  5  2 -1</clus>
</clustering>
</event>
<event>
 9    2  0.1592151E-004  0.3263779E+03  0.7546771E-02  0.1107677E+00
         21   -1    0    0  501  502  0.00000000000E+00  0.00000000000E+00  0.14240528153E+04  0.14240528153E+04  0.00000000000E+00 0. -1.
          2   -1    0    0  502    0 -0.00000000000E+00 -0.00000000000E+00 -0.53309076488E+03  0.53309076488E+03  0.00000000000E+00 0. -1.
         23    2    1    2    0    0  0.91898612195E+02 -0.72783189012E+01 -0.29792067962E+03  0.32491218512E+03  0.91174929908E+02 0.  0.
         24    2    1    2    0    0  0.26798642221E+03  0.15581097089E+03  0.12009627231E+04  0.12427123160E+04  0.76997771416E+02 0.  0.
        -13    1    4    4    0    0  0.42942755086E+02 -0.42673450173E+00  0.11596492483E+03  0.12366133635E+03  0.00000000000E+00 0.  1.
         14    1    4    4    0    0  0.22504366712E+03  0.15623770540E+03  0.10849977983E+04  0.11190509797E+04  0.00000000000E+00 0. -1.
        -13    1    3    3    0    0  0.47855783990E+02 -0.42415687412E+02 -0.96539111848E+02  0.11579752466E+03  0.00000000000E+00 0. -1.
         13    1    3    3    0    0  0.44042828205E+02  0.35137368511E+02 -0.20138156777E+03  0.20911466046E+03  0.00000000000E+00 0.  1.
          1    1    1    2  501    0 -0.35988503440E+03 -0.14853265199E+03 -0.12079993144E+02  0.38951907903E+03  0.00000000000E+00 0. -1.
<scales pt_clust_5="13000.00000" pt_clust_6="13000.00000" pt_clust_7="13000.00000" pt_clust_8="13000.00000" pt_clust_9="317.16550"></scales>
<clustering>
<clus scale="   76.998">  5  6 -1 -1</clus>
<clus scale="   91.175">  7  8 -1 -1</clus>
<clus scale="  129.658">  2  7  1 -1</clus>
<clus scale="  317.166">  1  9  2 -1</clus>
<clus scale="  317.166">  1  5  2 -1</clus>
</clustering>
</event>
<event>
 9    2  0.1592151E-004  0.1022652E+03  0.7546771E-02  0.1282129E+00
          2   -1    0    0  502    0 -0.00000000000E+00  0.00000000000E+00  0.80955222006E+03  0.80955222006E+03  0.00000000000E+00 0. -1.
         21   -1    0    0  501  502  0.00000000000E+00 -0.00000000000E+00 -0.25608185029E+02  0.25608185029E+02  0.00000000000E+00 0.  1.
         24    2    1    2    0    0  0.38156999724E+02  0.24875097391E+02  0.54877412108E+03  0.55636497871E+03  0.79462107128E+02 0.  0.
         23    2    1    2    0    0 -0.14592864235E+02 -0.28681682577E+02  0.95215291299E+02  0.13681988280E+03  0.92833927154E+02 0.  0.
        -13    1    3    3    0    0  0.47707714600E+01 -0.25244252044E+02  0.88041494784E+02  0.91713343225E+02  0.00000000000E+00 0.  1.
         14    1    3    3    0    0  0.33386228264E+02  0.50119349435E+02  0.46073262630E+03  0.46465163549E+03  0.00000000000E+00 0. -1.
        -13    1    4    4    0    0 -0.13109519502E+02 -0.61827378723E+02  0.49221155776E+02  0.80107468049E+02  0.00000000000E+00 0.  1.
         13    1    4    4    0    0 -0.14833447330E+01  0.33145696146E+02  0.45994135523E+02  0.56712414753E+02  0.00000000000E+00 0. -1.
          1    1    1    2  501    0 -0.23564135489E+02  0.38065851859E+01  0.13995462265E+03  0.14197554357E+03  0.00000000000E+00 0. -1.
<scales pt_clust_5="13000.00000" pt_clust_6="13000.00000" pt_clust_7="13000.00000" pt_clust_8="13000.00000" pt_clust_9="23.86963"></scales>
<clustering>
<clus scale="   23.870">  2  9  1 -1</clus>
<clus scale="   79.462">  5  6 -1 -1</clus>
<clus scale="   90.301">  1  5  2 -1</clus>
<clus scale="   92.834">  7  8 -1 -1</clus>
<clus scale="   23.870">  2  5  1 -1</clus>
</clustering>
</event>
<event>
 9    2  0.1592151E-004  0.1170388E+03  0.7546771E-02  0.1251836E+00
         21   -1    0    0  501  502  0.00000000000E+00  0.00000000000E+00  0.27091951797E+02  0.27091951797E+02  0.00000000000E+00 0. -1.
          2   -1    0    0  502    0 -0.00000000000E+00 -0.00000000000E+00 -0.67099280889E+03  0.67099280889E+03  0.00000000000E+00 0. -1.
         24    2    1    2    0    0  0.36756340886E+02  0.68841223333E+02 -0.38786742543E+03  0.40354819363E+03  0.79497561257E+02 0.  0.
         23    2    1    2    0    0 -0.54071483672E+02 -0.44431328943E+02 -0.21638872202E+03  0.24486403827E+03  0.90754889021E+02 0.  0.
        -11    1    3    3    0    0 -0.40634527343E+01  0.32773238483E+02 -0.42053712456E+02  0.53470660554E+02  0.00000000000E+00 0.  1.
         12    1    3    3    0    0  0.40819793620E+02  0.36067984850E+02 -0.34581371297E+03  0.35007753308E+03  0.00000000000E+00 0. -1.
        -13    1    4    4    0    0 -0.19963564118E+02 -0.34412425807E+02 -0.20302493171E+03  0.20688615671E+03  0.00000000000E+00 0.  1.
         13    1    4    4    0    0 -0.34107919554E+02 -0.10018903137E+02 -0.13363790313E+02  0.37977881562E+02  0.00000000000E+00 0. -1.
          1    1    1    2  501    0  0.17315142786E+02 -0.24409894390E+02 -0.39644709642E+02  0.49672528790E+02  0.00000000000E+00 0. -1.
<scales pt_clust_5="13000.00000" pt_clust_6="13000.00000" pt_clust_7="13000.00000" pt_clust_8="13000.00000" pt_clust_9="29.92753"></scales>
<clustering>
<clus scale="   29.928">  1  9  2 -1</clus>
<clus scale="   79.498">  5  6 -1 -1</clus>
<clus scale="   90.755">  7  8 -1 -1</clus>
<clus scale="  108.543">  2  5  1 -1</clus>
<clus scale="   29.928">  1  5  2 -1</clus>
</clustering>
</event>
<event>
 9    2  0.1592151E-004  0.1694625E+03  0.7546771E-02  0.1202981E+00
         -1   -1    0    0    0  501 -0.00000000000E+00  0.00000000000E+00  0.53460886213E+03  0.53460886213E+03  0.00000000000E+00 0.  1.
         21   -1    0    0  501  502  0.00000000000E+00 -0.00000000000E+00 -0.82568646117E+02  0.82568646117E+02  0.00000000000E+00 0.  1.
         24    2    1    2    0    0  0.57663393517E+02  0.89153396274E+01  0.11309027704E+03  0.14999008898E+03  0.79391849698E+02 0.  0.
         23    2    1    2    0    0 -0.16311032379E+03 -0.50949576793E+02  0.14118101026E+03  0.23915566411E+03  0.89791519163E+02 0.  0.
        -13    1    3    3    0    0  0.53203662637E+02  0.30644232688E+02  0.39205926586E+02  0.72847809813E+02  0.00000000000E+00 0.  1.
         14    1    3    3    0    0  0.44597308804E+01 -0.21728893060E+02  0.73884350453E+02  0.77142279166E+02  0.00000000000E+00 0. -1.
        -13    1    4    4    0    0 -0.13387129531E+03 -0.37373845337E+02  0.59215836729E+02  0.15107893084E+03  0.00000000000E+00 0.  1.
         13    1    4    4    0    0 -0.29239028478E+02 -0.13575731456E+02  0.81965173533E+02  0.88076733268E+02  0.00000000000E+00 0. -1.
         -2    1    1    2    0  502  0.10544693027E+03  0.42034237166E+02  0.19776892871E+03  0.22803175516E+03  0.00000000000E+00 0.  1.
<scales pt_clust_5="13000.00000" pt_clust_6="13000.00000" pt_clust_7="13000.00000" pt_clust_8="13000.00000" pt_clust_9="143.71859"></scales>
<clustering>
<clus scale="   79.392">  5  6 -1 -1</clus>
<clus scale="   89.792">  7  8 -1 -1</clus>
<clus scale="   98.527">  1  5  2 -1</clus>
<clus scale="  143.719">  2  9  1 -1</clus>
<clus scale="  143.719">  2  5  1 -1</clus>
</clustering>
</event>
<event>
 9    2  0.1592151E-004  0.9864907E+02  0.7546771E-02  0.1288913E+00
         21   -1    0    0  501  502  0.00000000000E+00  0.00000000000E+00  0.73528824160E+02  0.73528824160E+02  0.00000000000E+00 0.  1.
          2   -1    0    0  502    0 -0.00000000000E+00 -0.00000000000E+00 -0.26974473776E+03  0.26974473776E+03  0.00000000000E+00 0. -1.
         24    2    1    2    0    0 -0.13818540423E+02  0.27952612261E+02 -0.19962875804E+03  0.21810162078E+03  0.82124146026E+02 0.  0.
         23    2    1    2    0    0  0.34763193134E+02 -0.30396865930E+02 -0.95968183525E-01  0.10379521036E+03  0.92956911672E+02 0.  0.
        -13    1    3    3    0    0 -0.19819563293E+02  0.31471304228E+02 -0.28563309896E+02  0.46894783838E+02  0.00000000000E+00 0.  1.
         14    1    3    3    0    0  0.60010228703E+01 -0.35186919671E+01 -0.17106544814E+03  0.17120683694E+03  0.00000000000E+00 0. -1.
        -13    1    4    4    0    0 -0.25069284444E+02 -0.30140660477E+02  0.15184801882E+02  0.42041725045E+02  0.00000000000E+00 0. -1.
         13    1    4    4    0    0  0.59832477577E+02 -0.25620545270E+00 -0.15280770066E+02  0.61753485311E+02  0.00000000000E+00 0.  1.
          1    1    1    2  501    0 -0.20944652711E+02  0.24442536687E+01  0.35088126161E+01  0.21376730787E+02  0.00000000000E+00 0. -1.
<scales pt_clust_5="13000.00000" pt_clust_6="13000.00000" pt_clust_7="13000.00000" pt_clust_8="13000.00000" pt_clust_9="21.08679"></scales>
<clustering>
<clus scale="   21.087">  1  9  2 -1</clus>
<clus scale="   82.124">  5  6 -1 -1</clus>
<clus scale="   88.516">  2  5  1 -1</clus>
<clus scale="   92.957">  7  8 -1 -1</clus>
<clus scale="   21.087">  1  5  2 -1</clus>
</clustering>
</event>
<event>
 9    2  0.1592151E-004  0.9879777E+02  0.7546771E-02  0.1288892E+00
         -3   -1    0    0    0  501 -0.00000000000E+00  0.00000000000E+00  0.96604604696E+03  0.96604604696E+03  0.00000000000E+00 0.  1.
         21   -1    0    0  501  502  0.00000000000E+00 -0.00000000000E+00 -0.16959711639E+02  0.16959711639E+02  0.00000000000E+00 0. -1.
         24    2    1    2    0    0 -0.42825889487E+01  0.34866308650E+02  0.45008682682E+03  0.45863551054E+03  0.80835510785E+02 0.  0.
         23    2    1    2    0    0  0.44684600166E+02 -0.18952231801E+02  0.43285483632E+03  0.44524567533E+03  0.92328226932E+02 0.  0.
        -11    1    3    3    0    0 -0.16600952849E+01  0.55865180239E+02  0.20022444898E+03  0.20787858055E+03  0.00000000000E+00 0.  1.
         12    1    3    3    0    0 -0.26224936638E+01 -0.20998871589E+02  0.24986237784E+03  0.25075692999E+03  0.00000000000E+00 0. -1.
        -11    1    4    4    0    0  0.64026826086E+02 -0.26023196827E+02  0.40356590897E+03  0.40944118517E+03  0.00000000000E+00 0.  1.
         11    1    4    4    0    0 -0.19342225920E+02  0.70709650261E+01  0.29288927353E+02  0.35804490157E+02  0.00000000000E+00 0. -1.
         -4    1    1    2    0  502 -0.40402011217E+02 -0.15914076849E+02  0.66144672181E+02  0.79124572734E+02  0.00000000000E+00 0.  1.
<scales pt_clust_5="13000.00000" pt_clust_6="13000.00000" pt_clust_7="13000.00000" pt_clust_8="13000.00000" pt_clust_9="43.42327"></scales>
<clustering>
<clus scale="   43.423">  2  9  1 -1</clus>
<clus scale="   80.836">  5  6 -1 -1</clus>
<clus scale="   88.153">  1  5  2 -1</clus>
<clus scale="   92.328">  7  8 -1 -1</clus>
<clus scale="   43.423">  2  5  1 -1</clus>
</clustering>
</event>
<event>
 9    2  0.1592151E-004  0.1737956E+03  0.7546771E-02  0.1204244E+00
         -1   -1    0    0    0  501 -0.00000000000E+00  0.00000000000E+00  0.13836739150E+03  0.13836739150E+03  0.00000000000E+00 0.  1.
         21   -1    0    0  501  502  0.00000000000E+00 -0.00000000000E+00 -0.41307686140E+03  0.41307686140E+03  0.00000000000E+00 0.  1.
         24    2    1    2    0    0  0.34125792500E+02 -0.19141878769E+02  0.40062287550E+02  0.97494672174E+02  0.79807537125E+02 0.  0.
         23    2    1    2    0    0 -0.85664592396E+02  0.14534399879E+03 -0.20310496962E+03  0.27773183333E+03  0.86139666717E+02 0.  0.
        -11    1    3    3    0    0  0.39900410080E+02  0.19429517303E+02  0.38022300133E+02  0.58440090474E+02  0.00000000000E+00 0.  1.
         12    1    3    3    0    0 -0.57746175800E+01 -0.38571396072E+02  0.20399874175E+01  0.39054581700E+02  0.00000000000E+00 0. -1.
        -11    1    4    4    0    0 -0.60639579455E+02  0.14024155756E+03 -0.13108010489E+03  0.20131280874E+03  0.00000000000E+00 0.  1.
         11    1    4    4    0    0 -0.25025012941E+02  0.51024412275E+01 -0.72024864730E+02  0.76419024585E+02  0.00000000000E+00 0. -1.
         -2    1    1    2    0  502  0.51538799895E+02 -0.12620212002E+03 -0.11166678783E+03  0.17621774740E+03  0.00000000000E+00 0.  1.
<scales pt_clust_5="13000.00000" pt_clust_6="13000.00000" pt_clust_7="13000.00000" pt_clust_8="13000.00000" pt_clust_9="150.94663"></scales>
<clustering>
<clus scale="   79.808">  5  6 -1 -1</clus>
<clus scale="   86.140">  7  8 -1 -1</clus>
<clus scale="   88.883">  1  5  2 -1</clus>
<clus scale="  150.947">  2  9  1 -1</clus>
<clus scale="  150.947">  2  5  1 -1</clus>
</clustering>
</event>
<event>
 9    2  0.1592151E-004  0.1055451E+03  0.7546771E-02  0.1276031E+00
          2   -1    0    0  502    0 -0.00000000000E+00  0.00000000000E+00  0.99816529962E+03  0.99816529962E+03  0.00000000000E+00 0. -1.
         21   -1    0    0  501  502  0.00000000000E+00 -0.00000000000E+00 -0.29549452124E+02  0.29549452124E+02  0.00000000000E+00 0. -1.
         24    2    1    2    0    0 -0.55461559538E+02  0.16780710593E+02  0.71321305783E+03  0.71957954935E+03  0.75922889538E+02 0.  0.
         23    2    1    2    0    0  0.18024633036E+02 -0.45209087115E+02  0.23503099835E+03  0.25690331838E+03  0.91602379106E+02 0.  0.
        -13    1    3    3    0    0 -0.32291538386E+02  0.24311144209E+02  0.13666592782E+03  0.14251789716E+03  0.00000000000E+00 0.  1.
         14    1    3    3    0    0 -0.23170021152E+02 -0.75304336161E+01  0.57654713001E+03  0.57706165219E+03  0.00000000000E+00 0. -1.
        -13    1    4    4    0    0  0.45527331910E+02 -0.48046972426E+02  0.10619878113E+03  0.12513764671E+03  0.00000000000E+00 0.  1.
         13    1    4    4    0    0 -0.27502698875E+02  0.28378853116E+01  0.12883221722E+03  0.13176567168E+03  0.00000000000E+00 0. -1.
          1    1    1    2  501    0  0.37436926502E+02  0.28428376522E+02  0.20371791322E+02  0.51231884010E+02  0.00000000000E+00 0. -1.
<scales pt_clust_5="13000.00000" pt_clust_6="13000.00000" pt_clust_7="13000.00000" pt_clust_8="13000.00000" pt_clust_9="47.00740"></scales>
<clustering>
<clus scale="   47.007">  2  9  1 -1</clus>
<clus scale="   75.923">  5  6 -1 -1</clus>
<clus scale="   91.602">  7  8 -1 -1</clus>
<clus scale="   92.266">  1  5  2 -1</clus>
<clus scale="   47.007">  2  5  1 -1</clus>
</clustering>
</event>
<event>
 9    2  0.1592151E-004  0.1027803E+03  0.7546771E-02  0.1279879E+00
          2   -1    0    0  502    0 -0.00000000000E+00  0.00000000000E+00  0.92724276792E+03  0.92724276792E+03  0.00000000000E+00 0. -1.
         21   -1    0    0  501  502  0.00000000000E+00 -0.00000000000E+00 -0.44382225042E+02  0.44382225042E+02  0.00000000000E+00 0.  1.
         24    2    1    2    0    0 -0.47390514638E+02  0.80146730555E+01  0.74008119876E+03  0.74591490159E+03  0.79741857186E+02 0.  0.
         23    2    1    2    0    0  0.48250490253E+02  0.39173711942E+02  0.14027394486E+03  0.17844741835E+03  0.91126351791E+02 0.  0.
        -13    1    3    3    0    0 -0.63253928887E+02 -0.63967673865E+00  0.36815433174E+03  0.37354930154E+03  0.00000000000E+00 0.  1.
         14    1    3    3    0    0  0.15863414250E+02  0.86543497942E+01  0.37192686703E+03  0.37236560005E+03  0.00000000000E+00 0. -1.
        -13    1    4    4    0    0  0.33069753880E+02  0.68867840744E+02  0.10561490997E+03  0.13034913624E+03  0.00000000000E+00 0.  1.
         13    1    4    4    0    0  0.15180736372E+02 -0.29694128801E+02  0.34659034893E+02  0.48098282109E+02  0.00000000000E+00 0. -1.
          1    1    1    2  501    0 -0.85997561530E+00 -0.47188384998E+02  0.25053992588E+01  0.47262673033E+02  0.00000000000E+00 0. -1.
<scales pt_clust_5="13000.00000" pt_clust_6="13000.00000" pt_clust_7="13000.00000" pt_clust_8="13000.00000" pt_clust_9="47.19622"></scales>
<clustering>
<clus scale="   47.196">  2  9  1 -1</clus>
<clus scale="   79.742">  5  6 -1 -1</clus>
<clus scale="   91.126">  7  8 -1 -1</clus>
<clus scale="   92.836">  1  5  2 -1</clus>
<clus scale="   47.196">  2  5  1 -1</clus>
</clustering>
</event>
<event>
 9    2  0.1592151E-004  0.1696688E+03  0.7546771E-02  0.1210330E+00
          2   -1    0    0  502    0 -0.00000000000E+00  0.00000000000E+00  0.55512777007E+03  0.55512777007E+03  0.00000000000E+00 0. -1.
         21   -1    0    0  501  502  0.00000000000E+00 -0.00000000000E+00 -0.18215833826E+03  0.18215833826E+03  0.00000000000E+00 0. -1.
         24    2    1    2    0    0  0.68412252746E+01 -0.21958414727E+02  0.91465320053E+02  0.12407424254E+03  0.80619715639E+02 0.  0.
         23    2    1    2    0    0 -0.32646247201E+02 -0.12045634703E+03  0.39831091869E+03  0.42722344231E+03  0.91064662269E+02 0.  0.
        -11    1    3    3    0    0 -0.23972235423E+02 -0.15588890433E+02  0.13536883335E+01  0.28627155783E+02  0.00000000000E+00 0.  1.
         12    1    3    3    0    0  0.30813460698E+02 -0.63695242947E+01  0.90111631719E+02  0.95447086760E+02  0.00000000000E+00 0. -1.
        -13    1    4    4    0    0 -0.55780694326E+02 -0.10634504876E+03  0.26150715566E+03  0.28776161613E+03  0.00000000000E+00 0. -1.
         13    1    4    4    0    0  0.23134447126E+02 -0.14111298272E+02  0.13680376302E+03  0.13946182618E+03  0.00000000000E+00 0.  1.
          1    1    1    2  501    0  0.25805021926E+02  0.14241476176E+03 -0.11680680693E+03  0.18598842348E+03  0.00000000000E+00 0. -1.
<scales pt_clust_5="13000.00000" pt_clust_6="13000.00000" pt_clust_7="13000.00000" pt_clust_8="13000.00000" pt_clust_9="143.15977"></scales>
<clustering>
<clus scale="   80.620">  5  6 -1 -1</clus>
<clus scale="   83.836">  1  5  2 -1</clus>
<clus scale="   91.065">  7  8 -1 -1</clus>
<clus scale="  143.160">  2  9  1 -1</clus>
<clus scale="  143.160">  2  5  1 -1</clus>
</clustering>
</event>
<event>
 9    2  0.1592151E-004  0.1171617E+03  0.7546771E-02  0.1250565E+00
         21   -1    0    0  501  502  0.00000000000E+00  0.00000000000E+00  0.33536434963E+02  0.33536434963E+02  0.00000000000E+00 0.  1.
          2   -1    0    0  502    0 -0.00000000000E+00 -0.00000000000E+00 -0.52352677191E+03  0.52352677191E+03  0.00000000000E+00 0. -1.
         24    2    1    2    0    0  0.66309496619E+02 -0.39393723850E+00 -0.22276577896E+03  0.24579018011E+03  0.79944454689E+02 0.  0.
         23    2    1    2    0    0 -0.90865867579E+02 -0.11199421078E+01 -0.25271715631E+03  0.28271130607E+03  0.88328145724E+02 0.  0.
        -11    1    3    3    0    0  0.67376297044E+02  0.25503068697E+02 -0.19463243909E+03  0.20753736595E+03  0.00000000000E+00 0.  1.
         12    1    3    3    0    0 -0.10668004248E+01 -0.25897005936E+02 -0.28133339867E+02  0.38252814166E+02  0.00000000000E+00 0. -1.
        -13    1    4    4    0    0 -0.40876929798E+02  0.42921221242E+02 -0.13523025586E+03  0.14764950634E+03  0.00000000000E+00 0. -1.
         13    1    4    4    0    0 -0.49988937781E+02 -0.44041163350E+02 -0.11748690045E+03  0.13506179973E+03  0.00000000000E+00 0.  1.
          1    1    1    2  501    0  0.24556370959E+02  0.15138793463E+01 -0.14507401681E+02  0.28561720692E+02  0.00000000000E+00 0. -1.
<scales pt_clust_5="13000.00000" pt_clust_6="13000.00000" pt_clust_7="13000.00000" pt_clust_8="13000.00000" pt_clust_9="24.60299"></scales>
<clustering>
<clus scale="   24.603">  1  9  2 -1</clus>
<clus scale="   79.944">  5  6 -1 -1</clus>
<clus scale="   88.328">  7  8 -1 -1</clus>
<clus scale="  110.978">  2  5  1 -1</clus>
<clus scale="   24.603">  1  5  2 -1</clus>
</clustering>
</event>
<event>
 9    2  0.1592151E-004  0.2642770E+03  0.7546771E-02  0.1105228E+00
         21   -1    0    0  501  502  0.00000000000E+00  0.00000000000E+00  0.15731457440E+03  0.15731457440E+03  0.00000000000E+00 0. -1.
          2   -1    0    0  502    0 -0.00000000000E+00 -0.00000000000E+00 -0.10551502406E+04  0.10551502406E+04  0.00000000000E+00 0. -1.
         23    2    1    2    0    0  0.38299608424E+02 -0.29124398097E+03 -0.41198204370E+03  0.51440720395E+03  0.92712732088E+02 0.  0.
         24    2    1    2    0    0 -0.86996762982E+02  0.14868460478E+03 -0.51806578275E+00  0.18987930452E+03  0.79864469105E+02 0.  0.
        -11    1    4    4    0    0 -0.26335658669E+02 -0.27522899471E+01 -0.35534277636E+01  0.26716453102E+02  0.00000000000E+00 0.  1.
         12    1    4    4    0    0 -0.60661104313E+02  0.15143689472E+03  0.30353619808E+01  0.16316285142E+03  0.00000000000E+00 0. -1.
        -13    1    3    3    0    0 -0.21825363948E+02 -0.18106066374E+03 -0.23628300748E+03  0.29847775476E+03  0.00000000000E+00 0.  1.
         13    1    3    3    0    0  0.60124972371E+02 -0.11018331723E+03 -0.17569903622E+03  0.21592944919E+03  0.00000000000E+00 0. -1.
          1    1    1    2  501    0  0.48697154559E+02  0.14255937620E+03 -0.48533555668E+03  0.50817830649E+03  0.00000000000E+00 0. -1.
<scales pt_clust_5="13000.00000" pt_clust_6="13000.00000" pt_clust_7="13000.00000" pt_clust_8="13000.00000" pt_clust_9="150.64731"></scales>
<clustering>
<clus scale="   79.864">  5  6 -1 -1</clus>
<clus scale="   92.713">  7  8 -1 -1</clus>
<clus scale="  150.647">  1  9  2 -1</clus>
<clus scale="  260.048">  1  5  2 -1</clus>
<clus scale="  150.647">  1  5  2 -1</clus>
</clustering>
</event>
<event>
 9    2  0.1592151E-004  0.9446785E+02  0.7546771E-02  0.1299522E+00
          2   -1    0    0  502    0 -0.00000000000E+00  0.00000000000E+00  0.45013671324E+03  0.45013671324E+03  0.00000000000E+00 0. -1.
         21   -1    0    0  501  502  0.00000000000E+00 -0.00000000000E+00 -0.54134742360E+02  0.54134742360E+02  0.00000000000E+00 0. -1.
         24    2    1    2    0    0  0.18152587555E+02  0.26540415303E+01  0.32602539631E+03  0.33612593169E+03  0.79696439959E+02 0.  0.
         23    2    1    2    0    0 -0.54552982633E+02 -0.77651425677E+01  0.24814227527E+02  0.10991537961E+03  0.91811325188E+02 0.  0.
        -11    1    3    3    0    0  0.37043515780E+02 -0.24456488872E+01  0.68968025837E+02  0.78324912050E+02  0.00000000000E+00 0.  1.
         12    1    3    3    0    0 -0.18890928224E+02  0.50996904175E+01  0.25705737047E+03  0.25780101964E+03  0.00000000000E+00 0. -1.
        -11    1    4    4    0    0  0.20584621296E+01 -0.38022357007E+02 -0.62771672857E+01  0.38591964550E+02  0.00000000000E+00 0.  1.
         11    1    4    4    0    0 -0.56611444763E+02  0.30257214439E+02  0.31091394813E+02  0.71323415055E+02  0.00000000000E+00 0. -1.
          1    1    1    2  501    0  0.36400395078E+02  0.51111010374E+01  0.45162347042E+02  0.58230144307E+02  0.00000000000E+00 0. -1.
<scales pt_clust_5="13000.00000" pt_clust_6="13000.00000" pt_clust_7="13000.00000" pt_clust_8="13000.00000" pt_clust_9="36.75748"></scales>
<clustering>
<clus scale="   36.757">  2  9  1 -1</clus>
<clus scale="   79.696">  5  6 -1 -1</clus>
<clus scale="   82.743">  1  5  2 -1</clus>
<clus scale="   91.811">  7  8 -1 -1</clus>
<clus scale="   36.757">  2  5  1 -1</clus>
</clustering>
</event>
<event>
 9    2  0.1993021E-004  0.9666019E+02  0.7546771E-02  0.1292996E+00
         21   -1    0    0  501  502  0.00000000000E+00  0.00000000000E+00  0.97827018391E+02  0.97827018391E+02  0.00000000000E+00 0.  1.
         -3   -1    0    0    0  501 -0.00000000000E+00 -0.00000000000E+00 -0.51677178876E+03  0.51677178876E+03  0.00000000000E+00 0.  1.
         24    2    1    2    0    0  0.10913620788E+02 -0.30182537273E+02 -0.33421382113E+03  0.34534567236E+03  0.80837259420E+02 0.  0.
         23    2    1    2    0    0  0.33556293273E+02  0.53501559047E+02  0.52906614982E+02  0.12274221670E+03  0.90984065715E+02 0.  0.
        -11    1    3    3    0    0  0.41786510331E+02 -0.14264169167E+02 -0.25580138075E+03  0.25958413927E+03  0.00000000000E+00 0.  1.
         12    1    3    3    0    0 -0.30872889543E+02 -0.15918368105E+02 -0.78412440380E+02  0.85761533092E+02  0.00000000000E+00 0. -1.
        -11    1    4    4    0    0  0.60821332781E+02  0.34374847917E+02  0.13515407364E+02  0.71158491600E+02  0.00000000000E+00 0. -1.
         11    1    4    4    0    0 -0.27265039508E+02  0.19126711130E+02  0.39391207619E+02  0.51583725105E+02  0.00000000000E+00 0.  1.
         -4    1    1    2    0  502 -0.44469914061E+02 -0.23319021775E+02 -0.13763756423E+03  0.14651091809E+03  0.00000000000E+00 0.  1.
<scales pt_clust_5="13000.00000" pt_clust_6="13000.00000" pt_clust_7="13000.00000" pt_clust_8="13000.00000" pt_clust_9="50.21307"></scales>
<clustering>
<clus scale="   50.213">  1  9  2 -1</clus>
<clus scale="   80.837">  5  6 -1 -1</clus>
<clus scale="   87.177">  2  5  1 -1</clus>
<clus scale="   90.984">  7  8 -1 -1</clus>
<clus scale="   50.213">  1  5  2 -1</clus>
</clustering>
</event>
<event>
 9    2  0.1592151E-004  0.1047781E+03  0.7546771E-02  0.1275155E+00
          2   -1    0    0  502    0 -0.00000000000E+00  0.00000000000E+00  0.11622005229E+03  0.11622005229E+03  0.00000000000E+00 0. -1.
         21   -1    0    0  501  502  0.00000000000E+00 -0.00000000000E+00 -0.25236090518E+03  0.25236090518E+03  0.00000000000E+00 0.  1.
         23    2    1    2    0    0  0.25931331599E+02  0.15410423377E+02 -0.36661745271E+02  0.10221037544E+03  0.90514983150E+02 0.  0.
         24    2    1    2    0    0 -0.45189172703E+02 -0.98584296739E+02 -0.11783271766E+03  0.17904582806E+03  0.80074554636E+02 0.  0.
        -13    1    4    4    0    0 -0.64753465585E+01 -0.56030079212E+02 -0.10635085934E+03  0.12038191381E+03  0.00000000000E+00 0.  1.
         14    1    4    4    0    0 -0.38713826144E+02 -0.42554217527E+02 -0.11481858314E+02  0.58663914244E+02  0.00000000000E+00 0. -1.
        -13    1    3    3    0    0 -0.18828320861E+02  0.39598331725E+02 -0.23086911775E+02  0.49553395819E+02  0.00000000000E+00 0. -1.
         13    1    3    3    0    0  0.44759652460E+02 -0.24187908349E+02 -0.13574833496E+02  0.52656979623E+02  0.00000000000E+00 0.  1.
          1    1    1    2  501    0  0.19257841104E+02  0.83173873363E+02  0.18353610036E+02  0.87324753967E+02  0.00000000000E+00 0. -1.
<scales pt_clust_5="13000.00000" pt_clust_6="13000.00000" pt_clust_7="13000.00000" pt_clust_8="13000.00000" pt_clust_9="85.37426"></scales>
<clustering>
<clus scale="   80.075">  5  6 -1 -1</clus>
<clus scale="   85.374">  2  9  1 -1</clus>
<clus scale="   90.515">  7  8 -1 -1</clus>
<clus scale="   95.903">  2  5  1 -1</clus>
<clus scale="   85.374">  2  5  1 -1</clus>
</clustering>
</event>
<event>
 9    2  0.1592151E-004  0.1055992E+03  0.7546771E-02  0.1273878E+00
         21   -1    0    0  501  502  0.00000000000E+00  0.00000000000E+00  0.13512665974E+03  0.13512665974E+03  0.00000000000E+00 0.  1.
         -1   -1    0    0    0  501 -0.00000000000E+00 -0.00000000000E+00 -0.24021679040E+03  0.24021679040E+03  0.00000000000E+00 0.  1.
         24    2    1    2    0    0  0.36358601450E+02  0.55608917314E+02 -0.15775063569E+03  0.18936795824E+03  0.80997907154E+02 0.  0.
         23    2    1    2    0    0  0.23337495998E+02  0.15062522091E+01  0.36144602405E+02  0.10172264816E+03  0.92163752907E+02 0.  0.
        -13    1    3    3    0    0  0.25401862106E+01  0.49898214472E+02 -0.14399221338E+03  0.15241404748E+03  0.00000000000E+00 0.  1.
         14    1    3    3    0    0  0.33818415239E+02  0.57107028426E+01 -0.13758422305E+02  0.36953910762E+02  0.00000000000E+00 0. -1.
        -11    1    4    4    0    0  0.48592941233E+02 -0.56690036696E+01  0.51722331203E+02  0.71194178732E+02  0.00000000000E+00 0.  1.
         11    1    4    4    0    0 -0.25255445235E+02  0.71752558787E+01 -0.15577728798E+02  0.30528469425E+02  0.00000000000E+00 0. -1.
         -2    1    1    2    0  502 -0.59696097448E+02 -0.57115169523E+02  0.16515902615E+02  0.84252843747E+02  0.00000000000E+00 0.  1.
<scales pt_clust_5="13000.00000" pt_clust_6="13000.00000" pt_clust_7="13000.00000" pt_clust_8="13000.00000" pt_clust_9="82.61820"></scales>
<clustering>
<clus scale="   80.998">  5  6 -1 -1</clus>
<clus scale="   82.618">  1  9  2 -1</clus>
<clus scale="   92.164">  7  8 -1 -1</clus>
<clus scale="   96.009">  2  5  1 -1</clus>
<clus scale="   82.618">  1  5  2 -1</clus>
</clustering>
</event>
<event>
 9    2  0.1592151E-004  0.1254795E+03  0.7546771E-02  0.1236778E+00
         21   -1    0    0  501  502  0.00000000000E+00  0.00000000000E+00  0.87588946659E+03  0.87588946659E+03  0.00000000000E+00 0.  1.
         -1   -1    0    0    0  501 -0.00000000000E+00 -0.00000000000E+00 -0.25419556460E+02  0.25419556460E+02  0.00000000000E+00 0.  1.
         23    2    1    2    0    0  0.84072953387E+01 -0.94963805359E+02  0.35994081615E+03  0.38375093991E+03  0.92836338847E+02 0.  0.
         24    2    1    2    0    0  0.59529630586E+01  0.70847637098E+02  0.47003296437E+03  0.48280325726E+03  0.84339623981E+02 0.  0.
        -13    1    4    4    0    0  0.27212709264E+02  0.62053016905E+02  0.18807622409E+03  0.19990941579E+03  0.00000000000E+00 0.  1.
         14    1    4    4    0    0 -0.21259746205E+02  0.87946201933E+01  0.28195674028E+03  0.28289384147E+03  0.00000000000E+00 0. -1.
        -11    1    3    3    0    0 -0.14300514665E+02 -0.78572080351E+02  0.34029657444E+03  0.34954232234E+03  0.00000000000E+00 0.  1.
         11    1    3    3    0    0  0.22707810003E+02 -0.16391725007E+02  0.19644241705E+02  0.34208617569E+02  0.00000000000E+00 0. -1.
         -2    1    1    2    0  502 -0.14360258397E+02  0.24116168261E+02  0.20496129608E+02  0.34754825876E+02  0.00000000000E+00 0.  1.
<scales pt_clust_5="13000.00000" pt_clust_6="13000.00000" pt_clust_7="13000.00000" pt_clust_8="13000.00000" pt_clust_9="28.06791"></scales>
<clustering>
<clus scale="   28.068">  1  9  2 -1</clus>
<clus scale="   84.340">  5  6 -1 -1</clus>
<clus scale="   92.836">  7  8 -1 -1</clus>
<clus scale="  119.330">  1  5  2 -1</clus>
<clus scale="   28.068">  1  5  2 -1</clus>
</clustering>
</event>
<event>
 9    2  0.1592151E-004  0.1872360E+03  0.7546771E-02  0.1194430E+00
         -1   -1    0    0    0  501 -0.00000000000E+00  0.00000000000E+00  0.65123404345E+02  0.65123404345E+02  0.00000000000E+00 0.  1.
         21   -1    0    0  501  502  0.00000000000E+00 -0.00000000000E+00 -0.90481871730E+03  0.90481871730E+03  0.00000000000E+00 0. -1.
         23    2    1    2    0    0 -0.14253867889E+02  0.26494421849E+02 -0.99766253312E+02  0.13302625981E+03  0.82689499692E+02 0.  0.
         24    2    1    2    0    0  0.10177199206E+03 -0.16025527264E+03 -0.26814593079E+03  0.33878866129E+03  0.82681473363E+02 0.  0.
        -11    1    4    4    0    0  0.64423574278E+02 -0.31023507098E+02 -0.10962209120E+03  0.13088108265E+03  0.00000000000E+00 0.  1.
         12    1    4    4    0    0  0.37348417781E+02 -0.12923176555E+03 -0.15852383959E+03  0.20790757864E+03  0.00000000000E+00 0. -1.
        -13    1    3    3    0    0 -0.35525868321E+02 -0.11736594148E+02 -0.20947882824E+02  0.42879467779E+02  0.00000000000E+00 0.  1.
         13    1    3    3    0    0  0.21272000432E+02  0.38231015996E+02 -0.78818370489E+02  0.90146792028E+02  0.00000000000E+00 0. -1.
         -2    1    1    2    0  502 -0.87518124170E+02  0.13376085079E+03 -0.47178312885E+03  0.49812720056E+03  0.00000000000E+00 0.  1.
<scales pt_clust_5="13000.00000" pt_clust_6="13000.00000" pt_clust_7="13000.00000" pt_clust_8="13000.00000" pt_clust_9="167.99135"></scales>
<clustering>
<clus scale="   82.681">  5  6 -1 -1</clus>
<clus scale="   82.689">  7  8 -1 -1</clus>
<clus scale="   87.993">  1  7  2 -1</clus>
<clus scale="  167.991">  2  9  1 -1</clus>
<clus scale="  167.991">  2  5  1 -1</clus>
</clustering>
</event>
<event>
 9    2  0.1592151E-004  0.3626509E+03  0.7546771E-02  0.1058039E+00
         21   -1    0    0  501  502  0.00000000000E+00  0.00000000000E+00  0.29806336174E+03  0.29806336174E+03  0.00000000000E+00 0. -1.
          2   -1    0    0  502    0 -0.00000000000E+00 -0.00000000000E+00 -0.65914787307E+03  0.65914787307E+03  0.00000000000E+00 0. -1.
         23    2    1    2    0    0  0.73968784136E+02  0.35439025003E+03 -0.24097246810E+03  0.44456698890E+03  0.92240158804E+02 0.  0.
         24    2    1    2    0    0  0.38254611779E+02 -0.34040446520E+03 -0.26458085949E+01  0.34958594637E+03  0.69747532914E+02 0.  0.
        -13    1    4    4    0    0 -0.16671716847E+02 -0.51307446889E+02 -0.11600099022E+02  0.55181179275E+02  0.00000000000E+00 0.  1.
         14    1    4    4    0    0  0.54926328625E+02 -0.28909701831E+03  0.89542904272E+01  0.29440476710E+03  0.00000000000E+00 0. -1.
        -11    1    3    3    0    0  0.46891839565E+02  0.33920902944E+03 -0.22394445021E+03  0.40916100383E+03  0.00000000000E+00 0. -1.
         11    1    3    3    0    0  0.27076944571E+02  0.15181220587E+02 -0.17028017890E+02  0.35405985074E+02  0.00000000000E+00 0.  1.
          1    1    1    2  501    0 -0.11222339591E+03 -0.13985784830E+02 -0.11746623464E+03  0.16305829954E+03  0.00000000000E+00 0. -1.
<scales pt_clust_5="13000.00000" pt_clust_6="13000.00000" pt_clust_7="13000.00000" pt_clust_8="13000.00000" pt_clust_9="113.09158"></scales>
<clustering>
<clus scale="   69.748">  5  6 -1 -1</clus>
<clus scale="   92.240">  7  8 -1 -1</clus>
<clus scale="  113.092">  1  9  2 -1</clus>
<clus scale="  357.592">  1  5  2 -1</clus>
<clus scale="  113.092">  1  5  2 -1</clus>
</clustering>
</event>
<event>
 9    2  0.1592151E-004  0.1022779E+03  0.7546771E-02  0.1286820E+00
          2   -1    0    0  502    0 -0.00000000000E+00  0.00000000000E+00  0.54274576718E+03  0.54274576718E+03  0.00000000000E+00 0. -1.
         21   -1    0    0  501  502  0.00000000000E+00 -0.00000000000E+00 -0.26041613217E+02  0.26041613217E+02  0.00000000000E+00 0.  1.
         24    2    1    2    0    0  0.16109177932E+02 -0.18925379326E+02  0.35428875494E+03  0.36409102040E+03  0.80150319183E+02 0.  0.
         23    2    1    2    0    0 -0.78128632255E+01 -0.79421844309E+00  0.14777887393E+03  0.17877495493E+03  0.10030063467E+03 0.  0.
        -11    1    3    3    0    0 -0.21267752361E+02 -0.34518107075E+02  0.22445644555E+03  0.22808882690E+03  0.00000000000E+00 0.  1.
         12    1    3    3    0    0  0.37376930294E+02  0.15592727749E+02  0.12983230938E+03  0.13600219350E+03  0.00000000000E+00 0. -1.
        -13    1    4    4    0    0 -0.40661938383E+02 -0.25486461316E+02  0.11981554132E+03  0.12906865183E+03  0.00000000000E+00 0. -1.
         13    1    4    4    0    0  0.32849075158E+02  0.24692242873E+02  0.27963332607E+02  0.49706303094E+02  0.00000000000E+00 0.  1.
          1    1    1    2  501    0 -0.82963147068E+01  0.19719597769E+02  0.14636525093E+02  0.25921405068E+02  0.00000000000E+00 0. -1.
<scales pt_clust_5="13000.00000" pt_clust_6="13000.00000" pt_clust_7="13000.00000" pt_clust_8="13000.00000" pt_clust_9="21.39372"></scales>
<clustering>
<clus scale="   21.394">  2  9  1 -1</clus>
<clus scale="   80.150">  5  6 -1 -1</clus>
<clus scale="   82.611">  1  5  2 -1</clus>
<clus scale="  100.301">  7  8 -1 -1</clus>
<clus scale="   21.394">  2  5  1 -1</clus>
</clustering>
</event>
<event>
 9    2  0.1592151E-004  0.9078580E+02  0.7546771E-02  0.1305174E+00
          2   -1    0    0  502    0 -0.00000000000E+00  0.00000000000E+00  0.17828048982E+03  0.17828048982E+03  0.00000000000E+00 0. -1.
         21   -1    0    0  501  502  0.00000000000E+00 -0.00000000000E+00 -0.92055124971E+02  0.92055124971E+02  0.00000000000E+00 0. -1.
         23    2    1    2    0    0 -0.18268850473E+02 -0.17440039924E+02  0.58508077125E+02  0.10844005598E+03  0.87739072041E+02 0.  0.
         24    2    1    2    0    0 -0.12608348984E+02  0.31030501253E+02 -0.32190553365E+02  0.93142002469E+02  0.80730034225E+02 0.  0.
        -11    1    4    4    0    0  0.25987839842E+01 -0.26829722361E+02 -0.15224147736E+02  0.30957428098E+02  0.00000000000E+00 0.  1.
         12    1    4    4    0    0 -0.15207132969E+02  0.57860223613E+02 -0.16966405629E+02  0.62184574371E+02  0.00000000000E+00 0. -1.
        -11    1    3    3    0    0  0.23299190944E+02  0.14761620688E+02  0.47181559655E+02  0.54652148315E+02  0.00000000000E+00 0.  1.
         11    1    3    3    0    0 -0.41568041417E+02 -0.32201660611E+02  0.11326517470E+02  0.53787907668E+02  0.00000000000E+00 0. -1.
          1    1    1    2  501    0  0.30877199457E+02 -0.13590461329E+02  0.59907841093E+02  0.68753556344E+02  0.00000000000E+00 0. -1.
<scales pt_clust_5="13000.00000" pt_clust_6="13000.00000" pt_clust_7="13000.00000" pt_clust_8="13000.00000" pt_clust_9="33.73579"></scales>
<clustering>
<clus scale="   33.736">  2  9  1 -1</clus>
<clus scale="   80.730">  5  6 -1 -1</clus>
<clus scale="   84.031">  2  5  1 -1</clus>
<clus scale="   87.739">  7  8 -1 -1</clus>
<clus scale="   33.736">  2  5  1 -1</clus>
</clustering>
</event>
<event>
 9    2  0.1592151E-004  0.9828288E+02  0.7546771E-02  0.1284830E+00
         -3   -1    0    0    0  501 -0.00000000000E+00  0.00000000000E+00  0.65257421141E+02  0.65257421141E+02  0.00000000000E+00 0.  1.
         21   -1    0    0  501  502  0.00000000000E+00 -0.00000000000E+00 -0.49711226147E+03  0.49711226147E+03  0.00000000000E+00 0.  1.
         24    2    1    2    0    0 -0.55653337141E+00  0.16103227463E+02 -0.93312232615E+02  0.13461084785E+03  0.95672796235E+02 0.  0.
         23    2    1    2    0    0  0.81813602090E+02  0.36245625776E+02 -0.29704837741E+03  0.32256907860E+03  0.88350784229E+02 0.  0.
        -13    1    3    3    0    0  0.25817317759E+02 -0.28266804341E+02 -0.65783953635E+02  0.76112250523E+02  0.00000000000E+00 0.  1.
         14    1    3    3    0    0 -0.26373851130E+02  0.44370031804E+02 -0.27528278981E+02  0.58498597328E+02  0.00000000000E+00 0. -1.
        -13    1    4    4    0    0  0.72956190382E+02  0.60676775330E+02 -0.18956318072E+03  0.21198697192E+03  0.00000000000E+00 0.  1.
         13    1    4    4    0    0  0.88574117082E+01 -0.24431149554E+02 -0.10748519669E+03  0.11058210668E+03  0.00000000000E+00 0. -1.
         -4    1    1    2    0  502 -0.81257068719E+02 -0.52348853239E+02 -0.41494230306E+02  0.10518975616E+03  0.00000000000E+00 0.  1.
<scales pt_clust_5="13000.00000" pt_clust_6="13000.00000" pt_clust_7="13000.00000" pt_clust_8="13000.00000" pt_clust_9="96.65983"></scales>
<clustering>
<clus scale="   88.351">  7  8 -1 -1</clus>
<clus scale="   95.673">  5  6 -1 -1</clus>
<clus scale="   96.660">  2  9  1 -1</clus>
<clus scale="   96.660">  2  7  1 -1</clus>
<clus scale="   96.660">  2  5  1 -1</clus>
</clustering>
</event>
<event>
 9    2  0.1592151E-004  0.1399096E+03  0.7546771E-02  0.1215790E+00
         21   -1    0    0  501  502  0.00000000000E+00  0.00000000000E+00  0.96492751584E+03  0.96492751584E+03  0.00000000000E+00 0.  1.
         -1   -1    0    0    0  501 -0.00000000000E+00 -0.00000000000E+00 -0.75364961221E+02  0.75364961221E+02  0.00000000000E+00 0.  1.
         24    2    1    2    0    0 -0.70542094636E+02  0.60644630428E+02  0.52817146345E+02  0.13373872787E+03  0.80264799687E+02 0.  0.
         23    2    1    2    0    0  0.18506927948E+03 -0.17775912278E+02  0.36917849831E+03  0.42325982377E+03  0.91046655795E+02 0.  0.
        -13    1    3    3    0    0 -0.38249423261E+02  0.72734148673E+02  0.16802175922E+02  0.83878411279E+02  0.00000000000E+00 0.  1.
         14    1    3    3    0    0 -0.32292671375E+02 -0.12089518245E+02  0.36014970424E+02  0.49860316591E+02  0.00000000000E+00 0. -1.
        -11    1    4    4    0    0  0.50877573942E+02 -0.46544949364E+02  0.10617863982E+03  0.12660514758E+03  0.00000000000E+00 0. -1.
         11    1    4    4    0    0  0.13419170554E+03  0.28769037086E+02  0.26299985850E+03  0.29665467618E+03  0.00000000000E+00 0.  1.
         -2    1    1    2    0  502 -0.11452718485E+03 -0.42868718150E+02  0.46756690996E+03  0.48329392543E+03  0.00000000000E+00 0.  1.
<scales pt_clust_5="13000.00000" pt_clust_6="13000.00000" pt_clust_7="13000.00000" pt_clust_8="13000.00000" pt_clust_9="122.28738"></scales>
<clustering>
<clus scale="   80.265">  5  6 -1 -1</clus>
<clus scale="   91.047">  7  8 -1 -1</clus>
<clus scale="  122.287">  1  9  2 -1</clus>
<clus scale="  133.145">  2  5  1 -1</clus>
<clus scale="  122.287">  1  5  2 -1</clus>
</clustering>
</event>
<event>
 9    2  0.1592151E-004  0.1434416E+03  0.7546771E-02  0.1216930E+00
         -1   -1    0    0    0  501 -0.00000000000E+00  0.00000000000E+00  0.33016270380E+02  0.33016270380E+02  0.00000000000E+00 0.  1.
         21   -1    0    0  501  502  0.00000000000E+00 -0.00000000000E+00 -0.10787521845E+04  0.10787521845E+04  0.00000000000E+00 0. -1.
         23    2    1    2    0    0 -0.72410249155E+02 -0.18703280640E+02 -0.43903403370E+03  0.46003802543E+03  0.11528679542E+03 0.  0.
         24    2    1    2    0    0  0.87047731960E+02  0.52696834417E+02 -0.59951066496E+03  0.61402723089E+03  0.85218183902E+02 0.  0.
        -13    1    4    4    0    0  0.59162532138E+02  0.17359786999E+02 -0.14871681600E+03  0.16099148666E+03  0.00000000000E+00 0.  1.
         14    1    4    4    0    0  0.27885199822E+02  0.35337047419E+02 -0.45079384896E+03  0.45303574423E+03  0.00000000000E+00 0. -1.
        -11    1    3    3    0    0 -0.83076978197E+02  0.23581386673E+02 -0.21309719512E+03  0.22993103460E+03  0.00000000000E+00 0.  1.
         11    1    3    3    0    0  0.10666729041E+02 -0.42284667313E+02 -0.22593683858E+03  0.23010699082E+03  0.00000000000E+00 0. -1.
         -2    1    1    2    0  502 -0.14637482805E+02 -0.33993553777E+02 -0.71912154315E+01  0.37703198546E+02  0.00000000000E+00 0.  1.
<scales pt_clust_5="13000.00000" pt_clust_6="13000.00000" pt_clust_7="13000.00000" pt_clust_8="13000.00000" pt_clust_9="37.01107"></scales>
<clustering>
<clus scale="   37.011">  2  9  1 -1</clus>
<clus scale="   85.218">  5  6 -1 -1</clus>
<clus scale="  115.287">  7  8 -1 -1</clus>
<clus scale="  120.609">  2  5  1 -1</clus>
<clus scale="   37.011">  2  5  1 -1</clus>
</clustering>
</event>
<event>
 9    2  0.1592151E-004  0.9845371E+02  0.7546771E-02  0.1290619E+00
         -3   -1    0    0    0  501 -0.00000000000E+00  0.00000000000E+00  0.19931395255E+03  0.19931395255E+03  0.00000000000E+00 0.  1.
         21   -1    0    0  501  502  0.00000000000E+00 -0.00000000000E+00 -0.69819464712E+02  0.69819464712E+02  0.00000000000E+00 0.  1.
         23    2    1    2    0    0  0.14330179891E+02  0.28057715390E+02  0.81385048087E+02  0.12631030080E+03  0.91313616658E+02 0.  0.
         24    2    1    2    0    0 -0.45951693673E+02 -0.16284910982E+02  0.56642162382E+02  0.10801900157E+03  0.77993677077E+02 0.  0.
        -13    1    4    4    0    0 -0.62047890711E+02 -0.17070919609E+02  0.63588603439E+02  0.90470257684E+02  0.00000000000E+00 0.  1.
         14    1    4    4    0    0  0.16096197038E+02  0.78600862738E+00 -0.69464410579E+01  0.17548743887E+02  0.00000000000E+00 0. -1.
        -11    1    3    3    0    0 -0.75411123623E+01 -0.30577602240E+02  0.14367543685E+02  0.34616245405E+02  0.00000000000E+00 0.  1.
         11    1    3    3    0    0  0.21871292253E+02  0.58635317630E+02  0.67017504402E+02  0.91694055394E+02  0.00000000000E+00 0. -1.
         -4    1    1    2    0  502  0.31621513782E+02 -0.11772804408E+02 -0.85327226353E+01  0.34804114887E+02  0.00000000000E+00 0.  1.
<scales pt_clust_5="13000.00000" pt_clust_6="13000.00000" pt_clust_7="13000.00000" pt_clust_8="13000.00000" pt_clust_9="33.74195"></scales>
<clustering>
<clus scale="   33.742">  2  9  1 -1</clus>
<clus scale="   77.994">  5  6 -1 -1</clus>
<clus scale="   86.244">  2  5  1 -1</clus>
<clus scale="   91.314">  7  8 -1 -1</clus>
<clus scale="   33.742">  2  5  1 -1</clus>
</clustering>
</event>
<event>
 9    2  0.1592151E-004  0.9448644E+02  0.7546771E-02  0.1297959E+00
         21   -1    0    0  501  502  0.00000000000E+00  0.00000000000E+00  0.66504954454E+02  0.66504954454E+02  0.00000000000E+00 0.  1.
          2   -1    0    0  502    0 -0.00000000000E+00 -0.00000000000E+00 -0.25740227081E+03  0.25740227081E+03  0.00000000000E+00 0. -1.
         24    2    1    2    0    0  0.86569081902E+01 -0.23731703647E+02 -0.17831258043E+03  0.19825376997E+03  0.82891767694E+02 0.  0.
         23    2    1    2    0    0  0.74401508779E+01 -0.40085124553E+01 -0.74320965052E+01  0.93169850302E+02  0.92487625819E+02 0.  0.
        -11    1    3    3    0    0  0.25430460094E+02  0.10110677259E+02 -0.16206415076E+02  0.31805376666E+02  0.00000000000E+00 0.  1.
         12    1    3    3    0    0 -0.16773551904E+02 -0.33842380906E+02 -0.16210616535E+03  0.16644839331E+03  0.00000000000E+00 0. -1.
        -13    1    4    4    0    0  0.10539767232E+02  0.24613535582E+02  0.33651066865E+02  0.43003571111E+02  0.00000000000E+00 0.  1.
         13    1    4    4    0    0 -0.30996163544E+01 -0.28622048037E+02 -0.41083163370E+02  0.50166279191E+02  0.00000000000E+00 0. -1.
          1    1    1    2  501    0 -0.16097059068E+02  0.27740216102E+02 -0.51526394190E+01  0.32483604988E+02  0.00000000000E+00 0. -1.
<scales pt_clust_5="13000.00000" pt_clust_6="13000.00000" pt_clust_7="13000.00000" pt_clust_8="13000.00000" pt_clust_9="32.07234"></scales>
<clustering>
<clus scale="   32.072">  1  9  2 -1</clus>
<clus scale="   82.892">  5  6 -1 -1</clus>
<clus scale="   85.116">  2  5  1 -1</clus>
<clus scale="   92.488">  7  8 -1 -1</clus>
<clus scale="   32.072">  1  5  2 -1</clus>
</clustering>
</event>
<event>
 9    2  0.1592151E-004  0.2174775E+03  0.7546771E-02  0.1136227E+00
         21   -1    0    0  501  502  0.00000000000E+00  0.00000000000E+00  0.70242521357E+02  0.70242521357E+02  0.00000000000E+00 0. -1.
          2   -1    0    0  502    0 -0.00000000000E+00 -0.00000000000E+00 -0.13210693536E+04  0.13210693536E+04  0.00000000000E+00 0. -1.
         24    2    1    2    0    0  0.17743382902E+03 -0.80753624157E+02 -0.85628483210E+03  0.88232795801E+03  0.85293612293E+02 0.  0.
         23    2    1    2    0    0 -0.20000431441E+03  0.47971544742E+02 -0.40888668823E+03  0.46667716074E+03  0.91083772778E+02 0.  0.
        -11    1    3    3    0    0  0.60859502327E+02  0.13927661450E+02 -0.26804536674E+03  0.27522023438E+03  0.00000000000E+00 0.  1.
         12    1    3    3    0    0  0.11657432669E+03 -0.94681285608E+02 -0.58823946536E+03  0.60710772363E+03  0.00000000000E+00 0. -1.
        -13    1    4    4    0    0 -0.13936031449E+03  0.74084533942E+02 -0.26655678804E+03  0.30977788280E+03  0.00000000000E+00 0.  1.
         13    1    4    4    0    0 -0.60643999927E+02 -0.26112989199E+02 -0.14232990018E+03  0.15689927794E+03  0.00000000000E+00 0. -1.
          1    1    1    2  501    0  0.22570485392E+02  0.32782079415E+02  0.14344688109E+02  0.42306756181E+02  0.00000000000E+00 0. -1.
<scales pt_clust_5="13000.00000" pt_clust_6="13000.00000" pt_clust_7="13000.00000" pt_clust_8="13000.00000" pt_clust_9="39.80065"></scales>
<clustering>
<clus scale="   39.801">  1  9  2 -1</clus>
<clus scale="   85.294">  5  6 -1 -1</clus>
<clus scale="   91.084">  7  8 -1 -1</clus>
<clus scale="  215.117">  2  5  1 -1</clus>
<clus scale="   39.801">  1  5  2 -1</clus>
</clustering>
</event>
<event>
 9    2  0.1592151E-004  0.9355121E+02  0.7546771E-02  0.1300758E+00
          2   -1    0    0  502    0 -0.00000000000E+00  0.00000000000E+00  0.28755146124E+03  0.28755146124E+03  0.00000000000E+00 0. -1.
         21   -1    0    0  501  502  0.00000000000E+00 -0.00000000000E+00 -0.75694414422E+02  0.75694414422E+02  0.00000000000E+00 0.  1.
         24    2    1    2    0    0 -0.61535571899E+01 -0.15646076093E+02  0.21568493973E+03  0.23093838175E+03  0.80807654184E+02 0.  0.
         23    2    1    2    0    0  0.78465527259E+01  0.37639538974E+02  0.18600452768E+02  0.10084943717E+03  0.91358244573E+02 0.  0.
        -11    1    3    3    0    0  0.23508891822E+02 -0.31653043590E+02  0.61068817511E+02  0.72691014819E+02  0.00000000000E+00 0.  1.
         12    1    3    3    0    0 -0.29662449012E+02  0.16006967497E+02  0.15461612222E+03  0.15824736693E+03  0.00000000000E+00 0. -1.
        -11    1    4    4    0    0  0.40515259345E+02 -0.89512320762E+01  0.18551053669E+01  0.41533747861E+02  0.00000000000E+00 0.  1.
         11    1    4    4    0    0 -0.32668706619E+02  0.46590771050E+02  0.16745347401E+02  0.59315689314E+02  0.00000000000E+00 0. -1.
          1    1    1    2  501    0 -0.16929955361E+01 -0.21993462881E+02 -0.22428345685E+02  0.31458056735E+02  0.00000000000E+00 0. -1.
<scales pt_clust_5="13000.00000" pt_clust_6="13000.00000" pt_clust_7="13000.00000" pt_clust_8="13000.00000" pt_clust_9="22.05853"></scales>
<clustering>
<clus scale="   22.059">  2  9  1 -1</clus>
<clus scale="   80.808">  5  6 -1 -1</clus>
<clus scale="   83.279">  1  5  2 -1</clus>
<clus scale="   91.358">  7  8 -1 -1</clus>
<clus scale="   22.059">  2  5  1 -1</clus>
</clustering>
</event>
<event>
 9    2  0.1592151E-004  0.1679133E+03  0.7546771E-02  0.1183298E+00
         21   -1    0    0  501  502  0.00000000000E+00  0.00000000000E+00  0.11849502289E+03  0.11849502289E+03  0.00000000000E+00 0.  1.
          2   -1    0    0  502    0 -0.00000000000E+00 -0.00000000000E+00 -0.11874133064E+04  0.11874133064E+04  0.00000000000E+00 0. -1.
         24    2    1    2    0    0  0.13199499799E+03 -0.44028005239E+02 -0.10523014045E+04  0.10635776995E+04  0.67068117224E+02 0.  0.
         23    2    1    2    0    0 -0.17187442002E+03  0.29360264926E+02 -0.25997221895E+00  0.19679976868E+03  0.91253711996E+02 0.  0.
        -13    1    3    3    0    0  0.84843243536E+02 -0.36106897193E+01 -0.43885083464E+03  0.44699157499E+03  0.00000000000E+00 0.  1.
         14    1    3    3    0    0  0.47151754456E+02 -0.40417315520E+02 -0.61345056984E+03  0.61658612454E+03  0.00000000000E+00 0. -1.
        -13    1    4    4    0    0 -0.70656479951E+02  0.35290044029E+02 -0.39219221009E+02  0.88180908722E+02  0.00000000000E+00 0. -1.
         13    1    4    4    0    0 -0.10121794007E+03 -0.59297791026E+01  0.38959248790E+02  0.10861885996E+03  0.00000000000E+00 0.  1.
          1    1    1    2  501    0  0.39879422031E+02  0.14667740313E+02 -0.16356906770E+02  0.45530861034E+02  0.00000000000E+00 0. -1.
<scales pt_clust_5="13000.00000" pt_clust_6="13000.00000" pt_clust_7="13000.00000" pt_clust_8="13000.00000" pt_clust_9="42.49130"></scales>
<clustering>
<clus scale="   42.491">  1  9  2 -1</clus>
<clus scale="   67.068">  5  6 -1 -1</clus>
<clus scale="   91.254">  7  8 -1 -1</clus>
<clus scale="  156.095">  2  5  1 -1</clus>
<clus scale="   42.491">  1  5  2 -1</clus>
</clustering>
</event>
<event>
 9    2  0.1592151E-004  0.1040538E+03  0.7546771E-02  0.1278555E+00
         -3   -1    0    0    0  501 -0.00000000000E+00  0.00000000000E+00  0.21789369054E+03  0.21789369054E+03  0.00000000000E+00 0.  1.
         21   -1    0    0  501  502  0.00000000000E+00 -0.00000000000E+00 -0.13671934209E+03  0.13671934209E+03  0.00000000000E+00 0. -1.
         23    2    1    2    0    0 -0.25520103508E+02 -0.50344783623E+02  0.11663410229E+03  0.15997062628E+03  0.93814788462E+02 0.  0.
         24    2    1    2    0    0  0.59413382889E+02 -0.29672866275E+02 -0.11986237721E+02  0.10462804838E+03  0.79955797501E+02 0.  0.
        -13    1    4    4    0    0  0.11860532296E+02  0.27035661031E+02 -0.76269988639E+01  0.30492135140E+02  0.00000000000E+00 0.  1.
         14    1    4    4    0    0  0.47552850594E+02 -0.56708527306E+02 -0.43592388570E+01  0.74135913242E+02  0.00000000000E+00 0. -1.
        -11    1    3    3    0    0  0.28318047652E+02 -0.61660025812E+01  0.65601227061E+01  0.29714754257E+02  0.00000000000E+00 0. -1.
         11    1    3    3    0    0 -0.53838151160E+02 -0.44178781042E+02  0.11007397959E+03  0.13025587202E+03  0.00000000000E+00 0.  1.
         -4    1    1    2    0  502 -0.33893279381E+02  0.80017649899E+02 -0.23473516123E+02  0.90014357975E+02  0.00000000000E+00 0.  1.
<scales pt_clust_5="13000.00000" pt_clust_6="13000.00000" pt_clust_7="13000.00000" pt_clust_8="13000.00000" pt_clust_9="86.89982"></scales>
<clustering>
<clus scale="   79.956">  5  6 -1 -1</clus>
<clus scale="   86.900">  2  9  1 -1</clus>
<clus scale="   91.755">  2  5  1 -1</clus>
<clus scale="   93.815">  7  8 -1 -1</clus>
<clus scale="   86.900">  2  5  1 -1</clus>
</clustering>
</event>
<event>
 9    2  0.1592151E-004  0.1164493E+03  0.7546771E-02  0.1252228E+00
          2   -1    0    0  502    0 -0.00000000000E+00  0.00000000000E+00  0.67229048893E+03  0.67229048893E+03  0.00000000000E+00 0. -1.
         21   -1    0    0  501  502  0.00000000000E+00 -0.00000000000E+00 -0.39355922064E+02  0.39355922064E+02  0.00000000000E+00 0. -1.
         24    2    1    2    0    0  0.60768313696E+02 -0.78527775940E+01  0.22884896230E+03  0.25010261445E+03  0.80156198410E+02 0.  0.
         23    2    1    2    0    0 -0.86221598858E+02 -0.65986400180E+02  0.30024000520E+03  0.33160534032E+03  0.89608436448E+02 0.  0.
        -11    1    3    3    0    0  0.76188922689E+02 -0.95531823467E+01  0.13787109730E+03  0.15781145302E+03  0.00000000000E+00 0.  1.
         12    1    3    3    0    0 -0.15420608994E+02  0.17004047527E+01  0.90977865005E+02  0.92291161434E+02  0.00000000000E+00 0. -1.
        -11    1    4    4    0    0 -0.86595524975E+02 -0.13766217335E+02  0.16986781043E+03  0.19116319391E+03  0.00000000000E+00 0. -1.
         11    1    4    4    0    0  0.37392611637E+00 -0.52220182845E+02  0.13037219477E+03  0.14044214640E+03  0.00000000000E+00 0.  1.
          1    1    1    2  501    0  0.25453285163E+02  0.73839177774E+02  0.10384559936E+03  0.12993845623E+03  0.00000000000E+00 0. -1.
<scales pt_clust_5="13000.00000" pt_clust_6="13000.00000" pt_clust_7="13000.00000" pt_clust_8="13000.00000" pt_clust_9="78.10310"></scales>
<clustering>
<clus scale="   78.103">  2  9  1 -1</clus>
<clus scale="   80.156">  5  6 -1 -1</clus>
<clus scale="   89.608">  7  8 -1 -1</clus>
<clus scale="  109.343">  1  5  2 -1</clus>
<clus scale="   78.103">  2  5  1 -1</clus>
</clustering>
</event>
<event>
 9    2  0.1592151E-004  0.2057344E+03  0.7546771E-02  0.1145809E+00
         21   -1    0    0  501  502  0.00000000000E+00  0.00000000000E+00  0.39453743260E+02  0.39453743260E+02  0.00000000000E+00 0. -1.
          2   -1    0    0  502    0 -0.00000000000E+00 -0.00000000000E+00 -0.12941116979E+04  0.12941116979E+04  0.00000000000E+00 0. -1.
         24    2    1    2    0    0  0.36838005629E+02  0.18413024539E+03 -0.75133168333E+03  0.77939952420E+03  0.87768639185E+02 0.  0.
         23    2    1    2    0    0 -0.73430117348E+01 -0.17371399536E+03 -0.45534058541E+03  0.49688521357E+03  0.96588791966E+02 0.  0.
        -11    1    3    3    0    0 -0.28899696942E+02  0.66762601475E+02 -0.26097984051E+03  0.27092972261E+03  0.00000000000E+00 0.  1.
         12    1    3    3    0    0  0.65737702571E+02  0.11736764392E+03 -0.49035184282E+03  0.50846980159E+03  0.00000000000E+00 0. -1.
        -11    1    4    4    0    0  0.19062301271E+02 -0.14613560353E+03 -0.26950236811E+03  0.30716528509E+03  0.00000000000E+00 0. -1.
         11    1    4    4    0    0 -0.26405313006E+02 -0.27578391833E+02 -0.18583821730E+03  0.18971992848E+03  0.00000000000E+00 0.  1.
          1    1    1    2  501    0 -0.29494993894E+02 -0.10416250028E+02 -0.47985685884E+02  0.57280703376E+02  0.00000000000E+00 0. -1.
<scales pt_clust_5="13000.00000" pt_clust_6="13000.00000" pt_clust_7="13000.00000" pt_clust_8="13000.00000" pt_clust_9="31.28023"></scales>
<clustering>
<clus scale="   31.280">  1  9  2 -1</clus>
<clus scale="   87.769">  5  6 -1 -1</clus>
<clus scale="   96.589">  7  8 -1 -1</clus>
<clus scale="  201.744">  2  5  1 -1</clus>
<clus scale="   31.280">  1  5  2 -1</clus>
</clustering>
</event>
<event>
 9    2  0.1592151E-004  0.2719457E+03  0.7546771E-02  0.1100644E+00
          2   -1    0    0  502    0 -0.00000000000E+00  0.00000000000E+00  0.79941001157E+03  0.79941001157E+03  0.00000000000E+00 0. -1.
         21   -1    0    0  501  502  0.00000000000E+00 -0.00000000000E+00 -0.30186644921E+03  0.30186644921E+03  0.00000000000E+00 0. -1.
         23    2    1    2    0    0 -0.26688521084E+03  0.37063812346E+02  0.60417906562E+03  0.66765497631E+03  0.90163086154E+02 0.  0.
         24    2    1    2    0    0  0.17667807094E+03 -0.16024427926E+03 -0.74783285469E+01  0.25156956657E+03  0.79611253232E+02 0.  0.
        -13    1    4    4    0    0  0.52844827221E+02 -0.40277024424E+02  0.33412777861E+02  0.74372227242E+02  0.00000000000E+00 0.  1.
         14    1    4    4    0    0  0.12383324372E+03 -0.11996725483E+03 -0.40891106408E+02  0.17719733933E+03  0.00000000000E+00 0. -1.
        -13    1    3    3    0    0 -0.17168968024E+03  0.65756315765E+02  0.41628988227E+03  0.45508076805E+03  0.00000000000E+00 0.  1.
         13    1    3    3    0    0 -0.95195530603E+02 -0.28692503419E+02  0.18788918334E+03  0.21257420826E+03  0.00000000000E+00 0. -1.
          1    1    1    2  501    0  0.90207139901E+02  0.12318046691E+03 -0.99157174701E+02  0.18205191790E+03  0.00000000000E+00 0. -1.
<scales pt_clust_5="13000.00000" pt_clust_6="13000.00000" pt_clust_7="13000.00000" pt_clust_8="13000.00000" pt_clust_9="152.67860"></scales>
<clustering>
<clus scale="   79.611">  5  6 -1 -1</clus>
<clus scale="   90.163">  7  8 -1 -1</clus>
<clus scale="  152.679">  2  9  1 -1</clus>
<clus scale="  268.632">  2  5  1 -1</clus>
<clus scale="  152.679">  2  5  1 -1</clus>
</clustering>
</event>
<event>
 9    2  0.1592151E-004  0.1054384E+03  0.7546771E-02  0.1272166E+00
         21   -1    0    0  501  502  0.00000000000E+00  0.00000000000E+00  0.51147810460E+02  0.51147810460E+02  0.00000000000E+00 0. -1.
          2   -1    0    0  502    0 -0.00000000000E+00 -0.00000000000E+00 -0.82949596714E+03  0.82949596714E+03  0.00000000000E+00 0. -1.
         24    2    1    2    0    0 -0.36523567710E+02  0.10649384370E+02 -0.55549947511E+03  0.56401071235E+03  0.89894584960E+02 0.  0.
         23    2    1    2    0    0  0.45691782681E+02 -0.41925460348E+02 -0.24951127555E+03  0.27452436054E+03  0.96240660205E+02 0.  0.
        -13    1    3    3    0    0 -0.48072835999E+02  0.39895895459E+02 -0.28979235421E+03  0.29644947056E+03  0.00000000000E+00 0.  1.
         14    1    3    3    0    0  0.11549268288E+02 -0.29246511089E+02 -0.26570712091E+03  0.26756124179E+03  0.00000000000E+00 0. -1.
        -11    1    4    4    0    0  0.45025966108E+02 -0.14567741174E+02 -0.24138104627E+03  0.24597635294E+03  0.00000000000E+00 0.  1.
         11    1    4    4    0    0  0.66581657213E+00 -0.27357719173E+02 -0.81302292776E+01  0.28548007604E+02  0.00000000000E+00 0. -1.
          1    1    1    2  501    0 -0.91682149703E+01  0.31276075978E+02  0.26662593982E+02  0.42108704708E+02  0.00000000000E+00 0. -1.
<scales pt_clust_5="13000.00000" pt_clust_6="13000.00000" pt_clust_7="13000.00000" pt_clust_8="13000.00000" pt_clust_9="32.59216"></scales>
<clustering>
<clus scale="   32.592">  1  9  2 -1</clus>
<clus scale="   89.895">  5  6 -1 -1</clus>
<clus scale="   96.241">  7  8 -1 -1</clus>
<clus scale="   99.680">  2  5  1 -1</clus>
<clus scale="   32.592">  1  5  2 -1</clus>
</clustering>
</event>
<event>
 9    2  0.1592151E-004  0.1042213E+03  0.7546771E-02  0.1276290E+00
          2   -1    0    0  502    0 -0.00000000000E+00  0.00000000000E+00  0.14513766623E+03  0.14513766623E+03  0.00000000000E+00 0. -1.
         21   -1    0    0  501  502  0.00000000000E+00 -0.00000000000E+00 -0.40307127349E+03  0.40307127349E+03  0.00000000000E+00 0.  1.
         24    2    1    2    0    0 -0.24420355087E+02  0.41910981212E+02  0.11466037070E+03  0.14920628131E+03  0.82235209513E+02 0.  0.
         23    2    1    2    0    0 -0.73071636211E+01 -0.54339468678E+02 -0.30381165600E+03  0.32224257401E+03  0.92371974573E+02 0.  0.
        -13    1    3    3    0    0 -0.34938689509E+02 -0.81542181983E+01  0.18694318228E+02  0.40455912213E+02  0.00000000000E+00 0.  1.
         14    1    3    3    0    0  0.10518334421E+02  0.50065199410E+02  0.95966052472E+02  0.10875036909E+03  0.00000000000E+00 0. -1.
        -13    1    4    4    0    0  0.24220324036E+02  0.16445124803E+02 -0.10001214938E+03  0.10420890677E+03  0.00000000000E+00 0. -1.
         13    1    4    4    0    0 -0.31527487657E+02 -0.70784593481E+02 -0.20379950662E+03  0.21803366724E+03  0.00000000000E+00 0.  1.
          1    1    1    2  501    0  0.31727518708E+02  0.12428487466E+02 -0.68782321954E+02  0.76760084402E+02  0.00000000000E+00 0. -1.
<scales pt_clust_5="13000.00000" pt_clust_6="13000.00000" pt_clust_7="13000.00000" pt_clust_8="13000.00000" pt_clust_9="34.07496"></scales>
<clustering>
<clus scale="   34.075">  2  9  1 -1</clus>
<clus scale="   82.235">  5  6 -1 -1</clus>
<clus scale="   92.372">  7  8 -1 -1</clus>
<clus scale="   95.353">  1  5  2 -1</clus>
<clus scale="   34.075">  2  5  1 -1</clus>
</clustering>
</event>
<event>
 9    2  0.1592151E-004  0.1013561E+03  0.7546771E-02  0.1282801E+00
          2   -1    0    0  502    0 -0.00000000000E+00  0.00000000000E+00  0.41972754011E+03  0.41972754011E+03  0.00000000000E+00 0. -1.
         21   -1    0    0  501  502  0.00000000000E+00 -0.00000000000E+00 -0.19655458903E+03  0.19655458903E+03  0.00000000000E+00 0.  1.
         24    2    1    2    0    0  0.32837262687E+02 -0.32566466691E+02  0.36675147095E+03  0.37828258855E+03  0.80325679460E+02 0.  0.
         23    2    1    2    0    0  0.16162100749E+00 -0.25227418563E+02 -0.14289272885E+03  0.17144482770E+03  0.91315651563E+02 0.  0.
        -13    1    3    3    0    0  0.52563821251E+02 -0.37317879162E+02  0.19597821302E+03  0.20630811760E+03  0.00000000000E+00 0.  1.
         14    1    3    3    0    0 -0.19726558564E+02  0.47514124714E+01  0.17077325793E+03  0.17197447095E+03  0.00000000000E+00 0. -1.
        -13    1    4    4    0    0 -0.41681900196E+02 -0.29416011218E+02 -0.94027589094E+02  0.10697602550E+03  0.00000000000E+00 0.  1.
         13    1    4    4    0    0  0.41843521203E+02  0.41885926549E+01 -0.48865139752E+02  0.64468802208E+02  0.00000000000E+00 0. -1.
          1    1    1    2  501    0 -0.32998883694E+02  0.57793885254E+02 -0.68579103452E+00  0.66554712885E+02  0.00000000000E+00 0. -1.
<scales pt_clust_5="13000.00000" pt_clust_6="13000.00000" pt_clust_7="13000.00000" pt_clust_8="13000.00000" pt_clust_9="66.55118"></scales>
<clustering>
<clus scale="   66.551">  2  9  1 -1</clus>
<clus scale="   80.326">  5  6 -1 -1</clus>
<clus scale="   91.316">  7  8 -1 -1</clus>
<clus scale="   91.579">  1  5  2 -1</clus>
<clus scale="   66.551">  2  5  1 -1</clus>
</clustering>
</event>
<event>
 9    2  0.1592151E-004  0.1378000E+03  0.7546771E-02  0.1227580E+00
         21   -1    0    0  501  502  0.00000000000E+00  0.00000000000E+00  0.51471188536E+02  0.51471188536E+02  0.00000000000E+00 0. -1.
          2   -1    0    0  502    0 -0.00000000000E+00 -0.00000000000E+00 -0.13031775457E+04  0.13031775457E+04  0.00000000000E+00 0. -1.
         23    2    1    2    0    0 -0.42843578125E+02 -0.41116418898E+02 -0.43723602111E+02  0.11732088258E+03  0.91248583648E+02 0.  0.
         24    2    1    2    0    0  0.11143261852E+03 -0.49447261642E+02 -0.49852647969E+03  0.51883328428E+03  0.76138464471E+02 0.  0.
        -11    1    4    4    0    0  0.79332893226E+02 -0.42398796164E+01 -0.19999684538E+03  0.21519856572E+03  0.00000000000E+00 0.  1.
         12    1    4    4    0    0  0.32099725295E+02 -0.45207382025E+02 -0.29852963431E+03  0.30363471856E+03  0.00000000000E+00 0. -1.
        -11    1    3    3    0    0 -0.67085377377E+02 -0.15991482824E+02 -0.11709970073E+02  0.69952117765E+02  0.00000000000E+00 0. -1.
         11    1    3    3    0    0  0.24241799251E+02 -0.25124936074E+02 -0.32013632038E+02  0.47368764813E+02  0.00000000000E+00 0.  1.
          1    1    1    2  501    0 -0.68589040396E+02  0.90563680540E+02 -0.70945627535E+03  0.71849456736E+03  0.00000000000E+00 0. -1.
<scales pt_clust_5="13000.00000" pt_clust_6="13000.00000" pt_clust_7="13000.00000" pt_clust_8="13000.00000" pt_clust_9="114.85556"></scales>
<clustering>
<clus scale="   76.138">  5  6 -1 -1</clus>
<clus scale="   91.249">  7  8 -1 -1</clus>
<clus scale="  108.869">  2  7  1 -1</clus>
<clus scale="  114.856">  1  9  2 -1</clus>
<clus scale="  114.856">  1  5  2 -1</clus>
</clustering>
</event>
<event>
 9    2  0.1592151E-004  0.9456409E+02  0.7546771E-02  0.1297900E+00
          4   -1    0    0  502    0 -0.00000000000E+00  0.00000000000E+00  0.54407813526E+02  0.54407813526E+02  0.00000000000E+00 0. -1.
         21   -1    0    0  501  502  0.00000000000E+00 -0.00000000000E+00 -0.25849409420E+03  0.25849409420E+03  0.00000000000E+00 0. -1.
         23    2    1    2    0    0  0.13267496962E+02 -0.19881336743E+02 -0.25611908548E+02  0.97678986397E+02  0.91180702442E+02 0.  0.
         24    2    1    2    0    0  0.85436245304E+01  0.35133551298E+02 -0.15927174170E+03  0.18240377928E+03  0.81217553795E+02 0.  0.
        -11    1    4    4    0    0  0.28467749308E+02 -0.15659016458E+02 -0.42340603266E+02  0.53369881320E+02  0.00000000000E+00 0.  1.
         12    1    4    4    0    0 -0.19924124778E+02  0.50792567756E+02 -0.11693113843E+03  0.12903389796E+03  0.00000000000E+00 0. -1.
        -13    1    3    3    0    0  0.48932489523E+02  0.48014355937E+01 -0.43069224636E+01  0.49355768617E+02  0.00000000000E+00 0. -1.
         13    1    3    3    0    0 -0.35664992561E+02 -0.24682772337E+02 -0.21304986084E+02  0.48323217780E+02  0.00000000000E+00 0.  1.
          3    1    1    2  501    0 -0.21811121492E+02 -0.15252214555E+02 -0.19202630428E+02  0.32819142050E+02  0.00000000000E+00 0. -1.
<scales pt_clust_5="13000.00000" pt_clust_6="13000.00000" pt_clust_7="13000.00000" pt_clust_8="13000.00000" pt_clust_9="26.61495"></scales>
<clustering>
<clus scale="   26.615">  2  9  1 -1</clus>
<clus scale="   81.218">  5  6 -1 -1</clus>
<clus scale="   84.998">  2  5  1 -1</clus>
<clus scale="   91.181">  7  8 -1 -1</clus>
<clus scale="   26.615">  2  5  1 -1</clus>
</clustering>
</event>
<event>
 9    2  0.1592151E-004  0.1210314E+03  0.7546771E-02  0.1256123E+00
         21   -1    0    0  501  502  0.00000000000E+00  0.00000000000E+00  0.13348715829E+03  0.13348715829E+03  0.00000000000E+00 0.  1.
          2   -1    0    0  502    0 -0.00000000000E+00 -0.00000000000E+00 -0.20517305779E+03  0.20517305779E+03  0.00000000000E+00 0. -1.
         24    2    1    2    0    0 -0.37226690132E+02 -0.96060802786E+01  0.41478277821E+01  0.90239720951E+02  0.81534652299E+02 0.  0.
         23    2    1    2    0    0 -0.17586765745E+02 -0.66620816738E+02  0.14853086377E+02  0.11788638869E+03  0.94493168593E+02 0.  0.
        -13    1    3    3    0    0  0.23077616809E+02  0.11590528837E+02 -0.26396065292E+01  0.25959281172E+02  0.00000000000E+00 0.  1.
         14    1    3    3    0    0 -0.60304306941E+02 -0.21196609116E+02  0.67874343112E+01  0.64280439779E+02  0.00000000000E+00 0. -1.
        -11    1    4    4    0    0 -0.39879173825E+00 -0.88835618846E+02  0.10292625985E+02  0.89430779714E+02  0.00000000000E+00 0.  1.
         11    1    4    4    0    0 -0.17187974006E+02  0.22214802107E+02  0.45604603926E+01  0.28455608975E+02  0.00000000000E+00 0. -1.
          1    1    1    2  501    0  0.54813455876E+02  0.76226897017E+02 -0.90686813661E+02  0.13053410645E+03  0.00000000000E+00 0. -1.
<scales pt_clust_5="13000.00000" pt_clust_6="13000.00000" pt_clust_7="13000.00000" pt_clust_8="13000.00000" pt_clust_9="75.62833"></scales>
<clustering>
<clus scale="   81.535">  5  6 -1 -1</clus>
<clus scale="   90.144">  2  5  1 -1</clus>
<clus scale="   75.628">  1  9  2 -1</clus>
<clus scale="   94.493">  7  8 -1 -1</clus>
<clus scale="   75.628">  1  5  2 -1</clus>
</clustering>
</event>
<event>
 9    2  0.1592151E-004  0.8960080E+02  0.7546771E-02  0.1306371E+00
          2   -1    0    0  502    0 -0.00000000000E+00  0.00000000000E+00  0.46754897281E+03  0.46754897281E+03  0.00000000000E+00 0. -1.
         21   -1    0    0  501  502  0.00000000000E+00 -0.00000000000E+00 -0.59927284821E+02  0.59927284821E+02  0.00000000000E+00 0.  1.
         24    2    1    2    0    0 -0.95875050800E+00  0.29840794258E+02  0.38017762334E+03  0.39001575214E+03  0.81767165934E+02 0.  0.
         23    2    1    2    0    0 -0.21489477574E+02  0.94874288475E+01  0.21998597504E+02  0.91850362000E+02  0.86027563925E+02 0.  0.
        -11    1    3    3    0    0  0.40456448115E+01  0.30905667519E+02  0.44672631542E+02  0.54471749886E+02  0.00000000000E+00 0.  1.
         12    1    3    3    0    0 -0.50043953195E+01 -0.10648732608E+01  0.33550499180E+03  0.33554400226E+03  0.00000000000E+00 0. -1.
        -13    1    4    4    0    0 -0.52713153031E+02  0.87616290221E+01 -0.36424810054E+00  0.53437583425E+02  0.00000000000E+00 0.  1.
         13    1    4    4    0    0  0.31223675457E+02  0.72579982537E+00  0.22362845604E+02  0.38412778576E+02  0.00000000000E+00 0. -1.
          1    1    1    2  501    0  0.22448228082E+02 -0.39328223106E+02  0.54454671452E+01  0.45610143489E+02  0.00000000000E+00 0. -1.
<scales pt_clust_5="13000.00000" pt_clust_6="13000.00000" pt_clust_7="13000.00000" pt_clust_8="13000.00000" pt_clust_9="45.28391"></scales>
<clustering>
<clus scale="   45.284">  2  9  1 -1</clus>
<clus scale="   81.767">  5  6 -1 -1</clus>
<clus scale="   85.519">  1  5  2 -1</clus>
<clus scale="   86.028">  7  8 -1 -1</clus>
<clus scale="   45.284">  2  5  1 -1</clus>
</clustering>
</event>
<event>
 9    2  0.1592151E-004  0.1282530E+03  0.7546771E-02  0.1234669E+00
         21   -1    0    0  501  502  0.00000000000E+00  0.00000000000E+00  0.22866471392E+02  0.22866471392E+02  0.00000000000E+00 0.  1.
          2   -1    0    0  502    0 -0.00000000000E+00 -0.00000000000E+00 -0.11143607192E+04  0.11143607192E+04  0.00000000000E+00 0. -1.
         24    2    1    2    0    0 -0.88557933896E+02  0.42071420488E+02 -0.51556433620E+03  0.53116132849E+03  0.81934486307E+02 0.  0.
         23    2    1    2    0    0  0.36763139726E+02 -0.52950914084E+02 -0.25226639130E+03  0.27810376297E+03  0.97714088320E+02 0.  0.
        -13    1    3    3    0    0  0.13074150019E+02  0.16906096363E+02 -0.59173909088E+02  0.62915030078E+02  0.00000000000E+00 0.  1.
         14    1    3    3    0    0 -0.10163208392E+03  0.25165324125E+02 -0.45639042711E+03  0.46824629841E+03  0.00000000000E+00 0. -1.
        -13    1    4    4    0    0  0.19211214475E+02 -0.77937986996E+02 -0.21745580034E+03  0.23179824348E+03  0.00000000000E+00 0.  1.
         13    1    4    4    0    0  0.17551925251E+02  0.24987072912E+02 -0.34810590959E+02  0.46305519494E+02  0.00000000000E+00 0. -1.
          1    1    1    2  501    0  0.51794794170E+02  0.10879493596E+02 -0.32366352032E+03  0.32796209913E+03  0.00000000000E+00 0. -1.
<scales pt_clust_5="13000.00000" pt_clust_6="13000.00000" pt_clust_7="13000.00000" pt_clust_8="13000.00000" pt_clust_9="52.92511"></scales>
<clustering>
<clus scale="   52.925">  1  9  2 -1</clus>
<clus scale="   81.934">  5  6 -1 -1</clus>
<clus scale="   97.714">  7  8 -1 -1</clus>
<clus scale="  116.679">  2  5  1 -1</clus>
<clus scale="   52.925">  1  5  2 -1</clus>
</clustering>
</event>
<event>
 9    2  0.1592151E-004  0.1051723E+03  0.7546771E-02  0.1274723E+00
         -3   -1    0    0    0  501 -0.00000000000E+00  0.00000000000E+00  0.22087397227E+03  0.22087397227E+03  0.00000000000E+00 0.  1.
         21   -1    0    0  501  502  0.00000000000E+00 -0.00000000000E+00 -0.15366381325E+03  0.15366381325E+03  0.00000000000E+00 0.  1.
         23    2    1    2    0    0  0.58345658394E+01  0.45184735569E+02  0.11960776139E+03  0.15776475120E+03  0.92238807713E+02 0.  0.
         24    2    1    2    0    0 -0.61577501247E+02 -0.44033900653E+02  0.32092955581E+02  0.11554431482E+03  0.81177323322E+02 0.  0.
        -11    1    4    4    0    0 -0.58657762449E+02 -0.72665422633E+01  0.47247288357E+02  0.75669293568E+02  0.00000000000E+00 0.  1.
         12    1    4    4    0    0 -0.29197387980E+01 -0.36767358390E+02 -0.15154332776E+02  0.39875021247E+02  0.00000000000E+00 0. -1.
        -11    1    3    3    0    0  0.14425362675E+02  0.71803708785E+02  0.72988719566E+02  0.10339834074E+03  0.00000000000E+00 0.  1.
         11    1    3    3    0    0 -0.85907968354E+01 -0.26618973217E+02  0.46619041827E+02  0.54366410459E+02  0.00000000000E+00 0. -1.
         -4    1    1    2    0  502  0.55742935408E+02 -0.11508349155E+01 -0.84490557960E+02  0.10122871951E+03  0.00000000000E+00 0.  1.
<scales pt_clust_5="13000.00000" pt_clust_6="13000.00000" pt_clust_7="13000.00000" pt_clust_8="13000.00000" pt_clust_9="55.75481"></scales>
<clustering>
<clus scale="   55.755">  2  9  1 -1</clus>
<clus scale="   81.177">  5  6 -1 -1</clus>
<clus scale="   92.239">  7  8 -1 -1</clus>
<clus scale="   95.619">  2  5  1 -1</clus>
<clus scale="   55.755">  2  5  1 -1</clus>
</clustering>
</event>
<event>
 9    2  0.1592151E-004  0.2164443E+03  0.7546771E-02  0.1137233E+00
         21   -1    0    0  501  502  0.00000000000E+00  0.00000000000E+00  0.11961143548E+03  0.11961143548E+03  0.00000000000E+00 0. -1.
          2   -1    0    0  502    0 -0.00000000000E+00 -0.00000000000E+00 -0.17719825832E+04  0.17719825832E+04  0.00000000000E+00 0. -1.
         23    2    1    2    0    0 -0.43965107686E+00  0.18761070688E+03 -0.88717858698E+03  0.91131156812E+03  0.90581225240E+02 0.  0.
         24    2    1    2    0    0 -0.53820302763E+01 -0.20713233917E+03 -0.85738842368E+03  0.88586283799E+03  0.81885813713E+02 0.  0.
        -13    1    4    4    0    0  0.25886571791E+02 -0.14094810774E+03 -0.46057287636E+03  0.48235242107E+03  0.00000000000E+00 0.  1.
         14    1    4    4    0    0 -0.31268602068E+02 -0.66184231428E+02 -0.39681554732E+03  0.40351041691E+03  0.00000000000E+00 0. -1.
        -13    1    3    3    0    0  0.40598662097E+02  0.70333549049E+02 -0.27941811306E+03  0.29098031101E+03  0.00000000000E+00 0.  1.
         13    1    3    3    0    0 -0.41038313174E+02  0.11727715783E+03 -0.60776047391E+03  0.62033125711E+03  0.00000000000E+00 0. -1.
          1    1    1    2  501    0  0.58216813531E+01  0.19521632288E+02  0.92195862926E+02  0.94419612590E+02  0.00000000000E+00 0. -1.
<scales pt_clust_5="13000.00000" pt_clust_6="13000.00000" pt_clust_7="13000.00000" pt_clust_8="13000.00000" pt_clust_9="20.37121"></scales>
<clustering>
<clus scale="   20.371">  1  9  2 -1</clus>
<clus scale="   81.886">  5  6 -1 -1</clus>
<clus scale="   90.581">  7  8 -1 -1</clus>
<clus scale="  212.952">  1  5  2 -1</clus>
<clus scale="   20.371">  1  5  2 -1</clus>
</clustering>
</event>
<event>
 9    2  0.1592151E-004  0.9402585E+02  0.7546771E-02  0.1299956E+00
         21   -1    0    0  501  502  0.00000000000E+00  0.00000000000E+00  0.87079601720E+02  0.87079601720E+02  0.00000000000E+00 0. -1.
          2   -1    0    0  502    0 -0.00000000000E+00 -0.00000000000E+00 -0.28102037348E+03  0.28102037348E+03  0.00000000000E+00 0. -1.
         23    2    1    2    0    0  0.11887411073E+02 -0.27261503832E+02 -0.19912994711E+03  0.22088733166E+03  0.90851402425E+02 0.  0.
         24    2    1    2    0    0  0.54776891425E+01  0.14735805851E+02 -0.44878911709E+02  0.92758505429E+02  0.79642165721E+02 0.  0.
        -11    1    4    4    0    0 -0.21092388275E+02 -0.14149423826E+02  0.82503912685E+01  0.26705130478E+02  0.00000000000E+00 0.  1.
         12    1    4    4    0    0  0.26570077418E+02  0.28885229677E+02 -0.53129302978E+02  0.66053374951E+02  0.00000000000E+00 0. -1.
        -11    1    3    3    0    0 -0.16373238688E+02  0.26395332949E+02 -0.40352920051E+02  0.50923027240E+02  0.00000000000E+00 0.  1.
         11    1    3    3    0    0  0.28260649762E+02 -0.53656836781E+02 -0.15877702706E+03  0.16996430443E+03  0.00000000000E+00 0. -1.
          1    1    1    2  501    0 -0.17365100216E+02  0.12525697980E+02  0.50068087056E+02  0.54454138105E+02  0.00000000000E+00 0. -1.
<scales pt_clust_5="13000.00000" pt_clust_6="13000.00000" pt_clust_7="13000.00000" pt_clust_8="13000.00000" pt_clust_9="21.41121"></scales>
<clustering>
<clus scale="   21.411">  1  9  2 -1</clus>
<clus scale="   79.642">  5  6 -1 -1</clus>
<clus scale="   83.245">  1  5  2 -1</clus>
<clus scale="   90.851">  7  8 -1 -1</clus>
<clus scale="   21.411">  1  5  2 -1</clus>
</clustering>
</event>
<event>
 9    2  0.1592151E-004  0.9850946E+02  0.7546771E-02  0.1289146E+00
          2   -1    0    0  502    0 -0.00000000000E+00  0.00000000000E+00  0.12922081627E+03  0.12922081627E+03  0.00000000000E+00 0. -1.
         21   -1    0    0  501  502  0.00000000000E+00 -0.00000000000E+00 -0.22623118665E+03  0.22623118665E+03  0.00000000000E+00 0.  1.
         23    2    1    2    0    0  0.31654578809E+02  0.15039435880E+02  0.42663442874E+02  0.10654979172E+03  0.91128984231E+02 0.  0.
         24    2    1    2    0    0  0.16757344616E+01 -0.83508346112E+02 -0.12671259097E+03  0.17165653343E+03  0.80208682834E+02 0.  0.
        -13    1    4    4    0    0  0.39889653637E+01 -0.28125412206E+02 -0.11022293585E+03  0.11382462933E+03  0.00000000000E+00 0.  1.
         14    1    4    4    0    0 -0.23132309021E+01 -0.55382933906E+02 -0.16489655126E+02  0.57831904096E+02  0.00000000000E+00 0. -1.
        -11    1    3    3    0    0  0.27722204310E+02 -0.32906546170E+02  0.39384910701E+02  0.58331231631E+02  0.00000000000E+00 0.  1.
         11    1    3    3    0    0  0.39323744995E+01  0.47945982051E+02  0.32785321728E+01  0.48218560091E+02  0.00000000000E+00 0. -1.
          1    1    1    2  501    0 -0.33330313271E+02  0.68468910232E+02 -0.12961222276E+02  0.77245677769E+02  0.00000000000E+00 0. -1.
<scales pt_clust_5="13000.00000" pt_clust_6="13000.00000" pt_clust_7="13000.00000" pt_clust_8="13000.00000" pt_clust_9="76.15056"></scales>
<clustering>
<clus scale="   76.151">  2  9  1 -1</clus>
<clus scale="   80.209">  5  6 -1 -1</clus>
<clus scale="   88.505">  2  5  1 -1</clus>
<clus scale="   91.129">  7  8 -1 -1</clus>
<clus scale="   76.151">  2  5  1 -1</clus>
</clustering>
</event>
<event>
 9    2  0.1592151E-004  0.4245026E+03  0.7546771E-02  0.1076340E+00
         21   -1    0    0  501  502  0.00000000000E+00  0.00000000000E+00  0.16970956061E+03  0.16970956061E+03  0.00000000000E+00 0.  1.
          2   -1    0    0  502    0 -0.00000000000E+00 -0.00000000000E+00 -0.30214404685E+04  0.30214404685E+04  0.00000000000E+00 0. -1.
         23    2    1    2    0    0  0.83472307685E+02  0.52641791845E+02 -0.28989457916E+03  0.31958839743E+03  0.91428071990E+02 0.  0.
         24    2    1    2    0    0  0.30814034703E+03 -0.27550904316E+03 -0.19827718386E+03  0.46543567606E+03  0.80379229779E+02 0.  0.
        -13    1    4    4    0    0  0.27097566567E+03 -0.26693723860E+03 -0.16424140697E+03  0.41431695656E+03  0.00000000000E+00 0.  1.
         14    1    4    4    0    0  0.37164681363E+02 -0.85718045621E+01 -0.34035776894E+02  0.51118719497E+02  0.00000000000E+00 0. -1.
        -11    1    3    3    0    0  0.75749569591E+02  0.77568765503E+02 -0.23535560311E+03  0.25912771096E+03  0.00000000000E+00 0.  1.
         11    1    3    3    0    0  0.77227380936E+01 -0.24926973658E+02 -0.54538976054E+02  0.60460686470E+02  0.00000000000E+00 0. -1.
          1    1    1    2  501    0 -0.39161265472E+03  0.22286725131E+03 -0.23635591449E+04  0.24061259556E+04  0.00000000000E+00 0. -1.
<scales pt_clust_5="13000.00000" pt_clust_6="13000.00000" pt_clust_7="13000.00000" pt_clust_8="13000.00000" pt_clust_9="416.82350"></scales>
<clustering>
<clus scale="   80.379">  5  6 -1 -1</clus>
<clus scale="   91.428">  7  8 -1 -1</clus>
<clus scale="  134.528">  2  7  1 -1</clus>
<clus scale="  416.823">  1  9  2 -1</clus>
<clus scale="  416.823">  1  5  2 -1</clus>
</clustering>
</event>
<event>
 9    2  0.1592151E-004  0.1643871E+03  0.7546771E-02  0.1200957E+00
          2   -1    0    0  502    0 -0.00000000000E+00  0.00000000000E+00  0.72650768804E+03  0.72650768804E+03  0.00000000000E+00 0. -1.
         21   -1    0    0  501  502  0.00000000000E+00 -0.00000000000E+00 -0.15498890163E+03  0.15498890163E+03  0.00000000000E+00 0. -1.
         24    2    1    2    0    0  0.14772693517E+02 -0.76683878871E+02  0.54635459857E+03  0.55787167888E+03  0.81356087409E+02 0.  0.
         23    2    1    2    0    0  0.73670099723E+02 -0.51385455672E+02  0.86079910131E+02  0.15648841762E+03  0.94926947041E+02 0.  0.
        -11    1    3    3    0    0  0.21253476448E+01 -0.44952846211E+02  0.93876627034E+02  0.10410617940E+03  0.00000000000E+00 0.  1.
         12    1    3    3    0    0  0.12647345873E+02 -0.31731032660E+02  0.45247797154E+03  0.45376549948E+03  0.00000000000E+00 0. -1.
        -11    1    4    4    0    0  0.28711776363E+02  0.14881697356E+02  0.66657393974E+02  0.74088050247E+02  0.00000000000E+00 0.  1.
         11    1    4    4    0    0  0.44958323361E+02 -0.66267153029E+02  0.19422516157E+02  0.82400367377E+02  0.00000000000E+00 0. -1.
          1    1    1    2  501    0 -0.88442793241E+02  0.12806933454E+03 -0.60915722295E+02  0.16713649317E+03  0.00000000000E+00 0. -1.
<scales pt_clust_5="13000.00000" pt_clust_6="13000.00000" pt_clust_7="13000.00000" pt_clust_8="13000.00000" pt_clust_9="134.20879"></scales>
<clustering>
<clus scale="   81.356">  5  6 -1 -1</clus>
<clus scale="   94.927">  7  8 -1 -1</clus>
<clus scale="  112.772">  1  5  2 -1</clus>
<clus scale="  134.209">  2  9  1 -1</clus>
<clus scale="  134.209">  2  5  1 -1</clus>
</clustering>
</event>
<event>
 9    2  0.1592151E-004  0.1262534E+03  0.7546771E-02  0.1235773E+00
          2   -1    0    0  502    0 -0.00000000000E+00  0.00000000000E+00  0.24592250899E+03  0.24592250899E+03  0.00000000000E+00 0. -1.
         21   -1    0    0  501  502  0.00000000000E+00 -0.00000000000E+00 -0.79049238146E+02  0.79049238146E+02  0.00000000000E+00 0.  1.
         23    2    1    2    0    0 -0.36641314123E+02  0.78895227609E+02  0.88280156361E+02  0.15311507443E+03  0.89909939213E+02 0.  0.
         24    2    1    2    0    0  0.18716861154E+02 -0.89426332162E+02  0.86895884302E+02  0.14947082530E+03  0.80269814580E+02 0.  0.
        -13    1    4    4    0    0  0.32411131171E+02 -0.28958825653E+02  0.92156951600E+00  0.43473489593E+02  0.00000000000E+00 0.  1.
         14    1    4    4    0    0 -0.13694270017E+02 -0.60467506509E+02  0.85974314786E+02  0.10599733571E+03  0.00000000000E+00 0. -1.
        -11    1    3    3    0    0 -0.60527038625E+02  0.24216861443E+02  0.41314607570E+02  0.77180798010E+02  0.00000000000E+00 0.  1.
         11    1    3    3    0    0  0.23885724502E+02  0.54678366166E+02  0.46965548791E+02  0.75934276416E+02  0.00000000000E+00 0. -1.
          1    1    1    2  501    0  0.17924452969E+02  0.10531104553E+02 -0.83027698208E+01  0.22385847405E+02  0.00000000000E+00 0. -1.
<scales pt_clust_5="13000.00000" pt_clust_6="13000.00000" pt_clust_7="13000.00000" pt_clust_8="13000.00000" pt_clust_9="20.78918"></scales>
<clustering>
<clus scale="   20.789">  2  9  1 -1</clus>
<clus scale="   80.270">  5  6 -1 -1</clus>
<clus scale="   89.910">  7  8 -1 -1</clus>
<clus scale="  119.580">  2  5  1 -1</clus>
<clus scale="   20.789">  2  5  1 -1</clus>
</clustering>
</event>
<event>
 9    2  0.1592151E-004  0.1013291E+03  0.7546771E-02  0.1281801E+00
          2   -1    0    0  502    0 -0.00000000000E+00  0.00000000000E+00  0.83672882921E+03  0.83672882921E+03  0.00000000000E+00 0. -1.
         21   -1    0    0  501  502  0.00000000000E+00 -0.00000000000E+00 -0.34041197201E+02  0.34041197201E+02  0.00000000000E+00 0.  1.
         24    2    1    2    0    0 -0.18358398982E+02  0.39633265268E+02  0.54651588471E+03  0.55431145213E+03  0.81693005739E+02 0.  0.
         23    2    1    2    0    0 -0.22302981496E+02 -0.68380760358E+02  0.10134507082E+03  0.15382073710E+03  0.90645708177E+02 0.  0.
        -11    1    3    3    0    0 -0.17583816228E+01 -0.20832219384E+02  0.55479352324E+02  0.59287703655E+02  0.00000000000E+00 0.  1.
         12    1    3    3    0    0 -0.16600017359E+02  0.60465484653E+02  0.49103653239E+03  0.49502374847E+03  0.00000000000E+00 0. -1.
        -13    1    4    4    0    0 -0.31880988432E+02 -0.38579768568E+02  0.24697945339E+01  0.50108840050E+02  0.00000000000E+00 0.  1.
         13    1    4    4    0    0  0.95780069358E+01 -0.29800991790E+02  0.98875276284E+02  0.10371189705E+03  0.00000000000E+00 0. -1.
          1    1    1    2  501    0  0.40661380478E+02  0.28747495090E+02  0.15482667648E+03  0.16263783719E+03  0.00000000000E+00 0. -1.
<scales pt_clust_5="13000.00000" pt_clust_6="13000.00000" pt_clust_7="13000.00000" pt_clust_8="13000.00000" pt_clust_9="49.79728"></scales>
<clustering>
<clus scale="   49.797">  2  9  1 -1</clus>
<clus scale="   81.693">  5  6 -1 -1</clus>
<clus scale="   90.646">  7  8 -1 -1</clus>
<clus scale="   93.406">  1  5  2 -1</clus>
<clus scale="   49.797">  2  5  1 -1</clus>
</clustering>
</event>
<event>
 9    2  0.1592151E-004  0.1199144E+03  0.7546771E-02  0.1247565E+00
          2   -1    0    0  502    0 -0.00000000000E+00  0.00000000000E+00  0.28192531704E+03  0.28192531704E+03  0.00000000000E+00 0. -1.
         21   -1    0    0  501  502  0.00000000000E+00 -0.00000000000E+00 -0.64138128887E+02  0.64138128887E+02  0.00000000000E+00 0.  1.
         24    2    1    2    0    0  0.88003860143E+02  0.20834075860E+01  0.13986501451E+03  0.18285021088E+03  0.78249328109E+02 0.  0.
         23    2    1    2    0    0 -0.58546557327E+02  0.42642752914E+01  0.43077574759E+02  0.11714619869E+03  0.91769662751E+02 0.  0.
        -13    1    3    3    0    0  0.24181448859E+02 -0.13891577556E+02 -0.43417345016E+00  0.27890982458E+02  0.00000000000E+00 0.  1.
         14    1    3    3    0    0  0.63822411284E+02  0.15974985142E+02  0.14029918796E+03  0.15495922842E+03  0.00000000000E+00 0. -1.
        -13    1    4    4    0    0 -0.26586585642E+02  0.79589068774E+01  0.69932700117E+02  0.75238110558E+02  0.00000000000E+00 0. -1.
         13    1    4    4    0    0 -0.31959971686E+02 -0.36946315861E+01 -0.26855125358E+02  0.41908088130E+02  0.00000000000E+00 0.  1.
          1    1    1    2  501    0 -0.29457302815E+02 -0.63476828774E+01  0.34844598887E+02  0.46067036357E+02  0.00000000000E+00 0. -1.
<scales pt_clust_5="13000.00000" pt_clust_6="13000.00000" pt_clust_7="13000.00000" pt_clust_8="13000.00000" pt_clust_9="30.13348"></scales>
<clustering>
<clus scale="   30.133">  2  9  1 -1</clus>
<clus scale="   78.249">  5  6 -1 -1</clus>
<clus scale="   91.770">  7  8 -1 -1</clus>
<clus scale="  109.912">  1  5  2 -1</clus>
<clus scale="   30.133">  2  5  1 -1</clus>
</clustering>
</event>
<event>
 9    2  0.1592151E-004  0.9635211E+02  0.7546771E-02  0.1294631E+00
         21   -1    0    0  501  502  0.00000000000E+00  0.00000000000E+00  0.41154138277E+03  0.41154138277E+03  0.00000000000E+00 0. -1.
         -1   -1    0    0    0  501 -0.00000000000E+00 -0.00000000000E+00 -0.39402738636E+02  0.39402738636E+02  0.00000000000E+00 0.  1.
         23    2    1    2    0    0  0.47614898128E+02  0.98653395225E+01  0.14484360246E+03  0.17805997844E+03  0.91439506233E+02 0.  0.
         24    2    1    2    0    0 -0.70561308418E+01  0.34911928145E+02  0.16104561143E+03  0.18322364826E+03  0.79790880503E+02 0.  0.
        -11    1    4    4    0    0 -0.30255583258E+01 -0.25889978137E+02  0.40721871452E+02  0.48349930565E+02  0.00000000000E+00 0.  1.
         12    1    4    4    0    0 -0.40305725160E+01  0.60801906282E+02  0.12032373998E+03  0.13487371770E+03  0.00000000000E+00 0. -1.
        -11    1    3    3    0    0 -0.27586760317E+02  0.61255072522E+01  0.40723475381E+02  0.49567657106E+02  0.00000000000E+00 0.  1.
         11    1    3    3    0    0  0.75201658445E+02  0.37398322703E+01  0.10412012708E+03  0.12849232133E+03  0.00000000000E+00 0. -1.
         -2    1    1    2    0  502 -0.40558767286E+02 -0.44777267668E+02  0.66249430238E+02  0.89660494703E+02  0.00000000000E+00 0.  1.
<scales pt_clust_5="13000.00000" pt_clust_6="13000.00000" pt_clust_7="13000.00000" pt_clust_8="13000.00000" pt_clust_9="60.41540"></scales>
<clustering>
<clus scale="   60.415">  1  9  2 -1</clus>
<clus scale="   79.791">  5  6 -1 -1</clus>
<clus scale="   85.376">  1  5  2 -1</clus>
<clus scale="   91.440">  7  8 -1 -1</clus>
<clus scale="   60.415">  1  5  2 -1</clus>
</clustering>
</event>
<event>
 9    2  0.1592151E-004  0.1062432E+03  0.7546771E-02  0.1273052E+00
          2   -1    0    0  502    0 -0.00000000000E+00  0.00000000000E+00  0.19631103245E+03  0.19631103245E+03  0.00000000000E+00 0. -1.
         21   -1    0    0  501  502  0.00000000000E+00 -0.00000000000E+00 -0.18657420278E+03  0.18657420278E+03  0.00000000000E+00 0.  1.
         24    2    1    2    0    0  0.39976865073E+02  0.32173750590E+02  0.96266224352E+02  0.13512989897E+03  0.79747123309E+02 0.  0.
         23    2    1    2    0    0 -0.70006449617E+02 -0.19511903649E+02 -0.14154014533E+03  0.18381566937E+03  0.92048738136E+02 0.  0.
        -11    1    3    3    0    0  0.57985020776E+02  0.24730408152E+02  0.37802347278E+02  0.73504239207E+02  0.00000000000E+00 0.  1.
         12    1    3    3    0    0 -0.18008155703E+02  0.74433424383E+01  0.58463877074E+02  0.61625659761E+02  0.00000000000E+00 0. -1.
        -13    1    4    4    0    0 -0.69271124214E+02  0.19720797479E+02 -0.11743941641E+03  0.13776579775E+03  0.00000000000E+00 0.  1.
         13    1    4    4    0    0 -0.73532540305E+00 -0.39232701128E+02 -0.24100728918E+02  0.46049871614E+02  0.00000000000E+00 0. -1.
          1    1    1    2  501    0  0.30029584545E+02 -0.12661846941E+02  0.55010750652E+02  0.63939666899E+02  0.00000000000E+00 0. -1.
<scales pt_clust_5="13000.00000" pt_clust_6="13000.00000" pt_clust_7="13000.00000" pt_clust_8="13000.00000" pt_clust_9="32.58987"></scales>
<clustering>
<clus scale="   32.590">  2  9  1 -1</clus>
<clus scale="   79.747">  5  6 -1 -1</clus>
<clus scale="   92.049">  7  8 -1 -1</clus>
<clus scale="   95.782">  1  5  2 -1</clus>
<clus scale="   32.590">  2  5  1 -1</clus>
</clustering>
</event>
<event>
 9    2  0.1592151E-004  0.1145333E+03  0.7546771E-02  0.1255475E+00
         21   -1    0    0  501  502  0.00000000000E+00  0.00000000000E+00  0.90173610011E+02  0.90173610011E+02  0.00000000000E+00 0.  1.
          2   -1    0    0  502    0 -0.00000000000E+00 -0.00000000000E+00 -0.37954532028E+03  0.37954532028E+03  0.00000000000E+00 0. -1.
         23    2    1    2    0    0 -0.54669044418E+00 -0.66193206610E+02 -0.25062765272E+03  0.27462427583E+03  0.90677632814E+02 0.  0.
         24    2    1    2    0    0 -0.39152042622E+02  0.77732273096E+02 -0.74146376410E+02  0.14066613581E+03  0.81939538116E+02 0.  0.
        -13    1    4    4    0    0 -0.35033905444E+02  0.26687852008E+02  0.71174594744E+01  0.44612489337E+02  0.00000000000E+00 0.  1.
         14    1    4    4    0    0 -0.41181371784E+01  0.51044421088E+02 -0.81263835884E+02  0.96053646472E+02  0.00000000000E+00 0. -1.
        -13    1    3    3    0    0  0.40578266138E+02 -0.49883697859E+02 -0.18147304237E+03  0.19252907340E+03  0.00000000000E+00 0. -1.
         13    1    3    3    0    0 -0.41124956582E+02 -0.16309508752E+02 -0.69154610352E+02  0.82095202433E+02  0.00000000000E+00 0.  1.
          1    1    1    2  501    0  0.39698733066E+02 -0.11539066485E+02  0.35402318861E+02  0.54428518657E+02  0.00000000000E+00 0. -1.
<scales pt_clust_5="13000.00000" pt_clust_6="13000.00000" pt_clust_7="13000.00000" pt_clust_8="13000.00000" pt_clust_9="41.34174"></scales>
<clustering>
<clus scale="   41.342">  1  9  2 -1</clus>
<clus scale="   81.940">  5  6 -1 -1</clus>
<clus scale="   90.678">  7  8 -1 -1</clus>
<clus scale="  107.748">  1  5  2 -1</clus>
<clus scale="   41.342">  1  5  2 -1</clus>
</clustering>
</event>
<event>
 9    2  0.1592151E-004  0.1642609E+03  0.7546771E-02  0.1211334E+00
          2   -1    0    0  502    0 -0.00000000000E+00  0.00000000000E+00  0.14786720340E+04  0.14786720340E+04  0.00000000000E+00 0. -1.
         21   -1    0    0  501  502  0.00000000000E+00 -0.00000000000E+00 -0.27933393054E+02  0.27933393054E+02  0.00000000000E+00 0. -1.
         24    2    1    2    0    0  0.43203536494E+02 -0.22245819254E+02  0.25838834826E+03  0.27375735587E+03  0.76270107745E+02 0.  0.
         23    2    1    2    0    0  0.12414678935E+02  0.14070191276E+03  0.49221663639E+03  0.52058943231E+03  0.93728263538E+02 0.  0.
        -11    1    3    3    0    0  0.43200505735E+02 -0.56498910754E+01  0.25237113092E+03  0.25610426136E+03  0.00000000000E+00 0.  1.
         12    1    3    3    0    0  0.30307590395E-02 -0.16595928178E+02  0.60172173444E+01  0.17653094512E+02  0.00000000000E+00 0. -1.
        -11    1    4    4    0    0 -0.17212662374E+02  0.12399968013E+03  0.29503734562E+03  0.32049841143E+03  0.00000000000E+00 0. -1.
         11    1    4    4    0    0  0.29627341309E+02  0.16702232627E+02  0.19717929077E+03  0.20009102088E+03  0.00000000000E+00 0.  1.
          1    1    1    2  501    0 -0.55618215429E+02 -0.11845609351E+03  0.70013365628E+03  0.71225863887E+03  0.00000000000E+00 0. -1.
<scales pt_clust_5="13000.00000" pt_clust_6="13000.00000" pt_clust_7="13000.00000" pt_clust_8="13000.00000" pt_clust_9="134.89510"></scales>
<clustering>
<clus scale="   76.270">  5  6 -1 -1</clus>
<clus scale="   90.435">  1  5  2 -1</clus>
<clus scale="   93.728">  7  8 -1 -1</clus>
<clus scale="  134.895">  2  9  1 -1</clus>
<clus scale="  134.895">  2  5  1 -1</clus>
</clustering>
</event>
<event>
 9    2  0.1592151E-004  0.1127695E+03  0.7546771E-02  0.1259748E+00
          2   -1    0    0  502    0 -0.00000000000E+00  0.00000000000E+00  0.20591777830E+03  0.20591777830E+03  0.00000000000E+00 0. -1.
         21   -1    0    0  501  502  0.00000000000E+00 -0.00000000000E+00 -0.16789405195E+03  0.16789405195E+03  0.00000000000E+00 0. -1.
         24    2    1    2    0    0 -0.55884482715E+02  0.41731734259E+02  0.78665881874E+02  0.13166633892E+03  0.79265949700E+02 0.  0.
         23    2    1    2    0    0  0.22915928735E+02 -0.66494544056E+02  0.62746365458E+02  0.13083822035E+03  0.90746180893E+02 0.  0.
        -13    1    3    3    0    0 -0.42294176360E+02 -0.66647765174E+00  0.11990936746E+01  0.42316419651E+02  0.00000000000E+00 0.  1.
         14    1    3    3    0    0 -0.13590306356E+02  0.42398211911E+02  0.77466788200E+02  0.89349919273E+02  0.00000000000E+00 0. -1.
        -11    1    4    4    0    0 -0.34623792762E+02 -0.27184297006E+02  0.15603377233E+02  0.46703944266E+02  0.00000000000E+00 0. -1.
         11    1    4    4    0    0  0.57539721497E+02 -0.39310247049E+02  0.47142988225E+02  0.84134276082E+02  0.00000000000E+00 0.  1.
          1    1    1    2  501    0  0.32968553980E+02  0.24762809797E+02 -0.10338852099E+03  0.11130727098E+03  0.00000000000E+00 0. -1.
<scales pt_clust_5="13000.00000" pt_clust_6="13000.00000" pt_clust_7="13000.00000" pt_clust_8="13000.00000" pt_clust_9="41.23254"></scales>
<clustering>
<clus scale="   41.233">  2  9  1 -1</clus>
<clus scale="   79.266">  5  6 -1 -1</clus>
<clus scale="   90.746">  7  8 -1 -1</clus>
<clus scale="  103.755">  1  5  2 -1</clus>
<clus scale="   41.233">  2  5  1 -1</clus>
</clustering>
</event>
<event>
 9    2  0.1592151E-004  0.9497664E+02  0.7546771E-02  0.1298000E+00
         21   -1    0    0  501  502  0.00000000000E+00  0.00000000000E+00  0.41957983885E+02  0.41957983885E+02  0.00000000000E+00 0. -1.
          2   -1    0    0  502    0 -0.00000000000E+00 -0.00000000000E+00 -0.44809043139E+03  0.44809043139E+03  0.00000000000E+00 0. -1.
         24    2    1    2    0    0 -0.83082844491E+01 -0.26954825266E+02 -0.23160122447E+03  0.24599840813E+03  0.77977557237E+02 0.  0.
         23    2    1    2    0    0  0.31055018350E+02  0.22856513656E+02 -0.19171863205E+03  0.21524693283E+03  0.89935386997E+02 0.  0.
        -13    1    3    3    0    0  0.13112638475E+02 -0.31182060977E+02 -0.36829669300E+02  0.50006867081E+02  0.00000000000E+00 0.  1.
         14    1    3    3    0    0 -0.21420922924E+02  0.42272357114E+01 -0.19477155517E+03  0.19599154105E+03  0.00000000000E+00 0. -1.
        -13    1    4    4    0    0  0.62999713794E+02  0.16221296757E+02 -0.12155421973E+03  0.13786777267E+03  0.00000000000E+00 0.  1.
         13    1    4    4    0    0 -0.31944695444E+02  0.66352168987E+01 -0.70164412319E+02  0.77379160156E+02  0.00000000000E+00 0. -1.
          1    1    1    2  501    0 -0.22746733901E+02  0.40983116094E+01  0.17187409017E+02  0.28803074314E+02  0.00000000000E+00 0. -1.
<scales pt_clust_5="13000.00000" pt_clust_6="13000.00000" pt_clust_7="13000.00000" pt_clust_8="13000.00000" pt_clust_9="23.11298"></scales>
<clustering>
<clus scale="   23.113">  1  9  2 -1</clus>
<clus scale="   77.978">  5  6 -1 -1</clus>
<clus scale="   83.742">  2  5  1 -1</clus>
<clus scale="   89.935">  7  8 -1 -1</clus>
<clus scale="   23.113">  1  5  2 -1</clus>
</clustering>
</event>
<event>
 9    2  0.1592151E-004  0.1390270E+03  0.7546771E-02  0.1217152E+00
          2   -1    0    0  502    0 -0.00000000000E+00  0.00000000000E+00  0.26537426068E+03  0.26537426068E+03  0.00000000000E+00 0. -1.
         21   -1    0    0  501  502  0.00000000000E+00 -0.00000000000E+00 -0.14325696596E+03  0.14325696596E+03  0.00000000000E+00 0. -1.
         23    2    1    2    0    0  0.20758266416E+02 -0.12565120326E+03  0.12648472022E+03  0.20037786269E+03  0.89071728966E+02 0.  0.
         24    2    1    2    0    0 -0.65706121743E+02  0.64793104825E+02  0.31557899000E+02  0.12449987576E+03  0.77387836301E+02 0.  0.
        -13    1    4    4    0    0 -0.30503753179E+02  0.95784430055E+01 -0.22904043074E+02  0.39329641716E+02  0.00000000000E+00 0.  1.
         14    1    4    4    0    0 -0.35202368564E+02  0.55214661820E+02  0.54461942074E+02  0.85170234043E+02  0.00000000000E+00 0. -1.
        -11    1    3    3    0    0  0.53006941164E+01 -0.22852917448E+02  0.85460297553E+02  0.88621756086E+02  0.00000000000E+00 0.  1.
         11    1    3    3    0    0  0.15457572300E+02 -0.10279828581E+03  0.41024422664E+02  0.11175610660E+03  0.00000000000E+00 0. -1.
          1    1    1    2  501    0  0.44947855327E+02  0.60858098435E+02 -0.35925324497E+02  0.83753488189E+02  0.00000000000E+00 0. -1.
<scales pt_clust_5="13000.00000" pt_clust_6="13000.00000" pt_clust_7="13000.00000" pt_clust_8="13000.00000" pt_clust_9="75.65724"></scales>
<clustering>
<clus scale="   75.657">  2  9  1 -1</clus>
<clus scale="   77.388">  5  6 -1 -1</clus>
<clus scale="   89.072">  7  8 -1 -1</clus>
<clus scale="  131.847">  2  5  1 -1</clus>
<clus scale="   75.657">  2  5  1 -1</clus>
</clustering>
</event>
<event>
 9    2  0.1592151E-004  0.1021948E+03  0.7546771E-02  0.1280655E+00
         21   -1    0    0  501  502  0.00000000000E+00  0.00000000000E+00  0.12637126789E+03  0.12637126789E+03  0.00000000000E+00 0.  1.
          2   -1    0    0  502    0 -0.00000000000E+00 -0.00000000000E+00 -0.26558912326E+03  0.26558912326E+03  0.00000000000E+00 0. -1.
         24    2    1    2    0    0  0.14212461036E+02  0.41830149485E+02 -0.21242613041E+03  0.23142826266E+03  0.80513504592E+02 0.  0.
         23    2    1    2    0    0 -0.14219888615E+02 -0.68280181278E+02  0.48828263964E+02  0.12456006742E+03  0.90920969238E+02 0.  0.
        -11    1    3    3    0    0 -0.21772282336E+01  0.60115789124E+02 -0.10299070175E+03  0.11927167757E+03  0.00000000000E+00 0.  1.
         12    1    3    3    0    0  0.16389689269E+02 -0.18285639639E+02 -0.10943542867E+03  0.11215658509E+03  0.00000000000E+00 0. -1.
        -11    1    4    4    0    0  0.24599554438E+02  0.51307293057E+01 -0.49674413275E+01  0.25615189539E+02  0.00000000000E+00 0. -1.
         11    1    4    4    0    0 -0.38819443054E+02 -0.73410910584E+02  0.53795705291E+02  0.98944877884E+02  0.00000000000E+00 0.  1.
          1    1    1    2  501    0  0.74275796805E-02  0.26450031793E+02  0.24380011080E+02  0.35972061066E+02  0.00000000000E+00 0. -1.
<scales pt_clust_5="13000.00000" pt_clust_6="13000.00000" pt_clust_7="13000.00000" pt_clust_8="13000.00000" pt_clust_9="26.45003"></scales>
<clustering>
<clus scale="   26.450">  1  9  2 -1</clus>
<clus scale="   80.514">  5  6 -1 -1</clus>
<clus scale="   90.921">  7  8 -1 -1</clus>
<clus scale="   93.057">  2  5  1 -1</clus>
<clus scale="   26.450">  1  5  2 -1</clus>
</clustering>
</event>
<event>
 9    2  0.1592151E-004  0.1413762E+03  0.7546771E-02  0.1227511E+00
         21   -1    0    0  501  502  0.00000000000E+00  0.00000000000E+00  0.10095705836E+03  0.10095705836E+03  0.00000000000E+00 0. -1.
          2   -1    0    0  502    0 -0.00000000000E+00 -0.00000000000E+00 -0.39947381121E+03  0.39947381121E+03  0.00000000000E+00 0. -1.
         23    2    1    2    0    0 -0.38324971386E+01  0.37781248393E+02 -0.81242441081E+02  0.12958788644E+03  0.93544509799E+02 0.  0.
         24    2    1    2    0    0  0.11461119776E+03  0.53949135609E+01 -0.20947353241E+03  0.25169201322E+03  0.79403255557E+02 0.  0.
        -13    1    4    4    0    0  0.40933592054E+02 -0.10855283827E+02 -0.18233573985E+02  0.46107042474E+02  0.00000000000E+00 0.  1.
         14    1    4    4    0    0  0.73677605711E+02  0.16250197388E+02 -0.19123995842E+03  0.20558497074E+03  0.00000000000E+00 0. -1.
        -11    1    3    3    0    0 -0.45020975216E+02  0.37021650144E+02 -0.36520752735E+02  0.68784127305E+02  0.00000000000E+00 0.  1.
         11    1    3    3    0    0  0.41188478078E+02  0.75959824905E+00 -0.44721688346E+02  0.60803759130E+02  0.00000000000E+00 0. -1.
          1    1    1    2  501    0 -0.11077870063E+03 -0.43176161954E+02 -0.78007793581E+01  0.11915096992E+03  0.00000000000E+00 0. -1.
<scales pt_clust_5="13000.00000" pt_clust_6="13000.00000" pt_clust_7="13000.00000" pt_clust_8="13000.00000" pt_clust_9="116.97155"></scales>
<clustering>
<clus scale="   79.403">  5  6 -1 -1</clus>
<clus scale="   93.545">  7  8 -1 -1</clus>
<clus scale="  100.959">  2  7  1 -1</clus>
<clus scale="  116.972">  1  9  2 -1</clus>
<clus scale="  116.972">  1  5  2 -1</clus>
</clustering>
</event>
<event>
 9    2  0.1592151E-004  0.3544336E+03  0.7546771E-02  0.1107855E+00
          2   -1    0    0  502    0 -0.00000000000E+00  0.00000000000E+00  0.22933894514E+04  0.22933894514E+04  0.00000000000E+00 0. -1.
         21   -1    0    0  501  502  0.00000000000E+00 -0.00000000000E+00 -0.73277088542E+02  0.73277088542E+02  0.00000000000E+00 0.  1.
         24    2    1    2    0    0  0.52269140679E+02 -0.26226197206E+02  0.26512736252E+03  0.28363551524E+03  0.82077467432E+02 0.  0.
         23    2    1    2    0    0 -0.26179795607E+03 -0.23465182835E+03  0.75537021290E+03  0.83762534504E+03  0.86211424831E+02 0.  0.
        -11    1    3    3    0    0 -0.62215528139E+01  0.23306832447E+02  0.61737069306E+02  0.66282591112E+02  0.00000000000E+00 0.  1.
         12    1    3    3    0    0  0.58490693492E+02 -0.49533029653E+02  0.20339029321E+03  0.21735292412E+03  0.00000000000E+00 0. -1.
        -13    1    4    4    0    0 -0.24365899909E+03 -0.19380892128E+03  0.60015600349E+03  0.67610563844E+03  0.00000000000E+00 0.  1.
         13    1    4    4    0    0 -0.18138956977E+02 -0.40842907070E+02  0.15521420941E+03  0.16151970660E+03  0.00000000000E+00 0. -1.
          1    1    1    2  501    0  0.20952881539E+03  0.26087802555E+03  0.11996147874E+04  0.12454056796E+04  0.00000000000E+00 0. -1.
<scales pt_clust_5="13000.00000" pt_clust_6="13000.00000" pt_clust_7="13000.00000" pt_clust_8="13000.00000" pt_clust_9="343.78903"></scales>
<clustering>
<clus scale="   82.077">  5  6 -1 -1</clus>
<clus scale="   86.211">  7  8 -1 -1</clus>
<clus scale="  100.780">  1  5  2 -1</clus>
<clus scale="  343.789">  2  9  1 -1</clus>
<clus scale="  343.789">  2  5  1 -1</clus>
</clustering>
</event>
<event>
 9    2  0.1592151E-004  0.9181221E+02  0.7546771E-02  0.1307963E+00
         21   -1    0    0  501  502  0.00000000000E+00  0.00000000000E+00  0.78833902122E+02  0.78833902122E+02  0.00000000000E+00 0. -1.
          2   -1    0    0  502    0 -0.00000000000E+00 -0.00000000000E+00 -0.31695745870E+03  0.31695745870E+03  0.00000000000E+00 0. -1.
         24    2    1    2    0    0 -0.11137023338E+01 -0.12402399271E+01 -0.24575453404E+03  0.25759376840E+03  0.77178235194E+02 0.  0.
         23    2    1    2    0    0 -0.22939360531E+02 -0.17857169900E+02 -0.18302769144E+02  0.98000327484E+02  0.91782242565E+02 0.  0.
        -13    1    3    3    0    0  0.16656599003E+02  0.33736394793E+02 -0.10825778786E+03  0.11460949026E+03  0.00000000000E+00 0.  1.
         14    1    3    3    0    0 -0.17770301337E+02 -0.34976634720E+02 -0.13749674618E+03  0.14298427815E+03  0.00000000000E+00 0. -1.
        -11    1    4    4    0    0 -0.26731364142E+02 -0.39933709562E+02 -0.43123105871E+02  0.64566781306E+02  0.00000000000E+00 0. -1.
         11    1    4    4    0    0  0.37920036109E+01  0.22076539661E+02  0.24820336727E+02  0.33433546178E+02  0.00000000000E+00 0.  1.
          1    1    1    2  501    0  0.24053062865E+02  0.19097409827E+02  0.25933746610E+02  0.40197264938E+02  0.00000000000E+00 0. -1.
<scales pt_clust_5="13000.00000" pt_clust_6="13000.00000" pt_clust_7="13000.00000" pt_clust_8="13000.00000" pt_clust_9="30.71255"></scales>
<clustering>
<clus scale="   30.713">  1  9  2 -1</clus>
<clus scale="   77.178">  5  6 -1 -1</clus>
<clus scale="   77.214">  2  5  1 -1</clus>
<clus scale="   91.782">  7  8 -1 -1</clus>
<clus scale="   30.713">  1  5  2 -1</clus>
</clustering>
</event>
<event>
 9    2  0.1592151E-004  0.1402630E+03  0.7546771E-02  0.1215691E+00
          4   -1    0    0  502    0 -0.00000000000E+00  0.00000000000E+00  0.20506295861E+03  0.20506295861E+03  0.00000000000E+00 0. -1.
         21   -1    0    0  501  502  0.00000000000E+00 -0.00000000000E+00 -0.16621990875E+03  0.16621990875E+03  0.00000000000E+00 0. -1.
         23    2    1    2    0    0 -0.74550652807E+02  0.36781453041E+02  0.24349975988E+02  0.12779222013E+03  0.93953472915E+02 0.  0.
         24    2    1    2    0    0  0.14115230612E+03 -0.31684621146E+02 -0.21581716917E+02  0.16757524398E+03  0.81778989655E+02 0.  0.
        -11    1    4    4    0    0  0.59192959629E+02 -0.43864312682E+02 -0.38317137260E+02  0.83042684232E+02  0.00000000000E+00 0.  1.
         12    1    4    4    0    0  0.81959346494E+02  0.12179691535E+02  0.16735420343E+02  0.84532559748E+02  0.00000000000E+00 0. -1.
        -13    1    3    3    0    0 -0.40300562118E+02  0.49712367775E+02  0.51556645313E+02  0.82179939722E+02  0.00000000000E+00 0.  1.
         13    1    3    3    0    0 -0.34250090690E+02 -0.12930914733E+02 -0.27206669325E+02  0.45612280406E+02  0.00000000000E+00 0. -1.
          3    1    1    2  501    0 -0.66601653316E+02 -0.50968318946E+01  0.36074790789E+02  0.75915403248E+02  0.00000000000E+00 0. -1.
<scales pt_clust_5="13000.00000" pt_clust_6="13000.00000" pt_clust_7="13000.00000" pt_clust_8="13000.00000" pt_clust_9="66.79642"></scales>
<clustering>
<clus scale="   66.796">  2  9  1 -1</clus>
<clus scale="   81.779">  5  6 -1 -1</clus>
<clus scale="   93.953">  7  8 -1 -1</clus>
<clus scale="  132.417">  2  5  1 -1</clus>
<clus scale="   66.796">  2  5  1 -1</clus>
</clustering>
</event>
<event>
 9    2  0.1592151E-004  0.1936717E+03  0.7546771E-02  0.1165557E+00
         21   -1    0    0  501  502  0.00000000000E+00  0.00000000000E+00  0.44882279767E+03  0.44882279767E+03  0.00000000000E+00 0. -1.
          2   -1    0    0  502    0 -0.00000000000E+00 -0.00000000000E+00 -0.26462175219E+03  0.26462175219E+03  0.00000000000E+00 0. -1.
         24    2    1    2    0    0  0.12755534105E+03  0.26137340108E+02 -0.51415609632E+02  0.16062258888E+03  0.78756114460E+02 0.  0.
         23    2    1    2    0    0  0.13299574982E+03  0.90613660687E+01  0.23120570164E+03  0.28986706679E+03  0.11312321650E+03 0.  0.
        -11    1    3    3    0    0  0.31790081479E+02  0.34378283328E+02  0.81718759456E+01  0.47531623173E+02  0.00000000000E+00 0.  1.
         12    1    3    3    0    0  0.95765259575E+02 -0.82409432204E+01 -0.59587485578E+02  0.11309096571E+03  0.00000000000E+00 0. -1.
        -13    1    4    4    0    0  0.15309140041E+03  0.82047095587E+00  0.20392005078E+03  0.25499222961E+03  0.00000000000E+00 0. -1.
         13    1    4    4    0    0 -0.20095650594E+02  0.82408951128E+01  0.27285650861E+02  0.34874837175E+02  0.00000000000E+00 0.  1.
          1    1    1    2  501    0 -0.26055109088E+03 -0.35198706176E+02  0.44109534757E+01  0.26295489420E+03  0.00000000000E+00 0. -1.
<scales pt_clust_5="13000.00000" pt_clust_6="13000.00000" pt_clust_7="13000.00000" pt_clust_8="13000.00000" pt_clust_9="157.20017"></scales>
<clustering>
<clus scale="   78.756">  5  6 -1 -1</clus>
<clus scale="  113.123">  7  8 -1 -1</clus>
<clus scale="  152.171">  2  5  1 -1</clus>
<clus scale="  157.200">  1  9  2 -1</clus>
<clus scale="  157.200">  1  5  2 -1</clus>
</clustering>
</event>
<event>
 9    2  0.1592151E-004  0.9583274E+02  0.7546771E-02  0.1294294E+00
         -1   -1    0    0    0  501 -0.00000000000E+00  0.00000000000E+00  0.96189139755E+02  0.96189139755E+02  0.00000000000E+00 0.  1.
         21   -1    0    0  501  502  0.00000000000E+00 -0.00000000000E+00 -0.27395618324E+03  0.27395618324E+03  0.00000000000E+00 0. -1.
         24    2    1    2    0    0 -0.25241578485E+02  0.19496290666E+02  0.47458394859E+02  0.99656426316E+02  0.81620226840E+02 0.  0.
         23    2    1    2    0    0 -0.44481024328E+01 -0.41130680904E+02 -0.20641746162E+03  0.22921827780E+03  0.90671560532E+02 0.  0.
        -11    1    3    3    0    0  0.18029858755E+02  0.34147314211E+02  0.83241757893E+01  0.39501984470E+02  0.00000000000E+00 0.  1.
         12    1    3    3    0    0 -0.43271437239E+02 -0.14651023544E+02  0.39134219069E+02  0.60154441846E+02  0.00000000000E+00 0. -1.
        -11    1    4    4    0    0 -0.25143291344E+02 -0.29225039880E+02 -0.20109455749E+03  0.20475670711E+03  0.00000000000E+00 0. -1.
         11    1    4    4    0    0  0.20695188911E+02 -0.11905641024E+02 -0.53229041325E+01  0.24461570690E+02  0.00000000000E+00 0.  1.
         -2    1    1    2    0  502  0.29689680918E+02  0.21634390238E+02 -0.18807976720E+02  0.41270618874E+02  0.00000000000E+00 0.  1.
<scales pt_clust_5="13000.00000" pt_clust_6="13000.00000" pt_clust_7="13000.00000" pt_clust_8="13000.00000" pt_clust_9="36.73589"></scales>
<clustering>
<clus scale="   36.736">  2  9  1 -1</clus>
<clus scale="   81.620">  5  6 -1 -1</clus>
<clus scale="   87.318">  1  5  2 -1</clus>
<clus scale="   90.672">  7  8 -1 -1</clus>
<clus scale="   36.736">  2  5  1 -1</clus>
</clustering>
</event>
<event>
 9    2  0.1592151E-004  0.1452507E+03  0.7546771E-02  0.1228580E+00
          4   -1    0    0  502    0 -0.00000000000E+00  0.00000000000E+00  0.17045356485E+03  0.17045356485E+03  0.00000000000E+00 0. -1.
         21   -1    0    0  501  502  0.00000000000E+00 -0.00000000000E+00 -0.23196909165E+03  0.23196909165E+03  0.00000000000E+00 0. -1.
         23    2    1    2    0    0 -0.89578753977E+00 -0.25886413413E+02 -0.55137722000E+02  0.10644793139E+03  0.87293097526E+02 0.  0.
         24    2    1    2    0    0 -0.12179763943E+03  0.36352002638E+02  0.55402231191E+02  0.15820688261E+03  0.76183183292E+02 0.  0.
        -13    1    4    4    0    0 -0.32956809077E+02  0.42583393776E+02  0.41687313954E+02  0.68097935613E+02  0.00000000000E+00 0.  1.
         14    1    4    4    0    0 -0.88840830355E+02 -0.62313911379E+01  0.13714917237E+02  0.90108946995E+02  0.00000000000E+00 0. -1.
        -11    1    3    3    0    0 -0.21271705293E+02 -0.51090046813E+02 -0.20511486934E+02  0.59020330613E+02  0.00000000000E+00 0.  1.
         11    1    3    3    0    0  0.20375917753E+02  0.25203633400E+02 -0.34626235066E+02  0.47427600779E+02  0.00000000000E+00 0. -1.
          3    1    1    2  501    0  0.12269342697E+03 -0.10465589226E+02 -0.61780035987E+02  0.13776784250E+03  0.00000000000E+00 0. -1.
<scales pt_clust_5="13000.00000" pt_clust_6="13000.00000" pt_clust_7="13000.00000" pt_clust_8="13000.00000" pt_clust_9="123.66848"></scales>
<clustering>
<clus scale="   76.183">  5  6 -1 -1</clus>
<clus scale="   87.293">  7  8 -1 -1</clus>
<clus scale="   91.055">  1  7  2 -1</clus>
<clus scale="  123.668">  2  9  1 -1</clus>
<clus scale="  123.668">  2  5  1 -1</clus>
</clustering>
</event>
<event>
 9    2  0.1592151E-004  0.1434573E+03  0.7546771E-02  0.1226736E+00
          2   -1    0    0  502    0 -0.00000000000E+00  0.00000000000E+00  0.53033761356E+03  0.53033761356E+03  0.00000000000E+00 0. -1.
         21   -1    0    0  501  502  0.00000000000E+00 -0.00000000000E+00 -0.87718479464E+02  0.87718479464E+02  0.00000000000E+00 0. -1.
         23    2    1    2    0    0  0.31810270477E+02 -0.10174194347E+02  0.88739185879E+01  0.98596079246E+02  0.92341934533E+02 0.  0.
         24    2    1    2    0    0  0.89457262974E+02  0.44833086769E+02  0.33659357943E+03  0.36025733200E+03  0.80482917289E+02 0.  0.
        -11    1    4    4    0    0  0.10468451831E+03  0.42611139258E+02  0.29664564072E+03  0.31744793860E+03  0.00000000000E+00 0.  1.
         12    1    4    4    0    0 -0.15227255336E+02  0.22219475115E+01  0.39947938709E+02  0.42809393396E+02  0.00000000000E+00 0. -1.
        -11    1    3    3    0    0 -0.21962574381E+02 -0.33069076219E+02  0.19835948623E+01  0.39747366252E+02  0.00000000000E+00 0.  1.
         11    1    3    3    0    0  0.53772844858E+02  0.22894881872E+02  0.68903237256E+01  0.58848712994E+02  0.00000000000E+00 0. -1.
          1    1    1    2  501    0 -0.12126753345E+03 -0.34658892422E+02  0.97151636072E+02  0.15920268178E+03  0.00000000000E+00 0. -1.
<scales pt_clust_5="13000.00000" pt_clust_6="13000.00000" pt_clust_7="13000.00000" pt_clust_8="13000.00000" pt_clust_9="118.75396"></scales>
<clustering>
<clus scale="   80.483">  5  6 -1 -1</clus>
<clus scale="   92.342">  7  8 -1 -1</clus>
<clus scale="   98.196">  1  7  2 -1</clus>
<clus scale="  118.754">  2  9  1 -1</clus>
<clus scale="  118.754">  2  5  1 -1</clus>
</clustering>
</event>
<event>
 9    2  0.1592151E-004  0.1058429E+03  0.7546771E-02  0.1273276E+00
         21   -1    0    0  501  502  0.00000000000E+00  0.00000000000E+00  0.80741779631E+02  0.80741779631E+02  0.00000000000E+00 0.  1.
          2   -1    0    0  502    0 -0.00000000000E+00 -0.00000000000E+00 -0.23998135860E+03  0.23998135860E+03  0.00000000000E+00 0. -1.
         23    2    1    2    0    0 -0.70808675407E+01  0.54128625920E+02 -0.15905555817E+03  0.19089647852E+03  0.90347928027E+02 0.  0.
         24    2    1    2    0    0 -0.18413038738E+02 -0.57885003130E+02 -0.13739540928E+02  0.10070962427E+03  0.79145055766E+02 0.  0.
        -11    1    4    4    0    0 -0.24318148324E+02 -0.41601001855E+02  0.27850478592E+02  0.55656669421E+02  0.00000000000E+00 0.  1.
         12    1    4    4    0    0  0.59051095859E+01 -0.16284001275E+02 -0.41590019519E+02  0.45052954846E+02  0.00000000000E+00 0. -1.
        -13    1    3    3    0    0  0.39875497963E+02  0.39123603803E+02 -0.76165998091E+02  0.94456185491E+02  0.00000000000E+00 0. -1.
         13    1    3    3    0    0 -0.46956365504E+02  0.15005022117E+02 -0.82889560076E+02  0.96440293030E+02  0.00000000000E+00 0.  1.
          1    1    1    2  501    0  0.25493906278E+02  0.37563772100E+01  0.13555520126E+02  0.29117035442E+02  0.00000000000E+00 0. -1.
<scales pt_clust_5="13000.00000" pt_clust_6="13000.00000" pt_clust_7="13000.00000" pt_clust_8="13000.00000" pt_clust_9="25.76916"></scales>
<clustering>
<clus scale="   25.769">  1  9  2 -1</clus>
<clus scale="   79.145">  5  6 -1 -1</clus>
<clus scale="   90.348">  7  8 -1 -1</clus>
<clus scale="   96.457">  1  5  2 -1</clus>
<clus scale="   25.769">  1  5  2 -1</clus>
</clustering>
</event>
<event>
 9    2  0.1592151E-004  0.2738341E+03  0.7546771E-02  0.1099284E+00
         21   -1    0    0  501  502  0.00000000000E+00  0.00000000000E+00  0.12916002522E+03  0.12916002522E+03  0.00000000000E+00 0.  1.
         -1   -1    0    0    0  501 -0.00000000000E+00 -0.00000000000E+00 -0.74587782568E+03  0.74587782568E+03  0.00000000000E+00 0.  1.
         23    2    1    2    0    0  0.21922740177E+03  0.13349978255E+03 -0.41161488010E+03  0.49320410616E+03  0.89110241785E+02 0.  0.
         24    2    1    2    0    0 -0.20304573109E+03 -0.17089788383E+03 -0.16136058047E+03  0.32205200216E+03  0.85126961383E+02 0.  0.
        -13    1    4    4    0    0 -0.18413501871E+03 -0.11489323075E+03 -0.14392191236E+03  0.26042211205E+03  0.00000000000E+00 0.  1.
         14    1    4    4    0    0 -0.18910712382E+02 -0.56004653083E+02 -0.17438668108E+02  0.61629890111E+02  0.00000000000E+00 0. -1.
        -13    1    3    3    0    0  0.30566637102E+02  0.21681371259E+02 -0.13552579941E+03  0.14061167615E+03  0.00000000000E+00 0. -1.
         13    1    3    3    0    0  0.18866076467E+03  0.11181841129E+03 -0.27608908068E+03  0.35259243001E+03  0.00000000000E+00 0.  1.
         -2    1    1    2    0  502 -0.16181670679E+02  0.37398101276E+02 -0.43742339897E+02  0.59781742570E+02  0.00000000000E+00 0.  1.
<scales pt_clust_5="13000.00000" pt_clust_6="13000.00000" pt_clust_7="13000.00000" pt_clust_8="13000.00000" pt_clust_9="40.74882"></scales>
<clustering>
<clus scale="   40.749">  1  9  2 -1</clus>
<clus scale="   85.127">  5  6 -1 -1</clus>
<clus scale="   89.110">  7  8 -1 -1</clus>
<clus scale="  272.564">  1  5  2 -1</clus>
<clus scale="   40.749">  1  5  2 -1</clus>
</clustering>
</event>
<event>
 9    2  0.1592151E-004  0.2013043E+03  0.7546771E-02  0.1178965E+00
          2   -1    0    0  502    0 -0.00000000000E+00  0.00000000000E+00  0.87778006008E+03  0.87778006008E+03  0.00000000000E+00 0. -1.
         21   -1    0    0  501  502  0.00000000000E+00 -0.00000000000E+00 -0.15217752664E+03  0.15217752664E+03  0.00000000000E+00 0. -1.
         23    2    1    2    0    0 -0.40427202294E+02  0.24159265483E+01  0.11535409330E+03  0.15255958380E+03  0.91256037505E+02 0.  0.
         24    2    1    2    0    0  0.21671359490E+03 -0.39973293362E+02  0.65144291939E+03  0.69250767559E+03  0.81402439392E+02 0.  0.
        -13    1    4    4    0    0  0.22816580362E+02 -0.30873911961E+02  0.74902757307E+02  0.84167795690E+02  0.00000000000E+00 0.  1.
         14    1    4    4    0    0  0.19389701454E+03 -0.90993814008E+01  0.57654016208E+03  0.60833987990E+03  0.00000000000E+00 0. -1.
        -13    1    3    3    0    0 -0.12251731318E+02  0.44072666716E+02  0.34314949088E+02  0.57184093965E+02  0.00000000000E+00 0. -1.
         13    1    3    3    0    0 -0.28175470975E+02 -0.41656740168E+02  0.81039144211E+02  0.95375489831E+02  0.00000000000E+00 0.  1.
          1    1    1    2  501    0 -0.17628639260E+03  0.37557366813E+02 -0.41194479254E+02  0.18489032733E+03  0.00000000000E+00 0. -1.
<scales pt_clust_5="13000.00000" pt_clust_6="13000.00000" pt_clust_7="13000.00000" pt_clust_8="13000.00000" pt_clust_9="184.11156"></scales>
<clustering>
<clus scale="   81.402">  5  6 -1 -1</clus>
<clus scale="   91.256">  7  8 -1 -1</clus>
<clus scale="   99.839">  1  7  2 -1</clus>
<clus scale="  184.112">  2  9  1 -1</clus>
<clus scale="  184.112">  2  5  1 -1</clus>
</clustering>
</event>
<event>
 9    2  0.1592151E-004  0.9662748E+02  0.7546771E-02  0.1293483E+00
         21   -1    0    0  501  502  0.00000000000E+00  0.00000000000E+00  0.25601944091E+03  0.25601944091E+03  0.00000000000E+00 0. -1.
         -3   -1    0    0    0  501 -0.00000000000E+00 -0.00000000000E+00 -0.13005836844E+03  0.13005836844E+03  0.00000000000E+00 0.  1.
         23    2    1    2    0    0  0.22307491356E+02  0.84368578027E+01 -0.59235423144E+02  0.11236667044E+03  0.92458793688E+02 0.  0.
         24    2    1    2    0    0 -0.33298307104E+02 -0.66143556527E+02  0.18448685181E+03  0.21496282232E+03  0.81791620373E+02 0.  0.
        -11    1    4    4    0    0  0.17708093590E+02 -0.15925398441E+02  0.90355621161E+01  0.25472264855E+02  0.00000000000E+00 0.  1.
         12    1    4    4    0    0 -0.51006400694E+02 -0.50218158086E+02  0.17545128969E+03  0.18949055746E+03  0.00000000000E+00 0. -1.
        -11    1    3    3    0    0  0.43740334400E+02 -0.21417302108E+02 -0.80639511026E+01  0.49365423024E+02  0.00000000000E+00 0.  1.
         11    1    3    3    0    0 -0.21432843043E+02  0.29854159911E+02 -0.51171472041E+02  0.63001247414E+02  0.00000000000E+00 0. -1.
         -4    1    1    2    0  502  0.10990815748E+02  0.57706698724E+02  0.70964380643E+00  0.58748316595E+02  0.00000000000E+00 0.  1.
<scales pt_clust_5="13000.00000" pt_clust_6="13000.00000" pt_clust_7="13000.00000" pt_clust_8="13000.00000" pt_clust_9="58.74406"></scales>
<clustering>
<clus scale="   58.744">  1  9  2 -1</clus>
<clus scale="   81.792">  5  6 -1 -1</clus>
<clus scale="   86.476">  1  5  2 -1</clus>
<clus scale="   92.459">  7  8 -1 -1</clus>
<clus scale="   58.744">  1  5  2 -1</clus>
</clustering>
</event>
<event>
 9    2  0.1592151E-004  0.1027361E+03  0.7546771E-02  0.1276370E+00
          2   -1    0    0  502    0 -0.00000000000E+00  0.00000000000E+00  0.15330986416E+03  0.15330986416E+03  0.00000000000E+00 0. -1.
         21   -1    0    0  501  502  0.00000000000E+00 -0.00000000000E+00 -0.15193460558E+03  0.15193460558E+03  0.00000000000E+00 0.  1.
         24    2    1    2    0    0  0.62025651908E+02 -0.22418523421E+02  0.74465051213E+02  0.13156746395E+03  0.86111451213E+02 0.  0.
         23    2    1    2    0    0 -0.12852800720E+02  0.20778080339E+02 -0.10102831283E+02  0.93751930574E+02  0.89946840842E+02 0.  0.
        -13    1    3    3    0    0  0.27716886634E+02  0.33048167983E+02  0.26707121155E+02  0.50731425489E+02  0.00000000000E+00 0.  1.
         14    1    3    3    0    0  0.34308765274E+02 -0.55466691404E+02  0.47757930058E+02  0.80836038457E+02  0.00000000000E+00 0. -1.
        -13    1    4    4    0    0 -0.22035542164E+02 -0.30355144980E+02  0.86947025822E+01  0.38504516595E+02  0.00000000000E+00 0. -1.
         13    1    4    4    0    0  0.91827414437E+01  0.51133225319E+02 -0.18797533865E+02  0.55247413979E+02  0.00000000000E+00 0.  1.
          1    1    1    2  501    0 -0.49172851188E+02  0.16404430818E+01 -0.62986961351E+02  0.79925075212E+02  0.00000000000E+00 0. -1.
<scales pt_clust_5="13000.00000" pt_clust_6="13000.00000" pt_clust_7="13000.00000" pt_clust_8="13000.00000" pt_clust_9="49.20021"></scales>
<clustering>
<clus scale="   49.200">  2  9  1 -1</clus>
<clus scale="   86.111">  5  6 -1 -1</clus>
<clus scale="   89.947">  7  8 -1 -1</clus>
<clus scale="   99.395">  1  5  2 -1</clus>
<clus scale="   49.200">  2  5  1 -1</clus>
</clustering>
</event>
<event>
 9    2  0.1592151E-004  0.1780119E+03  0.7546771E-02  0.1171046E+00
         21   -1    0    0  501  502  0.00000000000E+00  0.00000000000E+00  0.47847308934E+02  0.47847308934E+02  0.00000000000E+00 0. -1.
          2   -1    0    0  502    0 -0.00000000000E+00 -0.00000000000E+00 -0.11226792732E+04  0.11226792732E+04  0.00000000000E+00 0. -1.
         24    2    1    2    0    0  0.12176375798E+03  0.73751235489E+02 -0.42346387447E+03  0.45411810776E+03  0.81461311792E+02 0.  0.
         23    2    1    2    0    0 -0.98339696863E+02 -0.15161394970E+03 -0.35247309613E+03  0.40665130151E+03  0.92035383421E+02 0.  0.
        -11    1    3    3    0    0  0.51517018902E+02 -0.12269250008E+02 -0.13652682560E+03  0.14643808193E+03  0.00000000000E+00 0.  1.
         12    1    3    3    0    0  0.70246739079E+02  0.86020485498E+02 -0.28693704887E+03  0.30768002583E+03  0.00000000000E+00 0. -1.
        -13    1    4    4    0    0 -0.27764062820E+02 -0.24365480043E+02 -0.16373784661E+02  0.40405700416E+02  0.00000000000E+00 0. -1.
         13    1    4    4    0    0 -0.70575634044E+02 -0.12724846965E+03 -0.33609931147E+03  0.36624560109E+03  0.00000000000E+00 0.  1.
          1    1    1    2  501    0 -0.23424061118E+02  0.77862714206E+02 -0.29889499362E+03  0.30975717282E+03  0.00000000000E+00 0. -1.
<scales pt_clust_5="13000.00000" pt_clust_6="13000.00000" pt_clust_7="13000.00000" pt_clust_8="13000.00000" pt_clust_9="81.30987"></scales>
<clustering>
<clus scale="   81.310">  1  9  2 -1</clus>
<clus scale="   81.461">  5  6 -1 -1</clus>
<clus scale="   92.035">  7  8 -1 -1</clus>
<clus scale="  172.782">  2  5  1 -1</clus>
<clus scale="   81.310">  1  5  2 -1</clus>
</clustering>
</event>
<event>
 9    2  0.1592151E-004  0.9067997E+02  0.7546771E-02  0.1307622E+00
          2   -1    0    0  502    0 -0.00000000000E+00  0.00000000000E+00  0.46061079105E+03  0.46061079105E+03  0.00000000000E+00 0. -1.
         21   -1    0    0  501  502  0.00000000000E+00 -0.00000000000E+00 -0.60501007971E+02  0.60501007971E+02  0.00000000000E+00 0.  1.
         23    2    1    2    0    0 -0.12245637366E+02 -0.39692844293E+01  0.40541572473E+03  0.41547346074E+03  0.89947628447E+02 0.  0.
         24    2    1    2    0    0 -0.73042561143E+01  0.17063955355E+02 -0.31101148675E+01  0.82005936858E+02  0.79817104281E+02 0.  0.
        -11    1    4    4    0    0  0.34818887945E+02  0.17311554931E+02  0.46871475952E+01  0.39166493901E+02  0.00000000000E+00 0.  1.
         12    1    4    4    0    0 -0.42123144060E+02 -0.24759957629E+00 -0.77972624627E+01  0.42839442958E+02  0.00000000000E+00 0. -1.
        -13    1    3    3    0    0 -0.23053275334E+02  0.39564698194E+02  0.19042220515E+03  0.19585054266E+03  0.00000000000E+00 0.  1.
         13    1    3    3    0    0  0.10807637967E+02 -0.43533982623E+02  0.21499351958E+03  0.21962291808E+03  0.00000000000E+00 0. -1.
          1    1    1    2  501    0  0.19549893481E+02 -0.13094670926E+02 -0.21958267880E+01  0.23632401424E+02  0.00000000000E+00 0. -1.
<scales pt_clust_5="13000.00000" pt_clust_6="13000.00000" pt_clust_7="13000.00000" pt_clust_8="13000.00000" pt_clust_9="23.53017"></scales>
<clustering>
<clus scale="   23.530">  2  9  1 -1</clus>
<clus scale="   79.817">  5  6 -1 -1</clus>
<clus scale="   80.641">  2  5  1 -1</clus>
<clus scale="   89.948">  7  8 -1 -1</clus>
<clus scale="   23.530">  2  5  1 -1</clus>
</clustering>
</event>
<event>
 9    2  0.1592151E-004  0.8687768E+02  0.7546771E-02  0.1313070E+00
         21   -1    0    0  501  502  0.00000000000E+00  0.00000000000E+00  0.60945607596E+02  0.60945607596E+02  0.00000000000E+00 0.  1.
         -1   -1    0    0    0  501 -0.00000000000E+00 -0.00000000000E+00 -0.18626477426E+03  0.18626477426E+03  0.00000000000E+00 0.  1.
         24    2    1    2    0    0 -0.73816226895E+01  0.15801821125E+02 -0.91226405053E+02  0.12334872610E+03  0.81169362120E+02 0.  0.
         23    2    1    2    0    0 -0.16801533953E+02 -0.22229951343E+02 -0.11678986405E+02  0.90268155755E+02  0.85061618490E+02 0.  0.
        -13    1    3    3    0    0 -0.34918113413E+02 -0.15500359242E+02 -0.60524236736E+02  0.71573172442E+02  0.00000000000E+00 0.  1.
         14    1    3    3    0    0  0.27536490723E+02  0.31302180367E+02 -0.30702168316E+02  0.51775553657E+02  0.00000000000E+00 0. -1.
        -11    1    4    4    0    0 -0.36151484264E+02 -0.79316142161E+01  0.26233661874E+02  0.45365684541E+02  0.00000000000E+00 0.  1.
         11    1    4    4    0    0  0.19349950311E+02 -0.14298337126E+02 -0.37912648279E+02  0.44902471214E+02  0.00000000000E+00 0. -1.
         -2    1    1    2    0  502  0.24183156643E+02  0.64281302175E+01 -0.22413775204E+02  0.33593499999E+02  0.00000000000E+00 0.  1.
<scales pt_clust_5="13000.00000" pt_clust_6="13000.00000" pt_clust_7="13000.00000" pt_clust_8="13000.00000" pt_clust_9="25.02292"></scales>
<clustering>
<clus scale="   25.023">  1  9  2 -1</clus>
<clus scale="   81.169">  5  6 -1 -1</clus>
<clus scale="   83.071">  2  5  1 -1</clus>
<clus scale="   85.062">  7  8 -1 -1</clus>
<clus scale="   25.023">  1  5  2 -1</clus>
</clustering>
</event>
<event>
 9    2  0.1592151E-004  0.1725390E+03  0.7546771E-02  0.1205910E+00
          2   -1    0    0  502    0 -0.00000000000E+00  0.00000000000E+00  0.12161760011E+04  0.12161760011E+04  0.00000000000E+00 0. -1.
         21   -1    0    0  501  502  0.00000000000E+00 -0.00000000000E+00 -0.45577148833E+02  0.45577148833E+02  0.00000000000E+00 0. -1.
         24    2    1    2    0    0  0.34474996786E+02 -0.39215896143E+00  0.38195751399E+03  0.39188282869E+03  0.80572512314E+02 0.  0.
         23    2    1    2    0    0  0.52647287727E+02 -0.13212052905E+03  0.20857448493E+03  0.26851563447E+03  0.91486387467E+02 0.  0.
        -11    1    3    3    0    0  0.87078201540E+01  0.20162179957E+02  0.24475566056E+02  0.32884539927E+02  0.00000000000E+00 0.  1.
         12    1    3    3    0    0  0.25767176632E+02 -0.20554338918E+02  0.35748194793E+03  0.35899828876E+03  0.00000000000E+00 0. -1.
        -11    1    4    4    0    0  0.57910429809E+02 -0.41549816648E+02  0.13106180844E+03  0.14918848071E+03  0.00000000000E+00 0. -1.
         11    1    4    4    0    0 -0.52631420823E+01 -0.90570712397E+02  0.77512676485E+02  0.11932715376E+03  0.00000000000E+00 0.  1.
          1    1    1    2  501    0 -0.87122284513E+02  0.13251268801E+03  0.58006685333E+03  0.60135468675E+03  0.00000000000E+00 0. -1.
<scales pt_clust_5="13000.00000" pt_clust_6="13000.00000" pt_clust_7="13000.00000" pt_clust_8="13000.00000" pt_clust_9="146.28733"></scales>
<clustering>
<clus scale="   80.573">  5  6 -1 -1</clus>
<clus scale="   87.639">  1  5  2 -1</clus>
<clus scale="   91.486">  7  8 -1 -1</clus>
<clus scale="  146.287">  2  9  1 -1</clus>
<clus scale="  146.287">  2  5  1 -1</clus>
</clustering>
</event>
<event>
 9    2  0.1592151E-004  0.1275919E+03  0.7546771E-02  0.1233500E+00
         -1   -1    0    0    0  501 -0.00000000000E+00  0.00000000000E+00  0.13400533415E+04  0.13400533415E+04  0.00000000000E+00 0.  1.
         21   -1    0    0  501  502  0.00000000000E+00 -0.00000000000E+00 -0.28457429201E+02  0.28457429201E+02  0.00000000000E+00 0.  1.
         24    2    1    2    0    0 -0.12557594466E+03 -0.41607135675E+02  0.72463013355E+03  0.74075529744E+03  0.78288623814E+02 0.  0.
         23    2    1    2    0    0  0.18671666426E+02  0.66761218775E+02  0.32640710589E+03  0.34499749441E+03  0.87612675551E+02 0.  0.
        -13    1    3    3    0    0 -0.87315826165E+02 -0.61519252259E+02  0.58298158011E+03  0.59268557823E+03  0.00000000000E+00 0.  1.
         14    1    3    3    0    0 -0.38260118496E+02  0.19912116584E+02  0.14164855344E+03  0.14806971921E+03  0.00000000000E+00 0. -1.
        -13    1    4    4    0    0  0.13630118838E+02 -0.18359455664E+02  0.11092739734E+03  0.11325960106E+03  0.00000000000E+00 0. -1.
         13    1    4    4    0    0  0.50415475872E+01  0.85120674439E+02  0.21547970855E+03  0.23173789335E+03  0.00000000000E+00 0.  1.
         -2    1    1    2    0  502  0.10690427824E+03 -0.25154083100E+02  0.26055867290E+03  0.28275797889E+03  0.00000000000E+00 0.  1.
<scales pt_clust_5="13000.00000" pt_clust_6="13000.00000" pt_clust_7="13000.00000" pt_clust_8="13000.00000" pt_clust_9="109.82373"></scales>
<clustering>
<clus scale="   78.289">  5  6 -1 -1</clus>
<clus scale="   87.613">  7  8 -1 -1</clus>
<clus scale="  109.824">  2  9  1 -1</clus>
<clus scale="  121.379">  1  5  2 -1</clus>
<clus scale="  109.824">  2  5  1 -1</clus>
</clustering>
</event>
<event>
 9    2  0.1592151E-004  0.9375606E+02  0.7546771E-02  0.1301681E+00
         21   -1    0    0  501  502  0.00000000000E+00  0.00000000000E+00  0.10431665658E+03  0.10431665658E+03  0.00000000000E+00 0. -1.
          4   -1    0    0  502    0 -0.00000000000E+00 -0.00000000000E+00 -0.35808099868E+03  0.35808099868E+03  0.00000000000E+00 0. -1.
         24    2    1    2    0    0  0.10202287370E+02 -0.73181681459E+01 -0.27616134819E+03  0.28769632536E+03  0.79664566395E+02 0.  0.
         23    2    1    2    0    0 -0.35620283006E+02  0.18075575519E+02 -0.38615971009E+02  0.10773581870E+03  0.92305375912E+02 0.  0.
        -13    1    3    3    0    0 -0.29455923167E+02 -0.13502775682E+02 -0.63602218127E+02  0.71380799319E+02  0.00000000000E+00 0.  1.
         14    1    3    3    0    0  0.39658210536E+02  0.61846075364E+01 -0.21255913006E+03  0.21631552604E+03  0.00000000000E+00 0. -1.
        -11    1    4    4    0    0  0.29955945119E+02  0.93985540946E+01 -0.51569378892E+00  0.31399958712E+02  0.00000000000E+00 0.  1.
         11    1    4    4    0    0 -0.65576228125E+02  0.86770214243E+01 -0.38100277220E+02  0.76335859988E+02  0.00000000000E+00 0. -1.
          3    1    1    2  501    0  0.25417995636E+02 -0.10757407373E+02  0.61012977101E+02  0.66965511200E+02  0.00000000000E+00 0. -1.
<scales pt_clust_5="13000.00000" pt_clust_6="13000.00000" pt_clust_7="13000.00000" pt_clust_8="13000.00000" pt_clust_9="27.60066"></scales>
<clustering>
<clus scale="   27.601">  1  9  2 -1</clus>
<clus scale="   79.665">  5  6 -1 -1</clus>
<clus scale="   81.341">  2  5  1 -1</clus>
<clus scale="   92.305">  7  8 -1 -1</clus>
<clus scale="   27.601">  1  5  2 -1</clus>
</clustering>
</event>
<event>
 9    2  0.1592151E-004  0.1416695E+03  0.7546771E-02  0.1213268E+00
         21   -1    0    0  501  502  0.00000000000E+00  0.00000000000E+00  0.93610744762E+02  0.93610744762E+02  0.00000000000E+00 0. -1.
          2   -1    0    0  502    0 -0.00000000000E+00 -0.00000000000E+00 -0.73210715609E+03  0.73210715609E+03  0.00000000000E+00 0. -1.
         24    2    1    2    0    0  0.10289929074E+03 -0.36074988748E+02 -0.61946162639E+03  0.63416061782E+03  0.80853656516E+02 0.  0.
         23    2    1    2    0    0 -0.83234830996E+02  0.73924739950E+02 -0.31178203584E+02  0.14720914599E+03  0.91134779403E+02 0.  0.
        -13    1    3    3    0    0  0.21350027708E+02  0.67351422080E+00 -0.24463655411E+02  0.32476880093E+02  0.00000000000E+00 0.  1.
         14    1    3    3    0    0  0.81549263031E+02 -0.36748502969E+02 -0.59499797098E+03  0.60168373772E+03  0.00000000000E+00 0. -1.
        -13    1    4    4    0    0 -0.26005870963E+02  0.77453363643E+02 -0.36777758243E+02  0.89598729710E+02  0.00000000000E+00 0. -1.
         13    1    4    4    0    0 -0.57228960033E+02 -0.35286236929E+01  0.55995546587E+01  0.57610416281E+02  0.00000000000E+00 0.  1.
          1    1    1    2  501    0 -0.19664459743E+02 -0.37849751202E+02  0.12143418645E+02  0.44348137046E+02  0.00000000000E+00 0. -1.
<scales pt_clust_5="13000.00000" pt_clust_6="13000.00000" pt_clust_7="13000.00000" pt_clust_8="13000.00000" pt_clust_9="42.65319"></scales>
<clustering>
<clus scale="   42.653">  1  9  2 -1</clus>
<clus scale="   80.854">  5  6 -1 -1</clus>
<clus scale="   91.135">  7  8 -1 -1</clus>
<clus scale="  135.285">  2  5  1 -1</clus>
<clus scale="   42.653">  1  5  2 -1</clus>
</clustering>
</event>
<event>
 9    2  0.1592151E-004  0.1114301E+03  0.7546771E-02  0.1264005E+00
         21   -1    0    0  501  502  0.00000000000E+00  0.00000000000E+00  0.71258618384E+03  0.71258618384E+03  0.00000000000E+00 0. -1.
          2   -1    0    0  502    0 -0.00000000000E+00 -0.00000000000E+00 -0.20883598441E+03  0.20883598441E+03  0.00000000000E+00 0. -1.
         24    2    1    2    0    0  0.22281639471E+02  0.64483032083E+02 -0.19087095697E+03  0.21521236822E+03  0.72319487950E+02 0.  0.
         23    2    1    2    0    0 -0.10782839079E+02 -0.37019399296E+02  0.49134558358E+03  0.50076532567E+03  0.88649440772E+02 0.  0.
        -11    1    3    3    0    0  0.34647346219E+01  0.32934748059E+02 -0.16472206786E+02  0.36986965436E+02  0.00000000000E+00 0.  1.
         12    1    3    3    0    0  0.18816904849E+02  0.31548284024E+02 -0.17439875018E+03  0.17822540279E+03  0.00000000000E+00 0. -1.
        -11    1    4    4    0    0  0.31291832086E+02 -0.43856172833E+02  0.28895044276E+03  0.29393009547E+03  0.00000000000E+00 0.  1.
         11    1    4    4    0    0 -0.42074671164E+02  0.68367735367E+01  0.20239514082E+03  0.20683523021E+03  0.00000000000E+00 0. -1.
          1    1    1    2  501    0 -0.11498800392E+02 -0.27463632787E+02  0.20327557282E+03  0.20544447435E+03  0.00000000000E+00 0. -1.
<scales pt_clust_5="13000.00000" pt_clust_6="13000.00000" pt_clust_7="13000.00000" pt_clust_8="13000.00000" pt_clust_9="29.77371"></scales>
<clustering>
<clus scale="   29.774">  1  9  2 -1</clus>
<clus scale="   72.319">  5  6 -1 -1</clus>
<clus scale="   88.649">  7  8 -1 -1</clus>
<clus scale="   98.935">  2  5  1 -1</clus>
<clus scale="   29.774">  1  5  2 -1</clus>
</clustering>
</event>
<event>
 9    2  0.1592151E-004  0.2892073E+03  0.7546771E-02  0.1121201E+00
          2   -1    0    0  502    0 -0.00000000000E+00  0.00000000000E+00  0.52945270667E+03  0.52945270667E+03  0.00000000000E+00 0. -1.
         21   -1    0    0  501  502  0.00000000000E+00 -0.00000000000E+00 -0.26887777116E+03  0.26887777116E+03  0.00000000000E+00 0. -1.
         24    2    1    2    0    0  0.27706375063E+02 -0.10196047159E+03 -0.78517927393E+01  0.13264644871E+03  0.79811332027E+02 0.  0.
         23    2    1    2    0    0 -0.20299336871E+03 -0.13244433556E+03  0.26745174999E+03  0.37298607158E+03  0.94023195309E+02 0.  0.
        -13    1    3    3    0    0  0.25149368233E+02  0.19088859840E+01  0.10168772632E+02  0.27194457248E+02  0.00000000000E+00 0.  1.
         14    1    3    3    0    0  0.25570068303E+01 -0.10386935757E+03 -0.18020565371E+02  0.10545199146E+03  0.00000000000E+00 0. -1.
        -13    1    4    4    0    0 -0.21595261812E+02  0.99069608550E+01  0.53040732520E+02  0.58119037435E+02  0.00000000000E+00 0.  1.
         13    1    4    4    0    0 -0.18139810690E+03 -0.14235129642E+03  0.21441101748E+03  0.31486703415E+03  0.00000000000E+00 0. -1.
          1    1    1    2  501    0  0.17528699365E+03  0.23440480715E+03  0.97497825256E+00  0.29269795753E+03  0.00000000000E+00 0. -1.
<scales pt_clust_5="13000.00000" pt_clust_6="13000.00000" pt_clust_7="13000.00000" pt_clust_8="13000.00000" pt_clust_9="273.49678"></scales>
<clustering>
<clus scale="   79.811">  5  6 -1 -1</clus>
<clus scale="   94.023">  7  8 -1 -1</clus>
<clus scale="  132.414">  1  5  2 -1</clus>
<clus scale="  273.497">  2  9  1 -1</clus>
<clus scale="  273.497">  2  5  1 -1</clus>
</clustering>
</event>
<event>
 9    2  0.1592151E-004  0.1221737E+03  0.7546771E-02  0.1242992E+00
          2   -1    0    0  502    0 -0.00000000000E+00  0.00000000000E+00  0.99241111224E+03  0.99241111224E+03  0.00000000000E+00 0. -1.
         21   -1    0    0  501  502  0.00000000000E+00 -0.00000000000E+00 -0.10289380034E+03  0.10289380034E+03  0.00000000000E+00 0. -1.
         24    2    1    2    0    0 -0.87632963519E+02  0.11191016030E+01  0.85548567858E+03  0.86415375220E+03  0.85001014675E+02 0.  0.
         23    2    1    2    0    0 -0.50174851510E+01 -0.43346510263E+02  0.66268857234E+02  0.12434995118E+03  0.95745776978E+02 0.  0.
        -11    1    3    3    0    0 -0.53510735851E+02 -0.37460632447E+02  0.34934212953E+03  0.35539642837E+03  0.00000000000E+00 0.  1.
         12    1    3    3    0    0 -0.34122227668E+02  0.38579734050E+02  0.50614354905E+03  0.50875732382E+03  0.00000000000E+00 0. -1.
        -13    1    4    4    0    0 -0.47067753332E+02 -0.16583935445E+02  0.52941953599E+02  0.72754730220E+02  0.00000000000E+00 0.  1.
         13    1    4    4    0    0  0.42050268181E+02 -0.26762574818E+02  0.13326903635E+02  0.51595220956E+02  0.00000000000E+00 0. -1.
          1    1    1    2  501    0  0.92650448670E+02  0.42227408660E+02 -0.32237223916E+02  0.10680120920E+03  0.00000000000E+00 0. -1.
<scales pt_clust_5="13000.00000" pt_clust_6="13000.00000" pt_clust_7="13000.00000" pt_clust_8="13000.00000" pt_clust_9="101.81974"></scales>
<clustering>
<clus scale="   85.001">  5  6 -1 -1</clus>
<clus scale="   95.746">  7  8 -1 -1</clus>
<clus scale="  101.820">  2  9  1 -1</clus>
<clus scale="  113.949">  1  5  2 -1</clus>
<clus scale="  101.820">  2  5  1 -1</clus>
</clustering>
</event>
<event>
 9    2  0.1592151E-004  0.9270484E+02  0.7546771E-02  0.1302809E+00
         21   -1    0    0  501  502  0.00000000000E+00  0.00000000000E+00  0.14169121911E+03  0.14169121911E+03  0.00000000000E+00 0.  1.
          2   -1    0    0  502    0 -0.00000000000E+00 -0.00000000000E+00 -0.19044463903E+03  0.19044463903E+03  0.00000000000E+00 0. -1.
         24    2    1    2    0    0  0.31400487115E+02  0.13476625460E+02 -0.96978854320E+02  0.13031023424E+03  0.80051539252E+02 0.  0.
         23    2    1    2    0    0  0.31623498929E+02 -0.20520672882E+02 -0.28586002708E+02  0.10221820304E+03  0.90610472800E+02 0.  0.
        -11    1    3    3    0    0 -0.26558340024E+02  0.89166153017E+00 -0.20685070693E+02  0.33675104078E+02  0.00000000000E+00 0.  1.
         12    1    3    3    0    0  0.57958827139E+02  0.12584963930E+02 -0.76293783627E+02  0.96635130158E+02  0.00000000000E+00 0. -1.
        -11    1    4    4    0    0 -0.19039278197E+02  0.22102388159E+02 -0.20196756159E+02  0.35481243438E+02  0.00000000000E+00 0. -1.
         11    1    4    4    0    0  0.50662777126E+02 -0.42623061041E+02 -0.83892465498E+01  0.66736959597E+02  0.00000000000E+00 0.  1.
          1    1    1    2  501    0 -0.63023986043E+02  0.70440474226E+01  0.76811437113E+02  0.99607420869E+02  0.00000000000E+00 0. -1.
<scales pt_clust_5="13000.00000" pt_clust_6="13000.00000" pt_clust_7="13000.00000" pt_clust_8="13000.00000" pt_clust_9="63.41641"></scales>
<clustering>
<clus scale="   63.416">  1  9  2 -1</clus>
<clus scale="   80.052">  5  6 -1 -1</clus>
<clus scale="   82.415">  2  5  1 -1</clus>
<clus scale="   90.610">  7  8 -1 -1</clus>
<clus scale="   63.416">  1  5  2 -1</clus>
</clustering>
</event>
<event>
 9    2  0.1592151E-004  0.1249409E+03  0.7546771E-02  0.1242736E+00
          2   -1    0    0  502    0 -0.00000000000E+00  0.00000000000E+00  0.47649694967E+03  0.47649694967E+03  0.00000000000E+00 0. -1.
         21   -1    0    0  501  502  0.00000000000E+00 -0.00000000000E+00 -0.13503665527E+03  0.13503665527E+03  0.00000000000E+00 0. -1.
         23    2    1    2    0    0 -0.44206206857E+02 -0.34091104312E+02 -0.70807313036E+02  0.12838894222E+03  0.91398319392E+02 0.  0.
         24    2    1    2    0    0 -0.71746286890E+02  0.53843259594E+02  0.12709990784E+03  0.17467141373E+03  0.79429779779E+02 0.  0.
        -13    1    4    4    0    0 -0.64987593017E+02  0.70786620473E+02  0.83108397265E+02  0.12704778070E+03  0.00000000000E+00 0.  1.
         14    1    4    4    0    0 -0.67586938730E+01 -0.16943360879E+02  0.43991510571E+02  0.47623633031E+02  0.00000000000E+00 0. -1.
        -11    1    3    3    0    0 -0.19747362972E+02  0.49414270879E+01 -0.79019970491E+02  0.81599827098E+02  0.00000000000E+00 0. -1.
         11    1    3    3    0    0 -0.24458843885E+02 -0.39032531400E+02  0.82126574542E+01  0.46789115125E+02  0.00000000000E+00 0.  1.
          1    1    1    2  501    0  0.11595249375E+03 -0.19752155282E+02  0.28516769960E+03  0.30847324898E+03  0.00000000000E+00 0. -1.
<scales pt_clust_5="13000.00000" pt_clust_6="13000.00000" pt_clust_7="13000.00000" pt_clust_8="13000.00000" pt_clust_9="96.44250"></scales>
<clustering>
<clus scale="   79.430">  5  6 -1 -1</clus>
<clus scale="   91.398">  7  8 -1 -1</clus>
<clus scale="  107.098">  1  7  2 -1</clus>
<clus scale="   96.442">  2  9  1 -1</clus>
<clus scale="   96.442">  2  5  1 -1</clus>
</clustering>
</event>
<event>
 9    2  0.1592151E-004  0.1025274E+03  0.7546771E-02  0.1281107E+00
         -1   -1    0    0    0  501 -0.00000000000E+00  0.00000000000E+00  0.10835134573E+03  0.10835134573E+03  0.00000000000E+00 0.  1.
         21   -1    0    0  501  502  0.00000000000E+00 -0.00000000000E+00 -0.19675111160E+03  0.19675111160E+03  0.00000000000E+00 0.  1.
         23    2    1    2    0    0  0.41849568093E+02  0.96182112541E+01  0.32351292843E+02  0.10642453989E+03  0.91845959111E+02 0.  0.
         24    2    1    2    0    0 -0.32058266868E+02 -0.55031802924E+02 -0.48077421218E+02  0.11242409738E+03  0.79192849636E+02 0.  0.
        -11    1    4    4    0    0  0.17897682532E+02 -0.19760311906E+02 -0.43602783617E+02  0.51107726479E+02  0.00000000000E+00 0.  1.
         12    1    4    4    0    0 -0.49955949400E+02 -0.35271491018E+02 -0.44746376006E+01  0.61316370903E+02  0.00000000000E+00 0. -1.
        -11    1    3    3    0    0  0.43802036866E+01 -0.37292890798E+02  0.26795534239E+02  0.46129670968E+02  0.00000000000E+00 0.  1.
         11    1    3    3    0    0  0.37469364406E+02  0.46911102052E+02  0.55557586044E+01  0.60294868923E+02  0.00000000000E+00 0. -1.
         -2    1    1    2    0  502 -0.97913012253E+01  0.45413591670E+02 -0.72673637490E+02  0.86253820055E+02  0.00000000000E+00 0.  1.
<scales pt_clust_5="13000.00000" pt_clust_6="13000.00000" pt_clust_7="13000.00000" pt_clust_8="13000.00000" pt_clust_9="46.45712"></scales>
<clustering>
<clus scale="   46.457">  2  9  1 -1</clus>
<clus scale="   79.193">  5  6 -1 -1</clus>
<clus scale="   91.366">  2  5  1 -1</clus>
<clus scale="   91.846">  7  8 -1 -1</clus>
<clus scale="   46.457">  2  5  1 -1</clus>
</clustering>
</event>
<event>
 9    2  0.1592151E-004  0.1124917E+03  0.7546771E-02  0.1256436E+00
         21   -1    0    0  501  502  0.00000000000E+00  0.00000000000E+00  0.10253620434E+03  0.10253620434E+03  0.00000000000E+00 0.  1.
          2   -1    0    0  502    0 -0.00000000000E+00 -0.00000000000E+00 -0.32378635005E+03  0.32378635005E+03  0.00000000000E+00 0. -1.
         23    2    1    2    0    0 -0.51934910658E+02  0.53624464322E+02 -0.24953069996E+03  0.27621452507E+03  0.91956922088E+02 0.  0.
         24    2    1    2    0    0  0.26292861565E+02 -0.15716929490E+02 -0.83329178523E+00  0.95866791222E+02  0.90837276721E+02 0.  0.
        -11    1    4    4    0    0  0.24553244592E+02  0.16307181072E+02  0.36326893607E+02  0.46780649564E+02  0.00000000000E+00 0.  1.
         12    1    4    4    0    0  0.17396169733E+01 -0.32024110562E+02 -0.37160185393E+02  0.49086141658E+02  0.00000000000E+00 0. -1.
        -13    1    3    3    0    0 -0.39966711700E+02 -0.67105755961E+00 -0.19234999880E+03  0.19645943703E+03  0.00000000000E+00 0. -1.
         13    1    3    3    0    0 -0.11968198958E+02  0.54295521881E+02 -0.57180701163E+02  0.79755088040E+02  0.00000000000E+00 0.  1.
          1    1    1    2  501    0  0.25642049093E+02 -0.37907534832E+02  0.29113846035E+02  0.54241238091E+02  0.00000000000E+00 0. -1.
<scales pt_clust_5="13000.00000" pt_clust_6="13000.00000" pt_clust_7="13000.00000" pt_clust_8="13000.00000" pt_clust_9="45.76566"></scales>
<clustering>
<clus scale="   45.766">  1  9  2 -1</clus>
<clus scale="   90.837">  5  6 -1 -1</clus>
<clus scale="   91.957">  7  8 -1 -1</clus>
<clus scale="  111.578">  1  5  2 -1</clus>
<clus scale="   45.766">  1  5  2 -1</clus>
</clustering>
</event>
<event>
 9    2  0.1592151E-004  0.1935224E+03  0.7546771E-02  0.1187095E+00
         21   -1    0    0  501  502  0.00000000000E+00  0.00000000000E+00  0.17325596111E+03  0.17325596111E+03  0.00000000000E+00 0.  1.
          2   -1    0    0  502    0 -0.00000000000E+00 -0.00000000000E+00 -0.38729998309E+03  0.38729998309E+03  0.00000000000E+00 0. -1.
         24    2    1    2    0    0  0.30412393711E+02 -0.34083254797E+02  0.13368324036E+02  0.94643406249E+02  0.81805136208E+02 0.  0.
         23    2    1    2    0    0 -0.10416776736E+03  0.15248456273E+03 -0.82704812768E+01  0.20613978775E+03  0.91229083095E+02 0.  0.
        -11    1    3    3    0    0 -0.24087052283E+02 -0.15721907869E+02  0.22363571964E+02  0.36434788674E+02  0.00000000000E+00 0.  1.
         12    1    3    3    0    0  0.54499445994E+02 -0.18361346927E+02 -0.89952479275E+01  0.58208617574E+02  0.00000000000E+00 0. -1.
        -13    1    4    4    0    0 -0.54550915061E+02  0.14334403434E+03  0.66828801133E+01  0.15351864838E+03  0.00000000000E+00 0.  1.
         13    1    4    4    0    0 -0.49616852298E+02  0.91405283987E+01 -0.14953361390E+02  0.52621139366E+02  0.00000000000E+00 0. -1.
          1    1    1    2  501    0  0.73755373648E+02 -0.11840130794E+03 -0.21914186474E+03  0.25977275020E+03  0.00000000000E+00 0. -1.
<scales pt_clust_5="13000.00000" pt_clust_6="13000.00000" pt_clust_7="13000.00000" pt_clust_8="13000.00000" pt_clust_9="170.66987"></scales>
<clustering>
<clus scale="   81.805">  5  6 -1 -1</clus>
<clus scale="   91.229">  7  8 -1 -1</clus>
<clus scale="   93.695">  2  5  1 -1</clus>
<clus scale="  170.670">  1  9  2 -1</clus>
<clus scale="  170.670">  1  5  2 -1</clus>
</clustering>
</event>
<event>
 9    2  0.1592151E-004  0.2244267E+03  0.7546771E-02  0.1131835E+00
          2   -1    0    0  502    0 -0.00000000000E+00  0.00000000000E+00  0.69118405186E+03  0.69118405186E+03  0.00000000000E+00 0. -1.
         21   -1    0    0  501  502  0.00000000000E+00 -0.00000000000E+00 -0.22998653107E+03  0.22998653107E+03  0.00000000000E+00 0. -1.
         24    2    1    2    0    0  0.19752998204E+03 -0.89647423770E+02  0.25949074334E+03  0.34813904235E+03  0.82526314205E+02 0.  0.
         23    2    1    2    0    0 -0.35812150118E+02  0.24401908955E+03  0.22522221392E+03  0.34822886241E+03  0.98541711029E+02 0.  0.
        -13    1    3    3    0    0  0.31661411482E+02 -0.41230797619E+01  0.91990329328E+02  0.97373843786E+02  0.00000000000E+00 0.  1.
         14    1    3    3    0    0  0.16586857056E+03 -0.85524344008E+02  0.16750041401E+03  0.25076519857E+03  0.00000000000E+00 0. -1.
        -13    1    4    4    0    0  0.23911501863E+02  0.15938741231E+02  0.15345146249E+02  0.32577245230E+02  0.00000000000E+00 0.  1.
         13    1    4    4    0    0 -0.59723651981E+02  0.22808034832E+03  0.20987706767E+03  0.31565161718E+03  0.00000000000E+00 0. -1.
          1    1    1    2  501    0 -0.16171783192E+03 -0.15437166578E+03 -0.23515436464E+02  0.22480267817E+03  0.00000000000E+00 0. -1.
<scales pt_clust_5="13000.00000" pt_clust_6="13000.00000" pt_clust_7="13000.00000" pt_clust_8="13000.00000" pt_clust_9="223.56938"></scales>
<clustering>
<clus scale="   82.526">  5  6 -1 -1</clus>
<clus scale="   98.542">  7  8 -1 -1</clus>
<clus scale="  223.569">  2  9  1 -1</clus>
<clus scale="  217.870">  1  5  2 -1</clus>
<clus scale="  223.569">  2  5  1 -1</clus>
</clustering>
</event>
<event>
 9    2  0.1592151E-004  0.1556372E+03  0.7546771E-02  0.1195145E+00
          2   -1    0    0  502    0 -0.00000000000E+00  0.00000000000E+00  0.97016226687E+03  0.97016226687E+03  0.00000000000E+00 0. -1.
         21   -1    0    0  501  502  0.00000000000E+00 -0.00000000000E+00 -0.45626637165E+02  0.45626637165E+02  0.00000000000E+00 0.  1.
         23    2    1    2    0    0  0.52097527718E+01  0.13082922951E+03  0.70657715264E+03  0.72407305132E+03  0.88809246096E+02 0.  0.
         24    2    1    2    0    0  0.35818071899E+02 -0.11675744537E+03  0.13892506139E+03  0.20156277014E+03  0.80075853410E+02 0.  0.
        -13    1    4    4    0    0  0.39907321659E+02 -0.43267419924E+02  0.20888359354E+02  0.62457885854E+02  0.00000000000E+00 0.  1.
         14    1    4    4    0    0 -0.40892497609E+01 -0.73490025442E+02  0.11803670204E+03  0.13910488428E+03  0.00000000000E+00 0. -1.
        -13    1    3    3    0    0 -0.33474186321E+02  0.99349744181E+02  0.54431253237E+03  0.55431671968E+03  0.00000000000E+00 0. -1.
         13    1    3    3    0    0  0.38683939093E+02  0.31479485330E+02  0.16226462027E+03  0.16975633164E+03  0.00000000000E+00 0.  1.
          1    1    1    2  501    0 -0.41027824670E+02 -0.14071784145E+02  0.79033415671E+02  0.90153082581E+02  0.00000000000E+00 0. -1.
<scales pt_clust_5="13000.00000" pt_clust_6="13000.00000" pt_clust_7="13000.00000" pt_clust_8="13000.00000" pt_clust_9="43.37393"></scales>
<clustering>
<clus scale="   43.374">  2  9  1 -1</clus>
<clus scale="   80.076">  5  6 -1 -1</clus>
<clus scale="   88.809">  7  8 -1 -1</clus>
<clus scale="  150.824">  2  5  1 -1</clus>
<clus scale="   43.374">  2  5  1 -1</clus>
</clustering>
</event>
<event>
 9    2  0.1592151E-004  0.1052786E+03  0.7546771E-02  0.1275096E+00
          2   -1    0    0  502    0 -0.00000000000E+00  0.00000000000E+00  0.46570568497E+03  0.46570568497E+03  0.00000000000E+00 0. -1.
         21   -1    0    0  501  502  0.00000000000E+00 -0.00000000000E+00 -0.36198266570E+02  0.36198266570E+02  0.00000000000E+00 0.  1.
         24    2    1    2    0    0  0.16756292599E+01 -0.42098426666E+02  0.18436794711E+03  0.20354921359E+03  0.75270559781E+02 0.  0.
         23    2    1    2    0    0 -0.46131225230E+01  0.87551743762E+02  0.18408873166E+03  0.22218502146E+03  0.88266267053E+02 0.  0.
        -11    1    3    3    0    0 -0.32699497688E+02 -0.13086394829E+02  0.45260969713E+02  0.57350381499E+02  0.00000000000E+00 0.  1.
         12    1    3    3    0    0  0.34375126948E+02 -0.29012031837E+02  0.13910697740E+03  0.14619883209E+03  0.00000000000E+00 0. -1.
        -13    1    4    4    0    0  0.36560633183E+02  0.26355511771E+02  0.10378454241E+03  0.11314823968E+03  0.00000000000E+00 0. -1.
         13    1    4    4    0    0 -0.41173755706E+02  0.61196231991E+02  0.80304189256E+02  0.10903678178E+03  0.00000000000E+00 0.  1.
          1    1    1    2  501    0  0.29374932631E+01 -0.45453317096E+02  0.61050739628E+02  0.76169716494E+02  0.00000000000E+00 0. -1.
<scales pt_clust_5="13000.00000" pt_clust_6="13000.00000" pt_clust_7="13000.00000" pt_clust_8="13000.00000" pt_clust_9="45.54814"></scales>
<clustering>
<clus scale="   45.548">  2  9  1 -1</clus>
<clus scale="   75.271">  5  6 -1 -1</clus>
<clus scale="   88.266">  7  8 -1 -1</clus>
<clus scale="   94.648">  1  5  2 -1</clus>
<clus scale="   45.548">  2  5  1 -1</clus>
</clustering>
</event>
<event>
 9    2  0.1592151E-004  0.1351518E+03  0.7546771E-02  0.1221813E+00
         -3   -1    0    0    0  501 -0.00000000000E+00  0.00000000000E+00  0.14287875630E+03  0.14287875630E+03  0.00000000000E+00 0.  1.
         21   -1    0    0  501  502  0.00000000000E+00 -0.00000000000E+00 -0.24209653562E+03  0.24209653562E+03  0.00000000000E+00 0.  1.
         23    2    1    2    0    0  0.47529856351E+01  0.88132403073E+02 -0.63229124172E+02  0.13965020886E+03  0.87831357419E+02 0.  0.
         24    2    1    2    0    0 -0.15598813056E+02 -0.12127619940E+03 -0.96801281021E+02  0.17522288144E+03  0.79883231436E+02 0.  0.
        -11    1    4    4    0    0  0.31372119817E+02 -0.30275001755E+02 -0.31023236468E+02  0.53509128512E+02  0.00000000000E+00 0.  1.
         12    1    4    4    0    0 -0.46970932873E+02 -0.91001197640E+02 -0.65778044553E+02  0.12171375293E+03  0.00000000000E+00 0. -1.
        -11    1    3    3    0    0 -0.19869006182E+02  0.49781585881E+02 -0.75370536444E+02  0.92486223100E+02  0.00000000000E+00 0.  1.
         11    1    3    3    0    0  0.24621991817E+02  0.38350817193E+02  0.12141412272E+02  0.47163985756E+02  0.00000000000E+00 0. -1.
         -4    1    1    2    0  502  0.10845827421E+02  0.33143796322E+02  0.60812625868E+02  0.70102201621E+02  0.00000000000E+00 0.  1.
<scales pt_clust_5="13000.00000" pt_clust_6="13000.00000" pt_clust_7="13000.00000" pt_clust_8="13000.00000" pt_clust_9="34.87326"></scales>
<clustering>
<clus scale="   34.873">  2  9  1 -1</clus>
<clus scale="   79.883">  5  6 -1 -1</clus>
<clus scale="   87.831">  7  8 -1 -1</clus>
<clus scale="  130.127">  2  5  1 -1</clus>
<clus scale="   34.873">  2  5  1 -1</clus>
</clustering>
</event>
<event>
 9    2  0.1592151E-004  0.1609756E+03  0.7546771E-02  0.1208976E+00
         -1   -1    0    0    0  501 -0.00000000000E+00  0.00000000000E+00  0.13539979788E+03  0.13539979788E+03  0.00000000000E+00 0.  1.
         21   -1    0    0  501  502  0.00000000000E+00 -0.00000000000E+00 -0.59875356119E+03  0.59875356119E+03  0.00000000000E+00 0.  1.
         23    2    1    2    0    0 -0.38340839527E+02  0.26671505280E+02 -0.37553361261E+03  0.38889065602E+03  0.89605016449E+02 0.  0.
         24    2    1    2    0    0  0.16257468090E+03 -0.59266609272E+02 -0.11477547373E+01  0.19031563993E+03  0.79219111428E+02 0.  0.
        -13    1    4    4    0    0  0.13254215225E+03 -0.27716925542E+02  0.27509987051E+02  0.13817543006E+03  0.00000000000E+00 0.  1.
         14    1    4    4    0    0  0.30032528651E+02 -0.31549683731E+02 -0.28657741788E+02  0.52140209868E+02  0.00000000000E+00 0. -1.
        -13    1    3    3    0    0 -0.17949030052E+02  0.55967571239E+02 -0.16068324352E+03  0.17109541624E+03  0.00000000000E+00 0. -1.
         13    1    3    3    0    0 -0.20391809475E+02 -0.29296065959E+02 -0.21485036908E+03  0.21779523978E+03  0.00000000000E+00 0.  1.
         -2    1    1    2    0  502 -0.12423384138E+03  0.32595103993E+02 -0.86672395966E+02  0.15494706312E+03  0.00000000000E+00 0.  1.
<scales pt_clust_5="13000.00000" pt_clust_6="13000.00000" pt_clust_7="13000.00000" pt_clust_8="13000.00000" pt_clust_9="140.13378"></scales>
<clustering>
<clus scale="   79.219">  5  6 -1 -1</clus>
<clus scale="   89.605">  7  8 -1 -1</clus>
<clus scale="  101.047">  1  7  2 -1</clus>
<clus scale="  140.134">  2  9  1 -1</clus>
<clus scale="  140.134">  2  5  1 -1</clus>
</clustering>
</event>
<event>
 9    2  0.1592151E-004  0.3194890E+03  0.7546771E-02  0.1104230E+00
         21   -1    0    0  501  502  0.00000000000E+00  0.00000000000E+00  0.60993251323E+02  0.60993251323E+02  0.00000000000E+00 0. -1.
          2   -1    0    0  502    0 -0.00000000000E+00 -0.00000000000E+00 -0.25623349382E+04  0.25623349382E+04  0.00000000000E+00 0. -1.
         24    2    1    2    0    0  0.71663412811E+02  0.10663986859E+03 -0.44525624375E+03  0.47016776816E+03  0.79353017007E+02 0.  0.
         23    2    1    2    0    0 -0.21743122260E+03 -0.29892489058E+03 -0.10031753788E+04  0.10729560946E+04  0.90782781886E+02 0.  0.
        -13    1    3    3    0    0  0.26950081308E+02  0.23825742505E+02 -0.38600056578E+02  0.52763029256E+02  0.00000000000E+00 0.  1.
         14    1    3    3    0    0  0.44713331502E+02  0.82814126089E+02 -0.40665618717E+03  0.41740473890E+03  0.00000000000E+00 0. -1.
        -13    1    4    4    0    0 -0.14656238138E+03 -0.23227927494E+03 -0.83082425797E+03  0.87504465077E+03  0.00000000000E+00 0. -1.
         13    1    4    4    0    0 -0.70868841216E+02 -0.66645615632E+02 -0.17235112082E+03  0.19791144380E+03  0.00000000000E+00 0.  1.
          1    1    1    2  501    0  0.14576780979E+03  0.19228502198E+03 -0.10529100643E+04  0.10802043267E+04  0.00000000000E+00 0. -1.
<scales pt_clust_5="13000.00000" pt_clust_6="13000.00000" pt_clust_7="13000.00000" pt_clust_8="13000.00000" pt_clust_9="306.31972"></scales>
<clustering>
<clus scale="   79.353">  5  6 -1 -1</clus>
<clus scale="   90.783">  7  8 -1 -1</clus>
<clus scale="  151.012">  2  5  1 -1</clus>
<clus scale="  306.320">  1  9  2 -1</clus>
<clus scale="  306.320">  1  5  2 -1</clus>
</clustering>
</event>
<event>
 9    2  0.1592151E-004  0.1038279E+03  0.7546771E-02  0.1273055E+00
          2   -1    0    0  502    0 -0.00000000000E+00  0.00000000000E+00  0.10631366341E+04  0.10631366341E+04  0.00000000000E+00 0. -1.
         21   -1    0    0  501  502  0.00000000000E+00 -0.00000000000E+00 -0.32273846255E+02  0.32273846255E+02  0.00000000000E+00 0.  1.
         24    2    1    2    0    0  0.62003441829E+02 -0.12449756093E+02  0.87016112425E+03  0.87615848010E+03  0.80460405594E+02 0.  0.
         23    2    1    2    0    0 -0.84935224416E+02 -0.82525581941E+01  0.14051490710E+03  0.18234729043E+03  0.78892319962E+02 0.  0.
        -13    1    3    3    0    0  0.20338109734E+02  0.15150739137E+02  0.70251233290E+02  0.74688816985E+02  0.00000000000E+00 0.  1.
         14    1    3    3    0    0  0.41665332095E+02 -0.27600495230E+02  0.79990989096E+03  0.80146966311E+03  0.00000000000E+00 0. -1.
        -13    1    4    4    0    0 -0.28812324142E+02  0.18143799953E+02  0.64821765075E+01  0.34660728663E+02  0.00000000000E+00 0.  1.
         13    1    4    4    0    0 -0.56122900274E+02 -0.26396358147E+02  0.13403273059E+03  0.14768656177E+03  0.00000000000E+00 0. -1.
          1    1    1    2  501    0  0.22931782586E+02  0.20702314287E+02  0.20186756507E+02  0.36904709831E+02  0.00000000000E+00 0. -1.
<scales pt_clust_5="13000.00000" pt_clust_6="13000.00000" pt_clust_7="13000.00000" pt_clust_8="13000.00000" pt_clust_9="30.89421"></scales>
<clustering>
<clus scale="   30.894">  2  9  1 -1</clus>
<clus scale="   78.892">  7  8 -1 -1</clus>
<clus scale="   80.460">  5  6 -1 -1</clus>
<clus scale="  102.618">  2  7  1 -1</clus>
<clus scale="   30.894">  2  5  1 -1</clus>
</clustering>
</event>
<event>
 9    2  0.1592151E-004  0.1821873E+03  0.7546771E-02  0.1166220E+00
         21   -1    0    0  501  502  0.00000000000E+00  0.00000000000E+00  0.12207381634E+03  0.12207381634E+03  0.00000000000E+00 0.  1.
          2   -1    0    0  502    0 -0.00000000000E+00 -0.00000000000E+00 -0.39935234812E+03  0.39935234812E+03  0.00000000000E+00 0. -1.
         23    2    1    2    0    0 -0.44537483900E+02 -0.14493808407E+03 -0.12922623192E+03  0.21616811303E+03  0.83896355041E+02 0.  0.
         24    2    1    2    0    0 -0.41370898211E+01  0.18236827472E+03 -0.81996830828E+02  0.21507180920E+03  0.79101831263E+02 0.  0.
        -13    1    4    4    0    0  0.33308895130E+02  0.12856056216E+03 -0.47901292578E+02  0.14118014899E+03  0.00000000000E+00 0.  1.
         14    1    4    4    0    0 -0.37445984951E+02  0.53807712558E+02 -0.34095538250E+02  0.73891660207E+02  0.00000000000E+00 0. -1.
        -13    1    3    3    0    0 -0.16576417040E+00 -0.12154751850E+03 -0.77708921214E+02  0.14426539144E+03  0.00000000000E+00 0.  1.
         13    1    3    3    0    0 -0.44371719730E+02 -0.23390565566E+02 -0.51517310707E+02  0.71902721588E+02  0.00000000000E+00 0. -1.
          1    1    1    2  501    0  0.48674573721E+02 -0.37430190649E+02 -0.66055469034E+02  0.90186242234E+02  0.00000000000E+00 0. -1.
<scales pt_clust_5="13000.00000" pt_clust_6="13000.00000" pt_clust_7="13000.00000" pt_clust_8="13000.00000" pt_clust_9="61.40226"></scales>
<clustering>
<clus scale="   61.402">  1  9  2 -1</clus>
<clus scale="   79.102">  5  6 -1 -1</clus>
<clus scale="   83.896">  7  8 -1 -1</clus>
<clus scale="  180.030">  1  5  2 -1</clus>
<clus scale="   61.402">  1  5  2 -1</clus>
</clustering>
</event>
<event>
 9    2  0.1592151E-004  0.9174571E+02  0.7546771E-02  0.1300631E+00
          2   -1    0    0  502    0 -0.00000000000E+00  0.00000000000E+00  0.25525918998E+03  0.25525918998E+03  0.00000000000E+00 0. -1.
         21   -1    0    0  501  502  0.00000000000E+00 -0.00000000000E+00 -0.14437375764E+03  0.14437375764E+03  0.00000000000E+00 0. -1.
         23    2    1    2    0    0  0.12207540667E+02 -0.39287717634E+02  0.13917443119E+03  0.16833569047E+03  0.85292634981E+02 0.  0.
         24    2    1    2    0    0 -0.48252957525E+02 -0.41539669377E+02 -0.83091077053E+02  0.12720303856E+03  0.72267516162E+02 0.  0.
        -13    1    4    4    0    0 -0.46944600487E+02  0.26711655252E+01 -0.22343231977E+02  0.52059107323E+02  0.00000000000E+00 0.  1.
         14    1    4    4    0    0 -0.13083570383E+01 -0.44210834902E+02 -0.60747845076E+02  0.75143931241E+02  0.00000000000E+00 0. -1.
        -11    1    3    3    0    0  0.22064423764E+02  0.17962354339E+02  0.17232502001E+02  0.33263254420E+02  0.00000000000E+00 0.  1.
         11    1    3    3    0    0 -0.98568830963E+01 -0.57250071973E+02  0.12194192919E+03  0.13507243605E+03  0.00000000000E+00 0. -1.
          1    1    1    2  501    0  0.36045416858E+02  0.80827387011E+02  0.54802078206E+02  0.10409421859E+03  0.00000000000E+00 0. -1.
<scales pt_clust_5="13000.00000" pt_clust_6="13000.00000" pt_clust_7="13000.00000" pt_clust_8="13000.00000" pt_clust_9="88.50054"></scales>
<clustering>
<clus scale="   72.268">  5  6 -1 -1</clus>
<clus scale="   85.293">  7  8 -1 -1</clus>
<clus scale="   88.501">  2  9  1 -1</clus>
<clus scale="   88.501">  2  5  1 -1</clus>
<clus scale="   88.501">  2  5  1 -1</clus>
</clustering>
</event>
<event>
 9    2  0.1592151E-004  0.1817829E+03  0.7546771E-02  0.1182025E+00
         21   -1    0    0  501  502  0.00000000000E+00  0.00000000000E+00  0.17017368169E+03  0.17017368169E+03  0.00000000000E+00 0.  1.
         -3   -1    0    0    0  501 -0.00000000000E+00 -0.00000000000E+00 -0.55016466451E+03  0.55016466451E+03  0.00000000000E+00 0.  1.
         23    2    1    2    0    0 -0.57030996920E+02 -0.68954703070E+02 -0.23781987884E+03  0.26940637561E+03  0.89522146773E+02 0.  0.
         24    2    1    2    0    0  0.12294610117E+03 -0.10472171087E+03  0.46473499405E+02  0.18617720839E+03  0.80123568669E+02 0.  0.
        -11    1    4    4    0    0  0.97437772793E+02 -0.57656221744E+02  0.63740736824E+02  0.12992782998E+03  0.00000000000E+00 0.  1.
         12    1    4    4    0    0  0.25508328376E+02 -0.47065489124E+02 -0.17267237419E+02  0.56249378406E+02  0.00000000000E+00 0. -1.
        -11    1    3    3    0    0 -0.32945720524E+02 -0.88707760842E+02 -0.16509802432E+03  0.19029410125E+03  0.00000000000E+00 0.  1.
         11    1    3    3    0    0 -0.24085276396E+02  0.19753057772E+02 -0.72721854519E+02  0.79112274364E+02  0.00000000000E+00 0. -1.
         -4    1    1    2    0  502 -0.65915104249E+02  0.17367641394E+03 -0.18864460338E+03  0.26475476221E+03  0.00000000000E+00 0.  1.
<scales pt_clust_5="13000.00000" pt_clust_6="13000.00000" pt_clust_7="13000.00000" pt_clust_8="13000.00000" pt_clust_9="163.17254"></scales>
<clustering>
<clus scale="   80.124">  5  6 -1 -1</clus>
<clus scale="   89.522">  7  8 -1 -1</clus>
<clus scale="  126.576">  2  7  1 -1</clus>
<clus scale="  163.173">  1  9  2 -1</clus>
<clus scale="  163.173">  1  5  2 -1</clus>
</clustering>
</event>
<event>
 9    2  0.1592151E-004  0.3246449E+03  0.7546771E-02  0.1121178E+00
          2   -1    0    0  502    0 -0.00000000000E+00  0.00000000000E+00  0.62348615027E+03  0.62348615027E+03  0.00000000000E+00 0. -1.
         21   -1    0    0  501  502  0.00000000000E+00 -0.00000000000E+00 -0.29697267210E+03  0.29697267210E+03  0.00000000000E+00 0. -1.
         24    2    1    2    0    0  0.31285634996E+01 -0.48997932823E+02  0.12674953212E+03  0.15760419777E+03  0.79768752840E+02 0.  0.
         23    2    1    2    0    0 -0.28935199078E+03 -0.10505631912E+03 -0.83509129625E+02  0.33169317194E+03  0.91022968675E+02 0.  0.
        -11    1    3    3    0    0  0.80524055451E+01 -0.47319418641E+02  0.22130178476E+02  0.52855590195E+02  0.00000000000E+00 0.  1.
         12    1    3    3    0    0 -0.49238420455E+01 -0.16785141822E+01  0.10461935365E+03  0.10474860757E+03  0.00000000000E+00 0. -1.
        -11    1    4    4    0    0 -0.53888290613E+02  0.11492115307E+02 -0.32772607219E+02  0.64109752482E+02  0.00000000000E+00 0.  1.
         11    1    4    4    0    0 -0.23546370017E+03 -0.11654843442E+03 -0.50736522406E+02  0.26758341946E+03  0.00000000000E+00 0. -1.
          1    1    1    2  501    0  0.28622342728E+03  0.15405425194E+03  0.28327307567E+03  0.43116145266E+03  0.00000000000E+00 0. -1.
<scales pt_clust_5="13000.00000" pt_clust_6="13000.00000" pt_clust_7="13000.00000" pt_clust_8="13000.00000" pt_clust_9="311.62356"></scales>
<clustering>
<clus scale="   79.769">  5  6 -1 -1</clus>
<clus scale="   91.023">  7  8 -1 -1</clus>
<clus scale="   93.668">  1  5  2 -1</clus>
<clus scale="  311.624">  2  9  1 -1</clus>
<clus scale="  311.624">  2  5  1 -1</clus>
</clustering>
</event>
<event>
 9    2  0.1592151E-004  0.1719520E+03  0.7546771E-02  0.1207659E+00
          2   -1    0    0  502    0 -0.00000000000E+00  0.00000000000E+00  0.15789878306E+04  0.15789878306E+04  0.00000000000E+00 0. -1.
         21   -1    0    0  501  502  0.00000000000E+00 -0.00000000000E+00 -0.66846635807E+02  0.66846635807E+02  0.00000000000E+00 0. -1.
         24    2    1    2    0    0 -0.14174924833E+02 -0.20572770280E+02  0.53734909660E+03  0.54407347859E+03  0.81533619574E+02 0.  0.
         23    2    1    2    0    0  0.15096488153E+03  0.64909644192E+02  0.93335889475E+03  0.95211486860E+03  0.91434343848E+02 0.  0.
        -11    1    3    3    0    0 -0.35229153217E+02 -0.17696584709E+02  0.12265311982E+03  0.12883342016E+03  0.00000000000E+00 0.  1.
         12    1    3    3    0    0  0.21054228384E+02 -0.28761855712E+01  0.41469597677E+03  0.41524005843E+03  0.00000000000E+00 0. -1.
        -13    1    4    4    0    0  0.14883631969E+03  0.32198196523E+02  0.82383265518E+03  0.83778828928E+03  0.00000000000E+00 0. -1.
         13    1    4    4    0    0  0.21285618442E+01  0.32711447669E+02  0.10952623957E+03  0.11432657931E+03  0.00000000000E+00 0.  1.
          1    1    1    2  501    0 -0.13678995670E+03 -0.44336873912E+02  0.41433203415E+02  0.14964611919E+03  0.00000000000E+00 0. -1.
<scales pt_clust_5="13000.00000" pt_clust_6="13000.00000" pt_clust_7="13000.00000" pt_clust_8="13000.00000" pt_clust_9="145.62706"></scales>
<clustering>
<clus scale="   81.534">  5  6 -1 -1</clus>
<clus scale="   85.275">  1  5  2 -1</clus>
<clus scale="   91.434">  7  8 -1 -1</clus>
<clus scale="  145.627">  2  9  1 -1</clus>
<clus scale="  145.627">  2  5  1 -1</clus>
</clustering>
</event>
<event>
 9    2  0.1592151E-004  0.1316699E+03  0.7546771E-02  0.1225298E+00
          2   -1    0    0  502    0 -0.00000000000E+00  0.00000000000E+00  0.44511375727E+03  0.44511375727E+03  0.00000000000E+00 0. -1.
         21   -1    0    0  501  502  0.00000000000E+00 -0.00000000000E+00 -0.10381629392E+03  0.10381629392E+03  0.00000000000E+00 0. -1.
         23    2    1    2    0    0  0.79968111693E+02 -0.61991153914E+02  0.24050552716E+03  0.27626406620E+03  0.90780634666E+02 0.  0.
         24    2    1    2    0    0 -0.49361537712E+02  0.73112661752E+02  0.16033189909E+03  0.20480246395E+03  0.91954927333E+02 0.  0.
        -11    1    4    4    0    0 -0.19569040292E+02  0.14980520475E+02 -0.66268090649E+01  0.25520147532E+02  0.00000000000E+00 0.  1.
         12    1    4    4    0    0 -0.29792497419E+02  0.58132141276E+02  0.16695870815E+03  0.17928231641E+03  0.00000000000E+00 0. -1.
        -13    1    3    3    0    0  0.36846110376E+02  0.98030509490E+01  0.14170073076E+03  0.14674069904E+03  0.00000000000E+00 0.  1.
         13    1    3    3    0    0  0.43122001317E+02 -0.71794204862E+02  0.98804796401E+02  0.12952336716E+03  0.00000000000E+00 0. -1.
          1    1    1    2  501    0 -0.30606573981E+02 -0.11121507838E+02 -0.59539962885E+02  0.67863521039E+02  0.00000000000E+00 0. -1.
<scales pt_clust_5="13000.00000" pt_clust_6="13000.00000" pt_clust_7="13000.00000" pt_clust_8="13000.00000" pt_clust_9="32.56456"></scales>
<clustering>
<clus scale="   32.565">  2  9  1 -1</clus>
<clus scale="   90.781">  7  8 -1 -1</clus>
<clus scale="   91.955">  5  6 -1 -1</clus>
<clus scale="  130.853">  1  7  2 -1</clus>
<clus scale="   32.565">  2  5  1 -1</clus>
</clustering>
</event>
<event>
 9    2  0.1592151E-004  0.1405368E+03  0.7546771E-02  0.1214906E+00
         21   -1    0    0  501  502  0.00000000000E+00  0.00000000000E+00  0.48117530600E+02  0.48117530600E+02  0.00000000000E+00 0. -1.
          2   -1    0    0  502    0 -0.00000000000E+00 -0.00000000000E+00 -0.90538360619E+03  0.90538360619E+03  0.00000000000E+00 0. -1.
         24    2    1    2    0    0 -0.11843287150E+02 -0.11716818171E+03 -0.63625465625E+03  0.65214015907E+03  0.81229017058E+02 0.  0.
         23    2    1    2    0    0  0.47880299021E+02  0.54767834272E+02 -0.76613006227E+02  0.13998139012E+03  0.91832446078E+02 0.  0.
        -11    1    3    3    0    0  0.12854902781E+02 -0.87603863574E+02 -0.27654620828E+03  0.29037474193E+03  0.00000000000E+00 0.  1.
         12    1    3    3    0    0 -0.24698189932E+02 -0.29564318132E+02 -0.35970844798E+03  0.36176541714E+03  0.00000000000E+00 0. -1.
        -11    1    4    4    0    0  0.18273438153E+02  0.63157585129E+02 -0.85588270841E+02  0.10792660102E+03  0.00000000000E+00 0.  1.
         11    1    4    4    0    0  0.29606860869E+02 -0.83897508566E+01  0.89752646137E+01  0.32054789109E+02  0.00000000000E+00 0. -1.
          1    1    1    2  501    0 -0.36037011871E+02  0.62400347434E+02 -0.14439841311E+03  0.16137958760E+03  0.00000000000E+00 0. -1.
<scales pt_clust_5="13000.00000" pt_clust_6="13000.00000" pt_clust_7="13000.00000" pt_clust_8="13000.00000" pt_clust_9="72.05879"></scales>
<clustering>
<clus scale="   72.059">  1  9  2 -1</clus>
<clus scale="   81.229">  5  6 -1 -1</clus>
<clus scale="   91.832">  7  8 -1 -1</clus>
<clus scale="  133.849">  2  5  1 -1</clus>
<clus scale="   72.059">  1  5  2 -1</clus>
</clustering>
</event>
<event>
 9    2  0.1592151E-004  0.9676579E+02  0.7546771E-02  0.1297030E+00
         21   -1    0    0  501  502  0.00000000000E+00  0.00000000000E+00  0.69687926869E+02  0.69687926869E+02  0.00000000000E+00 0.  1.
         -3   -1    0    0    0  501 -0.00000000000E+00 -0.00000000000E+00 -0.18714977181E+03  0.18714977181E+03  0.00000000000E+00 0.  1.
         24    2    1    2    0    0 -0.37045436947E+02  0.40061622453E+01 -0.34039021050E+02  0.88618971940E+02  0.72844035439E+02 0.  0.
         23    2    1    2    0    0  0.26826414504E+02  0.31505078639E+02 -0.31104533627E+02  0.10416655937E+03  0.90393327094E+02 0.  0.
        -13    1    3    3    0    0 -0.14899726241E+02 -0.33253007440E+02 -0.58244076442E+01  0.36901057848E+02  0.00000000000E+00 0.  1.
         14    1    3    3    0    0 -0.22145710707E+02  0.37259169686E+02 -0.28214613406E+02  0.51717914092E+02  0.00000000000E+00 0. -1.
        -11    1    4    4    0    0 -0.26107052843E+02  0.37390661098E+02 -0.88991705153E+01  0.46463264859E+02  0.00000000000E+00 0.  1.
         11    1    4    4    0    0  0.52933467346E+02 -0.58855824590E+01 -0.22205363112E+02  0.57703294508E+02  0.00000000000E+00 0. -1.
         -4    1    1    2    0  502  0.10219022444E+02 -0.35511240885E+02 -0.52318290261E+02  0.64052167369E+02  0.00000000000E+00 0.  1.
<scales pt_clust_5="13000.00000" pt_clust_6="13000.00000" pt_clust_7="13000.00000" pt_clust_8="13000.00000" pt_clust_9="36.95237"></scales>
<clustering>
<clus scale="   36.952">  1  9  2 -1</clus>
<clus scale="   72.844">  5  6 -1 -1</clus>
<clus scale="   80.616">  2  5  1 -1</clus>
<clus scale="   90.393">  7  8 -1 -1</clus>
<clus scale="   36.952">  1  5  2 -1</clus>
</clustering>
</event>
<event>
 9    2  0.1592151E-004  0.1350134E+03  0.7546771E-02  0.1222557E+00
         21   -1    0    0  501  502  0.00000000000E+00  0.00000000000E+00  0.10995740050E+03  0.10995740050E+03  0.00000000000E+00 0. -1.
          2   -1    0    0  502    0 -0.00000000000E+00 -0.00000000000E+00 -0.19935434143E+03  0.19935434143E+03  0.00000000000E+00 0. -1.
         24    2    1    2    0    0  0.78121698938E+02  0.65645554984E+02 -0.66346284917E+02  0.14547425631E+03  0.79678045861E+02 0.  0.
         23    2    1    2    0    0 -0.89403107948E+02 -0.45777801156E+02 -0.51653992354E+01  0.13482231301E+03  0.89787816255E+02 0.  0.
        -11    1    3    3    0    0 -0.97209064150E+01  0.21136364049E+02 -0.35195051293E+02  0.42189258612E+02  0.00000000000E+00 0.  1.
         12    1    3    3    0    0  0.87842605353E+02  0.44509190935E+02 -0.31151233625E+02  0.10328499770E+03  0.00000000000E+00 0. -1.
        -11    1    4    4    0    0 -0.47511321148E+02 -0.26370909891E+02  0.42107584266E+02  0.68744448346E+02  0.00000000000E+00 0. -1.
         11    1    4    4    0    0 -0.41891786800E+02 -0.19406891264E+02 -0.47272983502E+02  0.66077864668E+02  0.00000000000E+00 0.  1.
          1    1    1    2  501    0  0.11281409010E+02 -0.19867753828E+02 -0.17885256781E+02  0.29015172609E+02  0.00000000000E+00 0. -1.
<scales pt_clust_5="13000.00000" pt_clust_6="13000.00000" pt_clust_7="13000.00000" pt_clust_8="13000.00000" pt_clust_9="22.84728"></scales>
<clustering>
<clus scale="   22.847">  1  9  2 -1</clus>
<clus scale="   79.678">  5  6 -1 -1</clus>
<clus scale="   89.788">  7  8 -1 -1</clus>
<clus scale="  128.512">  2  5  1 -1</clus>
<clus scale="   22.847">  1  5  2 -1</clus>
</clustering>
</event>
<event>
 9    2  0.1592151E-004  0.1413424E+03  0.7546771E-02  0.1211823E+00
          2   -1    0    0  502    0 -0.00000000000E+00  0.00000000000E+00  0.15759126486E+03  0.15759126486E+03  0.00000000000E+00 0. -1.
         21   -1    0    0  501  502  0.00000000000E+00 -0.00000000000E+00 -0.26693059559E+03  0.26693059559E+03  0.00000000000E+00 0. -1.
         24    2    1    2    0    0  0.56370996199E+02  0.39501855669E+02 -0.27853364677E+02  0.11839479633E+03  0.92214055651E+02 0.  0.
         23    2    1    2    0    0 -0.11132481794E+03 -0.12453563567E+03 -0.29905831756E+02  0.19249970598E+03  0.90881452400E+02 0.  0.
        -13    1    3    3    0    0  0.48650872582E+02 -0.21167658295E+02 -0.20145557033E+02  0.56752274217E+02  0.00000000000E+00 0.  1.
         14    1    3    3    0    0  0.77201236168E+01  0.60669513964E+02 -0.77078076441E+01  0.61642522109E+02  0.00000000000E+00 0. -1.
        -13    1    4    4    0    0 -0.87442484985E+02 -0.13745150551E+03 -0.23403223503E+02  0.16458072614E+03  0.00000000000E+00 0. -1.
         13    1    4    4    0    0 -0.23882332953E+02  0.12915869845E+02 -0.65026082529E+01  0.27918979838E+02  0.00000000000E+00 0.  1.
          1    1    1    2  501    0  0.54953821739E+02  0.85033779999E+02 -0.51580134294E+02  0.11362735814E+03  0.00000000000E+00 0. -1.
<scales pt_clust_5="13000.00000" pt_clust_6="13000.00000" pt_clust_7="13000.00000" pt_clust_8="13000.00000" pt_clust_9="101.24557"></scales>
<clustering>
<clus scale="   90.881">  7  8 -1 -1</clus>
<clus scale="   92.214">  5  6 -1 -1</clus>
<clus scale="  101.246">  2  9  1 -1</clus>
<clus scale="  140.477">  2  7  1 -1</clus>
<clus scale="  101.246">  2  5  1 -1</clus>
</clustering>
</event>
<event>
 9    2  0.1592151E-004  0.1258563E+03  0.7546771E-02  0.1236064E+00
         21   -1    0    0  501  502  0.00000000000E+00  0.00000000000E+00  0.36723214210E+02  0.36723214210E+02  0.00000000000E+00 0. -1.
          2   -1    0    0  502    0 -0.00000000000E+00 -0.00000000000E+00 -0.60245256401E+03  0.60245256401E+03  0.00000000000E+00 0. -1.
         23    2    1    2    0    0 -0.65189096391E+01  0.73078746481E+02 -0.21036713339E+03  0.24053615230E+03  0.90665927350E+02 0.  0.
         24    2    1    2    0    0  0.47040288735E+02 -0.94899153793E+02 -0.25177285034E+03  0.28528677372E+03  0.82342801362E+02 0.  0.
        -13    1    4    4    0    0  0.35747204992E+02 -0.32476026886E+01 -0.11327426564E+03  0.11882537121E+03  0.00000000000E+00 0.  1.
         14    1    4    4    0    0  0.11293083743E+02 -0.91651551104E+02 -0.13849858470E+03  0.16646140251E+03  0.00000000000E+00 0. -1.
        -13    1    3    3    0    0 -0.40653250542E+02  0.51777278331E+02 -0.77369337854E+02  0.10158537184E+03  0.00000000000E+00 0.  1.
         13    1    3    3    0    0  0.34134340903E+02  0.21301468150E+02 -0.13299779553E+03  0.13895078046E+03  0.00000000000E+00 0. -1.
          1    1    1    2  501    0 -0.40521379096E+02  0.21820407312E+02 -0.10358936608E+03  0.11335285221E+03  0.00000000000E+00 0. -1.
<scales pt_clust_5="13000.00000" pt_clust_6="13000.00000" pt_clust_7="13000.00000" pt_clust_8="13000.00000" pt_clust_9="46.02298"></scales>
<clustering>
<clus scale="   46.023">  1  9  2 -1</clus>
<clus scale="   82.343">  5  6 -1 -1</clus>
<clus scale="   90.666">  7  8 -1 -1</clus>
<clus scale="  119.999">  1  5  2 -1</clus>
<clus scale="   46.023">  1  5  2 -1</clus>
</clustering>
</event>
<event>
 9    2  0.1592151E-004  0.1246497E+03  0.7546771E-02  0.1238667E+00
         21   -1    0    0  501  502  0.00000000000E+00  0.00000000000E+00  0.90819314310E+03  0.90819314310E+03  0.00000000000E+00 0.  1.
         -1   -1    0    0    0  501 -0.00000000000E+00 -0.00000000000E+00 -0.51028168494E+02  0.51028168494E+02  0.00000000000E+00 0.  1.
         23    2    1    2    0    0  0.99622101176E+02  0.30520514040E+02  0.36933774922E+03  0.39407816321E+03  0.89616744530E+02 0.  0.
         24    2    1    2    0    0 -0.63826436616E+02 -0.54899335988E+01  0.50726475861E+03  0.51733439128E+03  0.78825019481E+02 0.  0.
        -13    1    4    4    0    0 -0.72997306794E+02 -0.17012109905E+02  0.28860340862E+03  0.29817770901E+03  0.00000000000E+00 0.  1.
         14    1    4    4    0    0  0.91708701789E+01  0.11522176307E+02  0.21866134999E+03  0.21915668227E+03  0.00000000000E+00 0. -1.
        -13    1    3    3    0    0  0.58115854478E+01  0.26224076857E+02  0.23409429480E+02  0.35629736471E+02  0.00000000000E+00 0. -1.
         13    1    3    3    0    0  0.93810515728E+02  0.42964371833E+01  0.34592831974E+03  0.35844842674E+03  0.00000000000E+00 0.  1.
         -2    1    1    2    0  502 -0.35795664561E+02 -0.25030580441E+02 -0.19437533217E+02  0.47808757107E+02  0.00000000000E+00 0.  1.
<scales pt_clust_5="13000.00000" pt_clust_6="13000.00000" pt_clust_7="13000.00000" pt_clust_8="13000.00000" pt_clust_9="43.67907"></scales>
<clustering>
<clus scale="   43.679">  1  9  2 -1</clus>
<clus scale="   78.825">  5  6 -1 -1</clus>
<clus scale="   89.617">  7  8 -1 -1</clus>
<clus scale="  117.131">  1  5  2 -1</clus>
<clus scale="   43.679">  1  5  2 -1</clus>
</clustering>
</event>
<event>
 9    2  0.1592151E-004  0.1444384E+03  0.7546771E-02  0.1209566E+00
         21   -1    0    0  501  502  0.00000000000E+00  0.00000000000E+00  0.26677066071E+03  0.26677066071E+03  0.00000000000E+00 0. -1.
          2   -1    0    0  502    0 -0.00000000000E+00 -0.00000000000E+00 -0.26481216534E+03  0.26481216534E+03  0.00000000000E+00 0. -1.
         24    2    1    2    0    0  0.20388019815E+02 -0.11520525375E+03 -0.18589919563E+02  0.14269894771E+03  0.79558046269E+02 0.  0.
         23    2    1    2    0    0 -0.42751541911E+02  0.92820206532E+02  0.18033045334E+03  0.22599889665E+03  0.90072991547E+02 0.  0.
        -11    1    3    3    0    0  0.26973194320E+02 -0.18939389241E+02 -0.31204610914E+02  0.45387018177E+02  0.00000000000E+00 0.  1.
         12    1    3    3    0    0 -0.65851745044E+01 -0.96265864504E+02  0.12614691352E+02  0.97311929535E+02  0.00000000000E+00 0. -1.
        -11    1    4    4    0    0 -0.17234404380E+02  0.97069963980E+02  0.17298682939E+03  0.19910812576E+03  0.00000000000E+00 0. -1.
         11    1    4    4    0    0 -0.25517137531E+02 -0.42497574486E+01  0.73436239555E+01  0.26890770888E+02  0.00000000000E+00 0.  1.
          1    1    1    2  501    0  0.22363522096E+02  0.22385047214E+02 -0.15978203841E+03  0.16288498168E+03  0.00000000000E+00 0. -1.
<scales pt_clust_5="13000.00000" pt_clust_6="13000.00000" pt_clust_7="13000.00000" pt_clust_8="13000.00000" pt_clust_9="31.64204"></scales>
<clustering>
<clus scale="   31.642">  1  9  2 -1</clus>
<clus scale="   79.558">  5  6 -1 -1</clus>
<clus scale="   90.073">  7  8 -1 -1</clus>
<clus scale="  138.126">  2  5  1 -1</clus>
<clus scale="   31.642">  1  5  2 -1</clus>
</clustering>
</event>
<event>
 9    2  0.1592151E-004  0.1089841E+03  0.7546771E-02  0.1269383E+00
          2   -1    0    0  502    0 -0.00000000000E+00  0.00000000000E+00  0.89740468243E+03  0.89740468243E+03  0.00000000000E+00 0. -1.
         21   -1    0    0  501  502  0.00000000000E+00 -0.00000000000E+00 -0.24332205602E+02  0.24332205602E+02  0.00000000000E+00 0.  1.
         24    2    1    2    0    0 -0.39546602177E+02  0.18354000020E+01  0.27711936620E+03  0.29057021043E+03  0.77901229961E+02 0.  0.
         23    2    1    2    0    0  0.83509446511E+02  0.41902527333E+02  0.28884592760E+03  0.31786082092E+03  0.94201285160E+02 0.  0.
        -13    1    3    3    0    0  0.15992663264E+02 -0.21584677561E+02  0.95766143451E+02  0.99462645325E+02  0.00000000000E+00 0.  1.
         14    1    3    3    0    0 -0.55539265441E+02  0.23420077563E+02  0.18135322275E+03  0.19110756510E+03  0.00000000000E+00 0. -1.
        -11    1    4    4    0    0  0.67797247486E+01 -0.27933288945E+02  0.56024032920E+02  0.62967654899E+02  0.00000000000E+00 0. -1.
         11    1    4    4    0    0  0.76729721763E+02  0.69835816278E+02  0.23282189469E+03  0.25489316602E+03  0.00000000000E+00 0.  1.
          1    1    1    2  501    0 -0.43962844334E+02 -0.43737927335E+02  0.30710718302E+03  0.31330585669E+03  0.00000000000E+00 0. -1.
<scales pt_clust_5="13000.00000" pt_clust_6="13000.00000" pt_clust_7="13000.00000" pt_clust_8="13000.00000" pt_clust_9="62.01405"></scales>
<clustering>
<clus scale="   62.014">  2  9  1 -1</clus>
<clus scale="   77.901">  5  6 -1 -1</clus>
<clus scale="   94.201">  7  8 -1 -1</clus>
<clus scale="   95.248">  1  5  2 -1</clus>
<clus scale="   62.014">  2  5  1 -1</clus>
</clustering>
</event>
<event>
 9    2  0.1592151E-004  0.1620802E+03  0.7546771E-02  0.1188522E+00
         21   -1    0    0  501  502  0.00000000000E+00  0.00000000000E+00  0.13341031816E+03  0.13341031816E+03  0.00000000000E+00 0. -1.
          2   -1    0    0  502    0 -0.00000000000E+00 -0.00000000000E+00 -0.62636387171E+03  0.62636387171E+03  0.00000000000E+00 0. -1.
         23    2    1    2    0    0  0.56082483280E+02 -0.12156503162E+03 -0.35967414735E+03  0.39486459392E+03  0.92893774934E+02 0.  0.
         24    2    1    2    0    0 -0.42791250444E+02  0.10104157725E+03 -0.22417909572E+03  0.27077871575E+03  0.10499692613E+03 0.  0.
        -13    1    4    4    0    0  0.15346327132E+02  0.74543829000E+02 -0.68092610440E+02  0.10212196529E+03  0.00000000000E+00 0.  1.
         14    1    4    4    0    0 -0.58137577576E+02  0.26497748255E+02 -0.15608648528E+03  0.16865675046E+03  0.00000000000E+00 0. -1.
        -13    1    3    3    0    0 -0.49753054625E+01 -0.92204458297E+02 -0.17008673764E+03  0.19353530457E+03  0.00000000000E+00 0.  1.
         13    1    3    3    0    0  0.61057788742E+02 -0.29360573321E+02 -0.18958740971E+03  0.20132928936E+03  0.00000000000E+00 0. -1.
          1    1    1    2  501    0 -0.13291232836E+02  0.20523454362E+02  0.90899689519E+02  0.94130880183E+02  0.00000000000E+00 0. -1.
<scales pt_clust_5="13000.00000" pt_clust_6="13000.00000" pt_clust_7="13000.00000" pt_clust_8="13000.00000" pt_clust_9="24.45136"></scales>
<clustering>
<clus scale="   24.451">  1  9  2 -1</clus>
<clus scale="   92.894">  7  8 -1 -1</clus>
<clus scale="  104.997">  5  6 -1 -1</clus>
<clus scale="  154.515">  2  7  1 -1</clus>
<clus scale="   24.451">  1  5  2 -1</clus>
</clustering>
</event>
<event>
 9    2  0.1592151E-004  0.8662781E+02  0.7546771E-02  0.1316405E+00
         21   -1    0    0  501  502  0.00000000000E+00  0.00000000000E+00  0.78805919789E+02  0.78805919789E+02  0.00000000000E+00 0.  1.
          2   -1    0    0  502    0 -0.00000000000E+00 -0.00000000000E+00 -0.28759494847E+03  0.28759494847E+03  0.00000000000E+00 0. -1.
         23    2    1    2    0    0  0.10752143132E+02  0.18698424260E+02 -0.13409047190E+03  0.16101940962E+03  0.86497144276E+02 0.  0.
         24    2    1    2    0    0  0.35140340044E+02  0.45489628872E+02 -0.61724818140E+00  0.97148993728E+02  0.78316001901E+02 0.  0.
        -13    1    4    4    0    0  0.19860245480E+02  0.58450321208E+02  0.23268800223E+02  0.65972012731E+02  0.00000000000E+00 0.  1.
         14    1    4    4    0    0  0.15280094563E+02 -0.12960692337E+02 -0.23886048405E+02  0.31176980997E+02  0.00000000000E+00 0. -1.
        -13    1    3    3    0    0 -0.35988972899E+02  0.20100227497E+02 -0.50000244748E+02  0.64801618734E+02  0.00000000000E+00 0.  1.
         13    1    3    3    0    0  0.46741116032E+02 -0.14018032369E+01 -0.84090227155E+02  0.96217790887E+02  0.00000000000E+00 0. -1.
          1    1    1    2  501    0 -0.45892483176E+02 -0.64188053132E+02 -0.74081308596E+02  0.10823246491E+03  0.00000000000E+00 0. -1.
<scales pt_clust_5="13000.00000" pt_clust_6="13000.00000" pt_clust_7="13000.00000" pt_clust_8="13000.00000" pt_clust_9="78.90648"></scales>
<clustering>
<clus scale="   78.316">  5  6 -1 -1</clus>
<clus scale="   78.906">  1  9  2 -1</clus>
<clus scale="   78.906">  1  5  2 -1</clus>
<clus scale="   86.497">  7  8 -1 -1</clus>
<clus scale="   78.906">  1  5  2 -1</clus>
</clustering>
</event>
<event>
 9    2  0.1592151E-004  0.1357865E+03  0.7546771E-02  0.1221578E+00
          2   -1    0    0  502    0 -0.00000000000E+00  0.00000000000E+00  0.12288764370E+04  0.12288764370E+04  0.00000000000E+00 0. -1.
         21   -1    0    0  501  502  0.00000000000E+00 -0.00000000000E+00 -0.43105478764E+02  0.43105478764E+02  0.00000000000E+00 0.  1.
         24    2    1    2    0    0  0.62982837673E+02  0.86113651306E+02  0.10686451430E+04  0.10768966785E+04  0.79508588349E+02 0.  0.
         23    2    1    2    0    0 -0.51730665371E+02 -0.46029081098E+02  0.93547172304E+02  0.14723822532E+03  0.90184718792E+02 0.  0.
        -13    1    3    3    0    0  0.12628243287E+02  0.18430176827E+02  0.50001483282E+02  0.54765794770E+02  0.00000000000E+00 0.  1.
         14    1    3    3    0    0  0.50354594386E+02  0.67683474479E+02  0.10186436597E+04  0.10221308837E+04  0.00000000000E+00 0. -1.
        -11    1    4    4    0    0 -0.11636245281E+01 -0.50961266414E+02  0.14020698098E+02  0.52867614583E+02  0.00000000000E+00 0.  1.
         11    1    4    4    0    0 -0.50567040843E+02  0.49321853160E+01  0.79526474206E+02  0.94370610739E+02  0.00000000000E+00 0. -1.
          1    1    1    2  501    0 -0.11252172302E+02 -0.40084570208E+02  0.23578642857E+02  0.47847011916E+02  0.00000000000E+00 0. -1.
<scales pt_clust_5="13000.00000" pt_clust_6="13000.00000" pt_clust_7="13000.00000" pt_clust_8="13000.00000" pt_clust_9="41.63393"></scales>
<clustering>
<clus scale="   41.634">  2  9  1 -1</clus>
<clus scale="   79.509">  5  6 -1 -1</clus>
<clus scale="   90.185">  7  8 -1 -1</clus>
<clus scale="  128.943">  1  5  2 -1</clus>
<clus scale="   41.634">  2  5  1 -1</clus>
</clustering>
</event>
<event>
 9    2  0.1592151E-004  0.9629914E+02  0.7546771E-02  0.1291158E+00
          2   -1    0    0  502    0 -0.00000000000E+00  0.00000000000E+00  0.26551950048E+03  0.26551950048E+03  0.00000000000E+00 0. -1.
         21   -1    0    0  501  502  0.00000000000E+00 -0.00000000000E+00 -0.16164035082E+03  0.16164035082E+03  0.00000000000E+00 0.  1.
         24    2    1    2    0    0  0.19860260757E+02 -0.33960464155E+02  0.21466362562E+03  0.23324131043E+03  0.82300022135E+02 0.  0.
         23    2    1    2    0    0 -0.49242184151E+02  0.15008815918E+02 -0.30443426620E+02  0.10629921308E+03  0.87878684680E+02 0.  0.
        -11    1    3    3    0    0  0.37270475273E+02  0.14228835363E+02  0.88927604784E+02  0.97466235054E+02  0.00000000000E+00 0.  1.
         12    1    3    3    0    0 -0.17410214516E+02 -0.48189299518E+02  0.12573602084E+03  0.13577507538E+03  0.00000000000E+00 0. -1.
        -11    1    4    4    0    0 -0.27607864456E+01  0.45687972780E+02 -0.91668839971E+01  0.46680237368E+02  0.00000000000E+00 0.  1.
         11    1    4    4    0    0 -0.46481397706E+02 -0.30679156862E+02 -0.21276542623E+02  0.59618975708E+02  0.00000000000E+00 0. -1.
          1    1    1    2  501    0  0.29381923394E+02  0.18951648237E+02 -0.80341049347E+02  0.87619327796E+02  0.00000000000E+00 0. -1.
<scales pt_clust_5="13000.00000" pt_clust_6="13000.00000" pt_clust_7="13000.00000" pt_clust_8="13000.00000" pt_clust_9="34.96373"></scales>
<clustering>
<clus scale="   34.964">  2  9  1 -1</clus>
<clus scale="   82.300">  5  6 -1 -1</clus>
<clus scale="   87.879">  7  8 -1 -1</clus>
<clus scale="   91.237">  1  5  2 -1</clus>
<clus scale="   34.964">  2  5  1 -1</clus>
</clustering>
</event>
<event>
 9    2  0.1592151E-004  0.2325049E+03  0.7546771E-02  0.1152978E+00
         21   -1    0    0  501  502  0.00000000000E+00  0.00000000000E+00  0.29989782579E+03  0.29989782579E+03  0.00000000000E+00 0.  1.
          2   -1    0    0  502    0 -0.00000000000E+00 -0.00000000000E+00 -0.47001669938E+03  0.47001669938E+03  0.00000000000E+00 0. -1.
         24    2    1    2    0    0 -0.19689130388E+02 -0.84853034447E+02  0.14459527407E+03  0.18658000399E+03  0.79477074017E+02 0.  0.
         23    2    1    2    0    0 -0.21149507502E+03  0.26728728377E+02 -0.62618172263E+02  0.23638070206E+03  0.80685866991E+02 0.  0.
        -11    1    3    3    0    0 -0.26705434506E+02 -0.68903444923E+02  0.15092178233E+03  0.16804240338E+03  0.00000000000E+00 0.  1.
         12    1    3    3    0    0  0.70163041182E+01 -0.15949589524E+02 -0.63265082551E+01  0.18537600605E+02  0.00000000000E+00 0. -1.
        -13    1    4    4    0    0 -0.35375321062E+02  0.36839353954E+02 -0.20342788790E+02  0.54976180257E+02  0.00000000000E+00 0. -1.
         13    1    4    4    0    0 -0.17611975396E+03 -0.10110625576E+02 -0.42275383473E+02  0.18140452181E+03  0.00000000000E+00 0.  1.
          1    1    1    2  501    0  0.23118420541E+03  0.58124306070E+02 -0.25209597541E+03  0.34695381912E+03  0.00000000000E+00 0. -1.
<scales pt_clust_5="13000.00000" pt_clust_6="13000.00000" pt_clust_7="13000.00000" pt_clust_8="13000.00000" pt_clust_9="218.05585"></scales>
<clustering>
<clus scale="   79.477">  5  6 -1 -1</clus>
<clus scale="   80.686">  7  8 -1 -1</clus>
<clus scale="  117.917">  2  5  1 -1</clus>
<clus scale="  218.056">  1  9  2 -1</clus>
<clus scale="  218.056">  1  5  2 -1</clus>
</clustering>
</event>
<event>
 9    2  0.1592151E-004  0.9198628E+02  0.7546771E-02  0.1301476E+00
         21   -1    0    0  501  502  0.00000000000E+00  0.00000000000E+00  0.31025877712E+02  0.31025877712E+02  0.00000000000E+00 0. -1.
          2   -1    0    0  502    0 -0.00000000000E+00 -0.00000000000E+00 -0.11921724762E+04  0.11921724762E+04  0.00000000000E+00 0. -1.
         24    2    1    2    0    0  0.37945854822E+02  0.31527089087E+02 -0.76866356086E+03  0.77438715252E+03  0.79987167384E+02 0.  0.
         23    2    1    2    0    0 -0.11323238982E+02  0.66310741457E+01 -0.39277702177E+03  0.40228276364E+03  0.85938618819E+02 0.  0.
        -11    1    3    3    0    0  0.39543816903E+02  0.13391099219E+02 -0.15710747769E+03  0.16256012592E+03  0.00000000000E+00 0.  1.
         12    1    3    3    0    0 -0.15979620805E+01  0.18135989868E+02 -0.61155608317E+03  0.61182702659E+03  0.00000000000E+00 0. -1.
        -13    1    4    4    0    0  0.36367526221E+02 -0.76232469068E+01 -0.16680247957E+03  0.17089112922E+03  0.00000000000E+00 0. -1.
         13    1    4    4    0    0 -0.47690765203E+02  0.14254321052E+02 -0.22597454220E+03  0.23139163442E+03  0.00000000000E+00 0.  1.
          1    1    1    2  501    0 -0.26622615840E+02 -0.38158163232E+02  0.29398412010E+00  0.46528437778E+02  0.00000000000E+00 0. -1.
<scales pt_clust_5="13000.00000" pt_clust_6="13000.00000" pt_clust_7="13000.00000" pt_clust_8="13000.00000" pt_clust_9="46.52751"></scales>
<clustering>
<clus scale="   46.528">  1  9  2 -1</clus>
<clus scale="   79.987">  5  6 -1 -1</clus>
<clus scale="   85.939">  7  8 -1 -1</clus>
<clus scale="   86.452">  2  5  1 -1</clus>
<clus scale="   46.528">  1  5  2 -1</clus>
</clustering>
</event>
<event>
 9    2  0.1592151E-004  0.1934408E+03  0.7546771E-02  0.1187418E+00
          2   -1    0    0  502    0 -0.00000000000E+00  0.00000000000E+00  0.55034486083E+03  0.55034486083E+03  0.00000000000E+00 0. -1.
         21   -1    0    0  501  502  0.00000000000E+00 -0.00000000000E+00 -0.11793113360E+03  0.11793113360E+03  0.00000000000E+00 0.  1.
         23    2    1    2    0    0  0.39435155232E+01  0.11788909738E+02  0.40945894650E+02  0.10174518312E+03  0.92309188556E+02 0.  0.
         24    2    1    2    0    0 -0.15554783459E+01 -0.17736021725E+03  0.77093609183E+02  0.21121304800E+03  0.84902655392E+02 0.  0.
        -11    1    4    4    0    0 -0.11569452793E+01 -0.18556140187E+03  0.65049182567E+02  0.19663613233E+03  0.00000000000E+00 0.  1.
         12    1    4    4    0    0 -0.39853306661E+00  0.82011846217E+01  0.12044426616E+02  0.14576915665E+02  0.00000000000E+00 0. -1.
        -13    1    3    3    0    0 -0.24647198029E+02 -0.29118837002E+02  0.15841547201E+01  0.38182464368E+02  0.00000000000E+00 0. -1.
         13    1    3    3    0    0  0.28590713552E+02  0.40907746740E+02  0.39361739930E+02  0.63562718751E+02  0.00000000000E+00 0.  1.
          1    1    1    2  501    0 -0.23880371772E+01  0.16557130751E+03  0.31437422340E+03  0.35531776331E+03  0.00000000000E+00 0. -1.
<scales pt_clust_5="13000.00000" pt_clust_6="13000.00000" pt_clust_7="13000.00000" pt_clust_8="13000.00000" pt_clust_9="173.81286"></scales>
<clustering>
<clus scale="   84.903">  5  6 -1 -1</clus>
<clus scale="   92.309">  7  8 -1 -1</clus>
<clus scale="   93.142">  1  7  2 -1</clus>
<clus scale="  173.813">  2  9  1 -1</clus>
<clus scale="  173.813">  2  5  1 -1</clus>
</clustering>
</event>
<event>
 9    2  0.1592151E-004  0.1298750E+03  0.7546771E-02  0.1248733E+00
         21   -1    0    0  501  502  0.00000000000E+00  0.00000000000E+00  0.36467525997E+03  0.36467525997E+03  0.00000000000E+00 0. -1.
          2   -1    0    0  502    0 -0.00000000000E+00 -0.00000000000E+00 -0.13646227320E+03  0.13646227320E+03  0.00000000000E+00 0. -1.
         24    2    1    2    0    0 -0.23885946397E+02  0.10476016176E+02 -0.60456482082E+02  0.10391054152E+03  0.80387368808E+02 0.  0.
         23    2    1    2    0    0  0.11064615794E+03 -0.34339458887E+00  0.67496160878E+02  0.15942952217E+03  0.92840457881E+02 0.  0.
        -11    1    3    3    0    0 -0.28682731611E+02 -0.25305326259E+02 -0.55596355136E+02  0.67483430071E+02  0.00000000000E+00 0.  1.
         12    1    3    3    0    0  0.47967852135E+01  0.35781342436E+02 -0.48601269463E+01  0.36427111453E+02  0.00000000000E+00 0. -1.
        -13    1    4    4    0    0  0.14790925375E+02 -0.38516055416E+02  0.18891720378E+02  0.45377914199E+02  0.00000000000E+00 0.  1.
         13    1    4    4    0    0  0.95855232561E+02  0.38172660827E+02  0.48604440500E+02  0.11405160797E+03  0.00000000000E+00 0. -1.
          1    1    1    2  501    0 -0.86760211538E+02 -0.10132621587E+02  0.22117330798E+03  0.23779746948E+03  0.00000000000E+00 0. -1.
<scales pt_clust_5="13000.00000" pt_clust_6="13000.00000" pt_clust_7="13000.00000" pt_clust_8="13000.00000" pt_clust_9="90.81934"></scales>
<clustering>
<clus scale="   80.387">  5  6 -1 -1</clus>
<clus scale="   84.513">  2  5  1 -1</clus>
<clus scale="   90.819">  1  9  2 -1</clus>
<clus scale="   92.840">  7  8 -1 -1</clus>
<clus scale="   90.819">  1  5  2 -1</clus>
</clustering>
</event>
<event>
 9    2  0.1592151E-004  0.1447023E+03  0.7546771E-02  0.1231599E+00
         21   -1    0    0  501  502  0.00000000000E+00  0.00000000000E+00  0.30584111122E+03  0.30584111122E+03  0.00000000000E+00 0. -1.
          2   -1    0    0  502    0 -0.00000000000E+00 -0.00000000000E+00 -0.35461429167E+03  0.35461429167E+03  0.00000000000E+00 0. -1.
         24    2    1    2    0    0 -0.95451373814E+01 -0.33724996769E+02 -0.25999730703E+03  0.27401829754E+03  0.79113479689E+02 0.  0.
         23    2    1    2    0    0 -0.87986271908E+00 -0.84574895151E+02 -0.21173124663E+02  0.12545429472E+03  0.90204167355E+02 0.  0.
        -13    1    3    3    0    0 -0.40219805570E+02 -0.99916415824E+01 -0.82390345565E+02  0.92225997983E+02  0.00000000000E+00 0.  1.
         14    1    3    3    0    0  0.30674668189E+02 -0.23733355187E+02 -0.17760696146E+03  0.18179229956E+03  0.00000000000E+00 0. -1.
        -11    1    4    4    0    0 -0.28035964757E+02 -0.81262329677E+02  0.69208165936E+01  0.86240821232E+02  0.00000000000E+00 0. -1.
         11    1    4    4    0    0  0.27156102038E+02 -0.33125654746E+01 -0.28093941257E+02  0.39213473492E+02  0.00000000000E+00 0.  1.
          1    1    1    2  501    0  0.10425000100E+02  0.11829989192E+03  0.23239725124E+03  0.26098281062E+03  0.00000000000E+00 0. -1.
<scales pt_clust_5="13000.00000" pt_clust_6="13000.00000" pt_clust_7="13000.00000" pt_clust_8="13000.00000" pt_clust_9="113.14578"></scales>
<clustering>
<clus scale="   79.113">  5  6 -1 -1</clus>
<clus scale="   86.530">  2  5  1 -1</clus>
<clus scale="   90.204">  7  8 -1 -1</clus>
<clus scale="  113.146">  1  9  2 -1</clus>
<clus scale="  113.146">  1  5  2 -1</clus>
</clustering>
</event>
<event>
 9    2  0.1592151E-004  0.1288885E+03  0.7546771E-02  0.1234312E+00
          2   -1    0    0  502    0 -0.00000000000E+00  0.00000000000E+00  0.23046779186E+02  0.23046779186E+02  0.00000000000E+00 0. -1.
         21   -1    0    0  501  502  0.00000000000E+00 -0.00000000000E+00 -0.89413957647E+03  0.89413957647E+03  0.00000000000E+00 0.  1.
         24    2    1    2    0    0  0.45340151482E+02 -0.61815799649E+02 -0.22557454438E+03  0.25167170520E+03  0.81103943818E+02 0.  0.
         23    2    1    2    0    0 -0.66726684510E+02  0.70793210189E+02 -0.55346677808E+03  0.57058598402E+03  0.98887621487E+02 0.  0.
        -11    1    3    3    0    0 -0.20012343911E+02  0.11735523886E+01 -0.53363365067E+02  0.57004560040E+02  0.00000000000E+00 0.  1.
         12    1    3    3    0    0  0.65352495392E+02 -0.62989352038E+02 -0.17221117931E+03  0.19466714516E+03  0.00000000000E+00 0. -1.
        -13    1    4    4    0    0 -0.79346173495E+02  0.48891424016E+02 -0.52184843202E+03  0.53010562399E+03  0.00000000000E+00 0.  1.
         13    1    4    4    0    0  0.12619488986E+02  0.21901786173E+02 -0.31618346062E+02  0.40480360022E+02  0.00000000000E+00 0. -1.
          1    1    1    2  501    0  0.21386533028E+02 -0.89774105399E+01 -0.92051474825E+02  0.94928666442E+02  0.00000000000E+00 0. -1.
<scales pt_clust_5="13000.00000" pt_clust_6="13000.00000" pt_clust_7="13000.00000" pt_clust_8="13000.00000" pt_clust_9="23.19435"></scales>
<clustering>
<clus scale="   23.194">  2  9  1 -1</clus>
<clus scale="   81.104">  5  6 -1 -1</clus>
<clus scale="   98.888">  7  8 -1 -1</clus>
<clus scale="  115.807">  1  5  2 -1</clus>
<clus scale="   23.194">  2  5  1 -1</clus>
</clustering>
</event>
<event>
 9    2  0.1592151E-004  0.1061774E+03  0.7546771E-02  0.1274630E+00
          2   -1    0    0  502    0 -0.00000000000E+00  0.00000000000E+00  0.12704160257E+04  0.12704160257E+04  0.00000000000E+00 0. -1.
         21   -1    0    0  501  502  0.00000000000E+00 -0.00000000000E+00 -0.17378083038E+02  0.17378083038E+02  0.00000000000E+00 0. -1.
         24    2    1    2    0    0  0.65582327195E+02  0.35721791169E+00  0.80486378855E+03  0.81153964444E+03  0.80558718546E+02 0.  0.
         23    2    1    2    0    0 -0.36914261675E+00 -0.61947736530E+01  0.27251777203E+03  0.28879246531E+03  0.95376309728E+02 0.  0.
        -11    1    3    3    0    0  0.16763968454E+02  0.33349048676E+02  0.17558726005E+03  0.17951065588E+03  0.00000000000E+00 0.  1.
         12    1    3    3    0    0  0.48818358741E+02 -0.32991830764E+02  0.62927652850E+03  0.63202898856E+03  0.00000000000E+00 0. -1.
        -11    1    4    4    0    0 -0.47299521775E+02 -0.44685118044E+01  0.15893150876E+03  0.16588079103E+03  0.00000000000E+00 0.  1.
         11    1    4    4    0    0  0.46930379158E+02 -0.17262618485E+01  0.11358626327E+03  0.12291167427E+03  0.00000000000E+00 0. -1.
          1    1    1    2  501    0 -0.65213184578E+02  0.58375557413E+01  0.17565638206E+03  0.18746199897E+03  0.00000000000E+00 0. -1.
<scales pt_clust_5="13000.00000" pt_clust_6="13000.00000" pt_clust_7="13000.00000" pt_clust_8="13000.00000" pt_clust_9="65.47394"></scales>
<clustering>
<clus scale="   65.474">  2  9  1 -1</clus>
<clus scale="   80.559">  5  6 -1 -1</clus>
<clus scale="   93.095">  1  5  2 -1</clus>
<clus scale="   95.376">  7  8 -1 -1</clus>
<clus scale="   65.474">  2  5  1 -1</clus>
</clustering>
</event>
<event>
 9    2  0.1592151E-004  0.1143681E+03  0.7546771E-02  0.1258530E+00
         21   -1    0    0  501  502  0.00000000000E+00  0.00000000000E+00  0.11815140818E+03  0.11815140818E+03  0.00000000000E+00 0. -1.
          2   -1    0    0  502    0 -0.00000000000E+00 -0.00000000000E+00 -0.18624665564E+03  0.18624665564E+03  0.00000000000E+00 0. -1.
         23    2    1    2    0    0 -0.26965608602E+02 -0.52352970254E+02 -0.80414370506E+02  0.13754166654E+03  0.94780069152E+02 0.  0.
         24    2    1    2    0    0  0.45230607929E+01  0.82994517351E+02  0.38038122008E+02  0.12098658947E+03  0.79261012593E+02 0.  0.
        -13    1    4    4    0    0  0.20710123423E+02 -0.44422488595E+00  0.28822206473E+02  0.35494029553E+02  0.00000000000E+00 0.  1.
         14    1    4    4    0    0 -0.16187062630E+02  0.83438742237E+02  0.92159155349E+01  0.85492559921E+02  0.00000000000E+00 0. -1.
        -13    1    3    3    0    0  0.95981957956E+00 -0.37297652871E+02  0.12509551921E+02  0.39351303060E+02  0.00000000000E+00 0. -1.
         13    1    3    3    0    0 -0.27925428181E+02 -0.15055317383E+02 -0.92923922427E+02  0.98190363478E+02  0.00000000000E+00 0.  1.
          1    1    1    2  501    0  0.22442547809E+02 -0.30641547097E+02 -0.25718998956E+02  0.45869807804E+02  0.00000000000E+00 0. -1.
<scales pt_clust_5="13000.00000" pt_clust_6="13000.00000" pt_clust_7="13000.00000" pt_clust_8="13000.00000" pt_clust_9="37.98123"></scales>
<clustering>
<clus scale="   37.981">  1  9  2 -1</clus>
<clus scale="   79.261">  5  6 -1 -1</clus>
<clus scale="   94.780">  7  8 -1 -1</clus>
<clus scale="  101.878">  1  5  2 -1</clus>
<clus scale="   37.981">  1  5  2 -1</clus>
</clustering>
</event>
<event>
 9    2  0.1592151E-004  0.1517748E+03  0.7546771E-02  0.1199846E+00
          2   -1    0    0  502    0 -0.00000000000E+00  0.00000000000E+00  0.27118810595E+03  0.27118810595E+03  0.00000000000E+00 0. -1.
         21   -1    0    0  501  502  0.00000000000E+00 -0.00000000000E+00 -0.17709944963E+03  0.17709944963E+03  0.00000000000E+00 0.  1.
         24    2    1    2    0    0  0.10963719165E+02  0.13129545997E+03  0.91949333269E+02  0.17900942167E+03  0.78936634163E+02 0.  0.
         23    2    1    2    0    0 -0.35735775657E+02 -0.96627041149E+02 -0.93517716312E+02  0.16456030723E+03  0.87867517930E+02 0.  0.
        -11    1    3    3    0    0 -0.17377429741E+02  0.12227560962E+03  0.69241458007E+02  0.14158982760E+03  0.00000000000E+00 0.  1.
         12    1    3    3    0    0  0.28341148906E+02  0.90198503432E+01  0.22707875262E+02  0.37419594071E+02  0.00000000000E+00 0. -1.
        -11    1    4    4    0    0 -0.60101322885E+02 -0.79360064022E+02 -0.49005083122E+02  0.11095804138E+03  0.00000000000E+00 0. -1.
         11    1    4    4    0    0  0.24365547228E+02 -0.17266977127E+02 -0.44512633190E+02  0.53602265851E+02  0.00000000000E+00 0.  1.
          1    1    1    2  501    0  0.24772056492E+02 -0.34668418817E+02  0.95657039365E+02  0.10471782669E+03  0.00000000000E+00 0. -1.
<scales pt_clust_5="13000.00000" pt_clust_6="13000.00000" pt_clust_7="13000.00000" pt_clust_8="13000.00000" pt_clust_9="42.60934"></scales>
<clustering>
<clus scale="   42.609">  2  9  1 -1</clus>
<clus scale="   78.937">  5  6 -1 -1</clus>
<clus scale="   87.868">  7  8 -1 -1</clus>
<clus scale="  146.785">  1  5  2 -1</clus>
<clus scale="   42.609">  2  5  1 -1</clus>
</clustering>
</event>
<event>
 9    2  0.1592151E-004  0.2614810E+03  0.7546771E-02  0.1106788E+00
         21   -1    0    0  501  502  0.00000000000E+00  0.00000000000E+00  0.43460280779E+03  0.43460280779E+03  0.00000000000E+00 0.  1.
          2   -1    0    0  502    0 -0.00000000000E+00 -0.00000000000E+00 -0.61882766679E+03  0.61882766679E+03  0.00000000000E+00 0. -1.
         23    2    1    2    0    0 -0.72024508858E+02 -0.23113206475E+03 -0.39012584729E+03  0.46819684489E+03  0.91654501282E+02 0.  0.
         24    2    1    2    0    0  0.23258132458E+03  0.20356145211E+03  0.26172131253E+03  0.41302869843E+03  0.81014338020E+02 0.  0.
        -11    1    4    4    0    0  0.49510444369E+02  0.24217879398E+02  0.86527367950E+02  0.10259032697E+03  0.00000000000E+00 0.  1.
         12    1    4    4    0    0  0.18307088021E+03  0.17934357272E+03  0.17519394458E+03  0.31043837146E+03  0.00000000000E+00 0. -1.
        -11    1    3    3    0    0 -0.36729465779E+02 -0.21809083464E+03 -0.33726360435E+03  0.40331055607E+03  0.00000000000E+00 0. -1.
         11    1    3    3    0    0 -0.35295043079E+02 -0.13041230106E+02 -0.52862242940E+02  0.64886288824E+02  0.00000000000E+00 0.  1.
          1    1    1    2  501    0 -0.16055681572E+03  0.27570612638E+02 -0.55820324240E+02  0.17220493127E+03  0.00000000000E+00 0. -1.
<scales pt_clust_5="13000.00000" pt_clust_6="13000.00000" pt_clust_7="13000.00000" pt_clust_8="13000.00000" pt_clust_9="162.90689"></scales>
<clustering>
<clus scale="   81.014">  5  6 -1 -1</clus>
<clus scale="   91.655">  7  8 -1 -1</clus>
<clus scale="  162.907">  1  9  2 -1</clus>
<clus scale="  257.944">  1  5  2 -1</clus>
<clus scale="  162.907">  1  5  2 -1</clus>
</clustering>
</event>
<event>
 9    2  0.1592151E-004  0.1376508E+03  0.7546771E-02  0.1234184E+00
         21   -1    0    0  501  502  0.00000000000E+00  0.00000000000E+00  0.32973458511E+03  0.32973458511E+03  0.00000000000E+00 0.  1.
         -1   -1    0    0    0  501 -0.00000000000E+00 -0.00000000000E+00 -0.13114733579E+03  0.13114733579E+03  0.00000000000E+00 0.  1.
         23    2    1    2    0    0 -0.15406456902E+02 -0.16513097845E+02 -0.18137273591E+02  0.97030352944E+02  0.92606087189E+02 0.  0.
         24    2    1    2    0    0 -0.10380380575E+03  0.31889585431E+02  0.20147396673E+03  0.24269009489E+03  0.80712744598E+02 0.  0.
        -11    1    4    4    0    0 -0.66416304921E+02  0.57421827566E+02  0.11104184188E+03  0.14155805342E+03  0.00000000000E+00 0.  1.
         12    1    4    4    0    0 -0.37387500834E+02 -0.25532242135E+02  0.90432124849E+02  0.10113204147E+03  0.00000000000E+00 0. -1.
        -13    1    3    3    0    0 -0.71150344499E+01 -0.55139213464E+02 -0.13826413484E+02  0.57289844531E+02  0.00000000000E+00 0.  1.
         13    1    3    3    0    0 -0.82914224516E+01  0.38626115619E+02 -0.43108601076E+01  0.39740508413E+02  0.00000000000E+00 0. -1.
         -2    1    1    2    0  502  0.11921026266E+03 -0.15376487586E+02  0.15250556188E+02  0.12116147307E+03  0.00000000000E+00 0.  1.
<scales pt_clust_5="13000.00000" pt_clust_6="13000.00000" pt_clust_7="13000.00000" pt_clust_8="13000.00000" pt_clust_9="111.50426"></scales>
<clustering>
<clus scale="   80.713">  5  6 -1 -1</clus>
<clus scale="   92.606">  7  8 -1 -1</clus>
<clus scale="   95.320">  2  7  1 -1</clus>
<clus scale="  111.504">  1  9  2 -1</clus>
<clus scale="  111.504">  1  5  2 -1</clus>
</clustering>
</event>
<event>
 9    2  0.1592151E-004  0.1169196E+03  0.7546771E-02  0.1249069E+00
         -1   -1    0    0    0  501 -0.00000000000E+00  0.00000000000E+00  0.20949128074E+03  0.20949128074E+03  0.00000000000E+00 0.  1.
         21   -1    0    0  501  502  0.00000000000E+00 -0.00000000000E+00 -0.12225544771E+03  0.12225544771E+03  0.00000000000E+00 0.  1.
         24    2    1    2    0    0 -0.40708583654E+02  0.46857778980E+02  0.75119416031E+02  0.13198227315E+03  0.89014344494E+02 0.  0.
         23    2    1    2    0    0  0.61568656842E+02 -0.62701477684E+02  0.63708742927E+02  0.14190312507E+03  0.91408523505E+02 0.  0.
        -11    1    3    3    0    0 -0.49061585898E+02  0.43406693080E+02  0.91938480198E+02  0.11288872555E+03  0.00000000000E+00 0.  1.
         12    1    3    3    0    0  0.83530022438E+01  0.34510859005E+01 -0.16819064167E+02  0.19093547597E+02  0.00000000000E+00 0. -1.
        -11    1    4    4    0    0  0.48355084203E+02  0.99034516067E+01  0.42456511343E+02  0.65106434992E+02  0.00000000000E+00 0.  1.
         11    1    4    4    0    0  0.13213572639E+02 -0.72604929290E+02  0.21252231585E+02  0.76796690075E+02  0.00000000000E+00 0. -1.
         -2    1    1    2    0  502 -0.20860073187E+02  0.15843698703E+02 -0.51592325929E+02  0.57861330236E+02  0.00000000000E+00 0.  1.
<scales pt_clust_5="13000.00000" pt_clust_6="13000.00000" pt_clust_7="13000.00000" pt_clust_8="13000.00000" pt_clust_9="26.19476"></scales>
<clustering>
<clus scale="   26.195">  2  9  1 -1</clus>
<clus scale="   89.014">  5  6 -1 -1</clus>
<clus scale="   91.409">  7  8 -1 -1</clus>
<clus scale="  115.058">  1  5  2 -1</clus>
<clus scale="   26.195">  2  5  1 -1</clus>
</clustering>
</event>
<event>
 9    2  0.1592151E-004  0.1012191E+03  0.7546771E-02  0.1283527E+00
         -3   -1    0    0    0  501 -0.00000000000E+00  0.00000000000E+00  0.25313875276E+03  0.25313875276E+03  0.00000000000E+00 0.  1.
         21   -1    0    0  501  502  0.00000000000E+00 -0.00000000000E+00 -0.98830682117E+02  0.98830682117E+02  0.00000000000E+00 0.  1.
         24    2    1    2    0    0 -0.22223741337E+02  0.36784643493E+02  0.14746003809E+03  0.17360967726E+03  0.80924980876E+02 0.  0.
         23    2    1    2    0    0  0.59881622223E+02  0.62873875870E+01  0.33286895071E+02  0.11533334010E+03  0.92565771384E+02 0.  0.
        -11    1    3    3    0    0 -0.36825682214E+02  0.44052162455E+02  0.14640922015E+03  0.15726532877E+03  0.00000000000E+00 0.  1.
         12    1    3    3    0    0  0.14601940877E+02 -0.72675189626E+01  0.10508179354E+01  0.16344348491E+02  0.00000000000E+00 0. -1.
        -11    1    4    4    0    0 -0.83191373514E+01 -0.26596639712E+02  0.27890346815E+02  0.39426650070E+02  0.00000000000E+00 0. -1.
         11    1    4    4    0    0  0.68200759574E+02  0.32884027299E+02  0.53965482557E+01  0.75906690028E+02  0.00000000000E+00 0.  1.
         -4    1    1    2    0  502 -0.37657880886E+02 -0.43072031080E+02 -0.26438862516E+02  0.63026417519E+02  0.00000000000E+00 0.  1.
<scales pt_clust_5="13000.00000" pt_clust_6="13000.00000" pt_clust_7="13000.00000" pt_clust_8="13000.00000" pt_clust_9="57.21290"></scales>
<clustering>
<clus scale="   57.213">  2  9  1 -1</clus>
<clus scale="   80.925">  5  6 -1 -1</clus>
<clus scale="   90.696">  1  5  2 -1</clus>
<clus scale="   92.566">  7  8 -1 -1</clus>
<clus scale="   57.213">  2  5  1 -1</clus>
</clustering>
</event>
<event>
 9    2  0.1592151E-004  0.9678684E+02  0.7546771E-02  0.1295001E+00
          2   -1    0    0  502    0 -0.00000000000E+00  0.00000000000E+00  0.10666653835E+03  0.10666653835E+03  0.00000000000E+00 0. -1.
         21   -1    0    0  501  502  0.00000000000E+00 -0.00000000000E+00 -0.18898182241E+03  0.18898182241E+03  0.00000000000E+00 0. -1.
         24    2    1    2    0    0  0.17173275606E+02  0.32073374247E+02  0.75240927007E+01  0.87174313950E+02  0.78861437415E+02 0.  0.
         23    2    1    2    0    0 -0.45698862423E+02  0.38939615076E+02 -0.64382515015E+02  0.12782291188E+03  0.92676366524E+02 0.  0.
        -11    1    3    3    0    0  0.28716526202E+02 -0.13462348492E+02 -0.14992600655E+02  0.35080646779E+02  0.00000000000E+00 0.  1.
         12    1    3    3    0    0 -0.11543250597E+02  0.45535722738E+02  0.22516693356E+02  0.52093667171E+02  0.00000000000E+00 0. -1.
        -13    1    4    4    0    0 -0.25183531655E+02  0.45456907776E+02 -0.83950010023E+02  0.98732694251E+02  0.00000000000E+00 0. -1.
         13    1    4    4    0    0 -0.20515330767E+02 -0.65172926991E+01  0.19567495009E+02  0.29090217626E+02  0.00000000000E+00 0.  1.
          1    1    1    2  501    0  0.28525586817E+02 -0.71012989323E+02 -0.25456861745E+02  0.80651134932E+02  0.00000000000E+00 0. -1.
<scales pt_clust_5="13000.00000" pt_clust_6="13000.00000" pt_clust_7="13000.00000" pt_clust_8="13000.00000" pt_clust_9="76.52812"></scales>
<clustering>
<clus scale="   76.528">  2  9  1 -1</clus>
<clus scale="   78.861">  5  6 -1 -1</clus>
<clus scale="   83.654">  1  5  2 -1</clus>
<clus scale="   92.676">  7  8 -1 -1</clus>
<clus scale="   76.528">  2  5  1 -1</clus>
</clustering>
</event>
<event>
 9    2  0.1592151E-004  0.8058811E+02  0.7546771E-02  0.1340360E+00
         21   -1    0    0  501  502  0.00000000000E+00  0.00000000000E+00  0.12861734773E+03  0.12861734773E+03  0.00000000000E+00 0. -1.
          2   -1    0    0  502    0 -0.00000000000E+00 -0.00000000000E+00 -0.54128305573E+03  0.54128305573E+03  0.00000000000E+00 0. -1.
         24    2    1    2    0    0 -0.27766193865E+01  0.13988104302E+02 -0.47824299299E+03  0.48512366956E+03  0.80157580712E+02 0.  0.
         23    2    1    2    0    0 -0.17015862544E+02  0.40794839162E+02 -0.21098058794E+02  0.80347195657E+02  0.63692898228E+02 0.  0.
        -13    1    3    3    0    0  0.12170775571E+02 -0.30161695483E+02 -0.14276341740E+03  0.14642147725E+03  0.00000000000E+00 0.  1.
         14    1    3    3    0    0 -0.14947394957E+02  0.44149799785E+02 -0.33547957559E+03  0.33870219231E+03  0.00000000000E+00 0. -1.
        -13    1    4    4    0    0 -0.41364739031E+02  0.24519992288E+02 -0.15560708423E+02  0.50541144660E+02  0.00000000000E+00 0.  1.
         13    1    4    4    0    0  0.24348876487E+02  0.16274846873E+02 -0.55373503715E+01  0.29806050997E+02  0.00000000000E+00 0. -1.
          1    1    1    2  501    0  0.19792481930E+02 -0.54782943463E+02  0.86675343790E+02  0.10442953824E+03  0.00000000000E+00 0. -1.
<scales pt_clust_5="13000.00000" pt_clust_6="13000.00000" pt_clust_7="13000.00000" pt_clust_8="13000.00000" pt_clust_9="58.24872"></scales>
<clustering>
<clus scale="   58.249">  1  9  2 -1</clus>
<clus scale="   63.693">  7  8 -1 -1</clus>
<clus scale="   64.234">  1  7  2 -1</clus>
<clus scale="   80.158">  5  6 -1 -1</clus>
<clus scale="   58.249">  1  5  2 -1</clus>
</clustering>
</event>
<event>
 9    2  0.1592151E-004  0.1366351E+03  0.7546771E-02  0.1233108E+00
         21   -1    0    0  501  502  0.00000000000E+00  0.00000000000E+00  0.31905908166E+03  0.31905908166E+03  0.00000000000E+00 0. -1.
          2   -1    0    0  502    0 -0.00000000000E+00 -0.00000000000E+00 -0.11896895691E+03  0.11896895691E+03  0.00000000000E+00 0. -1.
         24    2    1    2    0    0 -0.40347296404E+02 -0.95428516869E+02  0.63327624126E+02  0.14354042923E+03  0.76543848137E+02 0.  0.
         23    2    1    2    0    0 -0.15317177023E+02  0.54493726225E+01  0.14370287614E+03  0.18845483697E+03  0.12083210416E+03 0.  0.
        -11    1    3    3    0    0  0.90490161028E+01 -0.71384077991E+02  0.23538629740E+02  0.75707584647E+02  0.00000000000E+00 0.  1.
         12    1    3    3    0    0 -0.49396312507E+02 -0.24044438878E+02  0.39788994387E+02  0.67832844585E+02  0.00000000000E+00 0. -1.
        -13    1    4    4    0    0  0.42645800526E+02 -0.11971476788E+02  0.11132715967E+03  0.11981534559E+03  0.00000000000E+00 0. -1.
         13    1    4    4    0    0 -0.57962977549E+02  0.17420849410E+02  0.32375716469E+02  0.68639491384E+02  0.00000000000E+00 0.  1.
          1    1    1    2  501    0  0.55664473427E+02  0.89979144247E+02 -0.69403755147E+01  0.10603277236E+03  0.00000000000E+00 0. -1.
<scales pt_clust_5="13000.00000" pt_clust_6="13000.00000" pt_clust_7="13000.00000" pt_clust_8="13000.00000" pt_clust_9="105.80544"></scales>
<clustering>
<clus scale="   76.544">  5  6 -1 -1</clus>
<clus scale="  105.805">  1  9  2 -1</clus>
<clus scale="   99.638">  2  5  1 -1</clus>
<clus scale="  120.832">  7  8 -1 -1</clus>
<clus scale="  105.805">  1  5  2 -1</clus>
</clustering>
</event>
<event>
 9    2  0.1592151E-004  0.1062428E+03  0.7546771E-02  0.1270467E+00
         21   -1    0    0  501  502  0.00000000000E+00  0.00000000000E+00  0.91495819917E+02  0.91495819917E+02  0.00000000000E+00 0.  1.
          2   -1    0    0  502    0 -0.00000000000E+00 -0.00000000000E+00 -0.31200785753E+03  0.31200785753E+03  0.00000000000E+00 0. -1.
         23    2    1    2    0    0  0.51924936660E+02 -0.11982861044E+02 -0.23722126183E+03  0.25943564772E+03  0.90515966773E+02 0.  0.
         24    2    1    2    0    0 -0.60527666756E+02  0.41852445079E+02  0.17486960662E+02  0.11297455951E+03  0.83918005827E+02 0.  0.
        -13    1    4    4    0    0 -0.68320857332E+02  0.26633805390E+02  0.40914867232E+02  0.83970980087E+02  0.00000000000E+00 0.  1.
         14    1    4    4    0    0  0.77931905761E+01  0.15218639689E+02 -0.23427906569E+02  0.29003579426E+02  0.00000000000E+00 0. -1.
        -11    1    3    3    0    0  0.52086519700E+02  0.29034497674E+02 -0.10223907452E+03  0.11835892847E+03  0.00000000000E+00 0. -1.
         11    1    3    3    0    0 -0.16158304016E+00 -0.41017358718E+02 -0.13498218731E+03  0.14107671926E+03  0.00000000000E+00 0.  1.
          1    1    1    2  501    0  0.86027300964E+01 -0.29869584035E+02 -0.77773644505E+00  0.31093470207E+02  0.00000000000E+00 0. -1.
<scales pt_clust_5="13000.00000" pt_clust_6="13000.00000" pt_clust_7="13000.00000" pt_clust_8="13000.00000" pt_clust_9="31.08374"></scales>
<clustering>
<clus scale="   31.084">  1  9  2 -1</clus>
<clus scale="   83.918">  5  6 -1 -1</clus>
<clus scale="   90.516">  7  8 -1 -1</clus>
<clus scale="  100.681">  1  5  2 -1</clus>
<clus scale="   31.084">  1  5  2 -1</clus>
</clustering>
</event>
<event>
 9    2  0.1592151E-004  0.1979666E+03  0.7546771E-02  0.1152498E+00
         -3   -1    0    0    0  501 -0.00000000000E+00  0.00000000000E+00  0.16449812966E+03  0.16449812966E+03  0.00000000000E+00 0.  1.
         21   -1    0    0  501  502  0.00000000000E+00 -0.00000000000E+00 -0.27198914981E+03  0.27198914981E+03  0.00000000000E+00 0.  1.
         24    2    1    2    0    0 -0.50658829802E+02  0.15574459981E+03 -0.42949929737E+02  0.18753320895E+03  0.80630704997E+02 0.  0.
         23    2    1    2    0    0  0.68973420927E+02 -0.17735508613E+03 -0.64004292606E+02  0.22062165942E+03  0.91461509714E+02 0.  0.
        -13    1    3    3    0    0 -0.68648412149E+01  0.74867101546E+02 -0.57193889693E+02  0.94463484782E+02  0.00000000000E+00 0.  1.
         14    1    3    3    0    0 -0.43793988587E+02  0.80877498267E+02  0.14243959956E+02  0.93069724173E+02  0.00000000000E+00 0. -1.
        -11    1    4    4    0    0  0.44846453370E+02 -0.17662905121E+03 -0.39983513947E+02  0.18656823818E+03  0.00000000000E+00 0.  1.
         11    1    4    4    0    0  0.24126967557E+02 -0.72603492353E+00 -0.24020778659E+02  0.34053421232E+02  0.00000000000E+00 0. -1.
         -4    1    1    2    0  502 -0.18314591124E+02  0.21610486321E+02 -0.53679780117E+00  0.28332411104E+02  0.00000000000E+00 0.  1.
<scales pt_clust_5="13000.00000" pt_clust_6="13000.00000" pt_clust_7="13000.00000" pt_clust_8="13000.00000" pt_clust_9="28.32734"></scales>
<clustering>
<clus scale="   28.327">  2  9  1 -1</clus>
<clus scale="   80.631">  5  6 -1 -1</clus>
<clus scale="   91.462">  7  8 -1 -1</clus>
<clus scale="  193.202">  1  5  2 -1</clus>
<clus scale="   28.327">  2  5  1 -1</clus>
</clustering>
</event>
<event>
 9    2  0.1592151E-004  0.1066796E+03  0.7546771E-02  0.1278967E+00
         21   -1    0    0  501  502  0.00000000000E+00  0.00000000000E+00  0.65630340785E+02  0.65630340785E+02  0.00000000000E+00 0.  1.
          2   -1    0    0  502    0 -0.00000000000E+00 -0.00000000000E+00 -0.27643356257E+03  0.27643356257E+03  0.00000000000E+00 0. -1.
         23    2    1    2    0    0  0.46178178171E+02  0.35352756842E+02 -0.10238901892E+03  0.14973659301E+03  0.92494835187E+02 0.  0.
         24    2    1    2    0    0  0.10055177164E+02 -0.65315213761E+02 -0.49242525177E+02  0.10537199701E+03  0.65660092377E+02 0.  0.
        -11    1    4    4    0    0  0.30816218683E+02 -0.17316376675E+02 -0.37965370369E+02  0.51873553786E+02  0.00000000000E+00 0.  1.
         12    1    4    4    0    0 -0.20761041519E+02 -0.47998837086E+02 -0.11277154808E+02  0.53498443221E+02  0.00000000000E+00 0. -1.
        -13    1    3    3    0    0  0.27764327210E+02  0.64972613215E+02 -0.49071612274E+02  0.86025121125E+02  0.00000000000E+00 0.  1.
         13    1    3    3    0    0  0.18413850961E+02 -0.29619856372E+02 -0.53317406644E+02  0.63711471887E+02  0.00000000000E+00 0. -1.
          1    1    1    2  501    0 -0.56233355335E+02  0.29962456919E+02 -0.59171677689E+02  0.86955313337E+02  0.00000000000E+00 0. -1.
<scales pt_clust_5="13000.00000" pt_clust_6="13000.00000" pt_clust_7="13000.00000" pt_clust_8="13000.00000" pt_clust_9="63.71768"></scales>
<clustering>
<clus scale="   63.718">  1  9  2 -1</clus>
<clus scale="   65.660">  5  6 -1 -1</clus>
<clus scale="   84.478">  1  5  2 -1</clus>
<clus scale="   92.495">  7  8 -1 -1</clus>
<clus scale="   63.718">  1  5  2 -1</clus>
</clustering>
</event>
<event>
 9    2  0.1592151E-004  0.1656007E+03  0.7546771E-02  0.1203309E+00
          2   -1    0    0  502    0 -0.00000000000E+00  0.00000000000E+00  0.55998858120E+03  0.55998858120E+03  0.00000000000E+00 0. -1.
         21   -1    0    0  501  502  0.00000000000E+00 -0.00000000000E+00 -0.37821909549E+03  0.37821909549E+03  0.00000000000E+00 0. -1.
         23    2    1    2    0    0 -0.39551384813E+02  0.23980870117E+02  0.47076925312E+03  0.48230126016E+03  0.94081994572E+02 0.  0.
         24    2    1    2    0    0  0.34000148303E+02 -0.16111743777E+03 -0.70213820355E+02  0.19763418603E+03  0.83752325824E+02 0.  0.
        -13    1    4    4    0    0 -0.24868054663E+02 -0.84717722108E+02 -0.33654023068E+02  0.94488654613E+02  0.00000000000E+00 0.  1.
         14    1    4    4    0    0  0.58868202967E+02 -0.76399715660E+02 -0.36559797287E+02  0.10314553142E+03  0.00000000000E+00 0. -1.
        -11    1    3    3    0    0 -0.10615568564E+02  0.57075779446E+02  0.32124455849E+03  0.32644816014E+03  0.00000000000E+00 0.  1.
         11    1    3    3    0    0 -0.28935816249E+02 -0.33094909329E+02  0.14952469463E+03  0.15585310003E+03  0.00000000000E+00 0. -1.
          1    1    1    2  501    0  0.55512365093E+01  0.13713656765E+03 -0.21878594706E+03  0.25827223049E+03  0.00000000000E+00 0. -1.
<scales pt_clust_5="13000.00000" pt_clust_6="13000.00000" pt_clust_7="13000.00000" pt_clust_8="13000.00000" pt_clust_9="142.86059"></scales>
<clustering>
<clus scale="   83.752">  5  6 -1 -1</clus>
<clus scale="   94.082">  7  8 -1 -1</clus>
<clus scale="  104.837">  1  7  2 -1</clus>
<clus scale="  142.861">  2  9  1 -1</clus>
<clus scale="  142.861">  2  5  1 -1</clus>
</clustering>
</event>
<event>
 9    2  0.1592151E-004  0.1335997E+03  0.7546771E-02  0.1224847E+00
         21   -1    0    0  501  502  0.00000000000E+00  0.00000000000E+00  0.10871049860E+03  0.10871049860E+03  0.00000000000E+00 0. -1.
          2   -1    0    0  502    0 -0.00000000000E+00 -0.00000000000E+00 -0.58949804980E+03  0.58949804980E+03  0.00000000000E+00 0. -1.
         23    2    1    2    0    0  0.19203451356E+02 -0.96729542803E+02 -0.42513212629E+03  0.44579781673E+03  0.90955987186E+02 0.  0.
         24    2    1    2    0    0 -0.40677239580E+02  0.88969439083E+02 -0.12597779595E+03  0.17847441679E+03  0.80078170974E+02 0.  0.
        -11    1    4    4    0    0  0.82468666152E+01  0.60420781102E+02 -0.32311984640E+02  0.69012650647E+02  0.00000000000E+00 0.  1.
         12    1    4    4    0    0 -0.48924106195E+02  0.28548657981E+02 -0.93665811306E+02  0.10946176614E+03  0.00000000000E+00 0. -1.
        -11    1    3    3    0    0 -0.36790259655E+02 -0.34347802926E+02 -0.15993626823E+03  0.16766903312E+03  0.00000000000E+00 0.  1.
         11    1    3    3    0    0  0.55993711012E+02 -0.62381739878E+02 -0.26519585806E+03  0.27812878361E+03  0.00000000000E+00 0. -1.
          1    1    1    2  501    0  0.21473788223E+02  0.77601037203E+01  0.70322371035E+02  0.73936314882E+02  0.00000000000E+00 0. -1.
<scales pt_clust_5="13000.00000" pt_clust_6="13000.00000" pt_clust_7="13000.00000" pt_clust_8="13000.00000" pt_clust_9="22.83293"></scales>
<clustering>
<clus scale="   22.833">  1  9  2 -1</clus>
<clus scale="   80.078">  5  6 -1 -1</clus>
<clus scale="   90.956">  7  8 -1 -1</clus>
<clus scale="  126.445">  1  5  2 -1</clus>
<clus scale="   22.833">  1  5  2 -1</clus>
</clustering>
</event>
<event>
 9    2  0.1592151E-004  0.1000303E+03  0.7546771E-02  0.1284808E+00
          2   -1    0    0  502    0 -0.00000000000E+00  0.00000000000E+00  0.25872811964E+03  0.25872811964E+03  0.00000000000E+00 0. -1.
         21   -1    0    0  501  502  0.00000000000E+00 -0.00000000000E+00 -0.64060692243E+02  0.64060692243E+02  0.00000000000E+00 0.  1.
         24    2    1    2    0    0 -0.52147436365E+02 -0.87435964218E+01  0.16879746921E+03  0.19387357335E+03  0.79363538447E+02 0.  0.
         23    2    1    2    0    0  0.29242470823E+02 -0.30718832427E+01  0.37279533488E+02  0.10072975619E+03  0.88837838780E+02 0.  0.
        -13    1    3    3    0    0 -0.20361755256E+02 -0.43370867281E+02  0.75818091774E+02  0.89688439869E+02  0.00000000000E+00 0.  1.
         14    1    3    3    0    0 -0.31785681109E+02  0.34627270859E+02  0.92979377433E+02  0.10418513348E+03  0.00000000000E+00 0. -1.
        -13    1    4    4    0    0 -0.64024469605E+01  0.36519386778E+02  0.26087354273E+01  0.37168029787E+02  0.00000000000E+00 0.  1.
         13    1    4    4    0    0  0.35644917783E+02 -0.39591270020E+02  0.34670798061E+02  0.63561726407E+02  0.00000000000E+00 0. -1.
          1    1    1    2  501    0  0.22904965542E+02  0.11815479664E+02 -0.11409575299E+02  0.28185482339E+02  0.00000000000E+00 0. -1.
<scales pt_clust_5="13000.00000" pt_clust_6="13000.00000" pt_clust_7="13000.00000" pt_clust_8="13000.00000" pt_clust_9="25.77291"></scales>
<clustering>
<clus scale="   25.773">  2  9  1 -1</clus>
<clus scale="   79.364">  5  6 -1 -1</clus>
<clus scale="   88.838">  7  8 -1 -1</clus>
<clus scale="   91.720">  1  5  2 -1</clus>
<clus scale="   25.773">  2  5  1 -1</clus>
</clustering>
</event>
<event>
 9    2  0.1592151E-004  0.1932111E+03  0.7546771E-02  0.1181297E+00
         21   -1    0    0  501  502  0.00000000000E+00  0.00000000000E+00  0.89513438479E+02  0.89513438479E+02  0.00000000000E+00 0. -1.
          2   -1    0    0  502    0 -0.00000000000E+00 -0.00000000000E+00 -0.67175736167E+03  0.67175736167E+03  0.00000000000E+00 0. -1.
         23    2    1    2    0    0  0.35957094683E+01 -0.48417200944E+02 -0.71599688840E+02  0.12887321686E+03  0.95522961151E+02 0.  0.
         24    2    1    2    0    0  0.65063686507E+02  0.18704098668E+03 -0.24388701043E+03  0.32403078362E+03  0.79356542728E+02 0.  0.
        -11    1    4    4    0    0 -0.16401537574E+01  0.80051437025E+02 -0.55793278411E+02  0.97590023005E+02  0.00000000000E+00 0.  1.
         12    1    4    4    0    0  0.66703840264E+02  0.10698954966E+03 -0.18809373202E+03  0.22644076061E+03  0.00000000000E+00 0. -1.
        -13    1    3    3    0    0 -0.28006163770E+02 -0.47587648031E+02 -0.53600623562E+01  0.55476659261E+02  0.00000000000E+00 0. -1.
         13    1    3    3    0    0  0.31601873238E+02 -0.82955291317E+00 -0.66239626484E+02  0.73396557596E+02  0.00000000000E+00 0.  1.
          1    1    1    2  501    0 -0.68659395975E+02 -0.13862378574E+03 -0.26675722392E+03  0.30836679967E+03  0.00000000000E+00 0. -1.
<scales pt_clust_5="13000.00000" pt_clust_6="13000.00000" pt_clust_7="13000.00000" pt_clust_8="13000.00000" pt_clust_9="176.16212"></scales>
<clustering>
<clus scale="   79.357">  5  6 -1 -1</clus>
<clus scale="   95.523">  7  8 -1 -1</clus>
<clus scale="  107.153">  2  7  1 -1</clus>
<clus scale="  176.162">  1  9  2 -1</clus>
<clus scale="  176.162">  1  5  2 -1</clus>
</clustering>
</event>
<event>
 9    2  0.1592151E-004  0.9515593E+02  0.7546771E-02  0.1290849E+00
         21   -1    0    0  501  502  0.00000000000E+00  0.00000000000E+00  0.15493442885E+03  0.15493442885E+03  0.00000000000E+00 0.  1.
         -3   -1    0    0    0  501 -0.00000000000E+00 -0.00000000000E+00 -0.16280733730E+03  0.16280733730E+03  0.00000000000E+00 0.  1.
         23    2    1    2    0    0  0.18108056716E+02  0.33531365712E+02 -0.47742238821E+02  0.10403133972E+03  0.84207743536E+02 0.  0.
         24    2    1    2    0    0 -0.39549054541E+02 -0.33675749633E+02 -0.57187519421E+02  0.11431339768E+03  0.84255306554E+02 0.  0.
        -13    1    4    4    0    0 -0.39490513224E+02 -0.56318195322E+02 -0.21530989519E+02  0.72075122398E+02  0.00000000000E+00 0.  1.
         14    1    4    4    0    0 -0.58541317520E-01  0.22642445689E+02 -0.35656529902E+02  0.42238275279E+02  0.00000000000E+00 0. -1.
        -11    1    3    3    0    0 -0.24187778428E+02  0.33230624456E+02 -0.46015988117E+02  0.61699223573E+02  0.00000000000E+00 0.  1.
         11    1    3    3    0    0  0.42295835144E+02  0.30074125558E+00 -0.17262507036E+01  0.42332116145E+02  0.00000000000E+00 0. -1.
         -4    1    1    2    0  502  0.21440997825E+02  0.14438392164E+00  0.97056849787E+02  0.99397028753E+02  0.00000000000E+00 0.  1.
<scales pt_clust_5="13000.00000" pt_clust_6="13000.00000" pt_clust_7="13000.00000" pt_clust_8="13000.00000" pt_clust_9="21.44148"></scales>
<clustering>
<clus scale="   21.441">  1  9  2 -1</clus>
<clus scale="   84.208">  7  8 -1 -1</clus>
<clus scale="   84.255">  5  6 -1 -1</clus>
<clus scale="   95.114">  2  7  1 -1</clus>
<clus scale="   21.441">  1  5  2 -1</clus>
</clustering>
</event>
<event>
 9    2  0.1592151E-004  0.1408397E+03  0.7546771E-02  0.1214860E+00
          2   -1    0    0  502    0 -0.00000000000E+00  0.00000000000E+00  0.71751976300E+03  0.71751976300E+03  0.00000000000E+00 0. -1.
         21   -1    0    0  501  502  0.00000000000E+00 -0.00000000000E+00 -0.46603832061E+02  0.46603832061E+02  0.00000000000E+00 0. -1.
         24    2    1    2    0    0 -0.65476411846E+02  0.47831791795E+02  0.23447847629E+03  0.26179016286E+03  0.83539767263E+02 0.  0.
         23    2    1    2    0    0  0.83052318567E+02 -0.12005845086E+03  0.30385625976E+03  0.35033548480E+03  0.95365644055E+02 0.  0.
        -11    1    3    3    0    0 -0.18712401092E+02  0.34714495598E+02  0.24859625990E+02  0.46618142001E+02  0.00000000000E+00 0.  1.
         12    1    3    3    0    0 -0.46764010754E+02  0.13117296197E+02  0.20961885029E+03  0.21517202086E+03  0.00000000000E+00 0. -1.
        -13    1    4    4    0    0  0.45847335293E+02 -0.37061441797E+02  0.21591667604E+03  0.22382032886E+03  0.00000000000E+00 0.  1.
         13    1    4    4    0    0  0.37204983275E+02 -0.82997009067E+02  0.87939583726E+02  0.12651515593E+03  0.00000000000E+00 0. -1.
          1    1    1    2  501    0 -0.17575906721E+02  0.72226659069E+02  0.13258119489E+03  0.15199794741E+03  0.00000000000E+00 0. -1.
<scales pt_clust_5="13000.00000" pt_clust_6="13000.00000" pt_clust_7="13000.00000" pt_clust_8="13000.00000" pt_clust_9="74.33440"></scales>
<clustering>
<clus scale="   74.334">  2  9  1 -1</clus>
<clus scale="   83.540">  5  6 -1 -1</clus>
<clus scale="   95.366">  7  8 -1 -1</clus>
<clus scale="  133.117">  1  5  2 -1</clus>
<clus scale="   74.334">  2  5  1 -1</clus>
</clustering>
</event>
<event>
 9    2  0.1592151E-004  0.1162743E+03  0.7546771E-02  0.1253005E+00
         21   -1    0    0  501  502  0.00000000000E+00  0.00000000000E+00  0.15170463015E+03  0.15170463015E+03  0.00000000000E+00 0.  1.
         -3   -1    0    0    0  501 -0.00000000000E+00 -0.00000000000E+00 -0.16549444970E+03  0.16549444970E+03  0.00000000000E+00 0.  1.
         23    2    1    2    0    0 -0.64859494448E+02 -0.87641748665E+02 -0.25811438927E+02  0.14360149241E+03  0.89818306113E+02 0.  0.
         24    2    1    2    0    0  0.38351598797E+02  0.15150963050E+02  0.30541165650E+02  0.94221544926E+02  0.79022401364E+02 0.  0.
        -13    1    4    4    0    0  0.61609106520E+02  0.94794836177E+01  0.10951515894E+02  0.63288848277E+02  0.00000000000E+00 0.  1.
         14    1    4    4    0    0 -0.23257507722E+02  0.56714794320E+01  0.19589649756E+02  0.30932696649E+02  0.00000000000E+00 0. -1.
        -11    1    3    3    0    0 -0.50329551443E+02 -0.21673583287E+02 -0.47641652327E+02  0.72612223471E+02  0.00000000000E+00 0.  1.
         11    1    3    3    0    0 -0.14529943004E+02 -0.65968165378E+02  0.21830213399E+02  0.70989268936E+02  0.00000000000E+00 0. -1.
         -4    1    1    2    0  502  0.26507895650E+02  0.72490785616E+02 -0.18519546278E+02  0.79376042515E+02  0.00000000000E+00 0.  1.
<scales pt_clust_5="13000.00000" pt_clust_6="13000.00000" pt_clust_7="13000.00000" pt_clust_8="13000.00000" pt_clust_9="77.18542"></scales>
<clustering>
<clus scale="   77.185">  1  9  2 -1</clus>
<clus scale="   79.022">  5  6 -1 -1</clus>
<clus scale="   89.818">  7  8 -1 -1</clus>
<clus scale="  108.152">  1  5  2 -1</clus>
<clus scale="   77.185">  1  5  2 -1</clus>
</clustering>
</event>
<event>
 9    2  0.1592151E-004  0.1192745E+03  0.7546771E-02  0.1253650E+00
         21   -1    0    0  501  502  0.00000000000E+00  0.00000000000E+00  0.16676016272E+03  0.16676016272E+03  0.00000000000E+00 0. -1.
          2   -1    0    0  502    0 -0.00000000000E+00 -0.00000000000E+00 -0.47917594804E+03  0.47917594804E+03  0.00000000000E+00 0. -1.
         24    2    1    2    0    0  0.15953405490E+02  0.55076251322E+02 -0.40448661606E+03  0.41640606907E+03  0.80602029632E+02 0.  0.
         23    2    1    2    0    0  0.22235653270E+02  0.45852435205E+02  0.38867129378E+02  0.10921529691E+03  0.88433349159E+02 0.  0.
        -13    1    3    3    0    0  0.40514128271E+02  0.10600904543E+02 -0.11269947310E+03  0.12022871955E+03  0.00000000000E+00 0.  1.
         14    1    3    3    0    0 -0.24560722781E+02  0.44475346778E+02 -0.29178714295E+03  0.29617734952E+03  0.00000000000E+00 0. -1.
        -11    1    4    4    0    0  0.54884829603E+02  0.14816085290E+02  0.24796689679E+02  0.62022066419E+02  0.00000000000E+00 0. -1.
         11    1    4    4    0    0 -0.32649176333E+02  0.31036349915E+02  0.14070439699E+02  0.47193230495E+02  0.00000000000E+00 0.  1.
          1    1    1    2  501    0 -0.38189058760E+02 -0.10092868653E+03  0.53203701363E+02  0.12031474478E+03  0.00000000000E+00 0. -1.
<scales pt_clust_5="13000.00000" pt_clust_6="13000.00000" pt_clust_7="13000.00000" pt_clust_8="13000.00000" pt_clust_9="80.03726"></scales>
<clustering>
<clus scale="   80.602">  5  6 -1 -1</clus>
<clus scale="   88.433">  7  8 -1 -1</clus>
<clus scale="   98.917">  2  5  1 -1</clus>
<clus scale="   80.037">  1  9  2 -1</clus>
<clus scale="   80.037">  1  5  2 -1</clus>
</clustering>
</event>
<event>
 9    2  0.1592151E-004  0.1427132E+03  0.7546771E-02  0.1225309E+00
          2   -1    0    0  502    0 -0.00000000000E+00  0.00000000000E+00  0.56426371100E+03  0.56426371100E+03  0.00000000000E+00 0. -1.
         21   -1    0    0  501  502  0.00000000000E+00 -0.00000000000E+00 -0.49025877322E+03  0.49025877322E+03  0.00000000000E+00 0. -1.
         24    2    1    2    0    0  0.25033808901E+02  0.59156866254E+02  0.41835867194E+03  0.43079009204E+03  0.80186648519E+02 0.  0.
         23    2    1    2    0    0 -0.12641507272E+03 -0.19823812980E+02  0.86125510857E+02  0.17973055646E+03  0.92258956932E+02 0.  0.
        -13    1    3    3    0    0  0.43709256527E+02  0.68915950100E+02  0.33845425734E+03  0.34815397685E+03  0.00000000000E+00 0.  1.
         14    1    3    3    0    0 -0.18675447626E+02 -0.97590838462E+01  0.79904414593E+02  0.82636115185E+02  0.00000000000E+00 0. -1.
        -11    1    4    4    0    0 -0.21736743159E+02 -0.47077561850E+00 -0.19908497328E+02  0.29479754048E+02  0.00000000000E+00 0.  1.
         11    1    4    4    0    0 -0.10467832956E+03 -0.19353037361E+02  0.10603400818E+03  0.15025080241E+03  0.00000000000E+00 0. -1.
          1    1    1    2  501    0  0.10138126382E+03 -0.39333053274E+02 -0.43047924501E+03  0.44400183572E+03  0.00000000000E+00 0. -1.
<scales pt_clust_5="13000.00000" pt_clust_6="13000.00000" pt_clust_7="13000.00000" pt_clust_8="13000.00000" pt_clust_9="108.88230"></scales>
<clustering>
<clus scale="   80.187">  5  6 -1 -1</clus>
<clus scale="   92.259">  7  8 -1 -1</clus>
<clus scale="  102.743">  1  5  2 -1</clus>
<clus scale="  108.882">  2  9  1 -1</clus>
<clus scale="  108.882">  2  5  1 -1</clus>
</clustering>
</event>
<event>
 9    2  0.1592151E-004  0.2668957E+03  0.7546771E-02  0.1113376E+00
         -1   -1    0    0    0  501 -0.00000000000E+00  0.00000000000E+00  0.86237041331E+03  0.86237041331E+03  0.00000000000E+00 0.  1.
         21   -1    0    0  501  502  0.00000000000E+00 -0.00000000000E+00 -0.35562096143E+03  0.35562096143E+03  0.00000000000E+00 0.  1.
         23    2    1    2    0    0  0.67274424754E+02  0.17142416595E+03  0.57395886472E+03  0.60950088394E+03  0.90279877255E+02 0.  0.
         24    2    1    2    0    0 -0.24473710954E+03 -0.28646426817E+03  0.52504341656E+01  0.38493365455E+03  0.78665886017E+02 0.  0.
        -11    1    4    4    0    0 -0.21967823367E+03 -0.26581277758E+03  0.26928768467E+02  0.34589032604E+03  0.00000000000E+00 0.  1.
         12    1    4    4    0    0 -0.25058875863E+02 -0.20651490583E+02 -0.21678334301E+02  0.39043328507E+02  0.00000000000E+00 0. -1.
        -11    1    3    3    0    0 -0.22447084150E+02  0.40352978904E+02  0.12240971584E+03  0.13082955715E+03  0.00000000000E+00 0. -1.
         11    1    3    3    0    0  0.89721508903E+02  0.13107118705E+03  0.45154914888E+03  0.47867132679E+03  0.00000000000E+00 0.  1.
         -2    1    1    2    0  502  0.17746268478E+03  0.11504010222E+03 -0.72459847001E+02  0.22355683625E+03  0.00000000000E+00 0.  1.
<scales pt_clust_5="13000.00000" pt_clust_6="13000.00000" pt_clust_7="13000.00000" pt_clust_8="13000.00000" pt_clust_9="255.03919"></scales>
<clustering>
<clus scale="   78.666">  5  6 -1 -1</clus>
<clus scale="   90.280">  7  8 -1 -1</clus>
<clus scale="  205.092">  1  7  2 -1</clus>
<clus scale="  255.039">  2  9  1 -1</clus>
<clus scale="  255.039">  2  5  1 -1</clus>
</clustering>
</event>
<event>
 9    2  0.1592151E-004  0.1701764E+03  0.7546771E-02  0.1178969E+00
         21   -1    0    0  501  502  0.00000000000E+00  0.00000000000E+00  0.28547817278E+03  0.28547817278E+03  0.00000000000E+00 0. -1.
          4   -1    0    0  502    0 -0.00000000000E+00 -0.00000000000E+00 -0.39853394109E+03  0.39853394109E+03  0.00000000000E+00 0. -1.
         23    2    1    2    0    0 -0.10240675077E+03  0.10347572651E+03 -0.32632046134E+03  0.36919877120E+03  0.92888753820E+02 0.  0.
         24    2    1    2    0    0  0.78776322515E+02 -0.99698650235E+02  0.66236399606E+02  0.16585031871E+03  0.83507710634E+02 0.  0.
        -13    1    4    4    0    0  0.70841838112E+02 -0.10757655536E+03  0.77216940045E+02  0.15017901691E+03  0.00000000000E+00 0.  1.
         14    1    4    4    0    0  0.79344844025E+01  0.78779051209E+01 -0.10980540439E+02  0.15671301801E+02  0.00000000000E+00 0. -1.
        -11    1    3    3    0    0 -0.83204769209E+02  0.34053900726E+02 -0.24279432651E+03  0.25890497631E+03  0.00000000000E+00 0. -1.
         11    1    3    3    0    0 -0.19201981565E+02  0.69421825786E+02 -0.83526134830E+02  0.11029379489E+03  0.00000000000E+00 0.  1.
          3    1    1    2  501    0  0.23630428259E+02 -0.37770762780E+01  0.14702829341E+03  0.14896302396E+03  0.00000000000E+00 0. -1.
<scales pt_clust_5="13000.00000" pt_clust_6="13000.00000" pt_clust_7="13000.00000" pt_clust_8="13000.00000" pt_clust_9="23.93039"></scales>
<clustering>
<clus scale="   23.930">  1  9  2 -1</clus>
<clus scale="   83.508">  5  6 -1 -1</clus>
<clus scale="   92.889">  7  8 -1 -1</clus>
<clus scale="  165.243">  1  5  2 -1</clus>
<clus scale="   23.930">  1  5  2 -1</clus>
</clustering>
</event>
<event>
 9    2  0.1592151E-004  0.3438488E+03  0.7546771E-02  0.1065486E+00
          2   -1    0    0  502    0 -0.00000000000E+00  0.00000000000E+00  0.17487627690E+04  0.17487627690E+04  0.00000000000E+00 0. -1.
         21   -1    0    0  501  502  0.00000000000E+00 -0.00000000000E+00 -0.15189699389E+03  0.15189699389E+03  0.00000000000E+00 0. -1.
         24    2    1    2    0    0  0.98373652968E+02  0.24411365577E+03  0.39607583065E+03  0.48204633677E+03  0.78890776639E+02 0.  0.
         23    2    1    2    0    0 -0.99014186532E+02 -0.46775176801E+03  0.57091777327E+03  0.75021731035E+03  0.91013094124E+02 0.  0.
        -11    1    3    3    0    0  0.54926154237E+02  0.45135102783E+02  0.10207663173E+03  0.12439332244E+03  0.00000000000E+00 0.  1.
         12    1    3    3    0    0  0.43447498731E+02  0.19897855298E+03  0.29399919892E+03  0.35765301433E+03  0.00000000000E+00 0. -1.
        -13    1    4    4    0    0 -0.29073432546E+02 -0.33000375252E+03  0.41058428650E+03  0.52756724451E+03  0.00000000000E+00 0.  1.
         13    1    4    4    0    0 -0.69940753986E+02 -0.13774801548E+03  0.16033348677E+03  0.22265006584E+03  0.00000000000E+00 0. -1.
          1    1    1    2  501    0  0.64053356378E+00  0.22363811224E+03  0.62987217121E+03  0.66839611578E+03  0.00000000000E+00 0. -1.
<scales pt_clust_5="13000.00000" pt_clust_6="13000.00000" pt_clust_7="13000.00000" pt_clust_8="13000.00000" pt_clust_9="223.63914"></scales>
<clustering>
<clus scale="   78.891">  5  6 -1 -1</clus>
<clus scale="   91.013">  7  8 -1 -1</clus>
<clus scale="  223.639">  2  9  1 -1</clus>
<clus scale="  340.841">  1  5  2 -1</clus>
<clus scale="  223.639">  2  5  1 -1</clus>
</clustering>
</event>
<event>
 9    2  0.1592151E-004  0.1410626E+03  0.7546771E-02  0.1214736E+00
          2   -1    0    0  502    0 -0.00000000000E+00  0.00000000000E+00  0.39180536961E+03  0.39180536961E+03  0.00000000000E+00 0. -1.
         21   -1    0    0  501  502  0.00000000000E+00 -0.00000000000E+00 -0.19104016927E+03  0.19104016927E+03  0.00000000000E+00 0.  1.
         24    2    1    2    0    0 -0.10893401648E+03  0.10237499480E+02  0.32777027533E+03  0.35477928190E+03  0.80396263168E+02 0.  0.
         23    2    1    2    0    0  0.62071972808E+02 -0.44552224718E+02 -0.11896202525E+03  0.16942973121E+03  0.93362946774E+02 0.  0.
        -11    1    3    3    0    0 -0.90158146949E+01 -0.25489904697E+02  0.42067396838E+02  0.50006859857E+02  0.00000000000E+00 0.  1.
         12    1    3    3    0    0 -0.99918201782E+02  0.35727404177E+02  0.28570287850E+03  0.30477242204E+03  0.00000000000E+00 0. -1.
        -11    1    4    4    0    0  0.29960591002E+02 -0.10658145211E+02 -0.11854692329E+03  0.12273795702E+03  0.00000000000E+00 0.  1.
         11    1    4    4    0    0  0.32111381806E+02 -0.33894079507E+02 -0.41510196216E+00  0.46691774187E+02  0.00000000000E+00 0. -1.
          1    1    1    2  501    0  0.46862043669E+02  0.34314725238E+02 -0.80430497375E+01  0.58636525768E+02  0.00000000000E+00 0. -1.
<scales pt_clust_5="13000.00000" pt_clust_6="13000.00000" pt_clust_7="13000.00000" pt_clust_8="13000.00000" pt_clust_9="58.08228"></scales>
<clustering>
<clus scale="   58.082">  2  9  1 -1</clus>
<clus scale="   80.396">  5  6 -1 -1</clus>
<clus scale="   93.363">  7  8 -1 -1</clus>
<clus scale="  132.837">  1  5  2 -1</clus>
<clus scale="   58.082">  2  5  1 -1</clus>
</clustering>
</event>
<event>
 9    2  0.1592151E-004  0.1691583E+03  0.7546771E-02  0.1178826E+00
          2   -1    0    0  502    0 -0.00000000000E+00  0.00000000000E+00  0.14402224505E+04  0.14402224505E+04  0.00000000000E+00 0. -1.
         21   -1    0    0  501  502  0.00000000000E+00 -0.00000000000E+00 -0.43643449508E+02  0.43643449508E+02  0.00000000000E+00 0. -1.
         24    2    1    2    0    0 -0.26084779167E+01  0.14715337226E+03  0.48366873978E+03  0.51377258976E+03  0.91465321415E+02 0.  0.
         23    2    1    2    0    0  0.12859302411E+03 -0.10693459670E+03  0.45438913410E+03  0.49288132402E+03  0.92148470233E+02 0.  0.
        -13    1    3    3    0    0  0.38353467691E+02  0.28575714543E+02  0.13415825021E+03  0.14242891577E+03  0.00000000000E+00 0.  1.
         14    1    3    3    0    0 -0.40961945608E+02  0.11857765772E+03  0.34951048957E+03  0.37134367399E+03  0.00000000000E+00 0. -1.
        -13    1    4    4    0    0  0.23878791849E+02 -0.33501703060E+02  0.33702456379E+02  0.53182857897E+02  0.00000000000E+00 0.  1.
         13    1    4    4    0    0  0.10471423226E+03 -0.73432893643E+02  0.42068667772E+03  0.43969846613E+03  0.00000000000E+00 0. -1.
          1    1    1    2  501    0 -0.12598454619E+03 -0.40218775561E+02  0.45852112715E+03  0.47721198626E+03  0.00000000000E+00 0. -1.
<scales pt_clust_5="13000.00000" pt_clust_6="13000.00000" pt_clust_7="13000.00000" pt_clust_8="13000.00000" pt_clust_9="132.24853"></scales>
<clustering>
<clus scale="   91.465">  5  6 -1 -1</clus>
<clus scale="   92.148">  7  8 -1 -1</clus>
<clus scale="  132.249">  2  9  1 -1</clus>
<clus scale="  168.787">  1  5  2 -1</clus>
<clus scale="  132.249">  2  5  1 -1</clus>
</clustering>
</event>
<event>
 9    2  0.1592151E-004  0.1283365E+03  0.7546771E-02  0.1233653E+00
         21   -1    0    0  501  502  0.00000000000E+00  0.00000000000E+00  0.10603440880E+03  0.10603440880E+03  0.00000000000E+00 0. -1.
          2   -1    0    0  502    0 -0.00000000000E+00 -0.00000000000E+00 -0.44984714971E+03  0.44984714971E+03  0.00000000000E+00 0. -1.
         24    2    1    2    0    0  0.85114486012E+02  0.38258554936E+02 -0.32101981399E+03  0.34366751984E+03  0.79658335806E+02 0.  0.
         23    2    1    2    0    0 -0.36963026899E+02 -0.78853666422E+02 -0.57967122470E+02  0.14007701542E+03  0.93151580207E+02 0.  0.
        -11    1    3    3    0    0  0.64854679587E+01 -0.21958032148E+02 -0.46547835788E+02  0.51874054082E+02  0.00000000000E+00 0.  1.
         12    1    3    3    0    0  0.78629018054E+02  0.60216587084E+02 -0.27447197820E+03  0.29179346575E+03  0.00000000000E+00 0. -1.
        -13    1    4    4    0    0  0.15274170219E+02 -0.36455062456E+02  0.13649082707E+02  0.41815897853E+02  0.00000000000E+00 0. -1.
         13    1    4    4    0    0 -0.52237197117E+02 -0.42398603966E+02 -0.71616205177E+02  0.98261117564E+02  0.00000000000E+00 0.  1.
          1    1    1    2  501    0 -0.48151459114E+02  0.40595111485E+02  0.35174195553E+02  0.72137023255E+02  0.00000000000E+00 0. -1.
<scales pt_clust_5="13000.00000" pt_clust_6="13000.00000" pt_clust_7="13000.00000" pt_clust_8="13000.00000" pt_clust_9="62.98036"></scales>
<clustering>
<clus scale="   62.980">  1  9  2 -1</clus>
<clus scale="   79.658">  5  6 -1 -1</clus>
<clus scale="   93.152">  7  8 -1 -1</clus>
<clus scale="  118.905">  2  5  1 -1</clus>
<clus scale="   62.980">  1  5  2 -1</clus>
</clustering>
</event>
<event>
 9    2  0.1592151E-004  0.1088507E+03  0.7546771E-02  0.1283881E+00
         21   -1    0    0  501  502  0.00000000000E+00  0.00000000000E+00  0.28170800414E+03  0.28170800414E+03  0.00000000000E+00 0.  1.
          4   -1    0    0  502    0 -0.00000000000E+00 -0.00000000000E+00 -0.83637995088E+02  0.83637995088E+02  0.00000000000E+00 0. -1.
         24    2    1    2    0    0  0.87554667253E+01  0.17071513660E+01 -0.43342067279E+02  0.84305242695E+02  0.71758390357E+02 0.  0.
         23    2    1    2    0    0 -0.15384749698E+02 -0.24313431749E+02  0.22760019041E+03  0.25373215902E+03  0.10839893154E+03 0.  0.
        -11    1    3    3    0    0  0.52075887917E+01 -0.34585086906E+02 -0.27749422088E+02  0.44646138058E+02  0.00000000000E+00 0.  1.
         12    1    3    3    0    0  0.35478779337E+01  0.36292238272E+02 -0.15592645191E+02  0.39659104637E+02  0.00000000000E+00 0. -1.
        -13    1    4    4    0    0 -0.56785083661E+02 -0.32824031882E+02  0.17057970864E+03  0.18275502673E+03  0.00000000000E+00 0.  1.
         13    1    4    4    0    0  0.41400333963E+02  0.85106001333E+01  0.57020481764E+02  0.70977132286E+02  0.00000000000E+00 0. -1.
          3    1    1    2  501    0  0.66292829728E+01  0.22606280383E+02  0.13811885925E+02  0.27308597516E+02  0.00000000000E+00 0. -1.
<scales pt_clust_5="13000.00000" pt_clust_6="13000.00000" pt_clust_7="13000.00000" pt_clust_8="13000.00000" pt_clust_9="23.55827"></scales>
<clustering>
<clus scale="   23.558">  1  9  2 -1</clus>
<clus scale="   71.758">  5  6 -1 -1</clus>
<clus scale="   72.439">  2  5  1 -1</clus>
<clus scale="  108.399">  7  8 -1 -1</clus>
<clus scale="   23.558">  1  5  2 -1</clus>
</clustering>
</event>
<event>
 9    2  0.1592151E-004  0.1070151E+03  0.7546771E-02  0.1272721E+00
         21   -1    0    0  501  502  0.00000000000E+00  0.00000000000E+00  0.17574328639E+03  0.17574328639E+03  0.00000000000E+00 0.  1.
         -3   -1    0    0    0  501 -0.00000000000E+00 -0.00000000000E+00 -0.23389658583E+03  0.23389658583E+03  0.00000000000E+00 0.  1.
         23    2    1    2    0    0 -0.38532202869E+02 -0.38742836337E+02 -0.18063451275E+03  0.21132309380E+03  0.95094083679E+02 0.  0.
         24    2    1    2    0    0 -0.24445866221E+02  0.39263828143E+02  0.76673940290E+02  0.12043985707E+03  0.80545747725E+02 0.  0.
        -13    1    4    4    0    0 -0.66285568638E+01  0.56743881880E+02  0.23643496592E+02  0.61828964313E+02  0.00000000000E+00 0.  1.
         14    1    4    4    0    0 -0.17817309357E+02 -0.17480053737E+02  0.53030443698E+02  0.58610892761E+02  0.00000000000E+00 0. -1.
        -13    1    3    3    0    0 -0.41231014175E+02  0.95614541390E+00 -0.16239705930E+03  0.16755212804E+03  0.00000000000E+00 0.  1.
         13    1    3    3    0    0  0.26988113052E+01 -0.39698981751E+02 -0.18237453451E+02  0.43770965753E+02  0.00000000000E+00 0. -1.
         -4    1    1    2    0  502  0.62978069090E+02 -0.52099180510E+00  0.45807273007E+02  0.77876921351E+02  0.00000000000E+00 0.  1.
<scales pt_clust_5="13000.00000" pt_clust_6="13000.00000" pt_clust_7="13000.00000" pt_clust_8="13000.00000" pt_clust_9="62.98022"></scales>
<clustering>
<clus scale="   62.980">  1  9  2 -1</clus>
<clus scale="   80.546">  5  6 -1 -1</clus>
<clus scale="   94.324">  1  5  2 -1</clus>
<clus scale="   95.094">  7  8 -1 -1</clus>
<clus scale="   62.980">  1  5  2 -1</clus>
</clustering>
</event>
<event>
 9    2  0.1592151E-004  0.9613772E+02  0.7546771E-02  0.1301210E+00
          2   -1    0    0  502    0 -0.00000000000E+00  0.00000000000E+00  0.78290704811E+03  0.78290704811E+03  0.00000000000E+00 0. -1.
         21   -1    0    0  501  502  0.00000000000E+00 -0.00000000000E+00 -0.28879784189E+02  0.28879784189E+02  0.00000000000E+00 0.  1.
         24    2    1    2    0    0 -0.55636867943E+01 -0.23254880205E+02  0.50154709102E+03  0.50744114270E+03  0.73316333273E+02 0.  0.
         23    2    1    2    0    0 -0.25061651364E+02 -0.35460755466E+01  0.76641442131E+02  0.12385895379E+03  0.93949288240E+02 0.  0.
        -13    1    3    3    0    0  0.26343494085E+02 -0.88876857330E+01  0.85098754700E+02  0.89525240517E+02  0.00000000000E+00 0.  1.
         14    1    3    3    0    0 -0.31907180879E+02 -0.14367194472E+02  0.41644833632E+03  0.41791590218E+03  0.00000000000E+00 0. -1.
        -11    1    4    4    0    0  0.32383562095E+02  0.18805882341E+01  0.65857169324E+01  0.33099899903E+02  0.00000000000E+00 0.  1.
         11    1    4    4    0    0 -0.57445213459E+02 -0.54266637808E+01  0.70055725199E+02  0.90759053886E+02  0.00000000000E+00 0. -1.
          1    1    1    2  501    0  0.30625338159E+02  0.26800955752E+02  0.17583873076E+03  0.18048673581E+03  0.00000000000E+00 0. -1.
<scales pt_clust_5="13000.00000" pt_clust_6="13000.00000" pt_clust_7="13000.00000" pt_clust_8="13000.00000" pt_clust_9="40.69649"></scales>
<clustering>
<clus scale="   40.696">  2  9  1 -1</clus>
<clus scale="   73.316">  5  6 -1 -1</clus>
<clus scale="   76.100">  1  5  2 -1</clus>
<clus scale="   93.949">  7  8 -1 -1</clus>
<clus scale="   40.696">  2  5  1 -1</clus>
</clustering>
</event>
<event>
 9    2  0.1592151E-004  0.1422701E+03  0.7546771E-02  0.1212700E+00
         21   -1    0    0  501  502  0.00000000000E+00  0.00000000000E+00  0.43051278032E+02  0.43051278032E+02  0.00000000000E+00 0.  1.
          2   -1    0    0  502    0 -0.00000000000E+00 -0.00000000000E+00 -0.76593321394E+03  0.76593321394E+03  0.00000000000E+00 0. -1.
         23    2    1    2    0    0  0.96700297240E+02 -0.67981226291E+02 -0.57584022630E+03  0.59468180270E+03  0.89900420614E+02 0.  0.
         24    2    1    2    0    0 -0.65569590857E+02  0.55358016064E+02 -0.85541162668E+02  0.14422570596E+03  0.78229678258E+02 0.  0.
        -13    1    4    4    0    0 -0.80467518388E+02  0.59436623318E+02 -0.78916900939E+02  0.12741903688E+03  0.00000000000E+00 0.  1.
         14    1    4    4    0    0  0.14897927531E+02 -0.40786072532E+01 -0.66242617295E+01  0.16806669072E+02  0.00000000000E+00 0. -1.
        -13    1    3    3    0    0  0.10310820662E+02  0.20413250480E+02 -0.13139195407E+03  0.13336738512E+03  0.00000000000E+00 0.  1.
         13    1    3    3    0    0  0.86389476579E+02 -0.88394476770E+02 -0.44444827223E+03  0.46131441758E+03  0.00000000000E+00 0. -1.
          1    1    1    2  501    0 -0.31130706383E+02  0.12623210226E+02 -0.61500546937E+02  0.70076983310E+02  0.00000000000E+00 0. -1.
<scales pt_clust_5="13000.00000" pt_clust_6="13000.00000" pt_clust_7="13000.00000" pt_clust_8="13000.00000" pt_clust_9="33.59265"></scales>
<clustering>
<clus scale="   33.593">  1  9  2 -1</clus>
<clus scale="   78.230">  5  6 -1 -1</clus>
<clus scale="   89.900">  7  8 -1 -1</clus>
<clus scale="  135.198">  1  5  2 -1</clus>
<clus scale="   33.593">  1  5  2 -1</clus>
</clustering>
</event>
<event>
 9    2  0.1592151E-004  0.1032954E+03  0.7546771E-02  0.1276534E+00
          2   -1    0    0  502    0 -0.00000000000E+00  0.00000000000E+00  0.30208138843E+03  0.30208138843E+03  0.00000000000E+00 0. -1.
         21   -1    0    0  501  502  0.00000000000E+00 -0.00000000000E+00 -0.86016276896E+02  0.86016276896E+02  0.00000000000E+00 0.  1.
         24    2    1    2    0    0 -0.25461054241E+02 -0.56795335019E+02  0.14700569193E+03  0.18057506338E+03  0.84396117746E+02 0.  0.
         23    2    1    2    0    0  0.12161802944E+02 -0.47446488011E+01 -0.24099650707E+02  0.95083053414E+02  0.91047090779E+02 0.  0.
        -11    1    3    3    0    0  0.19339945375E+02 -0.55347472783E+02  0.97684294767E+02  0.11392803726E+03  0.00000000000E+00 0.  1.
         12    1    3    3    0    0 -0.44800999616E+02 -0.14478622364E+01  0.49321397162E+02  0.66647026112E+02  0.00000000000E+00 0. -1.
        -13    1    4    4    0    0  0.87010090849E+01 -0.30152765961E+02  0.24712664702E+02  0.39945120489E+02  0.00000000000E+00 0.  1.
         13    1    4    4    0    0  0.34607938592E+01  0.25408117160E+02 -0.48812315409E+02  0.55137932925E+02  0.00000000000E+00 0. -1.
          1    1    1    2  501    0  0.13299251297E+02  0.61539983820E+02  0.93159070310E+02  0.11243954854E+03  0.00000000000E+00 0. -1.
<scales pt_clust_5="13000.00000" pt_clust_6="13000.00000" pt_clust_7="13000.00000" pt_clust_8="13000.00000" pt_clust_9="62.96065"></scales>
<clustering>
<clus scale="   62.961">  2  9  1 -1</clus>
<clus scale="   84.396">  5  6 -1 -1</clus>
<clus scale="   91.047">  7  8 -1 -1</clus>
<clus scale="   97.484">  1  5  2 -1</clus>
<clus scale="   62.961">  2  5  1 -1</clus>
</clustering>
</event>
<event>
 9    2  0.1592151E-004  0.9341155E+02  0.7546771E-02  0.1302708E+00
         21   -1    0    0  501  502  0.00000000000E+00  0.00000000000E+00  0.25552787219E+03  0.25552787219E+03  0.00000000000E+00 0.  1.
         -1   -1    0    0    0  501 -0.00000000000E+00 -0.00000000000E+00 -0.75010946344E+02  0.75010946344E+02  0.00000000000E+00 0.  1.
         23    2    1    2    0    0 -0.40286923113E+01 -0.23408650788E+02  0.10337057197E+02  0.95526688191E+02  0.91947257228E+02 0.  0.
         24    2    1    2    0    0  0.38398744185E+02 -0.32315798039E+02  0.77395800917E+02  0.12145422490E+03  0.79007875491E+02 0.  0.
        -11    1    4    4    0    0  0.56356292830E+02 -0.40753501302E+02  0.73585288573E+02  0.10125055212E+03  0.00000000000E+00 0.  1.
         12    1    4    4    0    0 -0.17957548645E+02  0.84377032631E+01  0.38105123434E+01  0.20203672785E+02  0.00000000000E+00 0. -1.
        -13    1    3    3    0    0  0.86663952075E+01 -0.52129621476E+02 -0.15270806095E+02  0.55007284607E+02  0.00000000000E+00 0.  1.
         13    1    3    3    0    0 -0.12695087519E+02  0.28720970687E+02  0.25607863293E+02  0.40519403583E+02  0.00000000000E+00 0. -1.
         -2    1    1    2    0  502 -0.34370051874E+02  0.55724448828E+02  0.92784067730E+02  0.11355790544E+03  0.00000000000E+00 0.  1.
<scales pt_clust_5="13000.00000" pt_clust_6="13000.00000" pt_clust_7="13000.00000" pt_clust_8="13000.00000" pt_clust_9="65.47148"></scales>
<clustering>
<clus scale="   65.471">  1  9  2 -1</clus>
<clus scale="   79.008">  5  6 -1 -1</clus>
<clus scale="   80.707">  1  5  2 -1</clus>
<clus scale="   91.947">  7  8 -1 -1</clus>
<clus scale="   65.471">  1  5  2 -1</clus>
</clustering>
</event>
<event>
 9    2  0.1592151E-004  0.9302894E+02  0.7546771E-02  0.1315767E+00
          2   -1    0    0  502    0 -0.00000000000E+00  0.00000000000E+00  0.27333037618E+03  0.27333037618E+03  0.00000000000E+00 0. -1.
         21   -1    0    0  501  502  0.00000000000E+00 -0.00000000000E+00 -0.70652038013E+02  0.70652038013E+02  0.00000000000E+00 0. -1.
         24    2    1    2    0    0  0.75991018417E+01  0.13651173939E+02  0.18800427158E+03  0.19907552546E+03  0.63571674545E+02 0.  0.
         23    2    1    2    0    0  0.20285946681E+02  0.23634317714E+02  0.77919567292E+01  0.97841537835E+02  0.92423759552E+02 0.  0.
        -11    1    3    3    0    0  0.30164559126E+02  0.29643907514E+01  0.47334933615E+02  0.56207509998E+02  0.00000000000E+00 0.  1.
         12    1    3    3    0    0 -0.22565457285E+02  0.10686783188E+02  0.14066933797E+03  0.14286801546E+03  0.00000000000E+00 0. -1.
        -11    1    4    4    0    0 -0.46601063471E+01 -0.33508402095E+02  0.10527320306E+02  0.35430976207E+02  0.00000000000E+00 0.  1.
         11    1    4    4    0    0  0.24946053028E+02  0.57142719809E+02 -0.27353635770E+01  0.62410561628E+02  0.00000000000E+00 0. -1.
          1    1    1    2  501    0 -0.27885048522E+02 -0.37285491654E+02  0.68821098515E+01  0.47065350896E+02  0.00000000000E+00 0. -1.
<scales pt_clust_5="13000.00000" pt_clust_6="13000.00000" pt_clust_7="13000.00000" pt_clust_8="13000.00000" pt_clust_9="46.55947"></scales>
<clustering>
<clus scale="   46.559">  2  9  1 -1</clus>
<clus scale="   63.572">  5  6 -1 -1</clus>
<clus scale="   64.448">  1  5  2 -1</clus>
<clus scale="   92.424">  7  8 -1 -1</clus>
<clus scale="   46.559">  2  5  1 -1</clus>
</clustering>
</event>
<event>
 9    2  0.1592151E-004  0.1129375E+03  0.7546771E-02  0.1256751E+00
          2   -1    0    0  502    0 -0.00000000000E+00  0.00000000000E+00  0.44476699159E+02  0.44476699159E+02  0.00000000000E+00 0. -1.
         21   -1    0    0  501  502  0.00000000000E+00 -0.00000000000E+00 -0.41275535132E+03  0.41275535132E+03  0.00000000000E+00 0. -1.
         24    2    1    2    0    0  0.46396476629E+02 -0.47515541482E+02 -0.87711034065E+02  0.14295294813E+03  0.91279571414E+02 0.  0.
         23    2    1    2    0    0 -0.16475097368E+02  0.51467499888E+02 -0.19669574391E+03  0.22514213924E+03  0.95286068296E+02 0.  0.
        -11    1    3    3    0    0  0.55599048614E+01 -0.35398923545E+02 -0.93344370887E+02  0.99985838530E+02  0.00000000000E+00 0.  1.
         12    1    3    3    0    0  0.40836571768E+02 -0.12116617936E+02  0.56333368223E+01  0.42967109604E+02  0.00000000000E+00 0. -1.
        -13    1    4    4    0    0 -0.48635835401E+02  0.37164392025E+02 -0.17082242113E+03  0.18145780799E+03  0.00000000000E+00 0. -1.
         13    1    4    4    0    0  0.32160738033E+02  0.14303107863E+02 -0.25873322789E+02  0.43684331259E+02  0.00000000000E+00 0.  1.
          1    1    1    2  501    0 -0.29921379260E+02 -0.39519584064E+01 -0.83871874182E+02  0.89136963101E+02  0.00000000000E+00 0. -1.
<scales pt_clust_5="13000.00000" pt_clust_6="13000.00000" pt_clust_7="13000.00000" pt_clust_8="13000.00000" pt_clust_9="30.18123"></scales>
<clustering>
<clus scale="   30.181">  2  9  1 -1</clus>
<clus scale="   91.280">  5  6 -1 -1</clus>
<clus scale="   95.286">  7  8 -1 -1</clus>
<clus scale="  109.578">  1  5  2 -1</clus>
<clus scale="   30.181">  2  5  1 -1</clus>
</clustering>
</event>
<event>
 9    2  0.1592151E-004  0.1045625E+03  0.7546771E-02  0.1275913E+00
          2   -1    0    0  502    0 -0.00000000000E+00  0.00000000000E+00  0.35771586637E+03  0.35771586637E+03  0.00000000000E+00 0. -1.
         21   -1    0    0  501  502  0.00000000000E+00 -0.00000000000E+00 -0.81165324922E+02  0.81165324922E+02  0.00000000000E+00 0.  1.
         23    2    1    2    0    0  0.63695819679E+01 -0.52542865923E+02  0.29312574779E+03  0.31144000217E+03  0.90944194980E+02 0.  0.
         24    2    1    2    0    0  0.21380143469E+02  0.44714969510E+02 -0.25220473393E+02  0.97340294345E+02  0.79890685264E+02 0.  0.
        -13    1    4    4    0    0 -0.24328295586E+02  0.13407981122E+02  0.12350527100E+02  0.30400254005E+02  0.00000000000E+00 0.  1.
         14    1    4    4    0    0  0.45708439055E+02  0.31306988388E+02 -0.37571000493E+02  0.66940040341E+02  0.00000000000E+00 0. -1.
        -11    1    3    3    0    0 -0.20852890651E+02 -0.64337223019E+01  0.11304278996E+02  0.24576870322E+02  0.00000000000E+00 0.  1.
         11    1    3    3    0    0  0.27222472619E+02 -0.46109143621E+02  0.28182146880E+03  0.28686313185E+03  0.00000000000E+00 0. -1.
          1    1    1    2  501    0 -0.27749725437E+02  0.78278964128E+01  0.86452670534E+01  0.30100894779E+02  0.00000000000E+00 0. -1.
<scales pt_clust_5="13000.00000" pt_clust_6="13000.00000" pt_clust_7="13000.00000" pt_clust_8="13000.00000" pt_clust_9="28.83268"></scales>
<clustering>
<clus scale="   28.833">  2  9  1 -1</clus>
<clus scale="   79.891">  5  6 -1 -1</clus>
<clus scale="   90.944">  7  8 -1 -1</clus>
<clus scale="   95.105">  2  5  1 -1</clus>
<clus scale="   28.833">  2  5  1 -1</clus>
</clustering>
</event>
<event>
 9    2  0.1592151E-004  0.9249775E+02  0.7546771E-02  0.1301619E+00
         21   -1    0    0  501  502  0.00000000000E+00  0.00000000000E+00  0.14597162426E+03  0.14597162426E+03  0.00000000000E+00 0. -1.
          2   -1    0    0  502    0 -0.00000000000E+00 -0.00000000000E+00 -0.47914043507E+03  0.47914043507E+03  0.00000000000E+00 0. -1.
         23    2    1    2    0    0 -0.14981937915E+02  0.13913371578E+02 -0.31248705562E+03  0.32596372853E+03  0.90477356365E+02 0.  0.
         24    2    1    2    0    0  0.27224974587E+02  0.70001621093E+02 -0.12414906460E+03  0.16536827975E+03  0.79323713415E+02 0.  0.
        -13    1    4    4    0    0  0.46561628339E+02  0.43606250315E+02 -0.40538999926E+02  0.75583733800E+02  0.00000000000E+00 0.  1.
         14    1    4    4    0    0 -0.19336653752E+02  0.26395370777E+02 -0.83610064678E+02  0.89784545954E+02  0.00000000000E+00 0. -1.
        -11    1    3    3    0    0  0.33990152609E+02  0.14037971479E+02 -0.75629821324E+02  0.84096759695E+02  0.00000000000E+00 0.  1.
         11    1    3    3    0    0 -0.48972090524E+02 -0.12459990142E+00 -0.23685723430E+03  0.24186696884E+03  0.00000000000E+00 0. -1.
          1    1    1    2  501    0 -0.12243036672E+02 -0.83914992670E+02  0.10346730941E+03  0.13378005105E+03  0.00000000000E+00 0. -1.
<scales pt_clust_5="13000.00000" pt_clust_6="13000.00000" pt_clust_7="13000.00000" pt_clust_8="13000.00000" pt_clust_9="84.80341"></scales>
<clustering>
<clus scale="   79.324">  5  6 -1 -1</clus>
<clus scale="   84.803">  1  9  2 -1</clus>
<clus scale="   84.803">  1  5  2 -1</clus>
<clus scale="   90.477">  7  8 -1 -1</clus>
<clus scale="   84.803">  1  5  2 -1</clus>
</clustering>
</event>
<event>
 9    2  0.1592151E-004  0.1121350E+03  0.7546771E-02  0.1261170E+00
         -1   -1    0    0    0  501 -0.00000000000E+00  0.00000000000E+00  0.89545219617E+03  0.89545219617E+03  0.00000000000E+00 0.  1.
         21   -1    0    0  501  502  0.00000000000E+00 -0.00000000000E+00 -0.24358323580E+02  0.24358323580E+02  0.00000000000E+00 0.  1.
         23    2    1    2    0    0  0.27379489083E+02  0.55913145085E+02  0.48841691273E+03  0.50085441294E+03  0.91804935107E+02 0.  0.
         24    2    1    2    0    0 -0.74964661184E+02 -0.29404792538E+02  0.29083054227E+03  0.31217218581E+03  0.79904486897E+02 0.  0.
        -13    1    4    4    0    0 -0.48100952120E+02  0.18406928662E+02  0.87083053781E+02  0.10117299478E+03  0.00000000000E+00 0.  1.
         14    1    4    4    0    0 -0.26863709065E+02 -0.47811721200E+02  0.20374748848E+03  0.21099919102E+03  0.00000000000E+00 0. -1.
        -13    1    3    3    0    0 -0.30459913344E+02  0.12719012060E+02  0.88098873718E+02  0.94079706308E+02  0.00000000000E+00 0.  1.
         13    1    3    3    0    0  0.57839402427E+02  0.43194133025E+02  0.40031803901E+03  0.40677470663E+03  0.00000000000E+00 0. -1.
         -2    1    1    2    0  502  0.47585172101E+02 -0.26508352547E+02  0.91846417595E+02  0.10678392100E+03  0.00000000000E+00 0.  1.
<scales pt_clust_5="13000.00000" pt_clust_6="13000.00000" pt_clust_7="13000.00000" pt_clust_8="13000.00000" pt_clust_9="54.47055"></scales>
<clustering>
<clus scale="   54.471">  2  9  1 -1</clus>
<clus scale="   79.904">  5  6 -1 -1</clus>
<clus scale="   91.805">  7  8 -1 -1</clus>
<clus scale="  102.620">  2  5  1 -1</clus>
<clus scale="   54.471">  2  5  1 -1</clus>
</clustering>
</event>
<event>
 9    2  0.1592151E-004  0.1197486E+03  0.7546771E-02  0.1247300E+00
         21   -1    0    0  501  502  0.00000000000E+00  0.00000000000E+00  0.23812423557E+03  0.23812423557E+03  0.00000000000E+00 0.  1.
         -3   -1    0    0    0  501 -0.00000000000E+00 -0.00000000000E+00 -0.12536651555E+03  0.12536651555E+03  0.00000000000E+00 0.  1.
         24    2    1    2    0    0  0.48640535954E+02  0.49921493633E+02  0.40075963631E+02  0.11323575094E+03  0.79738291717E+02 0.  0.
         23    2    1    2    0    0 -0.55482685794E+02 -0.74783628870E+02  0.13192822259E+03  0.18564010607E+03  0.91576599050E+02 0.  0.
        -11    1    3    3    0    0  0.12640425087E+02 -0.19948820240E+02  0.22661220430E+02  0.32730210612E+02  0.00000000000E+00 0.  1.
         12    1    3    3    0    0  0.36000110868E+02  0.69870313872E+02  0.17414743201E+02  0.80505540330E+02  0.00000000000E+00 0. -1.
        -13    1    4    4    0    0 -0.37902854462E+02  0.12742881069E+02  0.29039760342E+02  0.49419784247E+02  0.00000000000E+00 0. -1.
         13    1    4    4    0    0 -0.17579831332E+02 -0.87526509939E+02  0.10288846225E+03  0.13622032182E+03  0.00000000000E+00 0.  1.
         -4    1    1    2    0  502  0.68421498402E+01  0.24862135237E+02 -0.59246466211E+02  0.64614894115E+02  0.00000000000E+00 0.  1.
<scales pt_clust_5="13000.00000" pt_clust_6="13000.00000" pt_clust_7="13000.00000" pt_clust_8="13000.00000" pt_clust_9="25.78646"></scales>
<clustering>
<clus scale="   25.786">  1  9  2 -1</clus>
<clus scale="   79.738">  5  6 -1 -1</clus>
<clus scale="   91.577">  7  8 -1 -1</clus>
<clus scale="  110.958">  2  5  1 -1</clus>
<clus scale="   25.786">  1  5  2 -1</clus>
</clustering>
</event>
<event>
 9    2  0.1592151E-004  0.9803894E+02  0.7546771E-02  0.1289683E+00
         21   -1    0    0  501  502  0.00000000000E+00  0.00000000000E+00  0.63933917887E+02  0.63933917887E+02  0.00000000000E+00 0. -1.
          2   -1    0    0  502    0 -0.00000000000E+00 -0.00000000000E+00 -0.41628966195E+03  0.41628966195E+03  0.00000000000E+00 0. -1.
         23    2    1    2    0    0 -0.21476370342E+02 -0.35175493120E+02 -0.24268388992E+03  0.26210833962E+03  0.90037555918E+02 0.  0.
         24    2    1    2    0    0  0.53107461138E+02 -0.59230648277E+01 -0.13059415421E+03  0.16219243619E+03  0.79975421951E+02 0.  0.
        -11    1    4    4    0    0 -0.11490500663E+02 -0.25674732333E+02 -0.31097245931E+02  0.41931637106E+02  0.00000000000E+00 0.  1.
         12    1    4    4    0    0  0.64597961801E+02  0.19751667505E+02 -0.99496908283E+02  0.12026079908E+03  0.00000000000E+00 0. -1.
        -13    1    3    3    0    0 -0.40415454506E+02 -0.56761552846E+02 -0.15783458399E+03  0.17253126890E+03  0.00000000000E+00 0. -1.
         13    1    3    3    0    0  0.18939084164E+02  0.21586059726E+02 -0.84849305929E+02  0.89577070727E+02  0.00000000000E+00 0.  1.
          1    1    1    2  501    0 -0.31631090796E+02  0.41098557948E+02  0.20922300065E+02  0.55922804028E+02  0.00000000000E+00 0. -1.
<scales pt_clust_5="13000.00000" pt_clust_6="13000.00000" pt_clust_7="13000.00000" pt_clust_8="13000.00000" pt_clust_9="51.86152"></scales>
<clustering>
<clus scale="   51.862">  1  9  2 -1</clus>
<clus scale="   79.975">  5  6 -1 -1</clus>
<clus scale="   88.887">  1  5  2 -1</clus>
<clus scale="   90.038">  7  8 -1 -1</clus>
<clus scale="   51.862">  1  5  2 -1</clus>
</clustering>
</event>
<event>
 9    2  0.1592151E-004  0.2300719E+03  0.7546771E-02  0.1127337E+00
          2   -1    0    0  502    0 -0.00000000000E+00  0.00000000000E+00  0.29477939963E+04  0.29477939963E+04  0.00000000000E+00 0. -1.
         21   -1    0    0  501  502  0.00000000000E+00 -0.00000000000E+00 -0.42597035800E+02  0.42597035800E+02  0.00000000000E+00 0. -1.
         24    2    1    2    0    0  0.14799674574E+03 -0.10909077212E+03  0.10538858406E+04  0.10728339911E+04  0.80582716782E+02 0.  0.
         23    2    1    2    0    0 -0.29877216008E+03  0.59356972416E+02  0.93611303025E+03  0.98868987085E+03  0.91716964022E+02 0.  0.
        -11    1    3    3    0    0  0.82483292311E+02 -0.12659237761E+02  0.39574997574E+03  0.40445246087E+03  0.00000000000E+00 0.  1.
         12    1    3    3    0    0  0.65513453429E+02 -0.96431534356E+02  0.65813586483E+03  0.66838153024E+03  0.00000000000E+00 0. -1.
        -13    1    4    4    0    0 -0.20402159066E+03 -0.39175581664E+01  0.61387811067E+03  0.64690531879E+03  0.00000000000E+00 0. -1.
         13    1    4    4    0    0 -0.94750569419E+02  0.63274530582E+02  0.32223491959E+03  0.34178455206E+03  0.00000000000E+00 0.  1.
          1    1    1    2  501    0  0.15077541434E+03  0.49733799702E+02  0.91519808972E+03  0.92886717017E+03  0.00000000000E+00 0. -1.
<scales pt_clust_5="13000.00000" pt_clust_6="13000.00000" pt_clust_7="13000.00000" pt_clust_8="13000.00000" pt_clust_9="158.76619"></scales>
<clustering>
<clus scale="   80.583">  5  6 -1 -1</clus>
<clus scale="   91.717">  7  8 -1 -1</clus>
<clus scale="  158.766">  2  9  1 -1</clus>
<clus scale="  225.864">  1  5  2 -1</clus>
<clus scale="  158.766">  2  5  1 -1</clus>
</clustering>
</event>
<event>
 9    2  0.1592151E-004  0.1320227E+03  0.7546771E-02  0.1227726E+00
         21   -1    0    0  501  502  0.00000000000E+00  0.00000000000E+00  0.34340000952E+02  0.34340000952E+02  0.00000000000E+00 0. -1.
          2   -1    0    0  502    0 -0.00000000000E+00 -0.00000000000E+00 -0.82545835710E+03  0.82545835710E+03  0.00000000000E+00 0. -1.
         23    2    1    2    0    0  0.99515472075E+02 -0.41090280097E+02 -0.50436877160E+03  0.52381858851E+03  0.91685961879E+02 0.  0.
         24    2    1    2    0    0 -0.51723236203E+02  0.47996204167E+02 -0.10940133646E+03  0.15217500710E+03  0.78801342552E+02 0.  0.
        -11    1    4    4    0    0 -0.33672164175E+02  0.64420540658E+02 -0.10448006132E+03  0.12727884315E+03  0.00000000000E+00 0.  1.
         12    1    4    4    0    0 -0.18051072028E+02 -0.16424336491E+02 -0.49212751408E+01  0.24896163952E+02  0.00000000000E+00 0. -1.
        -13    1    3    3    0    0  0.48826630760E+02  0.15938406150E+02 -0.10113896699E+03  0.11343351932E+03  0.00000000000E+00 0.  1.
         13    1    3    3    0    0  0.50688841315E+02 -0.57028686246E+02 -0.40322980461E+03  0.41038506919E+03  0.00000000000E+00 0. -1.
          1    1    1    2  501    0 -0.47792235872E+02 -0.69059240700E+01 -0.17734824808E+03  0.18380476244E+03  0.00000000000E+00 0. -1.
<scales pt_clust_5="13000.00000" pt_clust_6="13000.00000" pt_clust_7="13000.00000" pt_clust_8="13000.00000" pt_clust_9="48.28863"></scales>
<clustering>
<clus scale="   48.289">  1  9  2 -1</clus>
<clus scale="   78.801">  5  6 -1 -1</clus>
<clus scale="   91.686">  7  8 -1 -1</clus>
<clus scale="  123.423">  1  5  2 -1</clus>
<clus scale="   48.289">  1  5  2 -1</clus>
</clustering>
</event>
<event>
 9    2  0.1592151E-004  0.1105583E+03  0.7546771E-02  0.1264349E+00
         21   -1    0    0  501  502  0.00000000000E+00  0.00000000000E+00  0.25481262581E+02  0.25481262581E+02  0.00000000000E+00 0.  1.
          4   -1    0    0  502    0 -0.00000000000E+00 -0.00000000000E+00 -0.63973541341E+03  0.63973541341E+03  0.00000000000E+00 0. -1.
         24    2    1    2    0    0 -0.66571359142E+02  0.27115159402E+02 -0.35420414682E+03  0.36999612801E+03  0.79180675620E+02 0.  0.
         23    2    1    2    0    0  0.33356736882E+02 -0.37557102405E+02 -0.20595824809E+03  0.23089199006E+03  0.91482803203E+02 0.  0.
        -11    1    3    3    0    0 -0.30537745017E+02 -0.19300024377E+00 -0.30538298497E+02  0.43187715787E+02  0.00000000000E+00 0.  1.
         12    1    3    3    0    0 -0.36033614125E+02  0.27308159646E+02 -0.32366584832E+03  0.32680841222E+03  0.00000000000E+00 0. -1.
        -11    1    4    4    0    0  0.21136848728E+02 -0.60175504357E+02 -0.79876841693E+02  0.10221627824E+03  0.00000000000E+00 0.  1.
         11    1    4    4    0    0  0.12219888154E+02  0.22618401952E+02 -0.12608140639E+03  0.12867571182E+03  0.00000000000E+00 0. -1.
          3    1    1    2  501    0  0.33214622260E+02  0.10441943003E+02 -0.54091755926E+02  0.64328557925E+02  0.00000000000E+00 0. -1.
<scales pt_clust_5="13000.00000" pt_clust_6="13000.00000" pt_clust_7="13000.00000" pt_clust_8="13000.00000" pt_clust_9="34.81731"></scales>
<clustering>
<clus scale="   34.817">  1  9  2 -1</clus>
<clus scale="   79.181">  5  6 -1 -1</clus>
<clus scale="   91.483">  7  8 -1 -1</clus>
<clus scale="  100.616">  2  5  1 -1</clus>
<clus scale="   34.817">  1  5  2 -1</clus>
</clustering>
</event>
<event>
 9    2  0.1592151E-004  0.3705184E+03  0.7546771E-02  0.1054495E+00
         21   -1    0    0  501  502  0.00000000000E+00  0.00000000000E+00  0.38251960397E+03  0.38251960397E+03  0.00000000000E+00 0.  1.
          2   -1    0    0  502    0 -0.00000000000E+00 -0.00000000000E+00 -0.31599136033E+03  0.31599136033E+03  0.00000000000E+00 0. -1.
         24    2    1    2    0    0  0.11613906797E+03  0.18279323629E+03  0.10029081127E+03  0.25155956356E+03  0.79512998001E+02 0.  0.
         23    2    1    2    0    0 -0.45193436482E+02  0.94117551501E+02  0.51208346891E+02  0.14873516488E+03  0.92732379879E+02 0.  0.
        -11    1    3    3    0    0  0.12805570008E+03  0.16006738085E+03  0.90844220363E+02  0.22421530079E+03  0.00000000000E+00 0.  1.
         12    1    3    3    0    0 -0.11916632117E+02  0.22725855439E+02  0.94465909093E+01  0.27344262767E+02  0.00000000000E+00 0. -1.
        -11    1    4    4    0    0 -0.59404418826E+02  0.35951737902E+02  0.55230918296E+02  0.88723541239E+02  0.00000000000E+00 0.  1.
         11    1    4    4    0    0  0.14210982344E+02  0.58165813600E+02 -0.40225714056E+01  0.60011623637E+02  0.00000000000E+00 0. -1.
          1    1    1    2  501    0 -0.70945631484E+02 -0.27691078779E+03 -0.84970914528E+02  0.29821623587E+03  0.00000000000E+00 0. -1.
<scales pt_clust_5="13000.00000" pt_clust_6="13000.00000" pt_clust_7="13000.00000" pt_clust_8="13000.00000" pt_clust_9="285.85477"></scales>
<clustering>
<clus scale="   79.513">  5  6 -1 -1</clus>
<clus scale="   92.732">  7  8 -1 -1</clus>
<clus scale="  137.380">  5  7 -1 -1</clus>
<clus scale="  285.855">  1  9  2 -1</clus>
<clus scale="  285.855">  1  5  2 -1</clus>
</clustering>
</event>
<event>
 9    2  0.1592151E-004  0.1263973E+03  0.7546771E-02  0.1233406E+00
         21   -1    0    0  501  502  0.00000000000E+00  0.00000000000E+00  0.12360831837E+03  0.12360831837E+03  0.00000000000E+00 0.  1.
          4   -1    0    0  502    0 -0.00000000000E+00 -0.00000000000E+00 -0.20453616309E+03  0.20453616309E+03  0.00000000000E+00 0. -1.
         24    2    1    2    0    0 -0.16963415214E+01 -0.78215167445E+02 -0.57208654966E+02  0.13429546223E+03  0.92962094316E+02 0.  0.
         23    2    1    2    0    0  0.33569364391E+02  0.92260620828E+02  0.20087538697E+02  0.13788301344E+03  0.94706345099E+02 0.  0.
        -13    1    3    3    0    0 -0.59930538907E+01 -0.89111949087E+02 -0.15090832046E+02  0.90579188431E+02  0.00000000000E+00 0.  1.
         14    1    3    3    0    0  0.42967123693E+01  0.10896781642E+02 -0.42117822920E+02  0.43716273799E+02  0.00000000000E+00 0. -1.
        -11    1    4    4    0    0 -0.20737678597E+02 -0.38267746706E+01  0.17624799577E+02  0.27483250865E+02  0.00000000000E+00 0. -1.
         11    1    4    4    0    0  0.54307042987E+02  0.96087395498E+02  0.24627391202E+01  0.11039976257E+03  0.00000000000E+00 0.  1.
          3    1    1    2  501    0 -0.31873022869E+02 -0.14045453382E+02 -0.43806728452E+02  0.55966005800E+02  0.00000000000E+00 0. -1.
<scales pt_clust_5="13000.00000" pt_clust_6="13000.00000" pt_clust_7="13000.00000" pt_clust_8="13000.00000" pt_clust_9="34.83053"></scales>
<clustering>
<clus scale="   34.831">  1  9  2 -1</clus>
<clus scale="   92.962">  5  6 -1 -1</clus>
<clus scale="   94.706">  7  8 -1 -1</clus>
<clus scale="  125.096">  2  5  1 -1</clus>
<clus scale="   34.831">  1  5  2 -1</clus>
</clustering>
</event>
<event>
 9    2  0.1592151E-004  0.9485440E+02  0.7546771E-02  0.1301289E+00
         21   -1    0    0  501  502  0.00000000000E+00  0.00000000000E+00  0.17687003400E+03  0.17687003400E+03  0.00000000000E+00 0.  1.
          2   -1    0    0  502    0 -0.00000000000E+00 -0.00000000000E+00 -0.24065075799E+03  0.24065075799E+03  0.00000000000E+00 0. -1.
         24    2    1    2    0    0  0.27053494672E+01 -0.90501541586E+01 -0.20020554998E+03  0.21514908033E+03  0.78215345815E+02 0.  0.
         23    2    1    2    0    0 -0.65751385953E+01  0.40991864978E+02  0.59111451759E+02  0.11863040767E+03  0.94103371101E+02 0.  0.
        -11    1    3    3    0    0 -0.36645241915E+02  0.39329497251E+01 -0.10628789353E+03  0.11249648065E+03  0.00000000000E+00 0.  1.
         12    1    3    3    0    0  0.39350591382E+02 -0.12983103884E+02 -0.93917656451E+02  0.10265259968E+03  0.00000000000E+00 0. -1.
        -13    1    4    4    0    0 -0.43071749716E+02  0.10262568691E+02  0.21527891591E+01  0.44329791798E+02  0.00000000000E+00 0. -1.
         13    1    4    4    0    0  0.36496611120E+02  0.30729296287E+02  0.56958662600E+02  0.74300615871E+02  0.00000000000E+00 0.  1.
          1    1    1    2  501    0  0.38697891281E+01 -0.31941710820E+02  0.77313374234E+02  0.83741303987E+02  0.00000000000E+00 0. -1.
<scales pt_clust_5="13000.00000" pt_clust_6="13000.00000" pt_clust_7="13000.00000" pt_clust_8="13000.00000" pt_clust_9="32.17527"></scales>
<clustering>
<clus scale="   32.175">  1  9  2 -1</clus>
<clus scale="   78.215">  5  6 -1 -1</clus>
<clus scale="   79.117">  2  5  1 -1</clus>
<clus scale="   94.103">  7  8 -1 -1</clus>
<clus scale="   32.175">  1  5  2 -1</clus>
</clustering>
</event>
<event>
 9    2  0.1592151E-004  0.1207322E+03  0.7546771E-02  0.1243461E+00
          2   -1    0    0  502    0 -0.00000000000E+00  0.00000000000E+00  0.35353296327E+03  0.35353296327E+03  0.00000000000E+00 0. -1.
         21   -1    0    0  501  502  0.00000000000E+00 -0.00000000000E+00 -0.14809754090E+03  0.14809754090E+03  0.00000000000E+00 0. -1.
         23    2    1    2    0    0  0.44751778367E+02 -0.60695210435E+02  0.27167407273E+03  0.29614980690E+03  0.90616091839E+02 0.  0.
         24    2    1    2    0    0 -0.69639863322E+02  0.97737394462E+02 -0.64362869923E+02  0.16081461705E+03  0.85536268290E+02 0.  0.
        -13    1    4    4    0    0 -0.38801038481E+02 -0.54624694161E+01 -0.23008014863E+02  0.45439277143E+02  0.00000000000E+00 0.  1.
         14    1    4    4    0    0 -0.30838824841E+02  0.10319986388E+03 -0.41354855060E+02  0.11537533991E+03  0.00000000000E+00 0. -1.
        -13    1    3    3    0    0  0.66346729503E+02 -0.20339001820E+02  0.13142052142E+03  0.14861667794E+03  0.00000000000E+00 0.  1.
         13    1    3    3    0    0 -0.21594951136E+02 -0.40356208615E+02  0.14025355131E+03  0.14753312897E+03  0.00000000000E+00 0. -1.
          1    1    1    2  501    0  0.24888084955E+02 -0.37042184027E+02 -0.18757804334E+01  0.44666080222E+02  0.00000000000E+00 0. -1.
<scales pt_clust_5="13000.00000" pt_clust_6="13000.00000" pt_clust_7="13000.00000" pt_clust_8="13000.00000" pt_clust_9="44.62668"></scales>
<clustering>
<clus scale="   44.627">  2  9  1 -1</clus>
<clus scale="   85.536">  5  6 -1 -1</clus>
<clus scale="   90.616">  7  8 -1 -1</clus>
<clus scale="  116.968">  2  5  1 -1</clus>
<clus scale="   44.627">  2  5  1 -1</clus>
</clustering>
</event>
<event>
 9    2  0.1592151E-004  0.1421493E+03  0.7546771E-02  0.1215431E+00
          2   -1    0    0  502    0 -0.00000000000E+00  0.00000000000E+00  0.28189667110E+03  0.28189667110E+03  0.00000000000E+00 0. -1.
         21   -1    0    0  501  502  0.00000000000E+00 -0.00000000000E+00 -0.12066120582E+03  0.12066120582E+03  0.00000000000E+00 0.  1.
         23    2    1    2    0    0 -0.20293536897E+02  0.11299137264E+03  0.13855831566E+03  0.20735565713E+03  0.10304893873E+03 0.  0.
         24    2    1    2    0    0 -0.17176845726E+02 -0.82300881670E+02  0.61833351466E+02  0.13291944565E+03  0.82314862121E+02 0.  0.
        -13    1    4    4    0    0 -0.27996640553E+02  0.18125640836E+01  0.15458953765E+00  0.28055679795E+02  0.00000000000E+00 0.  1.
         14    1    4    4    0    0  0.10819794827E+02 -0.84113445754E+02  0.61678761928E+02  0.10486376586E+03  0.00000000000E+00 0. -1.
        -13    1    3    3    0    0 -0.53689795146E+02  0.10770461242E+03  0.11133749524E+03  0.16394790479E+03  0.00000000000E+00 0.  1.
         13    1    3    3    0    0  0.33396258249E+02  0.52867602281E+01  0.27220820424E+02  0.43407752341E+02  0.00000000000E+00 0. -1.
          1    1    1    2  501    0  0.37470382623E+02 -0.30690490973E+02 -0.39156201854E+02  0.62282774133E+02  0.00000000000E+00 0. -1.
<scales pt_clust_5="13000.00000" pt_clust_6="13000.00000" pt_clust_7="13000.00000" pt_clust_8="13000.00000" pt_clust_9="48.43486"></scales>
<clustering>
<clus scale="   48.435">  2  9  1 -1</clus>
<clus scale="   82.315">  5  6 -1 -1</clus>
<clus scale="  103.049">  7  8 -1 -1</clus>
<clus scale="  127.918">  2  5  1 -1</clus>
<clus scale="   48.435">  2  5  1 -1</clus>
</clustering>
</event>
<event>
 9    2  0.1592151E-004  0.1225520E+03  0.7546771E-02  0.1243556E+00
         21   -1    0    0  501  502  0.00000000000E+00  0.00000000000E+00  0.23700227196E+03  0.23700227196E+03  0.00000000000E+00 0. -1.
          4   -1    0    0  502    0 -0.00000000000E+00 -0.00000000000E+00 -0.15771385011E+03  0.15771385011E+03  0.00000000000E+00 0. -1.
         24    2    1    2    0    0 -0.15375623735E+02 -0.82638034860E+02 -0.10361058254E+03  0.15593092811E+03  0.80708406728E+02 0.  0.
         23    2    1    2    0    0  0.22305738380E+02  0.33489431515E+02  0.13213429277E+03  0.16778753451E+03  0.95258057011E+02 0.  0.
        -13    1    3    3    0    0 -0.33141612632E+02 -0.43564810278E+02 -0.13891806985E+02  0.56473369686E+02  0.00000000000E+00 0.  1.
         14    1    3    3    0    0  0.17765988897E+02 -0.39073224582E+02 -0.89718775557E+02  0.99457558426E+02  0.00000000000E+00 0. -1.
        -11    1    4    4    0    0 -0.49014887506E+00  0.49112483997E+02  0.21256194459E+02  0.53517306857E+02  0.00000000000E+00 0.  1.
         11    1    4    4    0    0  0.22795887255E+02 -0.15623052482E+02  0.11087809831E+03  0.11427022766E+03  0.00000000000E+00 0. -1.
          3    1    1    2  501    0 -0.69301146444E+01  0.49148603344E+02  0.50764711630E+02  0.70997659444E+02  0.00000000000E+00 0. -1.
<scales pt_clust_5="13000.00000" pt_clust_6="13000.00000" pt_clust_7="13000.00000" pt_clust_8="13000.00000" pt_clust_9="49.63478"></scales>
<clustering>
<clus scale="   49.635">  1  9  2 -1</clus>
<clus scale="   80.708">  5  6 -1 -1</clus>
<clus scale="   95.258">  7  8 -1 -1</clus>
<clus scale="  111.619">  2  5  1 -1</clus>
<clus scale="   49.635">  1  5  2 -1</clus>
</clustering>
</event>
<event>
 9    2  0.1592151E-004  0.2057704E+03  0.7546771E-02  0.1158498E+00
          2   -1    0    0  502    0 -0.00000000000E+00  0.00000000000E+00  0.60725785987E+03  0.60725785987E+03  0.00000000000E+00 0. -1.
         21   -1    0    0  501  502  0.00000000000E+00 -0.00000000000E+00 -0.27297832317E+03  0.27297832317E+03  0.00000000000E+00 0. -1.
         23    2    1    2    0    0 -0.72805606211E+02  0.94703588842E+02 -0.62008157052E+02  0.16180295490E+03  0.89809568741E+02 0.  0.
         24    2    1    2    0    0  0.35649650202E+02 -0.27083868797E+03  0.44837642376E+03  0.53103692613E+03  0.79588360143E+02 0.  0.
        -13    1    4    4    0    0 -0.16928662744E+02 -0.85673693169E+02  0.97969059805E+02  0.13124213501E+03  0.00000000000E+00 0.  1.
         14    1    4    4    0    0  0.52578312946E+02 -0.18516499480E+03  0.35040736395E+03  0.39979479112E+03  0.00000000000E+00 0. -1.
        -11    1    3    3    0    0 -0.85156510242E+01  0.82046323048E+02 -0.45614537237E+02  0.94259224723E+02  0.00000000000E+00 0.  1.
         11    1    3    3    0    0 -0.64289955186E+02  0.12657265794E+02 -0.16393619815E+02  0.67543730175E+02  0.00000000000E+00 0. -1.
          1    1    1    2  501    0  0.37155956008E+02  0.17613509913E+03 -0.52088730007E+02  0.18739630200E+03  0.00000000000E+00 0. -1.
<scales pt_clust_5="13000.00000" pt_clust_6="13000.00000" pt_clust_7="13000.00000" pt_clust_8="13000.00000" pt_clust_9="189.75545"></scales>
<clustering>
<clus scale="   79.588">  5  6 -1 -1</clus>
<clus scale="   89.810">  7  8 -1 -1</clus>
<clus scale="  149.450">  1  7  2 -1</clus>
<clus scale="  189.755">  2  9  1 -1</clus>
<clus scale="  189.755">  2  5  1 -1</clus>
</clustering>
</event>
<event>
 9    2  0.1592151E-004  0.1027753E+03  0.7546771E-02  0.1278263E+00
         21   -1    0    0  501  502  0.00000000000E+00  0.00000000000E+00  0.12227123958E+03  0.12227123958E+03  0.00000000000E+00 0.  1.
          2   -1    0    0  502    0 -0.00000000000E+00 -0.00000000000E+00 -0.20562182753E+03  0.20562182753E+03  0.00000000000E+00 0. -1.
         23    2    1    2    0    0  0.76745219428E+01  0.43577945470E+02 -0.14529128287E+03  0.17688446657E+03  0.90667645927E+02 0.  0.
         24    2    1    2    0    0 -0.25861921681E+02 -0.65492272280E+02  0.42769397736E+02  0.11667846998E+03  0.82623043111E+02 0.  0.
        -13    1    4    4    0    0 -0.46630436128E+02 -0.28286974015E+02  0.49363765536E+02  0.73561755147E+02  0.00000000000E+00 0.  1.
         14    1    4    4    0    0  0.20768514447E+02 -0.37205298265E+02 -0.65943678002E+01  0.43116714833E+02  0.00000000000E+00 0. -1.
        -13    1    3    3    0    0 -0.41515333798E+02  0.21559141250E+02 -0.61761477427E+02  0.77477736194E+02  0.00000000000E+00 0.  1.
         13    1    3    3    0    0  0.49189855741E+02  0.22018804221E+02 -0.83529805441E+02  0.99406730376E+02  0.00000000000E+00 0. -1.
          1    1    1    2  501    0  0.18187399738E+02  0.21914326809E+02  0.19171297184E+02  0.34330130563E+02  0.00000000000E+00 0. -1.
<scales pt_clust_5="13000.00000" pt_clust_6="13000.00000" pt_clust_7="13000.00000" pt_clust_8="13000.00000" pt_clust_9="28.47840"></scales>
<clustering>
<clus scale="   28.478">  1  9  2 -1</clus>
<clus scale="   82.623">  5  6 -1 -1</clus>
<clus scale="   90.668">  7  8 -1 -1</clus>
<clus scale="   95.753">  1  5  2 -1</clus>
<clus scale="   28.478">  1  5  2 -1</clus>
</clustering>
</event>
<event>
 9    2  0.1592151E-004  0.3829235E+03  0.7546771E-02  0.1050208E+00
         21   -1    0    0  501  502  0.00000000000E+00  0.00000000000E+00  0.23009542201E+03  0.23009542201E+03  0.00000000000E+00 0. -1.
          2   -1    0    0  502    0 -0.00000000000E+00 -0.00000000000E+00 -0.27756777940E+04  0.27756777940E+04  0.00000000000E+00 0. -1.
         24    2    1    2    0    0 -0.37880113115E+03 -0.59499705807E+02 -0.55908414119E+03  0.68174126392E+03  0.71871844658E+02 0.  0.
         23    2    1    2    0    0  0.35483085191E+03 -0.17868800351E+03 -0.96037406713E+02  0.41847426821E+03  0.89795287196E+02 0.  0.
        -13    1    3    3    0    0 -0.62782749612E+02  0.14863289146E+02 -0.75835544752E+02  0.99567167585E+02  0.00000000000E+00 0.  1.
         14    1    3    3    0    0 -0.31601838153E+03 -0.74362994953E+02 -0.48324859644E+03  0.58217409634E+03  0.00000000000E+00 0. -1.
        -13    1    4    4    0    0  0.11501379024E+03 -0.28384605315E+02  0.33324097394E+01  0.11851144552E+03  0.00000000000E+00 0.  1.
         13    1    4    4    0    0  0.23981706167E+03 -0.15030339819E+03 -0.99369816452E+02  0.29996282269E+03  0.00000000000E+00 0. -1.
          1    1    1    2  501    0  0.23970279239E+02  0.23818770931E+03 -0.18904608241E+04  0.19055576839E+04  0.00000000000E+00 0. -1.
<scales pt_clust_5="13000.00000" pt_clust_6="13000.00000" pt_clust_7="13000.00000" pt_clust_8="13000.00000" pt_clust_9="239.39093"></scales>
<clustering>
<clus scale="   71.872">  5  6 -1 -1</clus>
<clus scale="   89.795">  7  8 -1 -1</clus>
<clus scale="  239.391">  1  9  2 -1</clus>
<clus scale="  379.121">  2  5  1 -1</clus>
<clus scale="  239.391">  1  5  2 -1</clus>
</clustering>
</event>
<event>
 9    2  0.1592151E-004  0.4004631E+03  0.7546771E-02  0.1098055E+00
          2   -1    0    0  502    0 -0.00000000000E+00  0.00000000000E+00  0.55390261559E+03  0.55390261559E+03  0.00000000000E+00 0. -1.
         21   -1    0    0  501  502  0.00000000000E+00 -0.00000000000E+00 -0.35950486491E+03  0.35950486491E+03  0.00000000000E+00 0. -1.
         24    2    1    2    0    0  0.20543955002E+02 -0.32034304336E+02  0.15063344178E+02  0.91227040698E+02  0.81530472065E+02 0.  0.
         23    2    1    2    0    0  0.14881423599E+03 -0.34249101545E+03  0.35525110174E+02  0.38671227136E+03  0.94013695121E+02 0.  0.
        -11    1    3    3    0    0  0.51742420265E+02 -0.12829138718E+02  0.77720707012E+01  0.53872719795E+02  0.00000000000E+00 0.  1.
         12    1    3    3    0    0 -0.31198465263E+02 -0.19205165618E+02  0.72912734765E+01  0.37354320903E+02  0.00000000000E+00 0. -1.
        -11    1    4    4    0    0  0.13045562900E+03 -0.33255048552E+03  0.15156132487E+02  0.35754468939E+03  0.00000000000E+00 0. -1.
         11    1    4    4    0    0  0.18358606991E+02 -0.99405299249E+01  0.20368977687E+02  0.29167581968E+02  0.00000000000E+00 0.  1.
          1    1    1    2  501    0 -0.16935819099E+03  0.37452531978E+03  0.14380929633E+03  0.43546816844E+03  0.00000000000E+00 0. -1.
<scales pt_clust_5="13000.00000" pt_clust_6="13000.00000" pt_clust_7="13000.00000" pt_clust_8="13000.00000" pt_clust_9="389.27150"></scales>
<clustering>
<clus scale="   81.530">  5  6 -1 -1</clus>
<clus scale="   89.975">  1  5  2 -1</clus>
<clus scale="   94.014">  7  8 -1 -1</clus>
<clus scale="  389.272">  2  9  1 -1</clus>
<clus scale="  389.272">  2  5  1 -1</clus>
</clustering>
</event>
<event>
 9    2  0.1592151E-004  0.1483206E+03  0.7546771E-02  0.1229771E+00
         21   -1    0    0  501  502  0.00000000000E+00  0.00000000000E+00  0.18007074983E+03  0.18007074983E+03  0.00000000000E+00 0. -1.
          2   -1    0    0  502    0 -0.00000000000E+00 -0.00000000000E+00 -0.28200058398E+03  0.28200058398E+03  0.00000000000E+00 0. -1.
         24    2    1    2    0    0 -0.11543339161E+02  0.21564924302E+02 -0.35088512266E+02  0.90514060043E+02  0.79770274748E+02 0.  0.
         23    2    1    2    0    0  0.62820010648E+02 -0.12284555958E+03 -0.15574411283E+03  0.22736722433E+03  0.91663737489E+02 0.  0.
        -11    1    3    3    0    0 -0.32785281615E+02 -0.14168527472E+01 -0.46749189217E+02  0.57117150268E+02  0.00000000000E+00 0.  1.
         12    1    3    3    0    0  0.21241942454E+02  0.22981777049E+02  0.11660676952E+02  0.33396909775E+02  0.00000000000E+00 0. -1.
        -11    1    4    4    0    0  0.34134934403E+02 -0.81951028678E+02 -0.15355112530E+03  0.17736716982E+03  0.00000000000E+00 0. -1.
         11    1    4    4    0    0  0.28685076245E+02 -0.40894530900E+02 -0.21929875326E+01  0.50000054510E+02  0.00000000000E+00 0.  1.
          1    1    1    2  501    0 -0.51276671486E+02  0.10128063528E+03  0.88902790945E+02  0.14419004944E+03  0.00000000000E+00 0. -1.
<scales pt_clust_5="13000.00000" pt_clust_6="13000.00000" pt_clust_7="13000.00000" pt_clust_8="13000.00000" pt_clust_9="116.60513"></scales>
<clustering>
<clus scale="   79.770">  5  6 -1 -1</clus>
<clus scale="   83.436">  2  5  1 -1</clus>
<clus scale="   91.664">  7  8 -1 -1</clus>
<clus scale="  116.605">  1  9  2 -1</clus>
<clus scale="  116.605">  1  5  2 -1</clus>
</clustering>
</event>
<event>
 9    2  0.1592151E-004  0.1265845E+03  0.7546771E-02  0.1253039E+00
         21   -1    0    0  501  502  0.00000000000E+00  0.00000000000E+00  0.52450028301E+03  0.52450028301E+03  0.00000000000E+00 0. -1.
          2   -1    0    0  502    0 -0.00000000000E+00 -0.00000000000E+00 -0.46559586421E+02  0.46559586421E+02  0.00000000000E+00 0. -1.
         24    2    1    2    0    0 -0.23333530957E+02 -0.43131433556E+01  0.74699307472E+02  0.11223249028E+03  0.80331117670E+02 0.  0.
         23    2    1    2    0    0 -0.56449367813E+02 -0.43824392227E+02  0.15859548374E+03  0.19703709612E+03  0.92541781403E+02 0.  0.
        -13    1    3    3    0    0 -0.30913457680E+02  0.88256147724E+01 -0.37168363506E+01  0.32362759683E+02  0.00000000000E+00 0.  1.
         14    1    3    3    0    0  0.75799267230E+01 -0.13138758128E+02  0.78416143823E+02  0.79869730601E+02  0.00000000000E+00 0. -1.
        -13    1    4    4    0    0 -0.76941501335E+02 -0.36144187827E+02  0.84829796038E+02  0.12009367692E+03  0.00000000000E+00 0. -1.
         13    1    4    4    0    0  0.20492133522E+02 -0.76802044003E+01  0.73765687697E+02  0.76943419195E+02  0.00000000000E+00 0.  1.
          1    1    1    2  501    0  0.79782898770E+02  0.48137535583E+02  0.24464590538E+03  0.26179028303E+03  0.00000000000E+00 0. -1.
<scales pt_clust_5="13000.00000" pt_clust_6="13000.00000" pt_clust_7="13000.00000" pt_clust_8="13000.00000" pt_clust_9="86.36935"></scales>
<clustering>
<clus scale="   80.331">  5  6 -1 -1</clus>
<clus scale="   83.762">  2  5  1 -1</clus>
<clus scale="   86.369">  1  9  2 -1</clus>
<clus scale="   92.542">  7  8 -1 -1</clus>
<clus scale="   86.369">  1  5  2 -1</clus>
</clustering>
</event>
<event>
 9    2  0.1592151E-004  0.1393252E+03  0.7546771E-02  0.1224617E+00
          4   -1    0    0  502    0 -0.00000000000E+00  0.00000000000E+00  0.39178785362E+03  0.39178785362E+03  0.00000000000E+00 0. -1.
         21   -1    0    0  501  502  0.00000000000E+00 -0.00000000000E+00 -0.13113834045E+03  0.13113834045E+03  0.00000000000E+00 0. -1.
         24    2    1    2    0    0 -0.75874617124E+02  0.12383403584E+02  0.23861620615E+03  0.26360416127E+03  0.81481002674E+02 0.  0.
         23    2    1    2    0    0 -0.52752443508E+01 -0.10156556831E+03  0.29292341782E+02  0.13852694967E+03  0.89377187409E+02 0.  0.
        -13    1    3    3    0    0 -0.41003078595E+02  0.20022135662E+02  0.36703828113E+02  0.58560305403E+02  0.00000000000E+00 0.  1.
         14    1    3    3    0    0 -0.34871538529E+02 -0.76387320773E+01  0.20191237803E+03  0.20504385587E+03  0.00000000000E+00 0. -1.
        -13    1    4    4    0    0  0.35570650693E+02 -0.13581029445E+02  0.12544183487E+02  0.40088303667E+02  0.00000000000E+00 0.  1.
         13    1    4    4    0    0 -0.40845895044E+02 -0.87984538862E+02  0.16748158295E+02  0.98438646003E+02  0.00000000000E+00 0. -1.
          3    1    1    2  501    0  0.81149861475E+02  0.89182164722E+02 -0.72590347525E+01  0.12079508313E+03  0.00000000000E+00 0. -1.
<scales pt_clust_5="13000.00000" pt_clust_6="13000.00000" pt_clust_7="13000.00000" pt_clust_8="13000.00000" pt_clust_9="106.87945"></scales>
<clustering>
<clus scale="   81.481">  5  6 -1 -1</clus>
<clus scale="   89.377">  7  8 -1 -1</clus>
<clus scale="  112.024">  1  5  2 -1</clus>
<clus scale="  106.879">  2  9  1 -1</clus>
<clus scale="  106.879">  2  5  1 -1</clus>
</clustering>
</event>
<event>
 9    2  0.1592151E-004  0.9138313E+02  0.7546771E-02  0.1316745E+00
          2   -1    0    0  502    0 -0.00000000000E+00  0.00000000000E+00  0.12485379115E+03  0.12485379115E+03  0.00000000000E+00 0. -1.
         21   -1    0    0  501  502  0.00000000000E+00 -0.00000000000E+00 -0.37606575857E+03  0.37606575857E+03  0.00000000000E+00 0.  1.
         23    2    1    2    0    0  0.73402590450E+01  0.13162712241E+02  0.97705865353E+02  0.13405341729E+03  0.90535883311E+02 0.  0.
         24    2    1    2    0    0  0.17182475559E+02  0.19396197526E+02 -0.25271566772E+03  0.26238501606E+03  0.65644786534E+02 0.  0.
        -11    1    4    4    0    0  0.18837833828E+02  0.40323959643E+02 -0.21148499728E+03  0.21611753696E+03  0.00000000000E+00 0.  1.
         12    1    4    4    0    0 -0.16553582691E+01 -0.20927762117E+02 -0.41230670436E+02  0.46267479106E+02  0.00000000000E+00 0. -1.
        -13    1    3    3    0    0 -0.96891132010E+01  0.46879424231E+02  0.29913881444E+02  0.56448203106E+02  0.00000000000E+00 0.  1.
         13    1    3    3    0    0  0.17029372246E+02 -0.33716711990E+02  0.67791983909E+02  0.77605214186E+02  0.00000000000E+00 0. -1.
          1    1    1    2  501    0 -0.24522734604E+02 -0.32558909766E+02 -0.96202165051E+02  0.10448111637E+03  0.00000000000E+00 0. -1.
<scales pt_clust_5="13000.00000" pt_clust_6="13000.00000" pt_clust_7="13000.00000" pt_clust_8="13000.00000" pt_clust_9="40.76085"></scales>
<clustering>
<clus scale="   40.761">  2  9  1 -1</clus>
<clus scale="   65.645">  5  6 -1 -1</clus>
<clus scale="   66.808">  2  5  1 -1</clus>
<clus scale="   90.536">  7  8 -1 -1</clus>
<clus scale="   40.761">  2  5  1 -1</clus>
</clustering>
</event>
<event>
 9    2  0.1592151E-004  0.1281458E+03  0.7546771E-02  0.1233499E+00
         21   -1    0    0  501  502  0.00000000000E+00  0.00000000000E+00  0.78681365708E+02  0.78681365708E+02  0.00000000000E+00 0.  1.
         -3   -1    0    0    0  501 -0.00000000000E+00 -0.00000000000E+00 -0.42050849871E+03  0.42050849871E+03  0.00000000000E+00 0.  1.
         23    2    1    2    0    0  0.84623584475E+02 -0.30046532972E+02 -0.18189504014E+03  0.22379550464E+03  0.94523420790E+02 0.  0.
         24    2    1    2    0    0 -0.88514178990E+02 -0.53362998777E+02 -0.13283475435E+03  0.18760738769E+03  0.82879976072E+02 0.  0.
        -13    1    4    4    0    0 -0.43369027863E+02 -0.69687310575E+02 -0.66030625934E+02  0.10534342597E+03  0.00000000000E+00 0.  1.
         14    1    4    4    0    0 -0.45145151128E+02  0.16324311798E+02 -0.66804128414E+02  0.82263961728E+02  0.00000000000E+00 0. -1.
        -11    1    3    3    0    0  0.94831375902E+02 -0.50431355606E+02 -0.15428293938E+03  0.18798812959E+03  0.00000000000E+00 0.  1.
         11    1    3    3    0    0 -0.10207791427E+02  0.20384822635E+02 -0.27612100754E+02  0.35807375046E+02  0.00000000000E+00 0. -1.
         -4    1    1    2    0  502  0.38905945155E+01  0.83409531749E+02 -0.27097338513E+02  0.87786972079E+02  0.00000000000E+00 0.  1.
<scales pt_clust_5="13000.00000" pt_clust_6="13000.00000" pt_clust_7="13000.00000" pt_clust_8="13000.00000" pt_clust_9="83.50022"></scales>
<clustering>
<clus scale="   82.880">  5  6 -1 -1</clus>
<clus scale="   83.500">  1  9  2 -1</clus>
<clus scale="   94.523">  7  8 -1 -1</clus>
<clus scale="  119.816">  1  5  2 -1</clus>
<clus scale="   83.500">  1  5  2 -1</clus>
</clustering>
</event>
<event>
 9    2  0.1592151E-004  0.9516549E+02  0.7546771E-02  0.1295669E+00
          2   -1    0    0  502    0 -0.00000000000E+00  0.00000000000E+00  0.92825889590E+03  0.92825889590E+03  0.00000000000E+00 0. -1.
         21   -1    0    0  501  502  0.00000000000E+00 -0.00000000000E+00 -0.23902165588E+02  0.23902165588E+02  0.00000000000E+00 0.  1.
         23    2    1    2    0    0 -0.41982594371E+02 -0.60986583067E+01  0.45989148174E+03  0.47122411797E+03  0.93553527555E+02 0.  0.
         24    2    1    2    0    0 -0.42499234984E+02  0.26529308245E+02  0.23079089177E+03  0.25026115003E+03  0.82802284495E+02 0.  0.
        -13    1    4    4    0    0 -0.33708221698E+02  0.32524279745E+02  0.47671818594E+02  0.66833189891E+02  0.00000000000E+00 0.  1.
         14    1    4    4    0    0 -0.87910132858E+01 -0.59949714999E+01  0.18311907318E+03  0.18342796014E+03  0.00000000000E+00 0. -1.
        -11    1    3    3    0    0 -0.49967592274E+02 -0.40866655023E+02  0.34258429470E+03  0.34861274036E+03  0.00000000000E+00 0. -1.
         11    1    3    3    0    0  0.79849979028E+01  0.34767996716E+02  0.11730718704E+03  0.12261137761E+03  0.00000000000E+00 0.  1.
          1    1    1    2  501    0  0.84481829355E+02 -0.20430649938E+02  0.21367435680E+03  0.23067579349E+03  0.00000000000E+00 0. -1.
<scales pt_clust_5="13000.00000" pt_clust_6="13000.00000" pt_clust_7="13000.00000" pt_clust_8="13000.00000" pt_clust_9="86.91715"></scales>
<clustering>
<clus scale="   82.802">  5  6 -1 -1</clus>
<clus scale="   86.917">  2  9  1 -1</clus>
<clus scale="   86.917">  2  5  1 -1</clus>
<clus scale="   93.554">  7  8 -1 -1</clus>
<clus scale="   86.917">  2  5  1 -1</clus>
</clustering>
</event>
<event>
 9    2  0.1592151E-004  0.1439417E+03  0.7546771E-02  0.1209849E+00
          2   -1    0    0  502    0 -0.00000000000E+00  0.00000000000E+00  0.14204230154E+03  0.14204230154E+03  0.00000000000E+00 0. -1.
         21   -1    0    0  501  502  0.00000000000E+00 -0.00000000000E+00 -0.37505181007E+03  0.37505181007E+03  0.00000000000E+00 0.  1.
         23    2    1    2    0    0 -0.78893538842E+02  0.82954532269E+02  0.49123121066E+02  0.15481173178E+03  0.91912710651E+02 0.  0.
         24    2    1    2    0    0  0.10550008227E+03 -0.34697843558E+02 -0.97869162330E+02  0.16995546666E+03  0.83500179680E+02 0.  0.
        -13    1    4    4    0    0  0.84974818660E+02  0.13828521262E+02 -0.56648307812E+02  0.10305813206E+03  0.00000000000E+00 0.  1.
         14    1    4    4    0    0  0.20525263607E+02 -0.48526364820E+02 -0.41220854518E+02  0.66897334596E+02  0.00000000000E+00 0. -1.
        -13    1    3    3    0    0 -0.99428589184E+02  0.74855368524E+02  0.45085611320E+02  0.13237100473E+03  0.00000000000E+00 0. -1.
         13    1    3    3    0    0  0.20535050342E+02  0.80991637449E+01  0.40375097465E+01  0.22440727057E+02  0.00000000000E+00 0.  1.
          1    1    1    2  501    0 -0.26606543424E+02 -0.48256688710E+02 -0.18426346726E+03  0.19232691316E+03  0.00000000000E+00 0. -1.
<scales pt_clust_5="13000.00000" pt_clust_6="13000.00000" pt_clust_7="13000.00000" pt_clust_8="13000.00000" pt_clust_9="55.10550"></scales>
<clustering>
<clus scale="   55.106">  2  9  1 -1</clus>
<clus scale="   83.500">  5  6 -1 -1</clus>
<clus scale="   91.913">  7  8 -1 -1</clus>
<clus scale="  138.721">  2  5  1 -1</clus>
<clus scale="   55.106">  2  5  1 -1</clus>
</clustering>
</event>
<event>
 9    2  0.1592151E-004  0.1857855E+03  0.7546771E-02  0.1165469E+00
          2   -1    0    0  502    0 -0.00000000000E+00  0.00000000000E+00  0.53014091254E+03  0.53014091254E+03  0.00000000000E+00 0. -1.
         21   -1    0    0  501  502  0.00000000000E+00 -0.00000000000E+00 -0.24114565988E+03  0.24114565988E+03  0.00000000000E+00 0.  1.
         24    2    1    2    0    0 -0.12511057222E+03  0.71246243470E+02  0.36784884108E+02  0.16071769120E+03  0.61223901182E+02 0.  0.
         23    2    1    2    0    0  0.15295873736E+03 -0.15208985731E+03 -0.95030124392E+02  0.25295572411E+03  0.91805085862E+02 0.  0.
        -13    1    3    3    0    0 -0.12587974658E+03  0.52046258580E+02  0.38142239577E+02  0.14145442401E+03  0.00000000000E+00 0.  1.
         14    1    3    3    0    0  0.76917436265E+00  0.19199984890E+02 -0.13573554691E+01  0.19263267190E+02  0.00000000000E+00 0. -1.
        -13    1    4    4    0    0  0.15909546665E+03 -0.11925039861E+03 -0.68502297392E+02  0.21029643322E+03  0.00000000000E+00 0.  1.
         13    1    4    4    0    0 -0.61367292944E+01 -0.32839458701E+02 -0.26527827001E+02  0.42659290894E+02  0.00000000000E+00 0. -1.
          1    1    1    2  501    0 -0.27848165136E+02  0.80843613837E+02  0.34724049294E+03  0.35761315711E+03  0.00000000000E+00 0. -1.
<scales pt_clust_5="13000.00000" pt_clust_6="13000.00000" pt_clust_7="13000.00000" pt_clust_8="13000.00000" pt_clust_9="85.50566"></scales>
<clustering>
<clus scale="   61.224">  5  6 -1 -1</clus>
<clus scale="   85.506">  2  9  1 -1</clus>
<clus scale="   91.805">  7  8 -1 -1</clus>
<clus scale="  172.732">  1  5  2 -1</clus>
<clus scale="   85.506">  2  5  1 -1</clus>
</clustering>
</event>
<event>
 9    2  0.1592151E-004  0.1224791E+03  0.7546771E-02  0.1241945E+00
          2   -1    0    0  502    0 -0.00000000000E+00  0.00000000000E+00  0.89941743274E+02  0.89941743274E+02  0.00000000000E+00 0. -1.
         21   -1    0    0  501  502  0.00000000000E+00 -0.00000000000E+00 -0.27042496442E+03  0.27042496442E+03  0.00000000000E+00 0.  1.
         24    2    1    2    0    0  0.22440691592E+02  0.83472706631E+02  0.17406951540E+02  0.11967628486E+03  0.80920540063E+02 0.  0.
         23    2    1    2    0    0 -0.28556741802E+02 -0.63761419075E+02 -0.15081255280E+03  0.18928766784E+03  0.90578082605E+02 0.  0.
        -11    1    3    3    0    0  0.21308211594E+02  0.41171571485E+02 -0.30703077723E+02  0.55604111012E+02  0.00000000000E+00 0.  1.
         12    1    3    3    0    0  0.11324799986E+01  0.42301135146E+02  0.48110029263E+02  0.64072173845E+02  0.00000000000E+00 0. -1.
        -11    1    4    4    0    0 -0.24914237524E+02 -0.12596692125E+02 -0.13157571518E+03  0.13450488730E+03  0.00000000000E+00 0.  1.
         11    1    4    4    0    0 -0.36425042786E+01 -0.51164726950E+02 -0.19236837620E+02  0.54782780533E+02  0.00000000000E+00 0. -1.
          1    1    1    2  501    0  0.61160502100E+01 -0.19711287556E+02 -0.47077619890E+02  0.51402755002E+02  0.00000000000E+00 0. -1.
<scales pt_clust_5="13000.00000" pt_clust_6="13000.00000" pt_clust_7="13000.00000" pt_clust_8="13000.00000" pt_clust_9="20.63834"></scales>
<clustering>
<clus scale="   20.638">  2  9  1 -1</clus>
<clus scale="   80.921">  5  6 -1 -1</clus>
<clus scale="   90.578">  7  8 -1 -1</clus>
<clus scale="  115.520">  1  5  2 -1</clus>
<clus scale="   20.638">  2  5  1 -1</clus>
</clustering>
</event>
<event>
 9    2  0.1592151E-004  0.1018904E+03  0.7546771E-02  0.1282500E+00
         21   -1    0    0  501  502  0.00000000000E+00  0.00000000000E+00  0.81345037382E+02  0.81345037382E+02  0.00000000000E+00 0.  1.
          4   -1    0    0  502    0 -0.00000000000E+00 -0.00000000000E+00 -0.21619158210E+03  0.21619158210E+03  0.00000000000E+00 0. -1.
         24    2    1    2    0    0  0.46222751777E+02  0.47314553857E+01 -0.12447081919E+03  0.15464856803E+03  0.79147111835E+02 0.  0.
         23    2    1    2    0    0 -0.30641472910E+02 -0.30961528479E+02  0.15626834301E+02  0.10280156865E+03  0.91795688676E+02 0.  0.
        -11    1    3    3    0    0  0.28434322327E+02 -0.32824122716E+02 -0.34217558004E+02  0.55288108975E+02  0.00000000000E+00 0.  1.
         12    1    3    3    0    0  0.17788429450E+02  0.37555578101E+02 -0.90253261184E+02  0.99360459052E+02  0.00000000000E+00 0. -1.
        -11    1    4    4    0    0 -0.43517605003E+02 -0.10376969545E+02 -0.28068283835E+02  0.52813748206E+02  0.00000000000E+00 0. -1.
         11    1    4    4    0    0  0.12876132093E+02 -0.20584558933E+02  0.43695118136E+02  0.49987820448E+02  0.00000000000E+00 0.  1.
          3    1    1    2  501    0 -0.15581278867E+02  0.26230073093E+02 -0.26002559835E+02  0.40086482804E+02  0.00000000000E+00 0. -1.
<scales pt_clust_5="13000.00000" pt_clust_6="13000.00000" pt_clust_7="13000.00000" pt_clust_8="13000.00000" pt_clust_9="30.50892"></scales>
<clustering>
<clus scale="   30.509">  1  9  2 -1</clus>
<clus scale="   79.147">  5  6 -1 -1</clus>
<clus scale="   90.661">  2  5  1 -1</clus>
<clus scale="   91.796">  7  8 -1 -1</clus>
<clus scale="   30.509">  1  5  2 -1</clus>
</clustering>
</event>
<event>
 9    2  0.1592151E-004  0.1245198E+03  0.7546771E-02  0.1248618E+00
         -1   -1    0    0    0  501 -0.00000000000E+00  0.00000000000E+00  0.12851985268E+03  0.12851985268E+03  0.00000000000E+00 0.  1.
         21   -1    0    0  501  502  0.00000000000E+00 -0.00000000000E+00 -0.43179532853E+03  0.43179532853E+03  0.00000000000E+00 0.  1.
         23    2    1    2    0    0  0.24828903393E+02 -0.16630942825E+02  0.45369692512E+02  0.10628380588E+03  0.91349743794E+02 0.  0.
         24    2    1    2    0    0 -0.53566080620E+02 -0.76071426953E+02 -0.37222572758E+02  0.12783574726E+03  0.79374248737E+02 0.  0.
        -13    1    4    4    0    0 -0.69832120011E+02 -0.45885894704E+02 -0.10201057175E+02  0.84178987197E+02  0.00000000000E+00 0.  1.
         14    1    4    4    0    0  0.16266039391E+02 -0.30185532249E+02 -0.27021515584E+02  0.43656760061E+02  0.00000000000E+00 0. -1.
        -11    1    3    3    0    0 -0.23314367036E+02 -0.32936466729E+02  0.37041868954E+02  0.54776551612E+02  0.00000000000E+00 0.  1.
         11    1    3    3    0    0  0.48143270429E+02  0.16305523904E+02  0.83278235586E+01  0.51507254271E+02  0.00000000000E+00 0. -1.
         -2    1    1    2    0  502  0.28737177227E+02  0.92702369778E+02 -0.31142259560E+03  0.32619562807E+03  0.00000000000E+00 0.  1.
<scales pt_clust_5="13000.00000" pt_clust_6="13000.00000" pt_clust_7="13000.00000" pt_clust_8="13000.00000" pt_clust_9="95.94220"></scales>
<clustering>
<clus scale="   79.374">  5  6 -1 -1</clus>
<clus scale="   91.350">  7  8 -1 -1</clus>
<clus scale="   96.114">  1  7  2 -1</clus>
<clus scale="   95.942">  2  9  1 -1</clus>
<clus scale="   95.942">  2  5  1 -1</clus>
</clustering>
</event>
<event>
 9    2  0.1592151E-004  0.1167169E+03  0.7546771E-02  0.1254039E+00
         21   -1    0    0  501  502  0.00000000000E+00  0.00000000000E+00  0.43751290975E+03  0.43751290975E+03  0.00000000000E+00 0. -1.
          2   -1    0    0  502    0 -0.00000000000E+00 -0.00000000000E+00 -0.75239324697E+02  0.75239324697E+02  0.00000000000E+00 0. -1.
         24    2    1    2    0    0  0.10026353594E+02 -0.82844779099E+02  0.71328785652E+01  0.11438055179E+03  0.77898956861E+02 0.  0.
         23    2    1    2    0    0 -0.16288548079E+02  0.80849838644E+01  0.26225176086E+03  0.27897068483E+03  0.93370087057E+02 0.  0.
        -11    1    3    3    0    0  0.35422774602E+02 -0.97091456797E+01  0.16239001835E+01  0.36765167239E+02  0.00000000000E+00 0.  1.
         12    1    3    3    0    0 -0.25396421008E+02 -0.73135633419E+02  0.55089783817E+01  0.77615384547E+02  0.00000000000E+00 0. -1.
        -11    1    4    4    0    0  0.20446417593E+01 -0.35127211935E+02  0.47295268379E+02  0.58948655534E+02  0.00000000000E+00 0.  1.
         11    1    4    4    0    0 -0.18333189838E+02  0.43212195799E+02  0.21495649248E+03  0.22002202929E+03  0.00000000000E+00 0. -1.
          1    1    1    2  501    0  0.62621944845E+01  0.74759795234E+02  0.92888945627E+02  0.11940099783E+03  0.00000000000E+00 0. -1.
<scales pt_clust_5="13000.00000" pt_clust_6="13000.00000" pt_clust_7="13000.00000" pt_clust_8="13000.00000" pt_clust_9="75.02161"></scales>
<clustering>
<clus scale="   75.022">  1  9  2 -1</clus>
<clus scale="   77.899">  5  6 -1 -1</clus>
<clus scale="   93.370">  7  8 -1 -1</clus>
<clus scale="  104.753">  2  5  1 -1</clus>
<clus scale="   75.022">  1  5  2 -1</clus>
</clustering>
</event>
<event>
 9    2  0.1592151E-004  0.9298223E+02  0.7546771E-02  0.1298479E+00
         21   -1    0    0  501  502  0.00000000000E+00  0.00000000000E+00  0.15082211220E+03  0.15082211220E+03  0.00000000000E+00 0. -1.
          2   -1    0    0  502    0 -0.00000000000E+00 -0.00000000000E+00 -0.13668663834E+03  0.13668663834E+03  0.00000000000E+00 0. -1.
         24    2    1    2    0    0  0.16351486462E+02 -0.26011081139E+02 -0.22015862260E+02  0.90282819949E+02  0.81989889226E+02 0.  0.
         23    2    1    2    0    0 -0.63616770226E+02 -0.37191831995E+02  0.11180438342E+02  0.11444814968E+03  0.86850739447E+02 0.  0.
        -11    1    3    3    0    0  0.13316372951E+02  0.26154660272E+02  0.74679971564E+01  0.30284699503E+02  0.00000000000E+00 0.  1.
         12    1    3    3    0    0  0.30351135117E+01 -0.52165741410E+02 -0.29483859417E+02  0.59998120446E+02  0.00000000000E+00 0. -1.
        -11    1    4    4    0    0  0.20357176712E+02  0.49687646357E+00  0.92967631055E+01  0.22385069447E+02  0.00000000000E+00 0.  1.
         11    1    4    4    0    0 -0.83973946938E+02 -0.37688708459E+02  0.18836752365E+01  0.92063080233E+02  0.00000000000E+00 0. -1.
          1    1    1    2  501    0  0.47265283764E+02  0.63202913134E+02  0.24970897775E+02  0.82777780917E+02  0.00000000000E+00 0. -1.
<scales pt_clust_5="13000.00000" pt_clust_6="13000.00000" pt_clust_7="13000.00000" pt_clust_8="13000.00000" pt_clust_9="78.92158"></scales>
<clustering>
<clus scale="   78.922">  1  9  2 -1</clus>
<clus scale="   81.990">  5  6 -1 -1</clus>
<clus scale="   86.851">  7  8 -1 -1</clus>
<clus scale="   88.459">  2  5  1 -1</clus>
<clus scale="   78.922">  1  5  2 -1</clus>
</clustering>
</event>
<event>
 9    2  0.1592151E-004  0.1378938E+03  0.7546771E-02  0.1225202E+00
          4   -1    0    0  502    0 -0.00000000000E+00  0.00000000000E+00  0.21288544569E+03  0.21288544569E+03  0.00000000000E+00 0. -1.
         21   -1    0    0  501  502  0.00000000000E+00 -0.00000000000E+00 -0.37161700064E+03  0.37161700064E+03  0.00000000000E+00 0.  1.
         23    2    1    2    0    0  0.61005883722E+02 -0.97863816308E+01 -0.15552898200E+03  0.19292260552E+03  0.95981125048E+02 0.  0.
         24    2    1    2    0    0  0.28334398254E+02 -0.10461258714E+03 -0.13843026666E+03  0.19319803926E+03  0.80099389102E+02 0.  0.
        -11    1    4    4    0    0  0.29493338674E+02 -0.92140637393E+02 -0.14842634725E+03  0.17717261257E+03  0.00000000000E+00 0.  1.
         12    1    4    4    0    0 -0.11589404202E+01 -0.12471949750E+02  0.99960805950E+01  0.16025426694E+02  0.00000000000E+00 0. -1.
        -11    1    3    3    0    0  0.44710017903E+00  0.21874716747E+02 -0.10673520685E+03  0.10895461217E+03  0.00000000000E+00 0. -1.
         11    1    3    3    0    0  0.60558783543E+02 -0.31661098378E+02 -0.48793775152E+02  0.83967993356E+02  0.00000000000E+00 0.  1.
          3    1    1    2  501    0 -0.89340281976E+02  0.11439896877E+03  0.13522769371E+03  0.19838180155E+03  0.00000000000E+00 0. -1.
<scales pt_clust_5="13000.00000" pt_clust_6="13000.00000" pt_clust_7="13000.00000" pt_clust_8="13000.00000" pt_clust_9="112.24443"></scales>
<clustering>
<clus scale="   80.099">  5  6 -1 -1</clus>
<clus scale="   95.981">  7  8 -1 -1</clus>
<clus scale="  114.149">  1  7  2 -1</clus>
<clus scale="  112.244">  2  9  1 -1</clus>
<clus scale="  112.244">  2  5  1 -1</clus>
</clustering>
</event>
<event>
 9    2  0.1592151E-004  0.1297565E+03  0.7546771E-02  0.1249088E+00
         21   -1    0    0  501  502  0.00000000000E+00  0.00000000000E+00  0.29011506951E+03  0.29011506951E+03  0.00000000000E+00 0. -1.
          2   -1    0    0  502    0 -0.00000000000E+00 -0.00000000000E+00 -0.16499811720E+03  0.16499811720E+03  0.00000000000E+00 0. -1.
         24    2    1    2    0    0 -0.21951855653E+02 -0.37091049161E+01  0.11677145015E+02  0.84950416436E+02  0.81145401047E+02 0.  0.
         23    2    1    2    0    0  0.10712856962E+03 -0.28320957701E+02 -0.74358237216E+02  0.16147855181E+03  0.90926168841E+02 0.  0.
        -13    1    3    3    0    0 -0.28782197531E+02 -0.82195019160E+00  0.43560024016E+02  0.52216531761E+02  0.00000000000E+00 0.  1.
         14    1    3    3    0    0  0.68303418776E+01 -0.28871547245E+01 -0.31882879001E+02  0.32733884676E+02  0.00000000000E+00 0. -1.
        -13    1    4    4    0    0  0.71497079358E+02  0.14837941278E+02 -0.61953070414E+01  0.73282867626E+02  0.00000000000E+00 0. -1.
         13    1    4    4    0    0  0.35631490261E+02 -0.43158898979E+02 -0.68162930174E+02  0.88195684187E+02  0.00000000000E+00 0.  1.
          1    1    1    2  501    0 -0.85176713966E+02  0.32030062617E+02  0.18779804451E+03  0.20868421847E+03  0.00000000000E+00 0. -1.
<scales pt_clust_5="13000.00000" pt_clust_6="13000.00000" pt_clust_7="13000.00000" pt_clust_8="13000.00000" pt_clust_9="92.56990"></scales>
<clustering>
<clus scale="   81.145">  5  6 -1 -1</clus>
<clus scale="   84.144">  2  5  1 -1</clus>
<clus scale="   90.926">  7  8 -1 -1</clus>
<clus scale="   92.570">  1  9  2 -1</clus>
<clus scale="   92.570">  1  5  2 -1</clus>
</clustering>
</event>
<event>
 9    2  0.1592151E-004  0.1119695E+03  0.7546771E-02  0.1257479E+00
         -3   -1    0    0    0  501 -0.00000000000E+00  0.00000000000E+00  0.43888326534E+03  0.43888326534E+03  0.00000000000E+00 0.  1.
         21   -1    0    0  501  502  0.00000000000E+00 -0.00000000000E+00 -0.10121444347E+03  0.10121444347E+03  0.00000000000E+00 0. -1.
         23    2    1    2    0    0 -0.28301126831E+02  0.72434628786E+02  0.34926574269E+03  0.36730873258E+03  0.82954305397E+02 0.  0.
         24    2    1    2    0    0 -0.27052278273E+02 -0.67175314438E+02 -0.31987426999E+02  0.11356539489E+03  0.81422078098E+02 0.  0.
        -11    1    4    4    0    0  0.22141517145E+02  0.37135681539E+01 -0.96372542190E+01  0.24431824304E+02  0.00000000000E+00 0.  1.
         12    1    4    4    0    0 -0.49193795419E+02 -0.70888882592E+02 -0.22350172780E+02  0.89133570590E+02  0.00000000000E+00 0. -1.
        -13    1    3    3    0    0 -0.11449446867E+02  0.89137336838E+02  0.28268709408E+03  0.29662863619E+03  0.00000000000E+00 0.  1.
         13    1    3    3    0    0 -0.16851679964E+02 -0.16702708051E+02  0.66578648618E+02  0.70680096390E+02  0.00000000000E+00 0. -1.
         -4    1    1    2    0  502  0.55353405104E+02 -0.52593143487E+01  0.20390506172E+02  0.59223581334E+02  0.00000000000E+00 0.  1.
<scales pt_clust_5="13000.00000" pt_clust_6="13000.00000" pt_clust_7="13000.00000" pt_clust_8="13000.00000" pt_clust_9="55.60270"></scales>
<clustering>
<clus scale="   55.603">  2  9  1 -1</clus>
<clus scale="   81.422">  5  6 -1 -1</clus>
<clus scale="   82.954">  7  8 -1 -1</clus>
<clus scale="  110.839">  2  5  1 -1</clus>
<clus scale="   55.603">  2  5  1 -1</clus>
</clustering>
</event>
<event>
 9    2  0.1592151E-004  0.1087309E+03  0.7546771E-02  0.1266488E+00
         21   -1    0    0  501  502  0.00000000000E+00  0.00000000000E+00  0.10737938106E+03  0.10737938106E+03  0.00000000000E+00 0.  1.
          2   -1    0    0  502    0 -0.00000000000E+00 -0.00000000000E+00 -0.23350801213E+03  0.23350801213E+03  0.00000000000E+00 0. -1.
         24    2    1    2    0    0  0.54439564535E+02 -0.61276025535E+01 -0.15380551620E+03  0.18293323325E+03  0.82505862305E+02 0.  0.
         23    2    1    2    0    0 -0.74060447760E+02  0.22619890218E+02 -0.69191940464E+00  0.11972114173E+03  0.91302046358E+02 0.  0.
        -13    1    3    3    0    0 -0.11539273180E+02 -0.18055201962E+02 -0.87760919623E+01  0.23155235554E+02  0.00000000000E+00 0.  1.
         14    1    3    3    0    0  0.65978837715E+02  0.11927599409E+02 -0.14502942424E+03  0.15977799770E+03  0.00000000000E+00 0. -1.
        -11    1    4    4    0    0 -0.48276706445E+02  0.69071678899E+00  0.42861269150E+02  0.64561643939E+02  0.00000000000E+00 0.  1.
         11    1    4    4    0    0 -0.25783741314E+02  0.21929173430E+02 -0.43553188555E+02  0.55159497793E+02  0.00000000000E+00 0. -1.
          1    1    1    2  501    0  0.19620883225E+02 -0.16492287665E+02  0.28368804533E+02  0.38233018212E+02  0.00000000000E+00 0. -1.
<scales pt_clust_5="13000.00000" pt_clust_6="13000.00000" pt_clust_7="13000.00000" pt_clust_8="13000.00000" pt_clust_9="25.63152"></scales>
<clustering>
<clus scale="   25.632">  1  9  2 -1</clus>
<clus scale="   82.506">  5  6 -1 -1</clus>
<clus scale="   91.302">  7  8 -1 -1</clus>
<clus scale="  101.457">  2  5  1 -1</clus>
<clus scale="   25.632">  1  5  2 -1</clus>
</clustering>
</event>
<event>
 9    2  0.1592151E-004  0.9585046E+02  0.7546771E-02  0.1294715E+00
         -3   -1    0    0    0  501 -0.00000000000E+00  0.00000000000E+00  0.89557335405E+02  0.89557335405E+02  0.00000000000E+00 0.  1.
         21   -1    0    0  501  502  0.00000000000E+00 -0.00000000000E+00 -0.39406873759E+03  0.39406873759E+03  0.00000000000E+00 0. -1.
         23    2    1    2    0    0  0.32097219084E+02 -0.69929142353E+01 -0.57989728395E+00  0.96488632230E+02  0.90722585646E+02 0.  0.
         24    2    1    2    0    0 -0.21709883837E+02 -0.72951481105E+02 -0.28275840906E+03  0.30378695746E+03  0.80876201541E+02 0.  0.
        -11    1    4    4    0    0  0.24073732019E+02 -0.57982263889E+02 -0.15327699927E+03  0.16563612530E+03  0.00000000000E+00 0.  1.
         12    1    4    4    0    0 -0.45783615856E+02 -0.14969217216E+02 -0.12948140979E+03  0.13815083215E+03  0.00000000000E+00 0. -1.
        -11    1    3    3    0    0  0.55012456649E+02  0.19516446293E+02  0.11365088666E+02  0.59467867818E+02  0.00000000000E+00 0.  1.
         11    1    3    3    0    0 -0.22915237565E+02 -0.26509360528E+02 -0.11944985950E+02  0.37020764411E+02  0.00000000000E+00 0. -1.
         -4    1    1    2    0  502 -0.10387335247E+02  0.79944395340E+02 -0.21173095839E+02  0.83350483305E+02  0.00000000000E+00 0.  1.
<scales pt_clust_5="13000.00000" pt_clust_6="13000.00000" pt_clust_7="13000.00000" pt_clust_8="13000.00000" pt_clust_9="80.61643"></scales>
<clustering>
<clus scale="   80.616">  2  9  1 -1</clus>
<clus scale="   80.876">  5  6 -1 -1</clus>
<clus scale="   86.589">  2  5  1 -1</clus>
<clus scale="   90.723">  7  8 -1 -1</clus>
<clus scale="   80.616">  2  5  1 -1</clus>
</clustering>
</event>
<event>
 9    2  0.1592151E-004  0.9964654E+02  0.7546771E-02  0.1285957E+00
         21   -1    0    0  501  502  0.00000000000E+00  0.00000000000E+00  0.22941774108E+03  0.22941774108E+03  0.00000000000E+00 0. -1.
          4   -1    0    0  502    0 -0.00000000000E+00 -0.00000000000E+00 -0.22022628114E+03  0.22022628114E+03  0.00000000000E+00 0. -1.
         24    2    1    2    0    0  0.26808036736E+01 -0.42903743520E+02 -0.18302145371E+03  0.20479721364E+03  0.81222707923E+02 0.  0.
         23    2    1    2    0    0 -0.37995821463E+01  0.21337043046E+02  0.60584874783E+02  0.11145897237E+03  0.91010269969E+02 0.  0.
        -13    1    3    3    0    0  0.24367688300E+01  0.23981849547E+02 -0.36638342892E+02  0.43856984848E+02  0.00000000000E+00 0.  1.
         14    1    3    3    0    0  0.24403484355E+00 -0.66885593066E+02 -0.14638311081E+03  0.16094022879E+03  0.00000000000E+00 0. -1.
        -11    1    4    4    0    0 -0.38605353470E+02  0.11355641210E+02  0.63452566198E+02  0.75136888816E+02  0.00000000000E+00 0.  1.
         11    1    4    4    0    0  0.34805771323E+02  0.99814018361E+01 -0.28676914146E+01  0.36322083559E+02  0.00000000000E+00 0. -1.
          3    1    1    2  501    0  0.11187784728E+01  0.21566700473E+02  0.13162803886E+03  0.13338783621E+03  0.00000000000E+00 0. -1.
<scales pt_clust_5="13000.00000" pt_clust_6="13000.00000" pt_clust_7="13000.00000" pt_clust_8="13000.00000" pt_clust_9="21.59570"></scales>
<clustering>
<clus scale="   21.596">  1  9  2 -1</clus>
<clus scale="   81.223">  5  6 -1 -1</clus>
<clus scale="   90.795">  2  5  1 -1</clus>
<clus scale="   91.010">  7  8 -1 -1</clus>
<clus scale="   21.596">  1  5  2 -1</clus>
</clustering>
</event>
<event>
 9    2  0.1592151E-004  0.3055429E+03  0.7546771E-02  0.1083613E+00
          2   -1    0    0  502    0 -0.00000000000E+00  0.00000000000E+00  0.66942284525E+03  0.66942284525E+03  0.00000000000E+00 0. -1.
         21   -1    0    0  501  502  0.00000000000E+00 -0.00000000000E+00 -0.57632456988E+03  0.57632456988E+03  0.00000000000E+00 0. -1.
         23    2    1    2    0    0  0.22548652231E+03  0.18307559123E+03  0.52886705595E+03  0.61305778472E+03  0.10852944616E+03 0.  0.
         24    2    1    2    0    0 -0.16180232749E+03 -0.15945885588E+03 -0.48986564170E+03  0.54585704873E+03  0.79902758598E+02 0.  0.
        -11    1    4    4    0    0 -0.10194863126E+03 -0.46043389962E+02 -0.20742525156E+03  0.23566661231E+03  0.00000000000E+00 0.  1.
         12    1    4    4    0    0 -0.59853696227E+02 -0.11341546591E+03 -0.28244039014E+03  0.31019043641E+03  0.00000000000E+00 0. -1.
        -13    1    3    3    0    0  0.31105529782E+02 -0.11296943600E+02  0.37415105148E+02  0.49950625732E+02  0.00000000000E+00 0.  1.
         13    1    3    3    0    0  0.19438099253E+03  0.19437253483E+03  0.49145195080E+03  0.56310715898E+03  0.00000000000E+00 0. -1.
          1    1    1    2  501    0 -0.63684194820E+02 -0.23616735357E+02  0.54096861123E+02  0.86832581686E+02  0.00000000000E+00 0. -1.
<scales pt_clust_5="13000.00000" pt_clust_6="13000.00000" pt_clust_7="13000.00000" pt_clust_8="13000.00000" pt_clust_9="67.92225"></scales>
<clustering>
<clus scale="   67.922">  2  9  1 -1</clus>
<clus scale="   79.903">  5  6 -1 -1</clus>
<clus scale="  108.529">  7  8 -1 -1</clus>
<clus scale="  296.584">  2  5  1 -1</clus>
<clus scale="   67.922">  2  5  1 -1</clus>
</clustering>
</event>
<event>
 9    2  0.1592151E-004  0.1173819E+03  0.7546771E-02  0.1250723E+00
         21   -1    0    0  501  502  0.00000000000E+00  0.00000000000E+00  0.11195187691E+03  0.11195187691E+03  0.00000000000E+00 0.  1.
         -3   -1    0    0    0  501 -0.00000000000E+00 -0.00000000000E+00 -0.20192330704E+03  0.20192330704E+03  0.00000000000E+00 0.  1.
         23    2    1    2    0    0 -0.17547902847E+02  0.79557957436E+02 -0.93653472880E+02  0.15393405211E+03  0.91034729260E+02 0.  0.
         24    2    1    2    0    0  0.31275447561E+02 -0.49260556147E+02  0.42582778005E+02  0.10875866206E+03  0.81304351540E+02 0.  0.
        -11    1    4    4    0    0  0.19701191402E+02 -0.69421094767E+02  0.45530834081E+02  0.85325741681E+02  0.00000000000E+00 0.  1.
         12    1    4    4    0    0  0.11574256159E+02  0.20160538620E+02 -0.29480560752E+01  0.23432920383E+02  0.00000000000E+00 0. -1.
        -11    1    3    3    0    0 -0.48361134733E+02  0.72372771447E+02 -0.83721000319E+02  0.12077178186E+03  0.00000000000E+00 0.  1.
         11    1    3    3    0    0  0.30813231886E+02  0.71851859889E+01 -0.99324725607E+01  0.33162270250E+02  0.00000000000E+00 0. -1.
         -4    1    1    2    0  502 -0.13727544714E+02 -0.30297401289E+02 -0.38900735255E+02  0.51182469774E+02  0.00000000000E+00 0.  1.
<scales pt_clust_5="13000.00000" pt_clust_6="13000.00000" pt_clust_7="13000.00000" pt_clust_8="13000.00000" pt_clust_9="33.26228"></scales>
<clustering>
<clus scale="   33.262">  1  9  2 -1</clus>
<clus scale="   81.304">  5  6 -1 -1</clus>
<clus scale="   91.035">  7  8 -1 -1</clus>
<clus scale="  110.007">  1  5  2 -1</clus>
<clus scale="   33.262">  1  5  2 -1</clus>
</clustering>
</event>
<event>
 9    2  0.1592151E-004  0.1118941E+03  0.7546771E-02  0.1262107E+00
          2   -1    0    0  502    0 -0.00000000000E+00  0.00000000000E+00  0.65756258636E+03  0.65756258636E+03  0.00000000000E+00 0. -1.
         21   -1    0    0  501  502  0.00000000000E+00 -0.00000000000E+00 -0.63696704014E+02  0.63696704014E+02  0.00000000000E+00 0. -1.
         24    2    1    2    0    0 -0.44286768307E+02  0.49031002239E+02  0.50787325519E+03  0.51836654162E+03  0.80020441761E+02 0.  0.
         23    2    1    2    0    0  0.10063708909E+02 -0.52674221538E+02  0.11542662461E+03  0.15760642579E+03  0.92954977975E+02 0.  0.
        -13    1    3    3    0    0 -0.21271019059E+02  0.17734902496E+02  0.38704781891E+02  0.47592469568E+02  0.00000000000E+00 0.  1.
         14    1    3    3    0    0 -0.23015749247E+02  0.31296099743E+02  0.46916847330E+03  0.47077407205E+03  0.00000000000E+00 0. -1.
        -13    1    4    4    0    0  0.36952288138E+02 -0.54488922399E+02  0.11269714095E+03  0.13051881030E+03  0.00000000000E+00 0.  1.
         13    1    4    4    0    0 -0.26888579229E+02  0.18147008604E+01  0.27294836589E+01  0.27087615495E+02  0.00000000000E+00 0. -1.
          1    1    1    2  501    0  0.34223059397E+02  0.36432192991E+01 -0.29433997458E+02  0.45286322965E+02  0.00000000000E+00 0. -1.
<scales pt_clust_5="13000.00000" pt_clust_6="13000.00000" pt_clust_7="13000.00000" pt_clust_8="13000.00000" pt_clust_9="34.41643"></scales>
<clustering>
<clus scale="   34.416">  2  9  1 -1</clus>
<clus scale="   80.020">  5  6 -1 -1</clus>
<clus scale="   92.955">  7  8 -1 -1</clus>
<clus scale="  101.405">  1  5  2 -1</clus>
<clus scale="   34.416">  2  5  1 -1</clus>
</clustering>
</event>
<event>
 9    2  0.1592151E-004  0.1535167E+03  0.7546771E-02  0.1198519E+00
         21   -1    0    0  501  502  0.00000000000E+00  0.00000000000E+00  0.49876621015E+02  0.49876621015E+02  0.00000000000E+00 0.  1.
          2   -1    0    0  502    0 -0.00000000000E+00 -0.00000000000E+00 -0.98644996393E+03  0.98644996393E+03  0.00000000000E+00 0. -1.
         23    2    1    2    0    0  0.79595237801E+02 -0.82022222039E+02 -0.52888778704E+03  0.54895054829E+03  0.92527652101E+02 0.  0.
         24    2    1    2    0    0 -0.10856366203E+03  0.10898365733E+03 -0.15740218195E+03  0.23398334564E+03  0.79430805581E+02 0.  0.
        -13    1    4    4    0    0 -0.87077291769E+02  0.63024065992E+02 -0.57423074716E+02  0.12186835990E+03  0.00000000000E+00 0.  1.
         14    1    4    4    0    0 -0.21486370260E+02  0.45959591337E+02 -0.99979107231E+02  0.11211498573E+03  0.00000000000E+00 0. -1.
        -11    1    3    3    0    0  0.85625539638E+02 -0.24812390081E+02 -0.34035775869E+03  0.35183915592E+03  0.00000000000E+00 0. -1.
         11    1    3    3    0    0 -0.60303018371E+01 -0.57209831958E+02 -0.18853002835E+03  0.19711139237E+03  0.00000000000E+00 0.  1.
          1    1    1    2  501    0  0.28968424229E+02 -0.26961435290E+02 -0.25028337393E+03  0.25339269102E+03  0.00000000000E+00 0. -1.
<scales pt_clust_5="13000.00000" pt_clust_6="13000.00000" pt_clust_7="13000.00000" pt_clust_8="13000.00000" pt_clust_9="39.57386"></scales>
<clustering>
<clus scale="   39.574">  1  9  2 -1</clus>
<clus scale="   79.431">  5  6 -1 -1</clus>
<clus scale="   92.528">  7  8 -1 -1</clus>
<clus scale="  145.998">  1  5  2 -1</clus>
<clus scale="   39.574">  1  5  2 -1</clus>
</clustering>
</event>
<event>
 9    2  0.1592151E-004  0.1644851E+03  0.7546771E-02  0.1199489E+00
         -1   -1    0    0    0  501 -0.00000000000E+00  0.00000000000E+00  0.10435805758E+04  0.10435805758E+04  0.00000000000E+00 0.  1.
         21   -1    0    0  501  502  0.00000000000E+00 -0.00000000000E+00 -0.49381618707E+02  0.49381618707E+02  0.00000000000E+00 0.  1.
         23    2    1    2    0    0 -0.72599996843E+02 -0.71667948844E+01  0.24310359213E+03  0.26945372239E+03  0.90464520746E+02 0.  0.
         24    2    1    2    0    0  0.12068303666E+03 -0.10468549699E+03  0.24761215115E+03  0.30551401220E+03  0.80644811578E+02 0.  0.
        -13    1    4    4    0    0  0.53583825617E+02  0.24410492597E+00  0.88407717702E+02  0.10337896548E+03  0.00000000000E+00 0.  1.
         14    1    4    4    0    0  0.67099211039E+02 -0.10492960192E+03  0.15920443345E+03  0.20213504671E+03  0.00000000000E+00 0. -1.
        -13    1    3    3    0    0 -0.84421454912E+02 -0.24836609793E+02  0.14959062000E+03  0.17355458170E+03  0.00000000000E+00 0.  1.
         13    1    3    3    0    0  0.11821458069E+02  0.17669814908E+02  0.93512972131E+02  0.95899140698E+02  0.00000000000E+00 0. -1.
         -2    1    1    2    0  502 -0.48083039813E+02  0.11185229188E+03  0.50348321383E+03  0.51799445994E+03  0.00000000000E+00 0.  1.
<scales pt_clust_5="13000.00000" pt_clust_6="13000.00000" pt_clust_7="13000.00000" pt_clust_8="13000.00000" pt_clust_9="143.35889"></scales>
<clustering>
<clus scale="   80.645">  5  6 -1 -1</clus>
<clus scale="   90.465">  7  8 -1 -1</clus>
<clus scale="  116.215">  1  7  2 -1</clus>
<clus scale="  143.359">  2  9  1 -1</clus>
<clus scale="  143.359">  2  5  1 -1</clus>
</clustering>
</event>
<event>
 9    2  0.1592151E-004  0.9647469E+02  0.7546771E-02  0.1295133E+00
         21   -1    0    0  501  502  0.00000000000E+00  0.00000000000E+00  0.60356122599E+02  0.60356122599E+02  0.00000000000E+00 0. -1.
          2   -1    0    0  502    0 -0.00000000000E+00 -0.00000000000E+00 -0.34392013478E+03  0.34392013478E+03  0.00000000000E+00 0. -1.
         23    2    1    2    0    0 -0.10342481343E+01 -0.32421921428E+01 -0.20046630600E+03  0.22164719583E+03  0.94494222579E+02 0.  0.
         24    2    1    2    0    0  0.26647109732E+02  0.42742767745E+02 -0.93771073731E+02  0.13435655460E+03  0.81985711219E+02 0.  0.
        -13    1    4    4    0    0 -0.18984305583E+02  0.17458027254E+02  0.13956129780E+01  0.25828943255E+02  0.00000000000E+00 0.  1.
         14    1    4    4    0    0  0.45631415315E+02  0.25284740490E+02 -0.95166686709E+02  0.10852761135E+03  0.00000000000E+00 0. -1.
        -11    1    3    3    0    0 -0.12829005347E+01  0.41991568620E+02 -0.13978229087E+03  0.14595898914E+03  0.00000000000E+00 0. -1.
         11    1    3    3    0    0  0.24865240044E+00 -0.45233760762E+02 -0.60684015125E+02  0.75688206693E+02  0.00000000000E+00 0.  1.
          1    1    1    2  501    0 -0.25612861598E+02 -0.39500575602E+02  0.10673367546E+02  0.48272506946E+02  0.00000000000E+00 0. -1.
<scales pt_clust_5="13000.00000" pt_clust_6="13000.00000" pt_clust_7="13000.00000" pt_clust_8="13000.00000" pt_clust_9="47.07775"></scales>
<clustering>
<clus scale="   47.078">  1  9  2 -1</clus>
<clus scale="   81.986">  5  6 -1 -1</clus>
<clus scale="   84.261">  1  5  2 -1</clus>
<clus scale="   94.494">  7  8 -1 -1</clus>
<clus scale="   47.078">  1  5  2 -1</clus>
</clustering>
</event>
<event>
 9    2  0.1592151E-004  0.9702753E+02  0.7546771E-02  0.1291540E+00
          4   -1    0    0  502    0 -0.00000000000E+00  0.00000000000E+00  0.43091203733E+03  0.43091203733E+03  0.00000000000E+00 0. -1.
         21   -1    0    0  501  502  0.00000000000E+00 -0.00000000000E+00 -0.78064985664E+02  0.78064985664E+02  0.00000000000E+00 0. -1.
         24    2    1    2    0    0  0.66730171741E+01  0.30765759347E+02  0.34410069994E+03  0.35498403982E+03  0.81346885124E+02 0.  0.
         23    2    1    2    0    0 -0.29169868382E+02 -0.62470922955E+02  0.14544880265E+02  0.11468714840E+03  0.90488071201E+02 0.  0.
        -11    1    3    3    0    0 -0.25980171591E+02 -0.14871967591E+02  0.14879081304E+03  0.15177236502E+03  0.00000000000E+00 0.  1.
         12    1    3    3    0    0  0.32653188766E+02  0.45637726938E+02  0.19530988690E+03  0.20321167480E+03  0.00000000000E+00 0. -1.
        -11    1    4    4    0    0 -0.63466340619E+01 -0.25546301944E+02 -0.38190830422E+02  0.46383540564E+02  0.00000000000E+00 0.  1.
         11    1    4    4    0    0 -0.22823234320E+02 -0.36924621011E+02  0.52735710687E+02  0.68303607835E+02  0.00000000000E+00 0. -1.
          3    1    1    2  501    0  0.22496851208E+02  0.31705163608E+02 -0.57985285461E+01  0.39305834770E+02  0.00000000000E+00 0. -1.
<scales pt_clust_5="13000.00000" pt_clust_6="13000.00000" pt_clust_7="13000.00000" pt_clust_8="13000.00000" pt_clust_9="38.87577"></scales>
<clustering>
<clus scale="   38.876">  2  9  1 -1</clus>
<clus scale="   81.347">  5  6 -1 -1</clus>
<clus scale="   88.564">  1  5  2 -1</clus>
<clus scale="   90.488">  7  8 -1 -1</clus>
<clus scale="   38.876">  2  5  1 -1</clus>
</clustering>
</event>
<event>
 9    2  0.1592151E-004  0.9895669E+02  0.7546771E-02  0.1288430E+00
          2   -1    0    0  502    0 -0.00000000000E+00  0.00000000000E+00  0.74166499611E+02  0.74166499611E+02  0.00000000000E+00 0. -1.
         21   -1    0    0  501  502  0.00000000000E+00 -0.00000000000E+00 -0.30037742384E+03  0.30037742384E+03  0.00000000000E+00 0.  1.
         23    2    1    2    0    0 -0.20202606328E+02 -0.30180764043E+02  0.13742997205E+02  0.99275413540E+02  0.91365824797E+02 0.  0.
         24    2    1    2    0    0  0.52709248158E+02  0.14176568634E+02 -0.15260777182E+03  0.18070548391E+03  0.79913077502E+02 0.  0.
        -11    1    4    4    0    0  0.48690182716E+01  0.41183055623E+02 -0.73522913857E+02  0.84411908351E+02  0.00000000000E+00 0.  1.
         12    1    4    4    0    0  0.47840229886E+02 -0.27006486989E+02 -0.79084857963E+02  0.96293575560E+02  0.00000000000E+00 0. -1.
        -13    1    3    3    0    0 -0.86449147467E+01  0.18210146753E+02 -0.27882972158E+02  0.34406454803E+02  0.00000000000E+00 0.  1.
         13    1    3    3    0    0 -0.11557691582E+02 -0.48390910795E+02  0.41625969363E+02  0.64868958738E+02  0.00000000000E+00 0. -1.
          1    1    1    2  501    0 -0.32506641830E+02  0.16004195408E+02 -0.87346149611E+02  0.94563025996E+02  0.00000000000E+00 0. -1.
<scales pt_clust_5="13000.00000" pt_clust_6="13000.00000" pt_clust_7="13000.00000" pt_clust_8="13000.00000" pt_clust_9="36.23280"></scales>
<clustering>
<clus scale="   36.233">  2  9  1 -1</clus>
<clus scale="   79.913">  5  6 -1 -1</clus>
<clus scale="   88.492">  2  5  1 -1</clus>
<clus scale="   91.366">  7  8 -1 -1</clus>
<clus scale="   36.233">  2  5  1 -1</clus>
</clustering>
</event>
<event>
 9    2  0.1592151E-004  0.1220485E+03  0.7546771E-02  0.1243202E+00
          2   -1    0    0  502    0 -0.00000000000E+00  0.00000000000E+00  0.22760949825E+03  0.22760949825E+03  0.00000000000E+00 0. -1.
         21   -1    0    0  501  502  0.00000000000E+00 -0.00000000000E+00 -0.25015046397E+03  0.25015046397E+03  0.00000000000E+00 0. -1.
         23    2    1    2    0    0  0.70359164607E+01 -0.90834217749E+02  0.13781259538E+03  0.18879967557E+03  0.91392816002E+02 0.  0.
         24    2    1    2    0    0 -0.95133703221E+02  0.20955417779E+02 -0.66882494495E+02  0.14273748743E+03  0.80069789722E+02 0.  0.
        -11    1    4    4    0    0 -0.26671175465E+02 -0.30399482452E+02 -0.19193460763E+02  0.44764596168E+02  0.00000000000E+00 0.  1.
         12    1    4    4    0    0 -0.68462527756E+02  0.51354900231E+02 -0.47689033732E+02  0.97972891265E+02  0.00000000000E+00 0. -1.
        -11    1    3    3    0    0  0.44451934171E+02 -0.70047751799E+02  0.69699243803E+02  0.10835426420E+03  0.00000000000E+00 0.  1.
         11    1    3    3    0    0 -0.37416017710E+02 -0.20786465950E+02  0.68113351578E+02  0.80445411374E+02  0.00000000000E+00 0. -1.
          1    1    1    2  501    0  0.88097786760E+02  0.69878799970E+02 -0.93471066606E+02  0.14622279921E+03  0.00000000000E+00 0. -1.
<scales pt_clust_5="13000.00000" pt_clust_6="13000.00000" pt_clust_7="13000.00000" pt_clust_8="13000.00000" pt_clust_9="112.44673"></scales>
<clustering>
<clus scale="   80.070">  5  6 -1 -1</clus>
<clus scale="   91.393">  7  8 -1 -1</clus>
<clus scale="  112.447">  2  9  1 -1</clus>
<clus scale="  113.817">  2  5  1 -1</clus>
<clus scale="  112.447">  2  5  1 -1</clus>
</clustering>
</event>
<event>
 9    2  0.4226512E-004  0.1373396E+03  0.7546771E-02  0.1219730E+00
         21   -1    0    0  501  502  0.00000000000E+00  0.00000000000E+00  0.28215017276E+03  0.28215017276E+03  0.00000000000E+00 0.  1.
          2   -1    0    0  502    0 -0.00000000000E+00 -0.00000000000E+00 -0.54456639627E+03  0.54456639627E+03  0.00000000000E+00 0. -1.
         23    2    1    2    0    0  0.32026781977E+02  0.88952168208E+02 -0.19829266258E+03  0.23835871681E+03  0.92502404577E+02 0.  0.
         24    2    1    2    0    0 -0.10380766512E+03 -0.16331671530E+03  0.20921314229E+03  0.29613270892E+03  0.80473980568E+02 0.  0.
        -13    1    4    4    0    0 -0.10563815009E+03 -0.17096095384E+03  0.20552485622E+03  0.28745005308E+03  0.00000000000E+00 0.  1.
         14    1    4    4    0    0  0.18304849650E+01  0.76442385472E+01  0.36882860752E+01  0.86826558349E+01  0.00000000000E+00 0. -1.
        -11    1    3    3    0    0  0.41710223733E+02 -0.43474643385E+00 -0.52239949771E+02  0.66850161709E+02  0.00000000000E+00 0.  1.
         11    1    3    3    0    0 -0.96834417566E+01  0.89386914642E+02 -0.14605271281E+03  0.17150855510E+03  0.00000000000E+00 0. -1.
          1    1    1    2  501    0  0.71780883148E+02  0.74364547088E+02 -0.27333670322E+03  0.29222514330E+03  0.00000000000E+00 0. -1.
<scales pt_clust_5="13000.00000" pt_clust_6="13000.00000" pt_clust_7="13000.00000" pt_clust_8="13000.00000" pt_clust_9="103.35662"></scales>
<clustering>
<clus scale="   80.474">  5  6 -1 -1</clus>
<clus scale="   92.502">  7  8 -1 -1</clus>
<clus scale="  103.357">  1  9  2 -1</clus>
<clus scale="  129.544">  1  5  2 -1</clus>
<clus scale="  103.357">  1  5  2 -1</clus>
</clustering>
</event>
<event>
 9    2  0.1592151E-004  0.1277248E+03  0.7546771E-02  0.1237843E+00
         21   -1    0    0  501  502  0.00000000000E+00  0.00000000000E+00  0.31514186383E+03  0.31514186383E+03  0.00000000000E+00 0.  1.
         -1   -1    0    0    0  501 -0.00000000000E+00 -0.00000000000E+00 -0.18013191378E+03  0.18013191378E+03  0.00000000000E+00 0.  1.
         24    2    1    2    0    0  0.69883987103E+02 -0.47215693690E+02 -0.13856783300E+03  0.17969976022E+03  0.77316661190E+02 0.  0.
         23    2    1    2    0    0 -0.27954191733E+02  0.20616688513E+02  0.16420441060E+03  0.19545678542E+03  0.10016876671E+03 0.  0.
        -11    1    3    3    0    0  0.20506277194E+02 -0.15188958026E+02 -0.11245179243E+03  0.11531095989E+03  0.00000000000E+00 0.  1.
         12    1    3    3    0    0  0.49377709908E+02 -0.32026735664E+02 -0.26116040569E+02  0.64388800331E+02  0.00000000000E+00 0. -1.
        -13    1    4    4    0    0 -0.35189985386E+02  0.49052323327E+02  0.15223413464E+03  0.16376720443E+03  0.00000000000E+00 0. -1.
         13    1    4    4    0    0  0.72357936530E+01 -0.28435634814E+02  0.11970275960E+02  0.31689580995E+02  0.00000000000E+00 0.  1.
         -2    1    1    2    0  502 -0.41929795370E+02  0.26599005177E+02  0.10937337245E+03  0.12011723197E+03  0.00000000000E+00 0.  1.
<scales pt_clust_5="13000.00000" pt_clust_6="13000.00000" pt_clust_7="13000.00000" pt_clust_8="13000.00000" pt_clust_9="49.65496"></scales>
<clustering>
<clus scale="   49.655">  1  9  2 -1</clus>
<clus scale="   77.317">  5  6 -1 -1</clus>
<clus scale="  100.169">  7  8 -1 -1</clus>
<clus scale="  110.715">  2  5  1 -1</clus>
<clus scale="   49.655">  1  5  2 -1</clus>
</clustering>
</event>
<event>
 9    2  0.1592151E-004  0.9116036E+02  0.7546771E-02  0.1305535E+00
         21   -1    0    0  501  502  0.00000000000E+00  0.00000000000E+00  0.18740154277E+03  0.18740154277E+03  0.00000000000E+00 0.  1.
         -1   -1    0    0    0  501 -0.00000000000E+00 -0.00000000000E+00 -0.14930916868E+03  0.14930916868E+03  0.00000000000E+00 0.  1.
         24    2    1    2    0    0  0.86407641158E+01 -0.24931661370E+01 -0.96111544355E+02  0.12682665783E+03  0.82259914276E+02 0.  0.
         23    2    1    2    0    0  0.10178272508E+02 -0.23971284670E+02  0.27804283494E+02  0.98639253234E+02  0.90985737223E+02 0.  0.
        -11    1    3    3    0    0 -0.36007568865E+02 -0.23117307026E+01 -0.29352237102E+02  0.46512825514E+02  0.00000000000E+00 0.  1.
         12    1    3    3    0    0  0.44648332980E+02 -0.18143543444E+00 -0.66759307254E+02  0.80313832319E+02  0.00000000000E+00 0. -1.
        -11    1    4    4    0    0  0.13185017925E+02  0.28883231935E+02 -0.10336783666E+02  0.33390640623E+02  0.00000000000E+00 0. -1.
         11    1    4    4    0    0 -0.30067454175E+01 -0.52854516605E+02  0.38141067160E+02  0.65248612611E+02  0.00000000000E+00 0.  1.
         -2    1    1    2    0  502 -0.18819036624E+02  0.26464450807E+02  0.10639963495E+03  0.11124480039E+03  0.00000000000E+00 0.  1.
<scales pt_clust_5="13000.00000" pt_clust_6="13000.00000" pt_clust_7="13000.00000" pt_clust_8="13000.00000" pt_clust_9="32.47342"></scales>
<clustering>
<clus scale="   32.473">  1  9  2 -1</clus>
<clus scale="   82.260">  5  6 -1 -1</clus>
<clus scale="   82.453">  2  5  1 -1</clus>
<clus scale="   90.986">  7  8 -1 -1</clus>
<clus scale="   32.473">  1  5  2 -1</clus>
</clustering>
</event>
<event>
 9    2  0.1592151E-004  0.9997996E+02  0.7546771E-02  0.1283132E+00
         21   -1    0    0  501  502  0.00000000000E+00  0.00000000000E+00  0.24378386525E+02  0.24378386525E+02  0.00000000000E+00 0. -1.
          2   -1    0    0  502    0 -0.00000000000E+00 -0.00000000000E+00 -0.72081195573E+03  0.72081195573E+03  0.00000000000E+00 0. -1.
         24    2    1    2    0    0  0.46246904646E+01  0.10112514222E+02 -0.26960271651E+03  0.28599104832E+03  0.94771326181E+02 0.  0.
         23    2    1    2    0    0 -0.43025577601E+02 -0.47868618901E+02 -0.22769483589E+03  0.25290992251E+03  0.89307813816E+02 0.  0.
        -11    1    3    3    0    0  0.41879520918E+02  0.20805315092E+02 -0.81733902639E+02  0.94165738190E+02  0.00000000000E+00 0.  1.
         12    1    3    3    0    0 -0.37254830453E+02 -0.10692800869E+02 -0.18786881387E+03  0.19182531013E+03  0.00000000000E+00 0. -1.
        -13    1    4    4    0    0  0.29741340478E+01  0.24306052841E+02 -0.49278802692E+02  0.55027539222E+02  0.00000000000E+00 0.  1.
         13    1    4    4    0    0 -0.45999711648E+02 -0.72174671742E+02 -0.17841603320E+03  0.19788238329E+03  0.00000000000E+00 0. -1.
          1    1    1    2  501    0  0.38400887136E+02  0.37756104678E+02 -0.19913601681E+03  0.20628937143E+03  0.00000000000E+00 0. -1.
<scales pt_clust_5="13000.00000" pt_clust_6="13000.00000" pt_clust_7="13000.00000" pt_clust_8="13000.00000" pt_clust_9="53.85308"></scales>
<clustering>
<clus scale="   53.853">  1  9  2 -1</clus>
<clus scale="   89.308">  7  8 -1 -1</clus>
<clus scale="   94.771">  5  6 -1 -1</clus>
<clus scale="   94.817">  1  7  2 -1</clus>
<clus scale="   53.853">  1  5  2 -1</clus>
</clustering>
</event>
<event>
 9    2  0.1592151E-004  0.1082940E+03  0.7546771E-02  0.1268992E+00
          2   -1    0    0  502    0 -0.00000000000E+00  0.00000000000E+00  0.71351791787E+03  0.71351791787E+03  0.00000000000E+00 0. -1.
         21   -1    0    0  501  502  0.00000000000E+00 -0.00000000000E+00 -0.22896274041E+02  0.22896274041E+02  0.00000000000E+00 0. -1.
         23    2    1    2    0    0  0.40343896988E+02 -0.35168694546E+02  0.35920407721E+03  0.37504145799E+03  0.93616553184E+02 0.  0.
         24    2    1    2    0    0 -0.10685546622E+02  0.62203485586E+02  0.25678534443E+03  0.27663510201E+03  0.81269994603E+02 0.  0.
        -11    1    4    4    0    0  0.37877542899E+01  0.63845129178E+02  0.25384108236E+03  0.26177441185E+03  0.00000000000E+00 0.  1.
         12    1    4    4    0    0 -0.14473300912E+02 -0.16416435927E+01  0.29442620692E+01  0.14860690162E+02  0.00000000000E+00 0. -1.
        -13    1    3    3    0    0  0.18950982221E+02 -0.66526437053E+02  0.25170516585E+03  0.26103715649E+03  0.00000000000E+00 0.  1.
         13    1    3    3    0    0  0.21392914767E+02  0.31357742507E+02  0.10749891136E+03  0.11400430150E+03  0.00000000000E+00 0. -1.
          1    1    1    2  501    0 -0.29658350366E+02 -0.27034791039E+02  0.74632222188E+02  0.84737631910E+02  0.00000000000E+00 0. -1.
<scales pt_clust_5="13000.00000" pt_clust_6="13000.00000" pt_clust_7="13000.00000" pt_clust_8="13000.00000" pt_clust_9="40.13101"></scales>
<clustering>
<clus scale="   40.131">  2  9  1 -1</clus>
<clus scale="   81.270">  5  6 -1 -1</clus>
<clus scale="   93.617">  7  8 -1 -1</clus>
<clus scale="   97.818">  2  5  1 -1</clus>
<clus scale="   40.131">  2  5  1 -1</clus>
</clustering>
</event>
<event>
 9    2  0.1592151E-004  0.1702814E+03  0.7546771E-02  0.1195490E+00
         21   -1    0    0  501  502  0.00000000000E+00  0.00000000000E+00  0.10691228289E+03  0.10691228289E+03  0.00000000000E+00 0. -1.
          2   -1    0    0  502    0 -0.00000000000E+00 -0.00000000000E+00 -0.56838939259E+03  0.56838939259E+03  0.00000000000E+00 0. -1.
         24    2    1    2    0    0  0.66028474041E+01  0.85375059479E+02 -0.21476065861E+03  0.24328090573E+03  0.75703105827E+02 0.  0.
         23    2    1    2    0    0 -0.11596933518E+03  0.24018600521E+02 -0.23135797003E+03  0.27657340104E+03  0.94554513348E+02 0.  0.
        -13    1    3    3    0    0  0.34624155315E+02  0.13869459453E+02 -0.63638266190E+02  0.73763290060E+02  0.00000000000E+00 0.  1.
         14    1    3    3    0    0 -0.28021307911E+02  0.71505600026E+02 -0.15112239242E+03  0.16951761567E+03  0.00000000000E+00 0. -1.
        -13    1    4    4    0    0 -0.54568990462E+02 -0.76569699377E+01 -0.18584041687E+03  0.19383772711E+03  0.00000000000E+00 0.  1.
         13    1    4    4    0    0 -0.61400344721E+02  0.31675570458E+02 -0.45517553162E+02  0.82735673936E+02  0.00000000000E+00 0. -1.
          1    1    1    2  501    0  0.10936648778E+03 -0.10939366000E+03 -0.15358481060E+02  0.15544736871E+03  0.00000000000E+00 0. -1.
<scales pt_clust_5="13000.00000" pt_clust_6="13000.00000" pt_clust_7="13000.00000" pt_clust_8="13000.00000" pt_clust_9="141.61639"></scales>
<clustering>
<clus scale="   75.703">  5  6 -1 -1</clus>
<clus scale="   94.555">  7  8 -1 -1</clus>
<clus scale="  114.295">  2  5  1 -1</clus>
<clus scale="  141.616">  1  9  2 -1</clus>
<clus scale="  141.616">  1  5  2 -1</clus>
</clustering>
</event>
<event>
 9    2  0.1592151E-004  0.9133982E+02  0.7546771E-02  0.1306511E+00
         21   -1    0    0  501  502  0.00000000000E+00  0.00000000000E+00  0.82623407229E+03  0.82623407229E+03  0.00000000000E+00 0.  1.
         -3   -1    0    0    0  501 -0.00000000000E+00 -0.00000000000E+00 -0.21554483298E+02  0.21554483298E+02  0.00000000000E+00 0.  1.
         23    2    1    2    0    0  0.54577509816E+01  0.10050412238E+02  0.12955071897E+03  0.15874262554E+03  0.91022165148E+02 0.  0.
         24    2    1    2    0    0  0.68625342344E+01  0.75148772156E+01  0.65386417853E+03  0.65883805151E+03  0.80160129666E+02 0.  0.
        -13    1    4    4    0    0  0.27869414431E+02  0.18973272245E+02  0.12602755829E+03  0.13045932227E+03  0.00000000000E+00 0.  1.
         14    1    4    4    0    0 -0.21006880197E+02 -0.11458395029E+02  0.52783662025E+03  0.52837872923E+03  0.00000000000E+00 0. -1.
        -13    1    3    3    0    0  0.30099917709E+02  0.37455964463E+02  0.42262432546E+02  0.63992714622E+02  0.00000000000E+00 0. -1.
         13    1    3    3    0    0 -0.24642166727E+02 -0.27405552225E+02  0.87288286420E+02  0.94749910923E+02  0.00000000000E+00 0.  1.
         -4    1    1    2    0  502 -0.12320285216E+02 -0.17565289453E+02  0.21264691492E+02  0.30207878536E+02  0.00000000000E+00 0.  1.
<scales pt_clust_5="13000.00000" pt_clust_6="13000.00000" pt_clust_7="13000.00000" pt_clust_8="13000.00000" pt_clust_9="21.45529"></scales>
<clustering>
<clus scale="   21.455">  1  9  2 -1</clus>
<clus scale="   80.160">  5  6 -1 -1</clus>
<clus scale="   80.521">  1  5  2 -1</clus>
<clus scale="   91.022">  7  8 -1 -1</clus>
<clus scale="   21.455">  1  5  2 -1</clus>
</clustering>
</event>
<event>
 9    2  0.1592151E-004  0.1179836E+03  0.7546771E-02  0.1249497E+00
          2   -1    0    0  502    0 -0.00000000000E+00  0.00000000000E+00  0.19615446991E+03  0.19615446991E+03  0.00000000000E+00 0. -1.
         21   -1    0    0  501  502  0.00000000000E+00 -0.00000000000E+00 -0.40137636711E+03  0.40137636711E+03  0.00000000000E+00 0.  1.
         23    2    1    2    0    0 -0.39430970614E+02 -0.70225780699E+02  0.16005041151E+03  0.20080161564E+03  0.90657006911E+02 0.  0.
         24    2    1    2    0    0  0.22073400641E+02  0.46770714103E+01 -0.23766283184E+03  0.25222283014E+03  0.81385652245E+02 0.  0.
        -13    1    4    4    0    0  0.56993364789E+01 -0.32813054587E+02 -0.16937690159E+03  0.17262014303E+03  0.00000000000E+00 0.  1.
         14    1    4    4    0    0  0.16374064162E+02  0.37490125997E+02 -0.68285930248E+02  0.79602687105E+02  0.00000000000E+00 0. -1.
        -13    1    3    3    0    0 -0.54180241483E+02 -0.38698191878E+02  0.15071154216E+03  0.16476352012E+03  0.00000000000E+00 0.  1.
         13    1    3    3    0    0  0.14749270869E+02 -0.31527588821E+02  0.93388693445E+01  0.36038095519E+02  0.00000000000E+00 0. -1.
          1    1    1    2  501    0  0.17357569973E+02  0.65548709288E+02 -0.12760947686E+03  0.14450639124E+03  0.00000000000E+00 0. -1.
<scales pt_clust_5="13000.00000" pt_clust_6="13000.00000" pt_clust_7="13000.00000" pt_clust_8="13000.00000" pt_clust_9="67.80795"></scales>
<clustering>
<clus scale="   67.808">  2  9  1 -1</clus>
<clus scale="   81.386">  5  6 -1 -1</clus>
<clus scale="   90.657">  7  8 -1 -1</clus>
<clus scale="  111.018">  2  5  1 -1</clus>
<clus scale="   67.808">  2  5  1 -1</clus>
</clustering>
</event>
<event>
 9    2  0.1592151E-004  0.9866326E+02  0.7546771E-02  0.1290478E+00
         21   -1    0    0  501  502  0.00000000000E+00  0.00000000000E+00  0.61474550761E+02  0.61474550761E+02  0.00000000000E+00 0. -1.
         -1   -1    0    0    0  501 -0.00000000000E+00 -0.00000000000E+00 -0.32260186967E+03  0.32260186967E+03  0.00000000000E+00 0.  1.
         23    2    1    2    0    0  0.31469000955E+02 -0.10375315872E+02 -0.25502457689E+03  0.27327769309E+03  0.92440345757E+02 0.  0.
         24    2    1    2    0    0 -0.43985973124E+02 -0.54012636928E+01 -0.25717721016E+01  0.90352632269E+02  0.78695899926E+02 0.  0.
        -13    1    4    4    0    0  0.21727169033E+02  0.61069758818E+01 -0.66103405530E+01  0.23517262401E+02  0.00000000000E+00 0.  1.
         14    1    4    4    0    0 -0.65713142157E+02 -0.11508239575E+02  0.40385684514E+01  0.66835369868E+02  0.00000000000E+00 0. -1.
        -13    1    3    3    0    0 -0.91884498352E+01 -0.43004862833E+02 -0.89187876248E+02  0.99440047804E+02  0.00000000000E+00 0. -1.
         13    1    3    3    0    0  0.40657450790E+02  0.32629546961E+02 -0.16583670064E+03  0.17383764529E+03  0.00000000000E+00 0.  1.
         -2    1    1    2    0  502  0.12516972169E+02  0.15776579565E+02 -0.35309699186E+01  0.20446095070E+02  0.00000000000E+00 0.  1.
<scales pt_clust_5="13000.00000" pt_clust_6="13000.00000" pt_clust_7="13000.00000" pt_clust_8="13000.00000" pt_clust_9="20.13889"></scales>
<clustering>
<clus scale="   20.139">  1  9  2 -1</clus>
<clus scale="   78.696">  5  6 -1 -1</clus>
<clus scale="   85.920">  1  5  2 -1</clus>
<clus scale="   92.440">  7  8 -1 -1</clus>
<clus scale="   20.139">  1  5  2 -1</clus>
</clustering>
</event>
<event>
 9    2  0.1592151E-004  0.1289980E+03  0.7546771E-02  0.1230972E+00
         21   -1    0    0  501  502  0.00000000000E+00  0.00000000000E+00  0.36899762914E+02  0.36899762914E+02  0.00000000000E+00 0. -1.
          2   -1    0    0  502    0 -0.00000000000E+00 -0.00000000000E+00 -0.55534998815E+03  0.55534998815E+03  0.00000000000E+00 0. -1.
         23    2    1    2    0    0 -0.44604328430E+02  0.72393113502E+02 -0.24420778669E+03  0.27321496378E+03  0.88196736641E+02 0.  0.
         24    2    1    2    0    0  0.73533693759E+02 -0.77501548481E+02 -0.22431303974E+03  0.26110423273E+03  0.80283163973E+02 0.  0.
        -13    1    4    4    0    0  0.55898836788E+01 -0.62587365778E+02 -0.88844545637E+02  0.10881993588E+03  0.00000000000E+00 0.  1.
         14    1    4    4    0    0  0.67943810080E+02 -0.14914182703E+02 -0.13546849410E+03  0.15228429685E+03  0.00000000000E+00 0. -1.
        -11    1    3    3    0    0  0.38611092381E+01  0.67513397631E+02 -0.18231993677E+03  0.19445700390E+03  0.00000000000E+00 0. -1.
         11    1    3    3    0    0 -0.48465437668E+02  0.48797158716E+01 -0.61887849923E+02  0.78757959874E+02  0.00000000000E+00 0.  1.
          1    1    1    2  501    0 -0.28929365329E+02  0.51084349788E+01 -0.49929398808E+02  0.57930554560E+02  0.00000000000E+00 0. -1.
<scales pt_clust_5="13000.00000" pt_clust_6="13000.00000" pt_clust_7="13000.00000" pt_clust_8="13000.00000" pt_clust_9="29.37693"></scales>
<clustering>
<clus scale="   29.377">  1  9  2 -1</clus>
<clus scale="   80.283">  5  6 -1 -1</clus>
<clus scale="   88.197">  7  8 -1 -1</clus>
<clus scale="  123.722">  1  5  2 -1</clus>
<clus scale="   29.377">  1  5  2 -1</clus>
</clustering>
</event>
<event>
 9    2  0.1592151E-004  0.1109719E+03  0.7546771E-02  0.1262362E+00
          2   -1    0    0  502    0 -0.00000000000E+00  0.00000000000E+00  0.22087446766E+03  0.22087446766E+03  0.00000000000E+00 0. -1.
         21   -1    0    0  501  502  0.00000000000E+00 -0.00000000000E+00 -0.14850283626E+03  0.14850283626E+03  0.00000000000E+00 0.  1.
         24    2    1    2    0    0  0.33433659556E+02 -0.51555821055E+02  0.14575647733E+03  0.17718915757E+03  0.79845066218E+02 0.  0.
         23    2    1    2    0    0 -0.21719785810E+02  0.87925329218E+02 -0.23588504760E+02  0.12942166202E+03  0.89392037843E+02 0.  0.
        -13    1    3    3    0    0  0.50069206225E+01 -0.21733729296E+02 -0.32979325450E+01  0.22545522888E+02  0.00000000000E+00 0.  1.
         14    1    3    3    0    0  0.28426738934E+02 -0.29822091759E+02  0.14905440988E+03  0.15464363468E+03  0.00000000000E+00 0. -1.
        -13    1    4    4    0    0 -0.55471699346E+02  0.46428931641E+02 -0.39662292716E+01  0.72446436049E+02  0.00000000000E+00 0. -1.
         13    1    4    4    0    0  0.33751913535E+02  0.41496397577E+02 -0.19622275488E+02  0.56975225972E+02  0.00000000000E+00 0.  1.
          1    1    1    2  501    0 -0.11713873746E+02 -0.36369508164E+02 -0.49796341168E+02  0.62766484336E+02  0.00000000000E+00 0. -1.
<scales pt_clust_5="13000.00000" pt_clust_6="13000.00000" pt_clust_7="13000.00000" pt_clust_8="13000.00000" pt_clust_9="38.20937"></scales>
<clustering>
<clus scale="   38.209">  2  9  1 -1</clus>
<clus scale="   79.845">  5  6 -1 -1</clus>
<clus scale="   89.392">  7  8 -1 -1</clus>
<clus scale="  103.436">  1  5  2 -1</clus>
<clus scale="   38.209">  2  5  1 -1</clus>
</clustering>
</event>
<event>
 9    2  0.1592151E-004  0.1416093E+03  0.7546771E-02  0.1214914E+00
         21   -1    0    0  501  502  0.00000000000E+00  0.00000000000E+00  0.52337866315E+03  0.52337866315E+03  0.00000000000E+00 0.  1.
          2   -1    0    0  502    0 -0.00000000000E+00 -0.00000000000E+00 -0.70229337637E+02  0.70229337637E+02  0.00000000000E+00 0. -1.
         23    2    1    2    0    0 -0.34501902640E+01  0.11558482195E+03  0.42306826753E+02  0.15331926004E+03  0.91351918591E+02 0.  0.
         24    2    1    2    0    0 -0.24162860824E+02 -0.82620444444E+02  0.32743526950E+03  0.34644900147E+03  0.73505599945E+02 0.  0.
        -11    1    4    4    0    0 -0.50182793680E+02 -0.61039021685E+02  0.21606816228E+03  0.23006417735E+03  0.00000000000E+00 0.  1.
         12    1    4    4    0    0  0.26019932857E+02 -0.21581422759E+02  0.11136710722E+03  0.11638482412E+03  0.00000000000E+00 0. -1.
        -13    1    3    3    0    0 -0.29161513740E+02  0.21633841929E+00  0.89018879657E+01  0.30490724742E+02  0.00000000000E+00 0.  1.
         13    1    3    3    0    0  0.25711323476E+02  0.11536848353E+03  0.33404938787E+02  0.12282853530E+03  0.00000000000E+00 0. -1.
          1    1    1    2  501    0  0.27613051088E+02 -0.32964377510E+02  0.83407229259E+02  0.93839739278E+02  0.00000000000E+00 0. -1.
<scales pt_clust_5="13000.00000" pt_clust_6="13000.00000" pt_clust_7="13000.00000" pt_clust_8="13000.00000" pt_clust_9="43.00152"></scales>
<clustering>
<clus scale="   43.002">  1  9  2 -1</clus>
<clus scale="   73.506">  5  6 -1 -1</clus>
<clus scale="   91.352">  7  8 -1 -1</clus>
<clus scale="  130.809">  1  5  2 -1</clus>
<clus scale="   43.002">  1  5  2 -1</clus>
</clustering>
</event>
<event>
 9    2  0.1592151E-004  0.9326346E+02  0.7546771E-02  0.1302293E+00
         21   -1    0    0  501  502  0.00000000000E+00  0.00000000000E+00  0.26591379979E+03  0.26591379979E+03  0.00000000000E+00 0.  1.
          2   -1    0    0  502    0 -0.00000000000E+00 -0.00000000000E+00 -0.10448302569E+03  0.10448302569E+03  0.00000000000E+00 0. -1.
         24    2    1    2    0    0  0.15398783874E+02  0.17348667877E+02  0.31651753603E+02  0.89139264900E+02  0.80036717942E+02 0.  0.
         23    2    1    2    0    0 -0.10488588616E+02  0.21858320811E+02  0.18816226315E+03  0.21076003578E+03  0.91798468014E+02 0.  0.
        -11    1    3    3    0    0  0.30486161083E+02 -0.19165167699E+02  0.34049028719E+02  0.49558511149E+02  0.00000000000E+00 0.  1.
         12    1    3    3    0    0 -0.15087377209E+02  0.36513835577E+02 -0.23972751161E+01  0.39580753752E+02  0.00000000000E+00 0. -1.
        -11    1    4    4    0    0 -0.49075740051E+02  0.22357365657E+02  0.13225529695E+03  0.14282767110E+03  0.00000000000E+00 0.  1.
         11    1    4    4    0    0  0.38587151435E+02 -0.49904484601E+00  0.55906966198E+02  0.67932364681E+02  0.00000000000E+00 0. -1.
          1    1    1    2  501    0 -0.49101952581E+01 -0.39206988689E+02 -0.58383242658E+02  0.70497524799E+02  0.00000000000E+00 0. -1.
<scales pt_clust_5="13000.00000" pt_clust_6="13000.00000" pt_clust_7="13000.00000" pt_clust_8="13000.00000" pt_clust_9="39.51328"></scales>
<clustering>
<clus scale="   39.513">  1  9  2 -1</clus>
<clus scale="   80.037">  5  6 -1 -1</clus>
<clus scale="   81.713">  2  5  1 -1</clus>
<clus scale="   91.798">  7  8 -1 -1</clus>
<clus scale="   39.513">  1  5  2 -1</clus>
</clustering>
</event>
<event>
 9    2  0.1592151E-004  0.1470473E+03  0.7546771E-02  0.1206334E+00
         21   -1    0    0  501  502  0.00000000000E+00  0.00000000000E+00  0.53443458576E+02  0.53443458576E+02  0.00000000000E+00 0. -1.
          2   -1    0    0  502    0 -0.00000000000E+00 -0.00000000000E+00 -0.87786938762E+03  0.87786938762E+03  0.00000000000E+00 0. -1.
         24    2    1    2    0    0  0.11323095470E+03  0.55583794391E+02 -0.66492695702E+03  0.68155849672E+03  0.80519059745E+02 0.  0.
         23    2    1    2    0    0 -0.86757013159E+02  0.29551666737E+01 -0.12055893919E+03  0.17462775166E+03  0.91787153173E+02 0.  0.
        -11    1    3    3    0    0  0.74554145475E+02  0.15142260425E+02 -0.21296176232E+03  0.22614225803E+03  0.00000000000E+00 0.  1.
         12    1    3    3    0    0  0.38676809223E+02  0.40441533966E+02 -0.45196519469E+03  0.45541623868E+03  0.00000000000E+00 0. -1.
        -13    1    4    4    0    0 -0.15297729296E+01  0.23466014296E+02 -0.69071681871E+02  0.72965000299E+02  0.00000000000E+00 0.  1.
         13    1    4    4    0    0 -0.85227240230E+02 -0.20510847622E+02 -0.51487257319E+02  0.10166275136E+03  0.00000000000E+00 0. -1.
          1    1    1    2  501    0 -0.26473941538E+02 -0.58538961065E+02 -0.38940032842E+02  0.75126597826E+02  0.00000000000E+00 0. -1.
<scales pt_clust_5="13000.00000" pt_clust_6="13000.00000" pt_clust_7="13000.00000" pt_clust_8="13000.00000" pt_clust_9="64.24702"></scales>
<clustering>
<clus scale="   64.247">  1  9  2 -1</clus>
<clus scale="   80.519">  5  6 -1 -1</clus>
<clus scale="   91.787">  7  8 -1 -1</clus>
<clus scale="  140.290">  2  5  1 -1</clus>
<clus scale="   64.247">  1  5  2 -1</clus>
</clustering>
</event>
<event>
 9    2  0.1592151E-004  0.1145152E+03  0.7546771E-02  0.1254521E+00
         -1   -1    0    0    0  501 -0.00000000000E+00  0.00000000000E+00  0.42922275726E+03  0.42922275726E+03  0.00000000000E+00 0.  1.
         21   -1    0    0  501  502  0.00000000000E+00 -0.00000000000E+00 -0.45826827362E+02  0.45826827362E+02  0.00000000000E+00 0.  1.
         23    2    1    2    0    0 -0.32704543336E+02  0.41360197466E+02  0.11805798292E+03  0.15740830936E+03  0.89774358456E+02 0.  0.
         24    2    1    2    0    0  0.75992111585E+02 -0.53205024786E+02  0.15913110727E+03  0.20234163823E+03  0.83748752667E+02 0.  0.
        -13    1    4    4    0    0  0.25392184090E+02 -0.30726068686E+02  0.70291639957E+01  0.40475467338E+02  0.00000000000E+00 0.  1.
         14    1    4    4    0    0  0.50599927495E+02 -0.22478956100E+02  0.15210194328E+03  0.16186617089E+03  0.00000000000E+00 0. -1.
        -13    1    3    3    0    0 -0.18419573154E+02  0.63079788495E+02  0.44426466916E+02  0.79322451768E+02  0.00000000000E+00 0. -1.
         13    1    3    3    0    0 -0.14284970182E+02 -0.21719591029E+02  0.73631516001E+02  0.78085857594E+02  0.00000000000E+00 0.  1.
         -2    1    1    2    0  502 -0.43287568249E+02  0.11844827320E+02  0.10620683971E+03  0.11529963704E+03  0.00000000000E+00 0.  1.
<scales pt_clust_5="13000.00000" pt_clust_6="13000.00000" pt_clust_7="13000.00000" pt_clust_8="13000.00000" pt_clust_9="44.87890"></scales>
<clustering>
<clus scale="   44.879">  2  9  1 -1</clus>
<clus scale="   83.749">  5  6 -1 -1</clus>
<clus scale="   89.774">  7  8 -1 -1</clus>
<clus scale="  109.855">  2  5  1 -1</clus>
<clus scale="   44.879">  2  5  1 -1</clus>
</clustering>
</event>
<event>
 9    2  0.1592151E-004  0.1238408E+03  0.7546771E-02  0.1239955E+00
         21   -1    0    0  501  502  0.00000000000E+00  0.00000000000E+00  0.53669623363E+02  0.53669623363E+02  0.00000000000E+00 0.  1.
          2   -1    0    0  502    0 -0.00000000000E+00 -0.00000000000E+00 -0.80191718373E+03  0.80191718373E+03  0.00000000000E+00 0. -1.
         24    2    1    2    0    0  0.81156691647E+02 -0.12658765178E+02 -0.33316268469E+03  0.35238383335E+03  0.80189392075E+02 0.  0.
         23    2    1    2    0    0 -0.97642552279E+02 -0.33646294466E+02 -0.69296067069E+02  0.15393825708E+03  0.90713289732E+02 0.  0.
        -13    1    3    3    0    0 -0.71807825611E+01  0.19443047285E+02 -0.65230858409E+02  0.68444580608E+02  0.00000000000E+00 0.  1.
         14    1    3    3    0    0  0.88337474208E+02 -0.32101812463E+02 -0.26793182628E+03  0.28393925274E+03  0.00000000000E+00 0. -1.
        -13    1    4    4    0    0 -0.38815087703E+02  0.30570537800E+02 -0.33959455382E+02  0.59953427130E+02  0.00000000000E+00 0. -1.
         13    1    4    4    0    0 -0.58827464576E+02 -0.64216832266E+02 -0.35336611686E+02  0.93984829948E+02  0.00000000000E+00 0.  1.
          1    1    1    2  501    0  0.16485860632E+02  0.46305059645E+02 -0.34578880861E+03  0.34926471667E+03  0.00000000000E+00 0. -1.
<scales pt_clust_5="13000.00000" pt_clust_6="13000.00000" pt_clust_7="13000.00000" pt_clust_8="13000.00000" pt_clust_9="49.15226"></scales>
<clustering>
<clus scale="   49.152">  1  9  2 -1</clus>
<clus scale="   80.189">  5  6 -1 -1</clus>
<clus scale="   90.713">  7  8 -1 -1</clus>
<clus scale="  116.353">  2  5  1 -1</clus>
<clus scale="   49.152">  1  5  2 -1</clus>
</clustering>
</event>
<event>
 9    2  0.1592151E-004  0.1714058E+03  0.7546771E-02  0.1177929E+00
          2   -1    0    0  502    0 -0.00000000000E+00  0.00000000000E+00  0.77693170182E+03  0.77693170182E+03  0.00000000000E+00 0. -1.
         21   -1    0    0  501  502  0.00000000000E+00 -0.00000000000E+00 -0.86717326431E+02  0.86717326431E+02  0.00000000000E+00 0.  1.
         23    2    1    2    0    0  0.11777256113E+03  0.88408702489E+02  0.66407305526E+03  0.68634622356E+03  0.91605900721E+02 0.  0.
         24    2    1    2    0    0 -0.10992740361E+03 -0.69783305408E+02  0.13521348993E+02  0.15347602177E+03  0.80114409442E+02 0.  0.
        -11    1    4    4    0    0 -0.67139180238E+01 -0.25442763427E+02 -0.23416432373E+02  0.35224142447E+02  0.00000000000E+00 0.  1.
         12    1    4    4    0    0 -0.10321348559E+03 -0.44340541981E+02  0.36937781366E+02  0.11825187932E+03  0.00000000000E+00 0. -1.
        -13    1    3    3    0    0  0.47423003643E+01  0.43980144405E+02  0.99998876433E+02  0.10934586322E+03  0.00000000000E+00 0.  1.
         13    1    3    3    0    0  0.11303026076E+03  0.44428558085E+02  0.56407417882E+03  0.57700036034E+03  0.00000000000E+00 0. -1.
          1    1    1    2  501    0 -0.78451575107E+01 -0.18625397082E+02  0.12619971136E+02  0.23826782919E+02  0.00000000000E+00 0. -1.
<scales pt_clust_5="13000.00000" pt_clust_6="13000.00000" pt_clust_7="13000.00000" pt_clust_8="13000.00000" pt_clust_9="20.21019"></scales>
<clustering>
<clus scale="   20.210">  2  9  1 -1</clus>
<clus scale="   80.114">  5  6 -1 -1</clus>
<clus scale="   91.606">  7  8 -1 -1</clus>
<clus scale="  165.549">  2  5  1 -1</clus>
<clus scale="   20.210">  2  5  1 -1</clus>
</clustering>
</event>
<event>
 9    2  0.1592151E-004  0.2708957E+03  0.7546771E-02  0.1112144E+00
         21   -1    0    0  501  502  0.00000000000E+00  0.00000000000E+00  0.38858112298E+03  0.38858112298E+03  0.00000000000E+00 0. -1.
          2   -1    0    0  502    0 -0.00000000000E+00 -0.00000000000E+00 -0.49995628482E+03  0.49995628482E+03  0.00000000000E+00 0. -1.
         24    2    1    2    0    0  0.17217373008E+03 -0.70931043332E+02  0.14828220581E+03  0.25087624090E+03  0.79222909874E+02 0.  0.
         23    2    1    2    0    0  0.78303802349E+02  0.23851946665E+03 -0.53060940862E+02  0.27227512797E+03  0.91078320316E+02 0.  0.
        -11    1    3    3    0    0  0.36914886534E+01 -0.21687289075E+02  0.36988348426E+02  0.43036072255E+02  0.00000000000E+00 0.  1.
         12    1    3    3    0    0  0.16848224143E+03 -0.49243754257E+02  0.11129385739E+03  0.20784016864E+03  0.00000000000E+00 0. -1.
        -11    1    4    4    0    0  0.30936637141E+02  0.19281576055E+03 -0.64102783135E+02  0.20553384111E+03  0.00000000000E+00 0. -1.
         11    1    4    4    0    0  0.47367165208E+02  0.45703706097E+02  0.11041842273E+02  0.66741286859E+02  0.00000000000E+00 0.  1.
          1    1    1    2  501    0 -0.25047753243E+03 -0.16758842332E+03 -0.20659642679E+03  0.36538603893E+03  0.00000000000E+00 0. -1.
<scales pt_clust_5="13000.00000" pt_clust_6="13000.00000" pt_clust_7="13000.00000" pt_clust_8="13000.00000" pt_clust_9="255.12598"></scales>
<clustering>
<clus scale="   79.223">  5  6 -1 -1</clus>
<clus scale="   91.078">  7  8 -1 -1</clus>
<clus scale="  202.364">  2  5  1 -1</clus>
<clus scale="  255.126">  1  9  2 -1</clus>
<clus scale="  255.126">  1  5  2 -1</clus>
</clustering>
</event>
<event>
 9    2  0.1592151E-004  0.1521039E+03  0.7546771E-02  0.1200100E+00
         21   -1    0    0  501  502  0.00000000000E+00  0.00000000000E+00  0.10992139432E+03  0.10992139432E+03  0.00000000000E+00 0. -1.
          2   -1    0    0  502    0 -0.00000000000E+00 -0.00000000000E+00 -0.61844517730E+03  0.61844517730E+03  0.00000000000E+00 0. -1.
         24    2    1    2    0    0  0.37560607507E+02 -0.12103985907E+03 -0.51891761682E+03  0.53986231598E+03  0.78194503967E+02 0.  0.
         23    2    1    2    0    0 -0.41417167245E+01  0.99982313386E+02 -0.22774867142E+02  0.13692513956E+03  0.90643160038E+02 0.  0.
        -11    1    3    3    0    0  0.17183970291E+02 -0.76613253182E+02 -0.16665209690E+03  0.18422215068E+03  0.00000000000E+00 0.  1.
         12    1    3    3    0    0  0.20376637216E+02 -0.44426605888E+02 -0.35226551991E+03  0.35564016530E+03  0.00000000000E+00 0. -1.
        -11    1    4    4    0    0 -0.27941830025E+02  0.98163787705E+02  0.25889231714E+01  0.10209592355E+03  0.00000000000E+00 0.  1.
         11    1    4    4    0    0  0.23800113300E+02  0.18185256809E+01 -0.25363790313E+02  0.34829216009E+02  0.00000000000E+00 0. -1.
          1    1    1    2  501    0 -0.33418890783E+02  0.21057545684E+02  0.33168700985E+02  0.51579116088E+02  0.00000000000E+00 0. -1.
<scales pt_clust_5="13000.00000" pt_clust_6="13000.00000" pt_clust_7="13000.00000" pt_clust_8="13000.00000" pt_clust_9="39.49990"></scales>
<clustering>
<clus scale="   39.500">  1  9  2 -1</clus>
<clus scale="   78.195">  5  6 -1 -1</clus>
<clus scale="   90.643">  7  8 -1 -1</clus>
<clus scale="  145.030">  2  5  1 -1</clus>
<clus scale="   39.500">  1  5  2 -1</clus>
</clustering>
</event>
<event>
 9    2  0.1592151E-004  0.1406036E+03  0.7546771E-02  0.1233116E+00
         21   -1    0    0  501  502  0.00000000000E+00  0.00000000000E+00  0.38609951937E+03  0.38609951937E+03  0.00000000000E+00 0.  1.
          4   -1    0    0  502    0 -0.00000000000E+00 -0.00000000000E+00 -0.99974009385E+02  0.99974009385E+02  0.00000000000E+00 0. -1.
         24    2    1    2    0    0 -0.24862779482E+02  0.31943604485E+02  0.10979883118E+03  0.14287693739E+03  0.81972460234E+02 0.  0.
         23    2    1    2    0    0  0.95126243714E+02  0.50550689173E+02  0.18668520791E+03  0.23434089782E+03  0.91977796893E+02 0.  0.
        -13    1    3    3    0    0 -0.42099871818E+02  0.49874732225E+02  0.68122227038E+02  0.94342598746E+02  0.00000000000E+00 0.  1.
         14    1    3    3    0    0  0.17237092336E+02 -0.17931127739E+02  0.41676604146E+02  0.48534338641E+02  0.00000000000E+00 0. -1.
        -11    1    4    4    0    0  0.65614399841E+02  0.46873835496E+02  0.18800819875E+03  0.20457147582E+03  0.00000000000E+00 0.  1.
         11    1    4    4    0    0  0.29511843873E+02  0.36768536767E+01 -0.13229908416E+01  0.29769422005E+02  0.00000000000E+00 0. -1.
          3    1    1    2  501    0 -0.70263464232E+02 -0.82494293658E+02 -0.10358529107E+02  0.10885569355E+03  0.00000000000E+00 0. -1.
<scales pt_clust_5="13000.00000" pt_clust_6="13000.00000" pt_clust_7="13000.00000" pt_clust_8="13000.00000" pt_clust_9="106.34593"></scales>
<clustering>
<clus scale="   81.972">  5  6 -1 -1</clus>
<clus scale="   91.422">  2  5  1 -1</clus>
<clus scale="   91.978">  7  8 -1 -1</clus>
<clus scale="  106.346">  1  9  2 -1</clus>
<clus scale="  106.346">  1  5  2 -1</clus>
</clustering>
</event>
<event>
 9    2  0.1592151E-004  0.1200229E+03  0.7546771E-02  0.1253631E+00
         21   -1    0    0  501  502  0.00000000000E+00  0.00000000000E+00  0.36754466694E+03  0.36754466694E+03  0.00000000000E+00 0. -1.
          2   -1    0    0  502    0 -0.00000000000E+00 -0.00000000000E+00 -0.13643472409E+03  0.13643472409E+03  0.00000000000E+00 0. -1.
         24    2    1    2    0    0  0.15099604446E+01  0.58501777611E+02 -0.98718910694E+02  0.13951514293E+03  0.79336711639E+02 0.  0.
         23    2    1    2    0    0  0.18181069019E+02 -0.30943390572E+02  0.18991067643E+03  0.22050488709E+03  0.10615222804E+03 0.  0.
        -11    1    3    3    0    0  0.29991601603E+02 -0.25790933340E+00 -0.48968588529E+02  0.57423735045E+02  0.00000000000E+00 0.  1.
         12    1    3    3    0    0 -0.28481641158E+02  0.58759686945E+02 -0.49750322164E+02  0.82091407884E+02  0.00000000000E+00 0. -1.
        -13    1    4    4    0    0  0.41214333405E+02 -0.59958872032E+02  0.14545072869E+03  0.16263333634E+03  0.00000000000E+00 0.  1.
         13    1    4    4    0    0 -0.23033264386E+02  0.29015481460E+02  0.44459947736E+02  0.57871550742E+02  0.00000000000E+00 0. -1.
          1    1    1    2  501    0 -0.19691029463E+02 -0.27558387040E+02  0.13991817711E+03  0.14395936101E+03  0.00000000000E+00 0. -1.
<scales pt_clust_5="13000.00000" pt_clust_6="13000.00000" pt_clust_7="13000.00000" pt_clust_8="13000.00000" pt_clust_9="33.87036"></scales>
<clustering>
<clus scale="   33.870">  1  9  2 -1</clus>
<clus scale="   79.337">  5  6 -1 -1</clus>
<clus scale="   97.116">  2  5  1 -1</clus>
<clus scale="  106.152">  7  8 -1 -1</clus>
<clus scale="   33.870">  1  5  2 -1</clus>
</clustering>
</event>
<event>
 9    2  0.1592151E-004  0.1206343E+03  0.7546771E-02  0.1245046E+00
         21   -1    0    0  501  502  0.00000000000E+00  0.00000000000E+00  0.17264529527E+03  0.17264529527E+03  0.00000000000E+00 0.  1.
         -3   -1    0    0    0  501 -0.00000000000E+00 -0.00000000000E+00 -0.13958429604E+03  0.13958429604E+03  0.00000000000E+00 0.  1.
         24    2    1    2    0    0  0.26917231322E+01  0.63402284576E+02 -0.20992284068E+02  0.10518818352E+03  0.81220581742E+02 0.  0.
         23    2    1    2    0    0  0.13189742016E+02 -0.11396125138E+03  0.32947596175E+02  0.14999861607E+03  0.90845498620E+02 0.  0.
        -11    1    3    3    0    0  0.36402785068E+02  0.15282894431E+02 -0.24269823268E+02  0.46343866308E+02  0.00000000000E+00 0.  1.
         12    1    3    3    0    0 -0.33711061936E+02  0.48119390144E+02  0.32775391994E+01  0.58844317210E+02  0.00000000000E+00 0. -1.
        -13    1    4    4    0    0 -0.68134848988E+01 -0.31198646611E+02  0.53592968590E+02  0.62385778901E+02  0.00000000000E+00 0.  1.
         13    1    4    4    0    0  0.20003226915E+02 -0.82762604766E+02 -0.20645372415E+02  0.87612837169E+02  0.00000000000E+00 0. -1.
         -4    1    1    2    0  502 -0.15881465148E+02  0.50558966801E+02  0.21105687122E+02  0.57042791728E+02  0.00000000000E+00 0.  1.
<scales pt_clust_5="13000.00000" pt_clust_6="13000.00000" pt_clust_7="13000.00000" pt_clust_8="13000.00000" pt_clust_9="52.99462"></scales>
<clustering>
<clus scale="   52.995">  1  9  2 -1</clus>
<clus scale="   81.221">  5  6 -1 -1</clus>
<clus scale="   90.845">  7  8 -1 -1</clus>
<clus scale="  113.563">  2  5  1 -1</clus>
<clus scale="   52.995">  1  5  2 -1</clus>
</clustering>
</event>
<event>
 9    2  0.1592151E-004  0.1641001E+03  0.7546771E-02  0.1206682E+00
         21   -1    0    0  501  502  0.00000000000E+00  0.00000000000E+00  0.19958024552E+03  0.19958024552E+03  0.00000000000E+00 0.  1.
          4   -1    0    0  502    0 -0.00000000000E+00 -0.00000000000E+00 -0.27132329088E+03  0.27132329088E+03  0.00000000000E+00 0. -1.
         24    2    1    2    0    0  0.60426745223E+02 -0.23190780912E+01 -0.56246539424E+02  0.11489846248E+03  0.79882500095E+02 0.  0.
         23    2    1    2    0    0 -0.13881185145E+03  0.65799545519E+02  0.99314707183E+02  0.20317965300E+03  0.88432177612E+02 0.  0.
        -13    1    3    3    0    0  0.51109387963E+02  0.14527730565E+01  0.63294225896E+01  0.51520303549E+02  0.00000000000E+00 0.  1.
         14    1    3    3    0    0  0.93173572609E+01 -0.37718511478E+01 -0.62575962014E+02  0.63378158930E+02  0.00000000000E+00 0. -1.
        -13    1    4    4    0    0 -0.10416604348E+03  0.67550934981E+01  0.37420613029E+02  0.11088957653E+03  0.00000000000E+00 0.  1.
         13    1    4    4    0    0 -0.34645807967E+02  0.59044452021E+02  0.61894094155E+02  0.92290076473E+02  0.00000000000E+00 0. -1.
          3    1    1    2  501    0  0.78385106228E+02 -0.63480467428E+02 -0.11481121311E+03  0.15282542092E+03  0.00000000000E+00 0. -1.
<scales pt_clust_5="13000.00000" pt_clust_6="13000.00000" pt_clust_7="13000.00000" pt_clust_8="13000.00000" pt_clust_9="138.23389"></scales>
<clustering>
<clus scale="   79.883">  5  6 -1 -1</clus>
<clus scale="   88.432">  7  8 -1 -1</clus>
<clus scale="  100.190">  2  5  1 -1</clus>
<clus scale="  138.234">  1  9  2 -1</clus>
<clus scale="  138.234">  1  5  2 -1</clus>
</clustering>
</event>
<event>
 9    2  0.1592151E-004  0.1512715E+03  0.7546771E-02  0.1203640E+00
          2   -1    0    0  502    0 -0.00000000000E+00  0.00000000000E+00  0.35906430319E+03  0.35906430319E+03  0.00000000000E+00 0. -1.
         21   -1    0    0  501  502  0.00000000000E+00 -0.00000000000E+00 -0.88134382399E+02  0.88134382399E+02  0.00000000000E+00 0. -1.
         24    2    1    2    0    0 -0.12126955491E+03  0.18416308148E+02  0.21488947095E+03  0.26000530757E+03  0.79873712125E+02 0.  0.
         23    2    1    2    0    0  0.85365139379E+02  0.74279567241E+01  0.36888918812E+02  0.13898721428E+03  0.10302558827E+03 0.  0.
        -13    1    3    3    0    0 -0.17879200066E+02  0.35702290725E+02  0.77620372182E+02  0.87288266885E+02  0.00000000000E+00 0.  1.
         14    1    3    3    0    0 -0.10339035485E+03 -0.17285982577E+02  0.13726909876E+03  0.17271704069E+03  0.00000000000E+00 0. -1.
        -11    1    4    4    0    0  0.39464311954E+02  0.74243249062E+01  0.71156700764E+02  0.81705743874E+02  0.00000000000E+00 0.  1.
         11    1    4    4    0    0  0.45900827425E+02  0.36318178903E-02 -0.34267781952E+02  0.57281470402E+02  0.00000000000E+00 0. -1.
          1    1    1    2  501    0  0.35904415536E+02 -0.25844264872E+02  0.19151531036E+02  0.48206163742E+02  0.00000000000E+00 0. -1.
<scales pt_clust_5="13000.00000" pt_clust_6="13000.00000" pt_clust_7="13000.00000" pt_clust_8="13000.00000" pt_clust_9="44.23859"></scales>
<clustering>
<clus scale="   44.239">  2  9  1 -1</clus>
<clus scale="   79.874">  5  6 -1 -1</clus>
<clus scale="  103.026">  7  8 -1 -1</clus>
<clus scale="  136.560">  1  5  2 -1</clus>
<clus scale="   44.239">  2  5  1 -1</clus>
</clustering>
</event>
<event>
 9    2  0.1592151E-004  0.1120224E+03  0.7546771E-02  0.1260253E+00
         21   -1    0    0  501  502  0.00000000000E+00  0.00000000000E+00  0.24335003717E+03  0.24335003717E+03  0.00000000000E+00 0.  1.
         -1   -1    0    0    0  501 -0.00000000000E+00 -0.00000000000E+00 -0.14605546852E+03  0.14605546852E+03  0.00000000000E+00 0.  1.
         23    2    1    2    0    0  0.75103748304E+02  0.97527621396E+01 -0.88379549929E+02  0.14713113854E+03  0.90005209312E+02 0.  0.
         24    2    1    2    0    0 -0.23097142892E+02  0.25617732983E+02  0.13689548105E+03  0.16268093518E+03  0.80839147007E+02 0.  0.
        -13    1    4    4    0    0 -0.12830645319E+02 -0.15861709693E+02  0.11068991493E+03  0.11255432716E+03  0.00000000000E+00 0.  1.
         14    1    4    4    0    0 -0.10266497574E+02  0.41479442676E+02  0.26205566113E+02  0.50126608028E+02  0.00000000000E+00 0. -1.
        -11    1    3    3    0    0  0.86382830121E+02  0.30678957965E+02 -0.80754709182E+02  0.12216593165E+03  0.00000000000E+00 0.  1.
         11    1    3    3    0    0 -0.11279081818E+02 -0.20926195826E+02 -0.76248407473E+01  0.24965206885E+02  0.00000000000E+00 0. -1.
         -2    1    1    2    0  502 -0.52006605411E+02 -0.35370495122E+02  0.48778637538E+02  0.79593431963E+02  0.00000000000E+00 0.  1.
<scales pt_clust_5="13000.00000" pt_clust_6="13000.00000" pt_clust_7="13000.00000" pt_clust_8="13000.00000" pt_clust_9="62.89482"></scales>
<clustering>
<clus scale="   62.895">  1  9  2 -1</clus>
<clus scale="   80.839">  5  6 -1 -1</clus>
<clus scale="   90.005">  7  8 -1 -1</clus>
<clus scale="  104.800">  1  5  2 -1</clus>
<clus scale="   62.895">  1  5  2 -1</clus>
</clustering>
</event>
<event>
 9    2  0.1592151E-004  0.1608371E+03  0.7546771E-02  0.1190208E+00
         21   -1    0    0  501  502  0.00000000000E+00  0.00000000000E+00  0.71330075916E+03  0.71330075916E+03  0.00000000000E+00 0. -1.
          4   -1    0    0  502    0 -0.00000000000E+00 -0.00000000000E+00 -0.57082515841E+02  0.57082515841E+02  0.00000000000E+00 0. -1.
         23    2    1    2    0    0  0.11400932824E+03  0.18130007838E+02  0.23657077669E+03  0.27896979785E+03  0.92366615285E+02 0.  0.
         24    2    1    2    0    0 -0.14411861608E+03 -0.70635634579E+02  0.37857290317E+03  0.41826616130E+03  0.76613120908E+02 0.  0.
        -11    1    4    4    0    0  0.31530035330E+01 -0.21337601813E+02  0.62127853987E+02  0.65765529903E+02  0.00000000000E+00 0.  1.
         12    1    4    4    0    0 -0.14727161961E+03 -0.49298032766E+02  0.31644504919E+03  0.35250063139E+03  0.00000000000E+00 0. -1.
        -13    1    3    3    0    0  0.10063451739E+03 -0.15123592242E+02  0.12172055094E+03  0.15865661554E+03  0.00000000000E+00 0. -1.
         13    1    3    3    0    0  0.13374810848E+02  0.33253600080E+02  0.11485022575E+03  0.12031318231E+03  0.00000000000E+00 0.  1.
          3    1    1    2  501    0  0.30109287845E+02  0.52505626740E+02  0.41074563456E+02  0.73147315857E+02  0.00000000000E+00 0. -1.
<scales pt_clust_5="13000.00000" pt_clust_6="13000.00000" pt_clust_7="13000.00000" pt_clust_8="13000.00000" pt_clust_9="60.52614"></scales>
<clustering>
<clus scale="   60.526">  1  9  2 -1</clus>
<clus scale="   76.613">  5  6 -1 -1</clus>
<clus scale="   92.367">  7  8 -1 -1</clus>
<clus scale="  152.337">  1  5  2 -1</clus>
<clus scale="   60.526">  1  5  2 -1</clus>
</clustering>
</event>
<event>
 9    2  0.1592151E-004  0.1003332E+03  0.7546771E-02  0.1281665E+00
         21   -1    0    0  501  502  0.00000000000E+00  0.00000000000E+00  0.79020311322E+03  0.79020311322E+03  0.00000000000E+00 0.  1.
         -1   -1    0    0    0  501 -0.00000000000E+00 -0.00000000000E+00 -0.28756650383E+02  0.28756650383E+02  0.00000000000E+00 0.  1.
         24    2    1    2    0    0 -0.15384504187E+02  0.37132712020E+02  0.93661961019E+02  0.13386709362E+03  0.86788907933E+02 0.  0.
         23    2    1    2    0    0  0.56558997416E+02 -0.26470088540E+02  0.47285752904E+03  0.48557937431E+03  0.91068656609E+02 0.  0.
        -11    1    3    3    0    0  0.72678022573E+01  0.29358212463E+02 -0.64549004911E+01  0.30925577262E+02  0.00000000000E+00 0.  1.
         12    1    3    3    0    0 -0.22652306444E+02  0.77744995576E+01  0.10011686151E+03  0.10294151635E+03  0.00000000000E+00 0. -1.
        -13    1    4    4    0    0 -0.10443005761E+02  0.20698731615E+02  0.53748560529E+02  0.58535473166E+02  0.00000000000E+00 0. -1.
         13    1    4    4    0    0  0.67002003178E+02 -0.47168820155E+02  0.41910896851E+03  0.42704390115E+03  0.00000000000E+00 0.  1.
         -2    1    1    2    0  502 -0.41174493229E+02 -0.10662623480E+02  0.19492697279E+03  0.19951329568E+03  0.00000000000E+00 0.  1.
<scales pt_clust_5="13000.00000" pt_clust_6="13000.00000" pt_clust_7="13000.00000" pt_clust_8="13000.00000" pt_clust_9="42.53270"></scales>
<clustering>
<clus scale="   42.533">  1  9  2 -1</clus>
<clus scale="   86.789">  5  6 -1 -1</clus>
<clus scale="   91.069">  7  8 -1 -1</clus>
<clus scale="   96.465">  2  5  1 -1</clus>
<clus scale="   42.533">  1  5  2 -1</clus>
</clustering>
</event>
<event>
 9    2  0.1592151E-004  0.1055475E+03  0.7546771E-02  0.1275777E+00
         21   -1    0    0  501  502  0.00000000000E+00  0.00000000000E+00  0.56269307490E+02  0.56269307490E+02  0.00000000000E+00 0. -1.
          2   -1    0    0  502    0 -0.00000000000E+00 -0.00000000000E+00 -0.63284508287E+03  0.63284508287E+03  0.00000000000E+00 0. -1.
         24    2    1    2    0    0 -0.18333749444E+02 -0.39441134583E+02 -0.48897271546E+03  0.49729895553E+03  0.79499718460E+02 0.  0.
         23    2    1    2    0    0  0.24950343244E+02  0.73895361963E+02 -0.96340431116E+02  0.15566000988E+03  0.94156868361E+02 0.  0.
        -11    1    3    3    0    0  0.26380205050E+02 -0.53722316732E+01 -0.78349583773E+02  0.82845840988E+02  0.00000000000E+00 0.  1.
         12    1    3    3    0    0 -0.44713954494E+02 -0.34068902910E+02 -0.41062313169E+03  0.41445311454E+03  0.00000000000E+00 0. -1.
        -11    1    4    4    0    0  0.49623459955E+02  0.64775489072E+02 -0.10003807459E+03  0.12909673943E+03  0.00000000000E+00 0. -1.
         11    1    4    4    0    0 -0.24673116711E+02  0.91198728914E+01  0.36976434752E+01  0.26563270451E+02  0.00000000000E+00 0.  1.
          1    1    1    2  501    0 -0.66165937997E+01 -0.34454227381E+02  0.87373712032E+01  0.36155424952E+02  0.00000000000E+00 0. -1.
<scales pt_clust_5="13000.00000" pt_clust_6="13000.00000" pt_clust_7="13000.00000" pt_clust_8="13000.00000" pt_clust_9="35.08380"></scales>
<clustering>
<clus scale="   35.084">  1  9  2 -1</clus>
<clus scale="   79.500">  5  6 -1 -1</clus>
<clus scale="   92.709">  2  5  1 -1</clus>
<clus scale="   94.157">  7  8 -1 -1</clus>
<clus scale="   35.084">  1  5  2 -1</clus>
</clustering>
</event>
<event>
 9    2  0.1592151E-004  0.1499246E+03  0.7546771E-02  0.1210900E+00
          2   -1    0    0  502    0 -0.00000000000E+00  0.00000000000E+00  0.31910710542E+03  0.31910710542E+03  0.00000000000E+00 0. -1.
         21   -1    0    0  501  502  0.00000000000E+00 -0.00000000000E+00 -0.15988689360E+03  0.15988689360E+03  0.00000000000E+00 0.  1.
         24    2    1    2    0    0 -0.81550485261E+02  0.33666976825E+02 -0.26781090796E+02  0.12299536287E+03  0.81404456203E+02 0.  0.
         23    2    1    2    0    0 -0.70928754831E+02  0.48679404046E+02  0.54539063023E+02  0.13848273893E+03  0.93821036803E+02 0.  0.
        -11    1    3    3    0    0 -0.80302662583E+02  0.21099225883E+02 -0.49743441443E+02  0.96788971052E+02  0.00000000000E+00 0.  1.
         12    1    3    3    0    0 -0.12478226783E+01  0.12567750942E+02  0.22962350646E+02  0.26206391823E+02  0.00000000000E+00 0. -1.
        -11    1    4    4    0    0 -0.30405438451E+02 -0.23785825025E+02  0.37311568706E+02  0.53688074270E+02  0.00000000000E+00 0. -1.
         11    1    4    4    0    0 -0.40523316381E+02  0.72465229072E+02  0.17227494317E+02  0.84794664663E+02  0.00000000000E+00 0.  1.
          1    1    1    2  501    0  0.15247924009E+03 -0.82346380871E+02  0.13146223959E+03  0.21751589721E+03  0.00000000000E+00 0. -1.
<scales pt_clust_5="13000.00000" pt_clust_6="13000.00000" pt_clust_7="13000.00000" pt_clust_8="13000.00000" pt_clust_9="116.94020"></scales>
<clustering>
<clus scale="   81.404">  5  6 -1 -1</clus>
<clus scale="   93.821">  7  8 -1 -1</clus>
<clus scale="  120.044">  1  5  2 -1</clus>
<clus scale="  116.940">  2  9  1 -1</clus>
<clus scale="  116.940">  2  5  1 -1</clus>
</clustering>
</event>
<event>
 9    2  0.1592151E-004  0.1418063E+03  0.7546771E-02  0.1212676E+00
          2   -1    0    0  502    0 -0.00000000000E+00  0.00000000000E+00  0.10377801557E+03  0.10377801557E+03  0.00000000000E+00 0. -1.
         21   -1    0    0  501  502  0.00000000000E+00 -0.00000000000E+00 -0.27552090728E+03  0.27552090728E+03  0.00000000000E+00 0.  1.
         23    2    1    2    0    0 -0.10698942315E+03  0.29142618376E+02 -0.18007376349E+01  0.14216654703E+03  0.88949736178E+02 0.  0.
         24    2    1    2    0    0  0.98347162973E+02 -0.52211885081E+02 -0.12414628411E+03  0.18513101591E+03  0.80392460983E+02 0.  0.
        -11    1    4    4    0    0  0.22247518473E+02  0.12543278246E+02  0.29010518549E+00  0.25541536140E+02  0.00000000000E+00 0.  1.
         12    1    4    4    0    0  0.76099644500E+02 -0.64755163327E+02 -0.12443638930E+03  0.15958947977E+03  0.00000000000E+00 0. -1.
        -11    1    3    3    0    0 -0.65949510611E+02  0.60213160236E+02 -0.10654159220E+02  0.89935942338E+02  0.00000000000E+00 0.  1.
         11    1    3    3    0    0 -0.41039912537E+02 -0.31070541860E+02  0.88534215847E+01  0.52230604690E+02  0.00000000000E+00 0. -1.
          1    1    1    2  501    0  0.86422601752E+01  0.23069266705E+02 -0.45795869961E+02  0.52001359912E+02  0.00000000000E+00 0. -1.
<scales pt_clust_5="13000.00000" pt_clust_6="13000.00000" pt_clust_7="13000.00000" pt_clust_8="13000.00000" pt_clust_9="24.63493"></scales>
<clustering>
<clus scale="   24.635">  2  9  1 -1</clus>
<clus scale="   80.392">  5  6 -1 -1</clus>
<clus scale="   88.950">  7  8 -1 -1</clus>
<clus scale="  136.601">  2  5  1 -1</clus>
<clus scale="   24.635">  2  5  1 -1</clus>
</clustering>
</event>
<event>
 9    2  0.1592151E-004  0.1214967E+03  0.7546771E-02  0.1257738E+00
         21   -1    0    0  501  502  0.00000000000E+00  0.00000000000E+00  0.11508077904E+03  0.11508077904E+03  0.00000000000E+00 0. -1.
          2   -1    0    0  502    0 -0.00000000000E+00 -0.00000000000E+00 -0.36412346843E+03  0.36412346843E+03  0.00000000000E+00 0. -1.
         24    2    1    2    0    0  0.26989454538E+02  0.16017079266E+02 -0.24965014937E+03  0.26415030155E+03  0.80406512460E+02 0.  0.
         23    2    1    2    0    0 -0.46644585309E+01  0.70214549290E+02  0.30451873104E+02  0.12111253755E+03  0.93750147048E+02 0.  0.
        -11    1    3    3    0    0 -0.26881709217E+02  0.31717468310E+00 -0.11830842345E+03  0.12132439965E+03  0.00000000000E+00 0.  1.
         12    1    3    3    0    0  0.53871163755E+02  0.15699904583E+02 -0.13134172592E+03  0.14282590191E+03  0.00000000000E+00 0. -1.
        -13    1    4    4    0    0  0.43624560672E+02  0.37709790583E+02  0.24312610234E+02  0.62579817961E+02  0.00000000000E+00 0.  1.
         13    1    4    4    0    0 -0.48289019203E+02  0.32504758708E+02  0.61392628700E+01  0.58532719592E+02  0.00000000000E+00 0. -1.
          1    1    1    2  501    0 -0.22324996007E+02 -0.86231628556E+02 -0.29844413120E+02  0.93941408360E+02  0.00000000000E+00 0. -1.
<scales pt_clust_5="13000.00000" pt_clust_6="13000.00000" pt_clust_7="13000.00000" pt_clust_8="13000.00000" pt_clust_9="77.28104"></scales>
<clustering>
<clus scale="   80.407">  5  6 -1 -1</clus>
<clus scale="   86.314">  2  5  1 -1</clus>
<clus scale="   77.281">  1  9  2 -1</clus>
<clus scale="   93.750">  7  8 -1 -1</clus>
<clus scale="   77.281">  1  5  2 -1</clus>
</clustering>
</event>
<event>
 9    2  0.1592151E-004  0.2204968E+03  0.7546771E-02  0.1155780E+00
          2   -1    0    0  502    0 -0.00000000000E+00  0.00000000000E+00  0.27315866328E+03  0.27315866328E+03  0.00000000000E+00 0. -1.
         21   -1    0    0  501  502  0.00000000000E+00 -0.00000000000E+00 -0.37001051992E+03  0.37001051992E+03  0.00000000000E+00 0. -1.
         23    2    1    2    0    0 -0.67743816318E+02  0.63378341551E+02 -0.17752174369E+02  0.13064762764E+03  0.90264190494E+02 0.  0.
         24    2    1    2    0    0  0.57292696117E+02 -0.21733239275E+03 -0.20393201382E+03  0.31404186694E+03  0.80735407118E+02 0.  0.
        -11    1    4    4    0    0 -0.17682210311E+02 -0.16018143525E+02 -0.23669722528E+02  0.33607993811E+02  0.00000000000E+00 0.  1.
         12    1    4    4    0    0  0.74974906428E+02 -0.20131424923E+03 -0.18026229130E+03  0.28043387313E+03  0.00000000000E+00 0. -1.
        -11    1    3    3    0    0 -0.22926584590E+02  0.57382405089E+02 -0.46263671794E+02  0.77192590464E+02  0.00000000000E+00 0. -1.
         11    1    3    3    0    0 -0.44817231728E+02  0.59959364627E+01  0.28511497425E+02  0.53455037174E+02  0.00000000000E+00 0.  1.
          1    1    1    2  501    0  0.10451120201E+02  0.15395405120E+03  0.12483233155E+03  0.19847968862E+03  0.00000000000E+00 0. -1.
<scales pt_clust_5="13000.00000" pt_clust_6="13000.00000" pt_clust_7="13000.00000" pt_clust_8="13000.00000" pt_clust_9="205.18449"></scales>
<clustering>
<clus scale="   80.735">  5  6 -1 -1</clus>
<clus scale="   90.264">  7  8 -1 -1</clus>
<clus scale="  129.436">  1  7  2 -1</clus>
<clus scale="  205.184">  2  9  1 -1</clus>
<clus scale="  205.184">  2  5  1 -1</clus>
</clustering>
</event>
<event>
 9    2  0.1592151E-004  0.1275702E+03  0.7546771E-02  0.1237139E+00
          2   -1    0    0  502    0 -0.00000000000E+00  0.00000000000E+00  0.20696428301E+04  0.20696428301E+04  0.00000000000E+00 0. -1.
         21   -1    0    0  501  502  0.00000000000E+00 -0.00000000000E+00 -0.15278067474E+02  0.15278067474E+02  0.00000000000E+00 0. -1.
         24    2    1    2    0    0 -0.78456320858E+02 -0.13118461505E+02  0.15918123062E+04  0.15958242088E+04  0.80380339048E+02 0.  0.
         23    2    1    2    0    0  0.70394381563E+02  0.36064991245E+02  0.32038123230E+03  0.34486009473E+03  0.10014139193E+03 0.  0.
        -13    1    3    3    0    0 -0.22148998230E+02  0.98310069210E+01  0.10463598975E+03  0.10740538707E+03  0.00000000000E+00 0.  1.
         14    1    3    3    0    0 -0.56307322628E+02 -0.22949468426E+02  0.14871763164E+04  0.14884188217E+04  0.00000000000E+00 0. -1.
        -13    1    4    4    0    0  0.61216168462E+02 -0.91416851916E+01  0.85851953231E+02  0.10583736374E+03  0.00000000000E+00 0.  1.
         13    1    4    4    0    0  0.91782131005E+01  0.45206676436E+02  0.23452927907E+03  0.23902273099E+03  0.00000000000E+00 0. -1.
          1    1    1    2  501    0  0.80619392950E+01 -0.22946529739E+02  0.14217122414E+03  0.14423659406E+03  0.00000000000E+00 0. -1.
<scales pt_clust_5="13000.00000" pt_clust_6="13000.00000" pt_clust_7="13000.00000" pt_clust_8="13000.00000" pt_clust_9="24.32157"></scales>
<clustering>
<clus scale="   24.322">  2  9  1 -1</clus>
<clus scale="   80.380">  5  6 -1 -1</clus>
<clus scale="  100.141">  7  8 -1 -1</clus>
<clus scale="  112.725">  1  5  2 -1</clus>
<clus scale="   24.322">  2  5  1 -1</clus>
</clustering>
</event>
<event>
 9    2  0.1592151E-004  0.9230392E+02  0.7546771E-02  0.1304382E+00
         21   -1    0    0  501  502  0.00000000000E+00  0.00000000000E+00  0.74710398421E+02  0.74710398421E+02  0.00000000000E+00 0. -1.
          2   -1    0    0  502    0 -0.00000000000E+00 -0.00000000000E+00 -0.36534469595E+03  0.36534469595E+03  0.00000000000E+00 0. -1.
         24    2    1    2    0    0 -0.34342834097E+00  0.60707103560E+01 -0.23403631232E+03  0.24753723123E+03  0.80403444515E+02 0.  0.
         23    2    1    2    0    0  0.62650062491E+02 -0.20108240601E+02 -0.96587440806E+01  0.11325588441E+03  0.91674600338E+02 0.  0.
        -13    1    3    3    0    0 -0.19180114469E+02  0.18264945996E+02 -0.22323184996E+02  0.34638268312E+02  0.00000000000E+00 0.  1.
         14    1    3    3    0    0  0.18836686128E+02 -0.12194235640E+02 -0.21171312733E+03  0.21289896291E+03  0.00000000000E+00 0. -1.
        -13    1    4    4    0    0  0.41040075406E+02  0.34360792864E+02 -0.10988682078E+02  0.54641586812E+02  0.00000000000E+00 0.  1.
         13    1    4    4    0    0  0.21609987085E+02 -0.54469033464E+02  0.13299379978E+01  0.58614297603E+02  0.00000000000E+00 0. -1.
          1    1    1    2  501    0 -0.62306634150E+02  0.14037530245E+02 -0.46939241122E+02  0.79261978726E+02  0.00000000000E+00 0. -1.
<scales pt_clust_5="13000.00000" pt_clust_6="13000.00000" pt_clust_7="13000.00000" pt_clust_8="13000.00000" pt_clust_9="63.86837"></scales>
<clustering>
<clus scale="   63.868">  1  9  2 -1</clus>
<clus scale="   80.403">  5  6 -1 -1</clus>
<clus scale="   81.120">  2  5  1 -1</clus>
<clus scale="   91.675">  7  8 -1 -1</clus>
<clus scale="   63.868">  1  5  2 -1</clus>
</clustering>
</event>
<event>
 9    2  0.1592151E-004  0.1109687E+03  0.7546771E-02  0.1264012E+00
         21   -1    0    0  501  502  0.00000000000E+00  0.00000000000E+00  0.66151572027E+03  0.66151572027E+03  0.00000000000E+00 0. -1.
         -1   -1    0    0    0  501 -0.00000000000E+00 -0.00000000000E+00 -0.81953623475E+02  0.81953623475E+02  0.00000000000E+00 0.  1.
         24    2    1    2    0    0  0.10212371748E+01 -0.59392720920E+02 -0.33950836287E+02  0.10622497469E+03  0.81256062788E+02 0.  0.
         23    2    1    2    0    0  0.50092111036E+02  0.48713593381E+02  0.36848929284E+03  0.38671851728E+03  0.94258256405E+02 0.  0.
        -13    1    3    3    0    0 -0.21289390189E+02 -0.66032716267E+02 -0.42574534655E+02  0.81401159410E+02  0.00000000000E+00 0.  1.
         14    1    3    3    0    0  0.22310627363E+02  0.66399953468E+01  0.86236983681E+01  0.24823815281E+02  0.00000000000E+00 0. -1.
        -13    1    4    4    0    0  0.64394344954E+02  0.65971216118E+02  0.32459714497E+03  0.33743464484E+03  0.00000000000E+00 0. -1.
         13    1    4    4    0    0 -0.14302233918E+02 -0.17257622737E+02  0.43892147872E+02  0.49283872437E+02  0.00000000000E+00 0.  1.
         -2    1    1    2    0  502 -0.51113348211E+02  0.10679127539E+02  0.24502364024E+03  0.25052585177E+03  0.00000000000E+00 0.  1.
<scales pt_clust_5="13000.00000" pt_clust_6="13000.00000" pt_clust_7="13000.00000" pt_clust_8="13000.00000" pt_clust_9="52.21703"></scales>
<clustering>
<clus scale="   52.217">  1  9  2 -1</clus>
<clus scale="   81.256">  5  6 -1 -1</clus>
<clus scale="   94.258">  7  8 -1 -1</clus>
<clus scale="  100.160">  2  5  1 -1</clus>
<clus scale="   52.217">  1  5  2 -1</clus>
</clustering>
</event>
<event>
 9    2  0.1592151E-004  0.1260081E+03  0.7546771E-02  0.1256393E+00
         21   -1    0    0  501  502  0.00000000000E+00  0.00000000000E+00  0.12480544979E+03  0.12480544979E+03  0.00000000000E+00 0. -1.
          2   -1    0    0  502    0 -0.00000000000E+00 -0.00000000000E+00 -0.58351802737E+03  0.58351802737E+03  0.00000000000E+00 0. -1.
         24    2    1    2    0    0 -0.29258748657E+02 -0.24099815173E+02  0.89103538938E+02  0.11938301900E+03  0.69828283031E+02 0.  0.
         23    2    1    2    0    0  0.64122776364E+02 -0.58915635753E+02 -0.32190997087E+03  0.34575194659E+03  0.91299488702E+02 0.  0.
        -11    1    3    3    0    0  0.59151080609E+01 -0.39012485603E+02  0.32639345332E+02  0.51208294250E+02  0.00000000000E+00 0.  1.
         12    1    3    3    0    0 -0.35173856718E+02  0.14912670430E+02  0.56464193606E+02  0.68174724755E+02  0.00000000000E+00 0. -1.
        -13    1    4    4    0    0  0.21825147750E+02  0.33306529770E+01 -0.88704015079E+01  0.23793157556E+02  0.00000000000E+00 0.  1.
         13    1    4    4    0    0  0.42297628614E+02 -0.62246288730E+02 -0.31303956937E+03  0.32195878903E+03  0.00000000000E+00 0. -1.
          1    1    1    2  501    0 -0.34864027707E+02  0.83015450925E+02 -0.22590614564E+03  0.24318851157E+03  0.00000000000E+00 0. -1.
<scales pt_clust_5="13000.00000" pt_clust_6="13000.00000" pt_clust_7="13000.00000" pt_clust_8="13000.00000" pt_clust_9="86.84736"></scales>
<clustering>
<clus scale="   69.828">  5  6 -1 -1</clus>
<clus scale="   79.454">  2  5  1 -1</clus>
<clus scale="   86.847">  1  9  2 -1</clus>
<clus scale="   91.299">  7  8 -1 -1</clus>
<clus scale="   86.847">  1  5  2 -1</clus>
</clustering>
</event>
<event>
 9    2  0.1592151E-004  0.8930203E+02  0.7546771E-02  0.1307659E+00
          2   -1    0    0  502    0 -0.00000000000E+00  0.00000000000E+00  0.95932312306E+03  0.95932312306E+03  0.00000000000E+00 0. -1.
         21   -1    0    0  501  502  0.00000000000E+00 -0.00000000000E+00 -0.30345091967E+02  0.30345091967E+02  0.00000000000E+00 0. -1.
         24    2    1    2    0    0  0.16065078355E+02 -0.15491880663E+02  0.72698681630E+03  0.73204298540E+03  0.82939835375E+02 0.  0.
         23    2    1    2    0    0 -0.17448428915E+01 -0.41325004430E+02  0.15295435755E+03  0.18121946450E+03  0.87946906447E+02 0.  0.
        -13    1    3    3    0    0  0.16586167699E+02 -0.12484031811E+02  0.40149016827E+02  0.45198402199E+02  0.00000000000E+00 0.  1.
         14    1    3    3    0    0 -0.52108934455E+00 -0.30078488526E+01  0.68683779948E+03  0.68684458321E+03  0.00000000000E+00 0. -1.
        -13    1    4    4    0    0  0.19820856736E+02 -0.61699378540E+02  0.12318201423E+03  0.13918867879E+03  0.00000000000E+00 0. -1.
         13    1    4    4    0    0 -0.21565699628E+02  0.20374374110E+02  0.29772343317E+02  0.42030785710E+02  0.00000000000E+00 0.  1.
          1    1    1    2  501    0 -0.14320235463E+02  0.56816885093E+02  0.49036857243E+02  0.76405765121E+02  0.00000000000E+00 0. -1.
<scales pt_clust_5="13000.00000" pt_clust_6="13000.00000" pt_clust_7="13000.00000" pt_clust_8="13000.00000" pt_clust_9="58.59375"></scales>
<clustering>
<clus scale="   58.594">  2  9  1 -1</clus>
<clus scale="   82.940">  5  6 -1 -1</clus>
<clus scale="   84.375">  1  5  2 -1</clus>
<clus scale="   87.947">  7  8 -1 -1</clus>
<clus scale="   58.594">  2  5  1 -1</clus>
</clustering>
</event>
<event>
 9    2  0.1592151E-004  0.1078091E+03  0.7546771E-02  0.1268525E+00
         -3   -1    0    0    0  501 -0.00000000000E+00  0.00000000000E+00  0.48372784104E+02  0.48372784104E+02  0.00000000000E+00 0.  1.
         21   -1    0    0  501  502  0.00000000000E+00 -0.00000000000E+00 -0.37756587001E+03  0.37756587001E+03  0.00000000000E+00 0.  1.
         24    2    1    2    0    0  0.56239568253E+02  0.31608847161E+02 -0.89596989938E+02  0.13652834741E+03  0.80314138133E+02 0.  0.
         23    2    1    2    0    0 -0.17774900115E+02 -0.61530322983E+02 -0.13744300781E+03  0.17622868792E+03  0.89800012973E+02 0.  0.
        -13    1    3    3    0    0  0.24060892556E+02 -0.37658052934E+01  0.97799336947E+01  0.26244141121E+02  0.00000000000E+00 0.  1.
         14    1    3    3    0    0  0.32178675698E+02  0.35374652454E+02 -0.99376923633E+02  0.11028420629E+03  0.00000000000E+00 0. -1.
        -13    1    4    4    0    0 -0.80201558765E+01 -0.39387762649E+02 -0.37575770509E+01  0.40371253784E+02  0.00000000000E+00 0. -1.
         13    1    4    4    0    0 -0.97547442389E+01 -0.22142560334E+02 -0.13368543075E+03  0.13585743413E+03  0.00000000000E+00 0.  1.
         -4    1    1    2    0  502 -0.38464668138E+02  0.29921475822E+02 -0.10215308817E+03  0.11318161879E+03  0.00000000000E+00 0.  1.
<scales pt_clust_5="13000.00000" pt_clust_6="13000.00000" pt_clust_7="13000.00000" pt_clust_8="13000.00000" pt_clust_9="48.73218"></scales>
<clustering>
<clus scale="   48.732">  2  9  1 -1</clus>
<clus scale="   80.314">  5  6 -1 -1</clus>
<clus scale="   89.800">  7  8 -1 -1</clus>
<clus scale="  100.046">  1  5  2 -1</clus>
<clus scale="   48.732">  2  5  1 -1</clus>
</clustering>
</event>
<event>
 9    2  0.1592151E-004  0.1175594E+03  0.7546771E-02  0.1250908E+00
          2   -1    0    0  502    0 -0.00000000000E+00  0.00000000000E+00  0.48490798194E+03  0.48490798194E+03  0.00000000000E+00 0. -1.
         21   -1    0    0  501  502  0.00000000000E+00 -0.00000000000E+00 -0.97707231292E+02  0.97707231292E+02  0.00000000000E+00 0. -1.
         23    2    1    2    0    0  0.54009689577E+02 -0.41113522718E+02  0.22705106974E+03  0.25386472856E+03  0.91037046413E+02 0.  0.
         24    2    1    2    0    0 -0.75368743947E+02  0.32414705621E+02  0.22906808259E+03  0.25607569735E+03  0.79821147607E+02 0.  0.
        -11    1    4    4    0    0 -0.40627017172E+02  0.48455940207E+02  0.78920127626E+02  0.10112823152E+03  0.00000000000E+00 0.  1.
         12    1    4    4    0    0 -0.34741726774E+02 -0.16041234586E+02  0.15014795497E+03  0.15494746583E+03  0.00000000000E+00 0. -1.
        -11    1    3    3    0    0 -0.82818167578E+01 -0.28235966858E+02  0.15493493008E+03  0.15770444151E+03  0.00000000000E+00 0. -1.
         11    1    3    3    0    0  0.62291506335E+02 -0.12877555860E+02  0.72116139655E+02  0.96160287048E+02  0.00000000000E+00 0.  1.
          1    1    1    2  501    0  0.21359054370E+02  0.86988170968E+01 -0.68918401681E+02  0.72674787324E+02  0.00000000000E+00 0. -1.
<scales pt_clust_5="13000.00000" pt_clust_6="13000.00000" pt_clust_7="13000.00000" pt_clust_8="13000.00000" pt_clust_9="23.06249"></scales>
<clustering>
<clus scale="   23.062">  2  9  1 -1</clus>
<clus scale="   79.821">  5  6 -1 -1</clus>
<clus scale="   91.037">  7  8 -1 -1</clus>
<clus scale="  109.105">  2  5  1 -1</clus>
<clus scale="   23.062">  2  5  1 -1</clus>
</clustering>
</event>
<event>
 9    2  0.1592151E-004  0.1457862E+03  0.7546771E-02  0.1233609E+00
          2   -1    0    0  502    0 -0.00000000000E+00  0.00000000000E+00  0.48627447480E+03  0.48627447480E+03  0.00000000000E+00 0. -1.
         21   -1    0    0  501  502  0.00000000000E+00 -0.00000000000E+00 -0.61750315145E+02  0.61750315145E+02  0.00000000000E+00 0. -1.
         24    2    1    2    0    0 -0.84632840069E+01  0.81475495475E+01  0.13057532412E+03  0.15375723296E+03  0.80332818190E+02 0.  0.
         23    2    1    2    0    0  0.74422569514E+02  0.77375050373E+02  0.11653879649E+03  0.18656810009E+03  0.98492373360E+02 0.  0.
        -13    1    3    3    0    0 -0.67317156193E+01 -0.21273851646E+02  0.26377852527E+01  0.22468882262E+02  0.00000000000E+00 0.  1.
         14    1    3    3    0    0 -0.17315683875E+01  0.29421401194E+02  0.12793753887E+03  0.13128835070E+03  0.00000000000E+00 0. -1.
        -11    1    4    4    0    0  0.32217033315E+02 -0.21006255123E+02  0.26779680734E+02  0.46865246080E+02  0.00000000000E+00 0.  1.
         11    1    4    4    0    0  0.42205536199E+02  0.98381305496E+02  0.89759115758E+02  0.13970285401E+03  0.00000000000E+00 0. -1.
          1    1    1    2  501    0 -0.65959285507E+02 -0.85522599921E+02  0.17741003904E+03  0.20769945689E+03  0.00000000000E+00 0. -1.
<scales pt_clust_5="13000.00000" pt_clust_6="13000.00000" pt_clust_7="13000.00000" pt_clust_8="13000.00000" pt_clust_9="107.48437"></scales>
<clustering>
<clus scale="   80.333">  5  6 -1 -1</clus>
<clus scale="   81.187">  1  5  2 -1</clus>
<clus scale="   98.492">  7  8 -1 -1</clus>
<clus scale="  107.484">  2  9  1 -1</clus>
<clus scale="  107.484">  2  5  1 -1</clus>
</clustering>
</event>
<event>
 9    2  0.1592151E-004  0.1172458E+03  0.7546771E-02  0.1256240E+00
         -1   -1    0    0    0  501 -0.00000000000E+00  0.00000000000E+00  0.25266766815E+03  0.25266766815E+03  0.00000000000E+00 0.  1.
         21   -1    0    0  501  502  0.00000000000E+00 -0.00000000000E+00 -0.14131594218E+03  0.14131594218E+03  0.00000000000E+00 0. -1.
         23    2    1    2    0    0  0.61743638873E+01  0.60962557143E+02  0.19324024890E+03  0.22524226825E+03  0.98171938289E+02 0.  0.
         24    2    1    2    0    0 -0.35302627233E+02 -0.74955978408E+02 -0.47801063299E+02  0.12177085699E+03  0.75355993601E+02 0.  0.
        -13    1    4    4    0    0 -0.34883865368E+02 -0.63916118609E+02 -0.10906574062E+00  0.72815974734E+02  0.00000000000E+00 0.  1.
         14    1    4    4    0    0 -0.41876186484E+00 -0.11039859798E+02 -0.47691997559E+02  0.48954882259E+02  0.00000000000E+00 0. -1.
        -11    1    3    3    0    0 -0.34337229207E+02  0.66102750880E+02  0.13356699281E+03  0.15293384371E+03  0.00000000000E+00 0.  1.
         11    1    3    3    0    0  0.40511593094E+02 -0.51401937366E+01  0.59673256090E+02  0.72308424537E+02  0.00000000000E+00 0. -1.
         -2    1    1    2    0  502  0.29128263345E+02  0.13993421264E+02 -0.34087459636E+02  0.46970485080E+02  0.00000000000E+00 0.  1.
<scales pt_clust_5="13000.00000" pt_clust_6="13000.00000" pt_clust_7="13000.00000" pt_clust_8="13000.00000" pt_clust_9="32.31519"></scales>
<clustering>
<clus scale="   32.315">  2  9  1 -1</clus>
<clus scale="   75.356">  5  6 -1 -1</clus>
<clus scale="   98.172">  7  8 -1 -1</clus>
<clus scale="   98.931">  2  5  1 -1</clus>
<clus scale="   32.315">  2  5  1 -1</clus>
</clustering>
</event>
<event>
 9    2  0.1909546E-004  0.6264185E+03  0.7546771E-02  0.1049003E+00
          2   -1    0    0  502    0 -0.00000000000E+00  0.00000000000E+00  0.15343492355E+04  0.15343492355E+04  0.00000000000E+00 0. -1.
         21   -1    0    0  501  502  0.00000000000E+00 -0.00000000000E+00 -0.29590027034E+03  0.29590027034E+03  0.00000000000E+00 0. -1.
         24    2    1    2    0    0 -0.30674280821E+01 -0.38159905667E+02  0.11848167416E+03  0.14856600371E+03  0.81045436823E+02 0.  0.
         23    2    1    2    0    0 -0.59414739069E+03  0.18994287204E+03  0.65767497567E+03  0.91134734598E+03  0.94489125789E+02 0.  0.
        -11    1    3    3    0    0  0.25097525985E+01 -0.23544617550E+02 -0.49141409231E+01  0.24182569233E+02  0.00000000000E+00 0.  1.
         12    1    3    3    0    0 -0.55771806806E+01 -0.14615288117E+02  0.12339581509E+03  0.12438343448E+03  0.00000000000E+00 0. -1.
        -13    1    4    4    0    0 -0.90806795020E+02 -0.51345166664E+01  0.10098347495E+03  0.13590400839E+03  0.00000000000E+00 0.  1.
         13    1    4    4    0    0 -0.50334059567E+03  0.19507738871E+03  0.55669150072E+03  0.77544333759E+03  0.00000000000E+00 0. -1.
          1    1    1    2  501    0  0.59721481878E+03 -0.15178296638E+03  0.46229231530E+03  0.77033615612E+03  0.00000000000E+00 0. -1.
<scales pt_clust_5="13000.00000" pt_clust_6="13000.00000" pt_clust_7="13000.00000" pt_clust_8="13000.00000" pt_clust_9="619.25110"></scales>
<clustering>
<clus scale="   81.045">  5  6 -1 -1</clus>
<clus scale="   89.632">  1  5  2 -1</clus>
<clus scale="   94.489">  7  8 -1 -1</clus>
<clus scale="  619.251">  2  9  1 -1</clus>
<clus scale="  619.251">  2  5  1 -1</clus>
</clustering>
</event>
<event>
 9    2  0.1592151E-004  0.1140928E+03  0.7546771E-02  0.1258268E+00
         -3   -1    0    0    0  501 -0.00000000000E+00  0.00000000000E+00  0.23404587359E+03  0.23404587359E+03  0.00000000000E+00 0.  1.
         21   -1    0    0  501  502  0.00000000000E+00 -0.00000000000E+00 -0.31116082140E+03  0.31116082140E+03  0.00000000000E+00 0.  1.
         23    2    1    2    0    0 -0.36197089737E+02  0.52105649237E+02  0.17455670691E+03  0.20733339529E+03  0.92151315171E+02 0.  0.
         24    2    1    2    0    0  0.65166848512E+02 -0.59577439596E+02 -0.40665106213E+02  0.12475634099E+03  0.78194017040E+02 0.  0.
        -13    1    4    4    0    0 -0.97997653940E+01 -0.29526909720E+02  0.57003078868E+01  0.31628583740E+02  0.00000000000E+00 0.  1.
         14    1    4    4    0    0  0.74966613906E+02 -0.30050529876E+02 -0.46365414100E+02  0.93127757253E+02  0.00000000000E+00 0. -1.
        -13    1    3    3    0    0  0.71712196413E+01  0.26442031286E+02  0.14772189569E+03  0.15024102594E+03  0.00000000000E+00 0.  1.
         13    1    3    3    0    0 -0.43368309378E+02  0.25663617951E+02  0.26834811218E+02  0.57092369348E+02  0.00000000000E+00 0. -1.
         -4    1    1    2    0  502 -0.28969758775E+02  0.74717903591E+01 -0.21100654851E+03  0.21311695871E+03  0.00000000000E+00 0.  1.
<scales pt_clust_5="13000.00000" pt_clust_6="13000.00000" pt_clust_7="13000.00000" pt_clust_8="13000.00000" pt_clust_9="29.91780"></scales>
<clustering>
<clus scale="   29.918">  2  9  1 -1</clus>
<clus scale="   78.194">  5  6 -1 -1</clus>
<clus scale="   92.151">  7  8 -1 -1</clus>
<clus scale="  103.148">  2  5  1 -1</clus>
<clus scale="   29.918">  2  5  1 -1</clus>
</clustering>
</event>
<event>
 9    2  0.1592151E-004  0.1412911E+03  0.7546771E-02  0.1215061E+00
         21   -1    0    0  501  502  0.00000000000E+00  0.00000000000E+00  0.64658471852E+03  0.64658471852E+03  0.00000000000E+00 0.  1.
         -3   -1    0    0    0  501 -0.00000000000E+00 -0.00000000000E+00 -0.58162707250E+02  0.58162707250E+02  0.00000000000E+00 0.  1.
         24    2    1    2    0    0  0.43881211301E+02 -0.77582091853E+02  0.12491746282E+03  0.17342219646E+03  0.80785790989E+02 0.  0.
         23    2    1    2    0    0 -0.85924521473E+02  0.11911423321E+03  0.42743988595E+03  0.46209215501E+03  0.96192929458E+02 0.  0.
        -11    1    3    3    0    0  0.33997360265E+02 -0.94584666506E+02  0.10153354798E+03  0.14286756458E+03  0.00000000000E+00 0.  1.
         12    1    3    3    0    0  0.98838510360E+01  0.17002574653E+02  0.23383914840E+02  0.30554631881E+02  0.00000000000E+00 0. -1.
        -13    1    4    4    0    0 -0.54260811301E+02  0.12641195084E+03  0.38361682580E+03  0.40753660694E+03  0.00000000000E+00 0.  1.
         13    1    4    4    0    0 -0.31663710173E+02 -0.72977176288E+01  0.43823060145E+02  0.54555548068E+02  0.00000000000E+00 0. -1.
         -4    1    1    2    0  502  0.42043310173E+02 -0.41532141358E+02  0.36064662503E+02  0.69233074304E+02  0.00000000000E+00 0.  1.
<scales pt_clust_5="13000.00000" pt_clust_6="13000.00000" pt_clust_7="13000.00000" pt_clust_8="13000.00000" pt_clust_9="59.09790"></scales>
<clustering>
<clus scale="   59.098">  1  9  2 -1</clus>
<clus scale="   80.786">  5  6 -1 -1</clus>
<clus scale="   96.193">  7  8 -1 -1</clus>
<clus scale="  131.288">  2  5  1 -1</clus>
<clus scale="   59.098">  1  5  2 -1</clus>
</clustering>
</event>
<event>
 9    2  0.1592151E-004  0.1134249E+03  0.7546771E-02  0.1258734E+00
          2   -1    0    0  502    0 -0.00000000000E+00  0.00000000000E+00  0.13360190128E+03  0.13360190128E+03  0.00000000000E+00 0. -1.
         21   -1    0    0  501  502  0.00000000000E+00 -0.00000000000E+00 -0.11162814352E+03  0.11162814352E+03  0.00000000000E+00 0.  1.
         24    2    1    2    0    0  0.43252935983E+01  0.54959913858E+02  0.72425490048E+01  0.99611622346E+02  0.82648172964E+02 0.  0.
         23    2    1    2    0    0  0.11846261981E+02 -0.73084952651E+02  0.66014109984E+01  0.12000339068E+03  0.94209823905E+02 0.  0.
        -11    1    3    3    0    0  0.93043696248E+01 -0.19779670930E+02  0.11279950539E+02  0.24597641358E+02  0.00000000000E+00 0.  1.
         12    1    3    3    0    0 -0.49790760265E+01  0.74739584789E+02 -0.40374015342E+01  0.75013980988E+02  0.00000000000E+00 0. -1.
        -13    1    4    4    0    0  0.32821350227E+02 -0.87843312945E+02  0.11407936793E+01  0.93781608379E+02  0.00000000000E+00 0.  1.
         13    1    4    4    0    0 -0.20975088246E+02  0.14758360294E+02  0.54606173191E+01  0.26221782300E+02  0.00000000000E+00 0. -1.
          1    1    1    2  501    0 -0.16171555580E+02  0.18125038793E+02  0.81297977605E+01  0.25615031773E+02  0.00000000000E+00 0. -1.
<scales pt_clust_5="13000.00000" pt_clust_6="13000.00000" pt_clust_7="13000.00000" pt_clust_8="13000.00000" pt_clust_9="24.29067"></scales>
<clustering>
<clus scale="   24.291">  2  9  1 -1</clus>
<clus scale="   82.648">  5  6 -1 -1</clus>
<clus scale="   94.210">  7  8 -1 -1</clus>
<clus scale="  104.021">  1  5  2 -1</clus>
<clus scale="   24.291">  2  5  1 -1</clus>
</clustering>
</event>
<event>
 9    2  0.1592151E-004  0.1316712E+03  0.7546771E-02  0.1226416E+00
          4   -1    0    0  502    0 -0.00000000000E+00  0.00000000000E+00  0.67288416554E+03  0.67288416554E+03  0.00000000000E+00 0. -1.
         21   -1    0    0  501  502  0.00000000000E+00 -0.00000000000E+00 -0.92236541254E+02  0.92236541254E+02  0.00000000000E+00 0. -1.
         24    2    1    2    0    0 -0.35974996343E+02  0.99984262397E+02  0.52453409150E+03  0.54108033714E+03  0.79629548612E+02 0.  0.
         23    2    1    2    0    0  0.13413119556E+02 -0.10097471292E+03  0.10924660368E+03  0.16630699542E+03  0.73125863316E+02 0.  0.
        -13    1    3    3    0    0  0.25340246961E+02  0.21847467779E+02  0.13016218775E+03  0.13439358275E+03  0.00000000000E+00 0.  1.
         14    1    3    3    0    0 -0.61315243304E+02  0.78136794618E+02  0.39437190375E+03  0.40668675439E+03  0.00000000000E+00 0. -1.
        -11    1    4    4    0    0  0.30530808226E+02 -0.26959030402E+02  0.11140780540E+02  0.42226017597E+02  0.00000000000E+00 0.  1.
         11    1    4    4    0    0 -0.17117688670E+02 -0.74015682514E+02  0.98105823145E+02  0.12408097783E+03  0.00000000000E+00 0. -1.
          3    1    1    2  501    0  0.22561876787E+02  0.99045051807E+00 -0.53133070898E+02  0.57733374225E+02  0.00000000000E+00 0. -1.
<scales pt_clust_5="13000.00000" pt_clust_6="13000.00000" pt_clust_7="13000.00000" pt_clust_8="13000.00000" pt_clust_9="22.58361"></scales>
<clustering>
<clus scale="   22.584">  2  9  1 -1</clus>
<clus scale="   73.126">  7  8 -1 -1</clus>
<clus scale="   79.630">  5  6 -1 -1</clus>
<clus scale="  127.843">  2  7  1 -1</clus>
<clus scale="   22.584">  2  5  1 -1</clus>
</clustering>
</event>
<event>
 9    2  0.1592151E-004  0.1765888E+03  0.7546771E-02  0.1185758E+00
          2   -1    0    0  502    0 -0.00000000000E+00  0.00000000000E+00  0.60035823467E+03  0.60035823467E+03  0.00000000000E+00 0. -1.
         21   -1    0    0  501  502  0.00000000000E+00 -0.00000000000E+00 -0.11593642723E+03  0.11593642723E+03  0.00000000000E+00 0. -1.
         24    2    1    2    0    0  0.61199250839E+02  0.78638312930E+02  0.11070170521E+03  0.16850153016E+03  0.78794451371E+02 0.  0.
         23    2    1    2    0    0 -0.14303551811E+03  0.56677556964E+02  0.34323574405E+03  0.38674389895E+03  0.89936435760E+02 0.  0.
        -13    1    3    3    0    0  0.42511511136E+02  0.48410356216E+01  0.13149963775E+02  0.44761431526E+02  0.00000000000E+00 0.  1.
         14    1    3    3    0    0  0.18687739702E+02  0.73797277308E+02  0.97551741438E+02  0.12374009864E+03  0.00000000000E+00 0. -1.
        -11    1    4    4    0    0  0.46885732580E+01  0.24317361092E+02  0.29909202732E+02  0.38831394229E+02  0.00000000000E+00 0.  1.
         11    1    4    4    0    0 -0.14772409137E+03  0.32360195872E+02  0.31332654132E+03  0.34791250472E+03  0.00000000000E+00 0. -1.
          1    1    1    2  501    0  0.81836267269E+02 -0.13531586989E+03  0.30484358174E+02  0.16104923278E+03  0.00000000000E+00 0. -1.
<scales pt_clust_5="13000.00000" pt_clust_6="13000.00000" pt_clust_7="13000.00000" pt_clust_8="13000.00000" pt_clust_9="151.97051"></scales>
<clustering>
<clus scale="   78.794">  5  6 -1 -1</clus>
<clus scale="   89.936">  7  8 -1 -1</clus>
<clus scale="  127.035">  1  5  2 -1</clus>
<clus scale="  151.971">  2  9  1 -1</clus>
<clus scale="  151.971">  2  5  1 -1</clus>
</clustering>
</event>
<event>
 9    2  0.1592151E-004  0.2258649E+03  0.7546771E-02  0.1130254E+00
         21   -1    0    0  501  502  0.00000000000E+00  0.00000000000E+00  0.77449516893E+03  0.77449516893E+03  0.00000000000E+00 0.  1.
          2   -1    0    0  502    0 -0.00000000000E+00 -0.00000000000E+00 -0.31201136752E+03  0.31201136752E+03  0.00000000000E+00 0. -1.
         24    2    1    2    0    0  0.17984824823E+03 -0.56217539785E+02  0.52606365508E+02  0.21201677534E+03  0.81718291498E+02 0.  0.
         23    2    1    2    0    0 -0.29555446789E+03  0.29194204607E+02  0.58527775235E+03  0.66263259006E+03  0.91253257120E+02 0.  0.
        -13    1    3    3    0    0  0.91550829744E+02 -0.70979389221E+02  0.28182134939E+02  0.11922189753E+03  0.00000000000E+00 0.  1.
         14    1    3    3    0    0  0.88297418484E+02  0.14761849436E+02  0.24424230570E+02  0.92794877814E+02  0.00000000000E+00 0. -1.
        -11    1    4    4    0    0 -0.79151030178E+02 -0.48798433434E+00  0.81858165403E+02  0.11386783106E+03  0.00000000000E+00 0.  1.
         11    1    4    4    0    0 -0.21640343771E+03  0.29682188941E+02  0.50341958695E+03  0.54876475900E+03  0.00000000000E+00 0. -1.
          1    1    1    2  501    0  0.11570621966E+03  0.27023335178E+02 -0.17540031645E+03  0.21185717104E+03  0.00000000000E+00 0. -1.
<scales pt_clust_5="13000.00000" pt_clust_6="13000.00000" pt_clust_7="13000.00000" pt_clust_8="13000.00000" pt_clust_9="118.82005"></scales>
<clustering>
<clus scale="   81.718">  5  6 -1 -1</clus>
<clus scale="   91.253">  7  8 -1 -1</clus>
<clus scale="  118.820">  1  9  2 -1</clus>
<clus scale="  222.184">  2  5  1 -1</clus>
<clus scale="  118.820">  1  5  2 -1</clus>
</clustering>
</event>
<event>
 9    2  0.1592151E-004  0.1261653E+03  0.7546771E-02  0.1247013E+00
          2   -1    0    0  502    0 -0.00000000000E+00  0.00000000000E+00  0.67673718145E+03  0.67673718145E+03  0.00000000000E+00 0. -1.
         21   -1    0    0  501  502  0.00000000000E+00 -0.00000000000E+00 -0.44218953678E+02  0.44218953678E+02  0.00000000000E+00 0.  1.
         23    2    1    2    0    0 -0.29450500391E+02 -0.10791000329E+02  0.16298204784E+03  0.18886105285E+03  0.90119763123E+02 0.  0.
         24    2    1    2    0    0 -0.45207015834E+02  0.74341175986E+02  0.38250652565E+03  0.40099767468E+03  0.83172160016E+02 0.  0.
        -13    1    4    4    0    0 -0.34510081080E+02  0.82700128898E+02  0.21480541833E+03  0.23274798551E+03  0.00000000000E+00 0.  1.
         14    1    4    4    0    0 -0.10696934754E+02 -0.83589529119E+01  0.16770110732E+03  0.16824968916E+03  0.00000000000E+00 0. -1.
        -11    1    3    3    0    0  0.82298003224E+01  0.32735777628E+02  0.35518732844E+02  0.48999399314E+02  0.00000000000E+00 0.  1.
         11    1    3    3    0    0 -0.37680300713E+02 -0.43526777957E+02  0.12746331499E+03  0.13986165354E+03  0.00000000000E+00 0. -1.
          1    1    1    2  501    0  0.74657516224E+02 -0.63550175657E+02  0.87029654281E+02  0.13109740760E+03  0.00000000000E+00 0. -1.
<scales pt_clust_5="13000.00000" pt_clust_6="13000.00000" pt_clust_7="13000.00000" pt_clust_8="13000.00000" pt_clust_9="94.86874"></scales>
<clustering>
<clus scale="   83.172">  5  6 -1 -1</clus>
<clus scale="   90.120">  7  8 -1 -1</clus>
<clus scale="   95.422">  1  7  2 -1</clus>
<clus scale="   94.869">  2  9  1 -1</clus>
<clus scale="   94.869">  2  5  1 -1</clus>
</clustering>
</event>
<event>
 9    2  0.1592151E-004  0.9545483E+02  0.7546771E-02  0.1298080E+00
          2   -1    0    0  502    0 -0.00000000000E+00  0.00000000000E+00  0.42277721146E+03  0.42277721146E+03  0.00000000000E+00 0. -1.
         21   -1    0    0  501  502  0.00000000000E+00 -0.00000000000E+00 -0.45072548385E+02  0.45072548385E+02  0.00000000000E+00 0. -1.
         24    2    1    2    0    0  0.83818069254E+00  0.31642272046E+02  0.24867656124E+03  0.26304105729E+03  0.79678289300E+02 0.  0.
         23    2    1    2    0    0 -0.13629693906E+02  0.23233630016E+02  0.54019737886E+02  0.11099376717E+03  0.93144587339E+02 0.  0.
        -11    1    3    3    0    0  0.23547931422E+02  0.15795367968E+02  0.25443246273E+02  0.38096686265E+02  0.00000000000E+00 0.  1.
         12    1    3    3    0    0 -0.22709750729E+02  0.15846904078E+02  0.22323331496E+03  0.22494437103E+03  0.00000000000E+00 0. -1.
        -11    1    4    4    0    0  0.57382397304E+01 -0.27997254777E+02  0.48040452418E+02  0.55898647021E+02  0.00000000000E+00 0.  1.
         11    1    4    4    0    0 -0.19367933637E+02  0.51230884793E+02  0.59792854679E+01  0.55095120153E+02  0.00000000000E+00 0. -1.
          1    1    1    2  501    0  0.12791513214E+02 -0.54875902061E+02  0.75008363956E+02  0.93814935382E+02  0.00000000000E+00 0. -1.
<scales pt_clust_5="13000.00000" pt_clust_6="13000.00000" pt_clust_7="13000.00000" pt_clust_8="13000.00000" pt_clust_9="56.34703"></scales>
<clustering>
<clus scale="   56.347">  2  9  1 -1</clus>
<clus scale="   79.678">  5  6 -1 -1</clus>
<clus scale="   82.367">  1  5  2 -1</clus>
<clus scale="   93.145">  7  8 -1 -1</clus>
<clus scale="   56.347">  2  5  1 -1</clus>
</clustering>
</event>
<event>
 9    2  0.1592151E-004  0.1850240E+03  0.7546771E-02  0.1163960E+00
         21   -1    0    0  501  502  0.00000000000E+00  0.00000000000E+00  0.35589786598E+03  0.35589786598E+03  0.00000000000E+00 0. -1.
          2   -1    0    0  502    0 -0.00000000000E+00 -0.00000000000E+00 -0.86519295121E+03  0.86519295121E+03  0.00000000000E+00 0. -1.
         24    2    1    2    0    0 -0.12353557453E+03 -0.93732864667E+02 -0.49456811652E+03  0.52495412806E+03  0.83260594517E+02 0.  0.
         23    2    1    2    0    0  0.16347867177E+03  0.63607095912E+02 -0.32574109144E+03  0.38112431238E+03  0.91527832176E+02 0.  0.
        -13    1    3    3    0    0 -0.36251222695E+02 -0.79044489471E+02 -0.26559323470E+03  0.27946725887E+03  0.00000000000E+00 0.  1.
         14    1    3    3    0    0 -0.87284351836E+02 -0.14688375196E+02 -0.22897488182E+03  0.24548686919E+03  0.00000000000E+00 0. -1.
        -13    1    4    4    0    0  0.18991385197E+02 -0.18619990454E+02 -0.81037272651E+02  0.85290188855E+02  0.00000000000E+00 0. -1.
         13    1    4    4    0    0  0.14448728658E+03  0.82227086366E+02 -0.24470381879E+03  0.29583412353E+03  0.00000000000E+00 0.  1.
          1    1    1    2  501    0 -0.39943097242E+02  0.30125768755E+02  0.31101412273E+03  0.31501237674E+03  0.00000000000E+00 0. -1.
<scales pt_clust_5="13000.00000" pt_clust_6="13000.00000" pt_clust_7="13000.00000" pt_clust_8="13000.00000" pt_clust_9="50.03012"></scales>
<clustering>
<clus scale="   50.030">  1  9  2 -1</clus>
<clus scale="   83.261">  5  6 -1 -1</clus>
<clus scale="   91.528">  7  8 -1 -1</clus>
<clus scale="  181.077">  2  5  1 -1</clus>
<clus scale="   50.030">  1  5  2 -1</clus>
</clustering>
</event>
<event>
 9    2  0.1592151E-004  0.1807677E+03  0.7546771E-02  0.1183244E+00
         21   -1    0    0  501  502  0.00000000000E+00  0.00000000000E+00  0.21913668009E+03  0.21913668009E+03  0.00000000000E+00 0. -1.
          2   -1    0    0  502    0 -0.00000000000E+00 -0.00000000000E+00 -0.45471617607E+03  0.45471617607E+03  0.00000000000E+00 0. -1.
         24    2    1    2    0    0  0.81960578057E+02 -0.42534213486E+02 -0.30010965096E+03  0.32520005537E+03  0.84632013675E+02 0.  0.
         23    2    1    2    0    0  0.86735487006E+02  0.23466110648E+02 -0.39667664637E+02  0.14945656457E+03  0.11265006888E+03 0.  0.
        -11    1    3    3    0    0 -0.64813317655E+01 -0.30396808694E+02 -0.43171174064E+02  0.53195149312E+02  0.00000000000E+00 0.  1.
         12    1    3    3    0    0  0.88441909823E+02 -0.12137404792E+02 -0.25693847690E+03  0.27200490606E+03  0.00000000000E+00 0. -1.
        -13    1    4    4    0    0  0.12306019513E+02  0.35449940754E+02  0.29045085488E+02  0.47452643833E+02  0.00000000000E+00 0.  1.
         13    1    4    4    0    0  0.74429467493E+02 -0.11983830106E+02 -0.68712750125E+02  0.10200392073E+03  0.00000000000E+00 0. -1.
          1    1    1    2  501    0 -0.16869606506E+03  0.19068102838E+02  0.10419781962E+03  0.19919623623E+03  0.00000000000E+00 0. -1.
<scales pt_clust_5="13000.00000" pt_clust_6="13000.00000" pt_clust_7="13000.00000" pt_clust_8="13000.00000" pt_clust_9="141.37506"></scales>
<clustering>
<clus scale="   84.632">  5  6 -1 -1</clus>
<clus scale="  112.650">  7  8 -1 -1</clus>
<clus scale="  125.257">  2  5  1 -1</clus>
<clus scale="  141.375">  1  9  2 -1</clus>
<clus scale="  141.375">  1  5  2 -1</clus>
</clustering>
</event>
<event>
 9    2  0.1592151E-004  0.9169125E+02  0.7546771E-02  0.1308776E+00
         21   -1    0    0  501  502  0.00000000000E+00  0.00000000000E+00  0.38525050229E+03  0.38525050229E+03  0.00000000000E+00 0.  1.
         -1   -1    0    0    0  501 -0.00000000000E+00 -0.00000000000E+00 -0.70823400861E+02  0.70823400861E+02  0.00000000000E+00 0.  1.
         24    2    1    2    0    0 -0.99339095824E+01  0.14980252241E+02 -0.32382440586E+02  0.83355913015E+02  0.74675934941E+02 0.  0.
         23    2    1    2    0    0 -0.28690316838E+02 -0.14026927384E+02  0.21495493030E+03  0.23531937906E+03  0.90275684041E+02 0.  0.
        -13    1    3    3    0    0  0.10174313803E+02  0.40964124092E+02 -0.93521071151E+01  0.43232372494E+02  0.00000000000E+00 0.  1.
         14    1    3    3    0    0 -0.20108223385E+02 -0.25983871851E+02 -0.23030333471E+02  0.40123540520E+02  0.00000000000E+00 0. -1.
        -13    1    4    4    0    0 -0.59446424633E+02 -0.22747588803E+02  0.14897270973E+03  0.16200061248E+03  0.00000000000E+00 0.  1.
         13    1    4    4    0    0  0.30756107795E+02  0.87206614190E+01  0.65982220571E+02  0.73318766586E+02  0.00000000000E+00 0. -1.
         -2    1    1    2    0  502  0.38624226421E+02 -0.95332485656E+00  0.13185461171E+03  0.13739861107E+03  0.00000000000E+00 0.  1.
<scales pt_clust_5="13000.00000" pt_clust_6="13000.00000" pt_clust_7="13000.00000" pt_clust_8="13000.00000" pt_clust_9="38.63599"></scales>
<clustering>
<clus scale="   38.636">  1  9  2 -1</clus>
<clus scale="   74.676">  5  6 -1 -1</clus>
<clus scale="   76.381">  2  5  1 -1</clus>
<clus scale="   90.276">  7  8 -1 -1</clus>
<clus scale="   38.636">  1  5  2 -1</clus>
</clustering>
</event>
<event>
 9    2  0.1592151E-004  0.1153932E+03  0.7546771E-02  0.1256192E+00
         21   -1    0    0  501  502  0.00000000000E+00  0.00000000000E+00  0.11358848526E+03  0.11358848526E+03  0.00000000000E+00 0.  1.
          2   -1    0    0  502    0 -0.00000000000E+00 -0.00000000000E+00 -0.27904618860E+03  0.27904618860E+03  0.00000000000E+00 0. -1.
         24    2    1    2    0    0 -0.31170127919E+02  0.65859650405E+02 -0.17429772716E+03  0.20535108509E+03  0.80500310718E+02 0.  0.
         23    2    1    2    0    0 -0.30110714952E+02 -0.44110014656E+02  0.38909829587E+02  0.11564155099E+03  0.94903345195E+02 0.  0.
        -13    1    3    3    0    0 -0.36179558653E+02  0.32588581165E+02 -0.30021867467E+02  0.57203921307E+02  0.00000000000E+00 0.  1.
         14    1    3    3    0    0  0.50094307336E+01  0.33271069240E+02 -0.14427585970E+03  0.14814716378E+03  0.00000000000E+00 0. -1.
        -11    1    4    4    0    0 -0.34627839022E+02 -0.23174192767E+02  0.67859397097E+02  0.79630573400E+02  0.00000000000E+00 0.  1.
         11    1    4    4    0    0  0.45171240700E+01 -0.20935821889E+02 -0.28949567509E+02  0.36010977590E+02  0.00000000000E+00 0. -1.
          1    1    1    2  501    0  0.61280842872E+02 -0.21749635749E+02 -0.30069805765E+02  0.71642037778E+02  0.00000000000E+00 0. -1.
<scales pt_clust_5="13000.00000" pt_clust_6="13000.00000" pt_clust_7="13000.00000" pt_clust_8="13000.00000" pt_clust_9="65.02606"></scales>
<clustering>
<clus scale="   65.026">  1  9  2 -1</clus>
<clus scale="   80.500">  5  6 -1 -1</clus>
<clus scale="   94.903">  7  8 -1 -1</clus>
<clus scale="  103.871">  2  5  1 -1</clus>
<clus scale="   65.026">  1  5  2 -1</clus>
</clustering>
</event>
<event>
 9    2  0.1592151E-004  0.1291361E+03  0.7546771E-02  0.1245558E+00
         21   -1    0    0  501  502  0.00000000000E+00  0.00000000000E+00  0.49462483889E+02  0.49462483889E+02  0.00000000000E+00 0. -1.
          2   -1    0    0  502    0 -0.00000000000E+00 -0.00000000000E+00 -0.11634450863E+04  0.11634450863E+04  0.00000000000E+00 0. -1.
         24    2    1    2    0    0 -0.32976012535E+02  0.28002473442E+02 -0.55733187040E+03  0.56481372357E+03  0.80772350757E+02 0.  0.
         23    2    1    2    0    0  0.28970336050E+01  0.85956079552E+02 -0.63327781930E+02  0.14088695604E+03  0.91879736627E+02 0.  0.
        -13    1    3    3    0    0  0.15881479877E+02  0.29825049098E+02 -0.11717247960E+03  0.12194730391E+03  0.00000000000E+00 0.  1.
         14    1    3    3    0    0 -0.48857492412E+02 -0.18225756563E+01 -0.44015939080E+03  0.44286641965E+03  0.00000000000E+00 0. -1.
        -13    1    4    4    0    0 -0.48051413189E+01  0.55174950000E+02 -0.85717138278E+02  0.10205288965E+03  0.00000000000E+00 0.  1.
         13    1    4    4    0    0  0.77021749239E+01  0.30781129552E+02  0.22389356348E+02  0.38834066395E+02  0.00000000000E+00 0. -1.
          1    1    1    2  501    0  0.30078978930E+02 -0.11395855299E+03 -0.49332295009E+03  0.50720689058E+03  0.00000000000E+00 0. -1.
<scales pt_clust_5="13000.00000" pt_clust_6="13000.00000" pt_clust_7="13000.00000" pt_clust_8="13000.00000" pt_clust_9="90.74275"></scales>
<clustering>
<clus scale="   80.772">  5  6 -1 -1</clus>
<clus scale="   91.628">  2  5  1 -1</clus>
<clus scale="   90.743">  1  9  2 -1</clus>
<clus scale="   91.880">  7  8 -1 -1</clus>
<clus scale="   90.743">  1  5  2 -1</clus>
</clustering>
</event>
<event>
 9    2  0.1592151E-004  0.1208440E+03  0.7546771E-02  0.1246023E+00
          4   -1    0    0  502    0 -0.00000000000E+00  0.00000000000E+00  0.48182577813E+02  0.48182577813E+02  0.00000000000E+00 0. -1.
         21   -1    0    0  501  502  0.00000000000E+00 -0.00000000000E+00 -0.43651446533E+03  0.43651446533E+03  0.00000000000E+00 0. -1.
         23    2    1    2    0    0 -0.76933418831E+02  0.18267457533E+02 -0.84431657274E+02  0.15026919503E+03  0.95914937775E+02 0.  0.
         24    2    1    2    0    0  0.54297879623E+02 -0.38505547810E+02 -0.20421480556E+03  0.23022068987E+03  0.82867015706E+02 0.  0.
        -13    1    4    4    0    0  0.54110950094E+02 -0.38336546945E+02 -0.21215432260E+03  0.22227717461E+03  0.00000000000E+00 0.  1.
         14    1    4    4    0    0  0.18692952819E+00 -0.16900086485E+00  0.79395170421E+01  0.79435152674E+01  0.00000000000E+00 0. -1.
        -11    1    3    3    0    0 -0.26646010519E+01 -0.33606203845E+02 -0.23427465408E+02  0.41052687745E+02  0.00000000000E+00 0.  1.
         11    1    3    3    0    0 -0.74268817779E+02  0.51873661379E+02 -0.61004191866E+02  0.10921650729E+03  0.00000000000E+00 0. -1.
          3    1    1    2  501    0  0.22635539208E+02  0.20238090277E+02 -0.99685424677E+02  0.10420715823E+03  0.00000000000E+00 0. -1.
<scales pt_clust_5="13000.00000" pt_clust_6="13000.00000" pt_clust_7="13000.00000" pt_clust_8="13000.00000" pt_clust_9="30.36360"></scales>
<clustering>
<clus scale="   30.364">  2  9  1 -1</clus>
<clus scale="   82.867">  5  6 -1 -1</clus>
<clus scale="   95.915">  7  8 -1 -1</clus>
<clus scale="  110.772">  2  5  1 -1</clus>
<clus scale="   30.364">  2  5  1 -1</clus>
</clustering>
</event>
<event>
 9    2  0.1592151E-004  0.2034506E+03  0.7546771E-02  0.1157537E+00
         21   -1    0    0  501  502  0.00000000000E+00  0.00000000000E+00  0.28465528180E+03  0.28465528180E+03  0.00000000000E+00 0.  1.
         -1   -1    0    0    0  501 -0.00000000000E+00 -0.00000000000E+00 -0.32395815515E+03  0.32395815515E+03  0.00000000000E+00 0.  1.
         24    2    1    2    0    0  0.10913864497E+03 -0.86920849856E+02 -0.19049820523E+02  0.15927531281E+03  0.74426148907E+02 0.  0.
         23    2    1    2    0    0 -0.19101844400E+03 -0.66208662818E+02  0.95320585256E+02  0.24074710095E+03  0.89451213881E+02 0.  0.
        -11    1    3    3    0    0  0.11937277154E+03 -0.73815831100E+02 -0.10946064830E+02  0.14077802329E+03  0.00000000000E+00 0.  1.
         12    1    3    3    0    0 -0.10234126565E+02 -0.13105018756E+02 -0.81037556929E+01  0.18497289517E+02  0.00000000000E+00 0. -1.
        -11    1    4    4    0    0 -0.13662530249E+03 -0.13555866166E+02  0.91411528855E+02  0.16494333086E+03  0.00000000000E+00 0.  1.
         11    1    4    4    0    0 -0.54393141507E+02 -0.52652796652E+02  0.39090564010E+01  0.75803770092E+02  0.00000000000E+00 0. -1.
         -2    1    1    2    0  502  0.81879799024E+02  0.15312951267E+03 -0.11557363808E+03  0.20859102320E+03  0.00000000000E+00 0.  1.
<scales pt_clust_5="13000.00000" pt_clust_6="13000.00000" pt_clust_7="13000.00000" pt_clust_8="13000.00000" pt_clust_9="182.73111"></scales>
<clustering>
<clus scale="   74.426">  5  6 -1 -1</clus>
<clus scale="   89.451">  7  8 -1 -1</clus>
<clus scale="  158.132">  2  5  1 -1</clus>
<clus scale="  182.731">  1  9  2 -1</clus>
<clus scale="  182.731">  1  5  2 -1</clus>
</clustering>
</event>
<event>
 9    2  0.1592151E-004  0.9932489E+02  0.7546771E-02  0.1288365E+00
         -1   -1    0    0    0  501 -0.00000000000E+00  0.00000000000E+00  0.31200334832E+03  0.31200334832E+03  0.00000000000E+00 0.  1.
         21   -1    0    0  501  502  0.00000000000E+00 -0.00000000000E+00 -0.66433271676E+02  0.66433271676E+02  0.00000000000E+00 0.  1.
         23    2    1    2    0    0  0.20591811738E+01 -0.50207214166E+01  0.77761440378E+02  0.12067099666E+03  0.92115145091E+02 0.  0.
         24    2    1    2    0    0 -0.73034766860E+02 -0.35863613695E+02  0.10155589002E+03  0.15241625691E+03  0.79352634579E+02 0.  0.
        -11    1    4    4    0    0 -0.89843582619E+02 -0.31465427095E+02  0.77559524918E+02  0.12279015574E+03  0.00000000000E+00 0.  1.
         12    1    4    4    0    0  0.16808815759E+02 -0.43981865992E+01  0.23996365101E+02  0.29626101172E+02  0.00000000000E+00 0. -1.
        -11    1    3    3    0    0 -0.39844187416E+02  0.71782540701E+01  0.12895418102E+02  0.42489744767E+02  0.00000000000E+00 0. -1.
         11    1    3    3    0    0  0.41903368590E+02 -0.12198975487E+02  0.64866022276E+02  0.78181251896E+02  0.00000000000E+00 0.  1.
         -2    1    1    2    0  502  0.70975585686E+02  0.40884335111E+02  0.66252746245E+02  0.10534936642E+03  0.00000000000E+00 0.  1.
<scales pt_clust_5="13000.00000" pt_clust_6="13000.00000" pt_clust_7="13000.00000" pt_clust_8="13000.00000" pt_clust_9="81.90887"></scales>
<clustering>
<clus scale="   79.353">  5  6 -1 -1</clus>
<clus scale="   81.909">  2  9  1 -1</clus>
<clus scale="   87.619">  2  5  1 -1</clus>
<clus scale="   92.115">  7  8 -1 -1</clus>
<clus scale="   81.909">  2  5  1 -1</clus>
</clustering>
</event>
<event>
 9    2  0.1592151E-004  0.1251014E+03  0.7546771E-02  0.1256675E+00
         21   -1    0    0  501  502  0.00000000000E+00  0.00000000000E+00  0.17093523778E+02  0.17093523778E+02  0.00000000000E+00 0. -1.
          2   -1    0    0  502    0 -0.00000000000E+00 -0.00000000000E+00 -0.15430516606E+04  0.15430516606E+04  0.00000000000E+00 0. -1.
         24    2    1    2    0    0 -0.53221036629E+01  0.31293061292E+01 -0.75107206947E+03  0.75539960653E+03  0.80505867249E+02 0.  0.
         23    2    1    2    0    0 -0.74477593316E+02 -0.35125535984E+02 -0.35195858162E+03  0.37316776499E+03  0.92728757504E+02 0.  0.
        -13    1    3    3    0    0 -0.20788812231E+02 -0.29811920234E+02 -0.21136238346E+03  0.21446440834E+03  0.00000000000E+00 0.  1.
         14    1    3    3    0    0  0.15466708568E+02  0.32941226363E+02 -0.53970968601E+03  0.54093519819E+03  0.00000000000E+00 0. -1.
        -11    1    4    4    0    0  0.20304911263E+02  0.17751305661E+01 -0.87037705912E+02  0.89392408852E+02  0.00000000000E+00 0.  1.
         11    1    4    4    0    0 -0.94782504579E+02 -0.36900666550E+02 -0.26492087571E+03  0.28377535614E+03  0.00000000000E+00 0. -1.
          1    1    1    2  501    0  0.79799696979E+02  0.31996229855E+02 -0.42292748571E+03  0.43157781284E+03  0.00000000000E+00 0. -1.
<scales pt_clust_5="13000.00000" pt_clust_6="13000.00000" pt_clust_7="13000.00000" pt_clust_8="13000.00000" pt_clust_9="83.97471"></scales>
<clustering>
<clus scale="   80.506">  5  6 -1 -1</clus>
<clus scale="   80.742">  2  5  1 -1</clus>
<clus scale="   83.975">  1  9  2 -1</clus>
<clus scale="   92.729">  7  8 -1 -1</clus>
<clus scale="   83.975">  1  5  2 -1</clus>
</clustering>
</event>
<event>
 9    2  0.1592151E-004  0.9410195E+02  0.7546771E-02  0.1300767E+00
          2   -1    0    0  502    0 -0.00000000000E+00  0.00000000000E+00  0.12950274378E+03  0.12950274378E+03  0.00000000000E+00 0. -1.
         21   -1    0    0  501  502  0.00000000000E+00 -0.00000000000E+00 -0.13804120905E+03  0.13804120905E+03  0.00000000000E+00 0.  1.
         24    2    1    2    0    0 -0.13621016670E+02  0.16062059967E+02  0.68165808994E+02  0.10500568856E+03  0.77046059269E+02 0.  0.
         23    2    1    2    0    0  0.40571608594E+02 -0.39929002694E+02 -0.49552566826E+02  0.11744746058E+03  0.89989268452E+02 0.  0.
        -11    1    3    3    0    0 -0.24505339723E+02 -0.25381020494E+02  0.20062839352E+02  0.40586024678E+02  0.00000000000E+00 0.  1.
         12    1    3    3    0    0  0.10884323052E+02  0.41443080462E+02  0.48102969642E+02  0.64419663883E+02  0.00000000000E+00 0. -1.
        -13    1    4    4    0    0  0.14613938687E+02 -0.67107014863E+02 -0.35604020681E+02  0.77359969858E+02  0.00000000000E+00 0.  1.
         13    1    4    4    0    0  0.25957669908E+02  0.27178012169E+02 -0.13948546145E+02  0.40087490718E+02  0.00000000000E+00 0. -1.
          1    1    1    2  501    0 -0.26950591924E+02  0.23866942727E+02 -0.27151707442E+02  0.45090803688E+02  0.00000000000E+00 0. -1.
<scales pt_clust_5="13000.00000" pt_clust_6="13000.00000" pt_clust_7="13000.00000" pt_clust_8="13000.00000" pt_clust_9="35.99952"></scales>
<clustering>
<clus scale="   36.000">  2  9  1 -1</clus>
<clus scale="   77.046">  5  6 -1 -1</clus>
<clus scale="   81.812">  1  5  2 -1</clus>
<clus scale="   89.989">  7  8 -1 -1</clus>
<clus scale="   36.000">  2  5  1 -1</clus>
</clustering>
</event>
<event>
 9    2  0.1592151E-004  0.1517453E+03  0.7546771E-02  0.1218114E+00
          2   -1    0    0  502    0 -0.00000000000E+00  0.00000000000E+00  0.65087309753E+03  0.65087309753E+03  0.00000000000E+00 0. -1.
         21   -1    0    0  501  502  0.00000000000E+00 -0.00000000000E+00 -0.58698345512E+02  0.58698345512E+02  0.00000000000E+00 0. -1.
         24    2    1    2    0    0 -0.49048780578E+02 -0.32179485487E+02  0.90396004270E+02  0.13432862023E+03  0.80196249681E+02 0.  0.
         23    2    1    2    0    0 -0.77619053591E+02  0.75619548677E+02  0.31574262448E+03  0.34602410965E+03  0.91083730285E+02 0.  0.
        -11    1    3    3    0    0 -0.19162494224E+02  0.26958964055E+02  0.28686251460E+02  0.43782278957E+02  0.00000000000E+00 0.  1.
         12    1    3    3    0    0 -0.29886286354E+02 -0.59138449542E+02  0.61709752810E+02  0.90546341274E+02  0.00000000000E+00 0. -1.
        -11    1    4    4    0    0 -0.62114215876E+02  0.11594810325E+02  0.84073470791E+02  0.10517111738E+03  0.00000000000E+00 0.  1.
         11    1    4    4    0    0 -0.15504837715E+02  0.64024738352E+02  0.23166915369E+03  0.24085299227E+03  0.00000000000E+00 0. -1.
          1    1    1    2  501    0  0.12666783417E+03 -0.43440063189E+02  0.18603612326E+03  0.22921871316E+03  0.00000000000E+00 0. -1.
<scales pt_clust_5="13000.00000" pt_clust_6="13000.00000" pt_clust_7="13000.00000" pt_clust_8="13000.00000" pt_clust_9="121.36886"></scales>
<clustering>
<clus scale="   80.196">  5  6 -1 -1</clus>
<clus scale="   91.084">  7  8 -1 -1</clus>
<clus scale="   99.362">  1  5  2 -1</clus>
<clus scale="  121.369">  2  9  1 -1</clus>
<clus scale="  121.369">  2  5  1 -1</clus>
</clustering>
</event>
<event>
 9    2  0.1592151E-004  0.9443194E+02  0.7546771E-02  0.1304642E+00
         -1   -1    0    0    0  501 -0.00000000000E+00  0.00000000000E+00  0.34761262573E+03  0.34761262573E+03  0.00000000000E+00 0.  1.
         21   -1    0    0  501  502  0.00000000000E+00 -0.00000000000E+00 -0.48671140906E+02  0.48671140906E+02  0.00000000000E+00 0.  1.
         23    2    1    2    0    0  0.20481551936E+02  0.93449785599E+01  0.25795155756E+03  0.27504874524E+03  0.92768440821E+02 0.  0.
         24    2    1    2    0    0  0.11545120051E+02 -0.22680633932E+02  0.38034141101E+02  0.86417151068E+02  0.73305028183E+02 0.  0.
        -13    1    4    4    0    0  0.23032429920E+02 -0.42391983908E+02  0.41125058778E+02  0.63394349805E+02  0.00000000000E+00 0.  1.
         14    1    4    4    0    0 -0.11487309869E+02  0.19711349976E+02 -0.30909176772E+01  0.23022801263E+02  0.00000000000E+00 0. -1.
        -11    1    3    3    0    0 -0.21471597545E+01 -0.39119218157E+02  0.77541839645E+02  0.86877272171E+02  0.00000000000E+00 0.  1.
         11    1    3    3    0    0  0.22628711690E+02  0.48464196717E+02  0.18040971792E+03  0.18817147307E+03  0.00000000000E+00 0. -1.
         -2    1    1    2    0  502 -0.32026671987E+02  0.13335655372E+02  0.29557861610E+01  0.34817870334E+02  0.00000000000E+00 0.  1.
<scales pt_clust_5="13000.00000" pt_clust_6="13000.00000" pt_clust_7="13000.00000" pt_clust_8="13000.00000" pt_clust_9="34.69218"></scales>
<clustering>
<clus scale="   34.692">  2  9  1 -1</clus>
<clus scale="   73.305">  5  6 -1 -1</clus>
<clus scale="   75.399">  2  5  1 -1</clus>
<clus scale="   92.768">  7  8 -1 -1</clus>
<clus scale="   34.692">  2  5  1 -1</clus>
</clustering>
</event>
<event>
 9    2  0.1592151E-004  0.1327411E+03  0.7546771E-02  0.1226145E+00
         21   -1    0    0  501  502  0.00000000000E+00  0.00000000000E+00  0.43174685989E+03  0.43174685989E+03  0.00000000000E+00 0.  1.
          4   -1    0    0  502    0 -0.00000000000E+00 -0.00000000000E+00 -0.96419458457E+02  0.96419458457E+02  0.00000000000E+00 0. -1.
         23    2    1    2    0    0 -0.79056698263E+02  0.60290761659E+02 -0.30726137284E+02  0.13818943612E+03  0.90924624069E+02 0.  0.
         24    2    1    2    0    0  0.60793497072E+02 -0.51661144303E+02  0.32787531269E+03  0.34678438570E+03  0.79952900986E+02 0.  0.
        -13    1    4    4    0    0  0.93254857401E+01 -0.59930684056E+02  0.16687239381E+03  0.17755294250E+03  0.00000000000E+00 0.  1.
         14    1    4    4    0    0  0.51468011332E+02  0.82695397526E+01  0.16100291889E+03  0.16923144320E+03  0.00000000000E+00 0. -1.
        -13    1    3    3    0    0 -0.11588539930E+02 -0.22745100743E+02 -0.16159949332E+02  0.30212213224E+02  0.00000000000E+00 0.  1.
         13    1    3    3    0    0 -0.67468158333E+02  0.83035862402E+02 -0.14566187952E+02  0.10797722290E+03  0.00000000000E+00 0. -1.
          3    1    1    2  501    0  0.18263201191E+02 -0.86296173563E+01  0.38178226025E+02  0.43192496523E+02  0.00000000000E+00 0. -1.
<scales pt_clust_5="13000.00000" pt_clust_6="13000.00000" pt_clust_7="13000.00000" pt_clust_8="13000.00000" pt_clust_9="20.19938"></scales>
<clustering>
<clus scale="   20.199">  1  9  2 -1</clus>
<clus scale="   79.953">  5  6 -1 -1</clus>
<clus scale="   90.925">  7  8 -1 -1</clus>
<clus scale="  125.481">  1  5  2 -1</clus>
<clus scale="   20.199">  1  5  2 -1</clus>
</clustering>
</event>
<event>
 9    2  0.1592151E-004  0.1309862E+03  0.7546771E-02  0.1229995E+00
         21   -1    0    0  501  502  0.00000000000E+00  0.00000000000E+00  0.66549957631E+02  0.66549957631E+02  0.00000000000E+00 0. -1.
          2   -1    0    0  502    0 -0.00000000000E+00 -0.00000000000E+00 -0.72155693167E+03  0.72155693167E+03  0.00000000000E+00 0. -1.
         24    2    1    2    0    0 -0.18422751550E+01 -0.90057921794E+02 -0.23274355195E+03  0.26060406966E+03  0.75040634948E+02 0.  0.
         23    2    1    2    0    0  0.10626033978E+03  0.91703264051E+02 -0.11483710377E+03  0.20282331525E+03  0.90823941566E+02 0.  0.
        -13    1    3    3    0    0 -0.11853130992E+01 -0.33772224676E+02 -0.18105858688E+03  0.18418517858E+03  0.00000000000E+00 0.  1.
         14    1    3    3    0    0 -0.65696205578E+00 -0.56285697117E+02 -0.51684965070E+02  0.76418891077E+02  0.00000000000E+00 0. -1.
        -11    1    4    4    0    0  0.32039840542E+02  0.84093040648E+02 -0.44939786999E+02  0.10058715287E+03  0.00000000000E+00 0. -1.
         11    1    4    4    0    0  0.74220499237E+02  0.76102234030E+01 -0.69897316767E+02  0.10223616238E+03  0.00000000000E+00 0.  1.
          1    1    1    2  501    0 -0.10441806462E+03 -0.16453422579E+01 -0.30742631833E+03  0.32467950439E+03  0.00000000000E+00 0. -1.
<scales pt_clust_5="13000.00000" pt_clust_6="13000.00000" pt_clust_7="13000.00000" pt_clust_8="13000.00000" pt_clust_9="104.43108"></scales>
<clustering>
<clus scale="   75.041">  5  6 -1 -1</clus>
<clus scale="   90.824">  7  8 -1 -1</clus>
<clus scale="  104.431">  1  9  2 -1</clus>
<clus scale="  120.580">  2  5  1 -1</clus>
<clus scale="  104.431">  1  5  2 -1</clus>
</clustering>
</event>
<event>
 9    2  0.1592151E-004  0.2120429E+03  0.7546771E-02  0.1140705E+00
         21   -1    0    0  501  502  0.00000000000E+00  0.00000000000E+00  0.12548131139E+03  0.12548131139E+03  0.00000000000E+00 0.  1.
          2   -1    0    0  502    0 -0.00000000000E+00 -0.00000000000E+00 -0.90668175266E+03  0.90668175266E+03  0.00000000000E+00 0. -1.
         24    2    1    2    0    0  0.18961090676E+03  0.19929145956E+02 -0.61600928986E+03  0.65004429580E+03  0.82101610692E+02 0.  0.
         23    2    1    2    0    0 -0.19978304879E+03  0.40635856651E+02 -0.19748875466E+02  0.22424208332E+03  0.91268583969E+02 0.  0.
        -13    1    3    3    0    0  0.76885960163E+02  0.11694820815E+02 -0.13374438644E+03  0.15471192782E+03  0.00000000000E+00 0.  1.
         14    1    3    3    0    0  0.11272494660E+03  0.82343251407E+01 -0.48226490342E+03  0.49533236798E+03  0.00000000000E+00 0. -1.
        -11    1    4    4    0    0 -0.18114951815E+03  0.26794276991E+02  0.13583824982E+02  0.18362353201E+03  0.00000000000E+00 0.  1.
         11    1    4    4    0    0 -0.18633530639E+02  0.13841579660E+02 -0.33332700448E+02  0.40618551313E+02  0.00000000000E+00 0. -1.
          1    1    1    2  501    0  0.10172142031E+02 -0.60565002607E+02 -0.14544227594E+03  0.15787668493E+03  0.00000000000E+00 0. -1.
<scales pt_clust_5="13000.00000" pt_clust_6="13000.00000" pt_clust_7="13000.00000" pt_clust_8="13000.00000" pt_clust_9="61.41332"></scales>
<clustering>
<clus scale="   61.413">  1  9  2 -1</clus>
<clus scale="   82.102">  5  6 -1 -1</clus>
<clus scale="   91.269">  7  8 -1 -1</clus>
<clus scale="  208.262">  2  5  1 -1</clus>
<clus scale="   61.413">  1  5  2 -1</clus>
</clustering>
</event>
<event>
 9    2  0.1592151E-004  0.1963941E+03  0.7546771E-02  0.1182744E+00
         -1   -1    0    0    0  501 -0.00000000000E+00  0.00000000000E+00  0.10806140313E+03  0.10806140313E+03  0.00000000000E+00 0.  1.
         21   -1    0    0  501  502  0.00000000000E+00 -0.00000000000E+00 -0.53453355037E+03  0.53453355037E+03  0.00000000000E+00 0. -1.
         23    2    1    2    0    0  0.32964628961E+02  0.17153669280E+02 -0.11089893615E+03  0.14850802478E+03  0.91515814220E+02 0.  0.
         24    2    1    2    0    0 -0.81648978627E+02 -0.17929211963E+03 -0.18565293090E+03  0.28068982895E+03  0.74212865810E+02 0.  0.
        -13    1    4    4    0    0 -0.48965312081E+02 -0.34604859020E+02 -0.35778419266E+02  0.69822584742E+02  0.00000000000E+00 0.  1.
         14    1    4    4    0    0 -0.32683666546E+02 -0.14468726061E+03 -0.14987451164E+03  0.21086724421E+03  0.00000000000E+00 0. -1.
        -13    1    3    3    0    0  0.58372395908E+02  0.20149472204E+02 -0.10567700644E+03  0.12239676272E+03  0.00000000000E+00 0.  1.
         13    1    3    3    0    0 -0.25407766947E+02 -0.29958029239E+01 -0.52219297092E+01  0.26111262058E+02  0.00000000000E+00 0. -1.
         -2    1    1    2    0  502  0.48684349666E+02  0.16213845035E+03 -0.12992028018E+03  0.21339709976E+03  0.00000000000E+00 0.  1.
<scales pt_clust_5="13000.00000" pt_clust_6="13000.00000" pt_clust_7="13000.00000" pt_clust_8="13000.00000" pt_clust_9="181.83263"></scales>
<clustering>
<clus scale="   74.213">  5  6 -1 -1</clus>
<clus scale="   91.516">  7  8 -1 -1</clus>
<clus scale="   98.773">  1  7  2 -1</clus>
<clus scale="  181.833">  2  9  1 -1</clus>
<clus scale="  181.833">  2  5  1 -1</clus>
</clustering>
</event>
<event>
 9    2  0.1592151E-004  0.1607641E+03  0.7546771E-02  0.1209849E+00
         21   -1    0    0  501  502  0.00000000000E+00  0.00000000000E+00  0.56484290349E+02  0.56484290349E+02  0.00000000000E+00 0. -1.
          2   -1    0    0  502    0 -0.00000000000E+00 -0.00000000000E+00 -0.10101992804E+04  0.10101992804E+04  0.00000000000E+00 0. -1.
         24    2    1    2    0    0 -0.56275322974E+02  0.15649613896E+02 -0.55766541836E+03  0.56648465342E+03  0.80636972503E+02 0.  0.
         23    2    1    2    0    0  0.60449672379E+01  0.11659401865E+03 -0.27916380106E+03  0.31669482918E+03  0.93447740450E+02 0.  0.
        -11    1    3    3    0    0 -0.43018621493E+02 -0.15546971482E+02 -0.13655905887E+03  0.14401627227E+03  0.00000000000E+00 0.  1.
         12    1    3    3    0    0 -0.13256701481E+02  0.31196585378E+02 -0.42110635948E+03  0.42246838115E+03  0.00000000000E+00 0. -1.
        -11    1    4    4    0    0  0.38280792140E+02  0.89092778882E+02 -0.24057989988E+03  0.25938702844E+03  0.00000000000E+00 0.  1.
         11    1    4    4    0    0 -0.32235824902E+02  0.27501239770E+02 -0.38583901178E+02  0.57307800744E+02  0.00000000000E+00 0. -1.
          1    1    1    2  501    0  0.50230355736E+02 -0.13224363255E+03 -0.11688577061E+03  0.18350408812E+03  0.00000000000E+00 0. -1.
<scales pt_clust_5="13000.00000" pt_clust_6="13000.00000" pt_clust_7="13000.00000" pt_clust_8="13000.00000" pt_clust_9="130.81520"></scales>
<clustering>
<clus scale="   80.637">  5  6 -1 -1</clus>
<clus scale="   93.448">  7  8 -1 -1</clus>
<clus scale="   99.570">  2  5  1 -1</clus>
<clus scale="  130.815">  1  9  2 -1</clus>
<clus scale="  130.815">  1  5  2 -1</clus>
</clustering>
</event>
<event>
 9    2  0.1592151E-004  0.1135302E+03  0.7546771E-02  0.1258577E+00
          2   -1    0    0  502    0 -0.00000000000E+00  0.00000000000E+00  0.50705439507E+03  0.50705439507E+03  0.00000000000E+00 0. -1.
         21   -1    0    0  501  502  0.00000000000E+00 -0.00000000000E+00 -0.78584895941E+02  0.78584895941E+02  0.00000000000E+00 0. -1.
         23    2    1    2    0    0  0.76994522602E+01 -0.74218958190E+02  0.35278153023E+03  0.37234042302E+03  0.92816201319E+02 0.  0.
         24    2    1    2    0    0 -0.29663124202E+02  0.69762094935E+01 -0.25189761879E+02  0.90090480673E+02  0.80951850924E+02 0.  0.
        -13    1    4    4    0    0  0.16226705888E+02  0.29867768023E+02 -0.17510349767E+02  0.38236133430E+02  0.00000000000E+00 0.  1.
         14    1    4    4    0    0 -0.45889830090E+02 -0.22891558530E+02 -0.76794121119E+01  0.51854347243E+02  0.00000000000E+00 0. -1.
        -13    1    3    3    0    0 -0.12812616587E+02 -0.90254493056E+02  0.24361725821E+03  0.26011421561E+03  0.00000000000E+00 0. -1.
         13    1    3    3    0    0  0.20512068847E+02  0.16035534867E+02  0.10916427202E+03  0.11222620742E+03  0.00000000000E+00 0.  1.
          1    1    1    2  501    0  0.21963671942E+02  0.67242748696E+02  0.10087773078E+03  0.12320838732E+03  0.00000000000E+00 0. -1.
<scales pt_clust_5="13000.00000" pt_clust_6="13000.00000" pt_clust_7="13000.00000" pt_clust_8="13000.00000" pt_clust_9="70.73892"></scales>
<clustering>
<clus scale="   70.739">  2  9  1 -1</clus>
<clus scale="   80.952">  5  6 -1 -1</clus>
<clus scale="   92.816">  7  8 -1 -1</clus>
<clus scale="  104.055">  2  5  1 -1</clus>
<clus scale="   70.739">  2  5  1 -1</clus>
</clustering>
</event>
<event>
 9    2  0.2009447E-004  0.1037162E+03  0.7546771E-02  0.1282753E+00
         21   -1    0    0  501  502  0.00000000000E+00  0.00000000000E+00  0.36622626214E+03  0.36622626214E+03  0.00000000000E+00 0.  1.
          4   -1    0    0  502    0 -0.00000000000E+00 -0.00000000000E+00 -0.15114104157E+03  0.15114104157E+03  0.00000000000E+00 0. -1.
         24    2    1    2    0    0 -0.11985200598E+02 -0.19111190539E+02 -0.12487588431E+03  0.15126668097E+03  0.82333101786E+02 0.  0.
         23    2    1    2    0    0  0.35778878356E+02  0.23208387503E+02  0.29977016189E+03  0.31921525164E+03  0.10108149947E+03 0.  0.
        -11    1    3    3    0    0 -0.14254874520E+02  0.17325248222E+02 -0.13693168891E+01  0.22477559971E+02  0.00000000000E+00 0.  1.
         12    1    3    3    0    0  0.22696739214E+01 -0.36436438760E+02 -0.12350656743E+03  0.12878912099E+03  0.00000000000E+00 0. -1.
        -11    1    4    4    0    0  0.11300181362E+02  0.57852563705E+02  0.23110417080E+03  0.23850314671E+03  0.00000000000E+00 0.  1.
         11    1    4    4    0    0  0.24478696994E+02 -0.34644176203E+02  0.68665991085E+02  0.80712104935E+02  0.00000000000E+00 0. -1.
          3    1    1    2  501    0 -0.23793677758E+02 -0.40971969637E+01  0.40190942998E+02  0.46885371101E+02  0.00000000000E+00 0. -1.
<scales pt_clust_5="13000.00000" pt_clust_6="13000.00000" pt_clust_7="13000.00000" pt_clust_8="13000.00000" pt_clust_9="24.14386"></scales>
<clustering>
<clus scale="   24.144">  1  9  2 -1</clus>
<clus scale="   82.333">  5  6 -1 -1</clus>
<clus scale="   85.547">  2  5  1 -1</clus>
<clus scale="  101.081">  7  8 -1 -1</clus>
<clus scale="   24.144">  1  5  2 -1</clus>
</clustering>
</event>
<event>
 9    2  0.1592151E-004  0.1889064E+03  0.7546771E-02  0.1195166E+00
          2   -1    0    0  502    0 -0.00000000000E+00  0.00000000000E+00  0.59676129778E+03  0.59676129778E+03  0.00000000000E+00 0. -1.
         21   -1    0    0  501  502  0.00000000000E+00 -0.00000000000E+00 -0.13510245378E+03  0.13510245378E+03  0.00000000000E+00 0. -1.
         24    2    1    2    0    0  0.25954488310E+02 -0.26745067652E+01  0.34827721297E+03  0.35833613927E+03  0.80168467504E+02 0.  0.
         23    2    1    2    0    0  0.12752756312E+03  0.88132838499E+02  0.70492917686E+02  0.19269811164E+03  0.90181118918E+02 0.  0.
        -13    1    3    3    0    0  0.24084323798E+02 -0.38943995499E+02  0.23360100465E+03  0.23804646356E+03  0.00000000000E+00 0.  1.
         14    1    3    3    0    0  0.18701645124E+01  0.36269488733E+02  0.11467620832E+03  0.12028967571E+03  0.00000000000E+00 0. -1.
        -13    1    4    4    0    0  0.10318154931E+03  0.17885149016E+02  0.35957367583E+02  0.11072146566E+03  0.00000000000E+00 0. -1.
         13    1    4    4    0    0  0.24346013808E+02  0.70247689483E+02  0.34535550103E+02  0.81976645985E+02  0.00000000000E+00 0.  1.
          1    1    1    2  501    0 -0.15348205143E+03 -0.85458331734E+02  0.42888713352E+02  0.18082950065E+03  0.00000000000E+00 0. -1.
<scales pt_clust_5="13000.00000" pt_clust_6="13000.00000" pt_clust_7="13000.00000" pt_clust_8="13000.00000" pt_clust_9="165.99099"></scales>
<clustering>
<clus scale="   80.168">  5  6 -1 -1</clus>
<clus scale="   84.308">  1  5  2 -1</clus>
<clus scale="   90.181">  7  8 -1 -1</clus>
<clus scale="  165.991">  2  9  1 -1</clus>
<clus scale="  165.991">  2  5  1 -1</clus>
</clustering>
</event>
<event>
 9    2  0.1592151E-004  0.1045257E+03  0.7546771E-02  0.1276805E+00
         21   -1    0    0  501  502  0.00000000000E+00  0.00000000000E+00  0.26746370970E+02  0.26746370970E+02  0.00000000000E+00 0.  1.
          4   -1    0    0  502    0 -0.00000000000E+00 -0.00000000000E+00 -0.73243915707E+03  0.73243915707E+03  0.00000000000E+00 0. -1.
         24    2    1    2    0    0  0.31262535937E+02 -0.29383254646E+02 -0.52043852435E+03  0.52843799406E+03  0.80930427737E+02 0.  0.
         23    2    1    2    0    0 -0.49496119110E+02  0.43333167994E+02 -0.16050621186E+03  0.19699061452E+03  0.93356461529E+02 0.  0.
        -11    1    3    3    0    0  0.25113070561E+02 -0.24693640039E+02 -0.74221530906E+02  0.82153988469E+02  0.00000000000E+00 0.  1.
         12    1    3    3    0    0  0.61494653762E+01 -0.46896146070E+01 -0.44621699344E+03  0.44628400559E+03  0.00000000000E+00 0. -1.
        -13    1    4    4    0    0 -0.19300615197E+02 -0.17269912920E+02 -0.36634609308E+01  0.26156922320E+02  0.00000000000E+00 0. -1.
         13    1    4    4    0    0 -0.30195503913E+02  0.60603080914E+02 -0.15684275093E+03  0.17083369220E+03  0.00000000000E+00 0.  1.
          3    1    1    2  501    0  0.18233583173E+02 -0.13949913348E+02 -0.24748049891E+02  0.33756919456E+02  0.00000000000E+00 0. -1.
<scales pt_clust_5="13000.00000" pt_clust_6="13000.00000" pt_clust_7="13000.00000" pt_clust_8="13000.00000" pt_clust_9="22.95787"></scales>
<clustering>
<clus scale="   22.958">  1  9  2 -1</clus>
<clus scale="   80.930">  5  6 -1 -1</clus>
<clus scale="   93.356">  7  8 -1 -1</clus>
<clus scale="   93.595">  2  5  1 -1</clus>
<clus scale="   22.958">  1  5  2 -1</clus>
</clustering>
</event>
<event>
 9    2  0.1592151E-004  0.2301834E+03  0.7546771E-02  0.1126511E+00
         -1   -1    0    0    0  501 -0.00000000000E+00  0.00000000000E+00  0.32460899519E+03  0.32460899519E+03  0.00000000000E+00 0.  1.
         21   -1    0    0  501  502  0.00000000000E+00 -0.00000000000E+00 -0.11357554014E+03  0.11357554014E+03  0.00000000000E+00 0.  1.
         24    2    1    2    0    0  0.83988407220E+02  0.10258234614E+01  0.72058580952E+02  0.13417745874E+03  0.75868613292E+02 0.  0.
         23    2    1    2    0    0  0.46547368815E+02  0.52205694301E+02  0.11184196001E+03  0.16044740839E+03  0.91338134316E+02 0.  0.
        -11    1    3    3    0    0  0.88217442774E+02 -0.57597088333E+01  0.82571725307E+02  0.12096934023E+03  0.00000000000E+00 0.  1.
         12    1    3    3    0    0 -0.42290355547E+01  0.67855322947E+01 -0.10513144355E+02  0.13208118506E+02  0.00000000000E+00 0. -1.
        -11    1    4    4    0    0  0.39046361789E+02 -0.12634129681E+02  0.75003491393E+02  0.85497153888E+02  0.00000000000E+00 0.  1.
         11    1    4    4    0    0  0.75010070263E+01  0.64839823982E+02  0.36838468615E+02  0.74950254504E+02  0.00000000000E+00 0. -1.
         -2    1    1    2    0  502 -0.13053577603E+03 -0.53231517762E+02  0.27132914093E+02  0.14355966821E+03  0.00000000000E+00 0.  1.
<scales pt_clust_5="13000.00000" pt_clust_6="13000.00000" pt_clust_7="13000.00000" pt_clust_8="13000.00000" pt_clust_9="140.97228"></scales>
<clustering>
<clus scale="   75.869">  5  6 -1 -1</clus>
<clus scale="   91.338">  7  8 -1 -1</clus>
<clus scale="  111.692">  5  7 -1 -1</clus>
<clus scale="  140.972">  2  9  1 -1</clus>
<clus scale="  140.972">  2  5  1 -1</clus>
</clustering>
</event>
<event>
 9    2  0.1592151E-004  0.1002045E+03  0.7546771E-02  0.1285585E+00
         21   -1    0    0  501  502  0.00000000000E+00  0.00000000000E+00  0.88530245452E+02  0.88530245452E+02  0.00000000000E+00 0.  1.
         -3   -1    0    0    0  501 -0.00000000000E+00 -0.00000000000E+00 -0.58514641350E+03  0.58514641350E+03  0.00000000000E+00 0.  1.
         23    2    1    2    0    0  0.45388647050E+01  0.46350052408E+02 -0.46508951117E+03  0.47624932807E+03  0.91303014357E+02 0.  0.
         24    2    1    2    0    0 -0.16209594464E+02 -0.23984603834E+02 -0.95999510405E+02  0.12819462139E+03  0.79874544007E+02 0.  0.
        -11    1    4    4    0    0 -0.19269916128E+02 -0.60162911411E+01 -0.10565623986E+03  0.10756749717E+03  0.00000000000E+00 0.  1.
         12    1    4    4    0    0  0.30603216633E+01 -0.17968312693E+02  0.96567294514E+01  0.20627124216E+02  0.00000000000E+00 0. -1.
        -13    1    3    3    0    0 -0.39044246666E+02  0.71747617655E+01 -0.12513981189E+03  0.13128557774E+03  0.00000000000E+00 0. -1.
         13    1    3    3    0    0  0.43583111371E+02  0.39175290642E+02 -0.33994969928E+03  0.34496375032E+03  0.00000000000E+00 0.  1.
         -4    1    1    2    0  502  0.11670729759E+02 -0.22365448574E+02  0.64472853527E+02  0.69232709502E+02  0.00000000000E+00 0.  1.
<scales pt_clust_5="13000.00000" pt_clust_6="13000.00000" pt_clust_7="13000.00000" pt_clust_8="13000.00000" pt_clust_9="25.22735"></scales>
<clustering>
<clus scale="   25.227">  1  9  2 -1</clus>
<clus scale="   79.875">  5  6 -1 -1</clus>
<clus scale="   89.915">  1  5  2 -1</clus>
<clus scale="   91.303">  7  8 -1 -1</clus>
<clus scale="   25.227">  1  5  2 -1</clus>
</clustering>
</event>
<event>
 9    2  0.1592151E-004  0.2013919E+03  0.7546771E-02  0.1149642E+00
         21   -1    0    0  501  502  0.00000000000E+00  0.00000000000E+00  0.18671785975E+03  0.18671785975E+03  0.00000000000E+00 0.  1.
          2   -1    0    0  502    0 -0.00000000000E+00 -0.00000000000E+00 -0.64051928180E+03  0.64051928180E+03  0.00000000000E+00 0. -1.
         23    2    1    2    0    0 -0.16241225421E+02  0.17041770521E+03 -0.47166858437E+03  0.51009609579E+03  0.91764926871E+02 0.  0.
         24    2    1    2    0    0  0.52688555152E+02 -0.22833970124E+03  0.61646449243E+01  0.24771256182E+03  0.80052529174E+02 0.  0.
        -11    1    4    4    0    0  0.37196630548E+02 -0.17494536764E+03  0.39117943775E+02  0.18308381826E+03  0.00000000000E+00 0.  1.
         12    1    4    4    0    0  0.15491924604E+02 -0.53394333600E+02 -0.32953298850E+02  0.64628743556E+02  0.00000000000E+00 0. -1.
        -13    1    3    3    0    0 -0.30123116754E+02  0.31788819405E+02 -0.52432881439E+02  0.68316456716E+02  0.00000000000E+00 0.  1.
         13    1    3    3    0    0  0.13881891334E+02  0.13862888581E+03 -0.41923570293E+03  0.44177963907E+03  0.00000000000E+00 0. -1.
          1    1    1    2  501    0 -0.36447329731E+02  0.57921996032E+02  0.11702517394E+02  0.69428483940E+02  0.00000000000E+00 0. -1.
<scales pt_clust_5="13000.00000" pt_clust_6="13000.00000" pt_clust_7="13000.00000" pt_clust_8="13000.00000" pt_clust_9="68.43512"></scales>
<clustering>
<clus scale="   68.435">  1  9  2 -1</clus>
<clus scale="   80.053">  5  6 -1 -1</clus>
<clus scale="   91.765">  7  8 -1 -1</clus>
<clus scale="  196.332">  1  5  2 -1</clus>
<clus scale="   68.435">  1  5  2 -1</clus>
</clustering>
</event>
<event>
 9    2  0.1592151E-004  0.9358608E+02  0.7546771E-02  0.1301683E+00
          2   -1    0    0  502    0 -0.00000000000E+00  0.00000000000E+00  0.76755675417E+02  0.76755675417E+02  0.00000000000E+00 0. -1.
         21   -1    0    0  501  502  0.00000000000E+00 -0.00000000000E+00 -0.23057696518E+03  0.23057696518E+03  0.00000000000E+00 0. -1.
         23    2    1    2    0    0  0.15524434174E+02 -0.53303707537E+00 -0.19337663661E+02  0.96358880367E+02  0.93111741498E+02 0.  0.
         24    2    1    2    0    0  0.50312736534E+02  0.96786139462E+01 -0.77183002029E+02  0.12321536381E+03  0.81238925712E+02 0.  0.
        -11    1    4    4    0    0 -0.34872735654E+01  0.32643339136E+02 -0.10402446290E+02  0.34437763511E+02  0.00000000000E+00 0.  1.
         12    1    4    4    0    0  0.53800010099E+02 -0.22964725189E+02 -0.66780555739E+02  0.88777600297E+02  0.00000000000E+00 0. -1.
        -11    1    3    3    0    0  0.19663411933E+02  0.44774469745E+02 -0.98737226547E+01  0.49888809455E+02  0.00000000000E+00 0. -1.
         11    1    3    3    0    0 -0.41389777597E+01 -0.45307506820E+02 -0.94639410065E+01  0.46470070912E+02  0.00000000000E+00 0.  1.
          1    1    1    2  501    0 -0.65837170707E+02 -0.91455768708E+01 -0.57300624067E+02  0.87758396416E+02  0.00000000000E+00 0. -1.
<scales pt_clust_5="13000.00000" pt_clust_6="13000.00000" pt_clust_7="13000.00000" pt_clust_8="13000.00000" pt_clust_9="66.46935"></scales>
<clustering>
<clus scale="   66.469">  2  9  1 -1</clus>
<clus scale="   81.239">  5  6 -1 -1</clus>
<clus scale="   81.782">  2  5  1 -1</clus>
<clus scale="   93.112">  7  8 -1 -1</clus>
<clus scale="   66.469">  2  5  1 -1</clus>
</clustering>
</event>
<event>
 9    2  0.1592151E-004  0.9958917E+02  0.7546771E-02  0.1284777E+00
          2   -1    0    0  502    0 -0.00000000000E+00  0.00000000000E+00  0.10244918705E+04  0.10244918705E+04  0.00000000000E+00 0. -1.
         21   -1    0    0  501  502  0.00000000000E+00 -0.00000000000E+00 -0.17592309926E+02  0.17592309926E+02  0.00000000000E+00 0.  1.
         24    2    1    2    0    0  0.50296543118E+02  0.18066038560E+02  0.51283338173E+03  0.52217429100E+03  0.82533561449E+02 0.  0.
         23    2    1    2    0    0 -0.19577464039E+02  0.79058746605E+01  0.17091198378E+03  0.19426155781E+03  0.89893640995E+02 0.  0.
        -13    1    3    3    0    0 -0.73955082503E+01  0.20516480709E+02  0.37768081689E+02  0.43612469747E+02  0.00000000000E+00 0.  1.
         14    1    3    3    0    0  0.57692051369E+02 -0.24504421485E+01  0.47506530004E+03  0.47856182125E+03  0.00000000000E+00 0. -1.
        -11    1    4    4    0    0 -0.48742626394E+02 -0.17633638627E+02  0.78750203515E+02  0.94278223322E+02  0.00000000000E+00 0.  1.
         11    1    4    4    0    0  0.29165162354E+02  0.25539513287E+02  0.92161780265E+02  0.99983334490E+02  0.00000000000E+00 0. -1.
          1    1    1    2  501    0 -0.30719079079E+02 -0.25971913221E+02  0.32315419503E+03  0.32564833158E+03  0.00000000000E+00 0. -1.
<scales pt_clust_5="13000.00000" pt_clust_6="13000.00000" pt_clust_7="13000.00000" pt_clust_8="13000.00000" pt_clust_9="40.22690"></scales>
<clustering>
<clus scale="   40.227">  2  9  1 -1</clus>
<clus scale="   82.534">  5  6 -1 -1</clus>
<clus scale="   89.894">  7  8 -1 -1</clus>
<clus scale="   93.000">  1  5  2 -1</clus>
<clus scale="   40.227">  2  5  1 -1</clus>
</clustering>
</event>
<event>
 9    2  0.1592151E-004  0.1470972E+03  0.7546771E-02  0.1232637E+00
         21   -1    0    0  501  502  0.00000000000E+00  0.00000000000E+00  0.11180125073E+04  0.11180125073E+04  0.00000000000E+00 0. -1.
         -3   -1    0    0    0  501 -0.00000000000E+00 -0.00000000000E+00 -0.27421920305E+02  0.27421920305E+02  0.00000000000E+00 0.  1.
         24    2    1    2    0    0  0.62814193394E+01  0.53001782400E-01  0.31215506546E+03  0.32240039515E+03  0.80385140804E+02 0.  0.
         23    2    1    2    0    0 -0.10110756812E+03  0.59787876000E+02  0.52819456911E+03  0.54881976693E+03  0.91740412535E+02 0.  0.
        -11    1    3    3    0    0  0.19366144449E+02  0.29049137563E+02  0.70612348993E+02  0.78771846330E+02  0.00000000000E+00 0.  1.
         12    1    3    3    0    0 -0.13084725110E+02 -0.28996135781E+02  0.24154271647E+03  0.24362854882E+03  0.00000000000E+00 0. -1.
        -11    1    4    4    0    0 -0.26726752931E+02 -0.20455224618E+02  0.69010908271E+02  0.76780472757E+02  0.00000000000E+00 0.  1.
         11    1    4    4    0    0 -0.74380815185E+02  0.80243100619E+02  0.45918366084E+03  0.47203929418E+03  0.00000000000E+00 0. -1.
         -4    1    1    2    0  502  0.94826148777E+02 -0.59840877783E+02  0.25024095243E+03  0.27421426553E+03  0.00000000000E+00 0.  1.
<scales pt_clust_5="13000.00000" pt_clust_6="13000.00000" pt_clust_7="13000.00000" pt_clust_8="13000.00000" pt_clust_9="114.98388"></scales>
<clustering>
<clus scale="   80.385">  5  6 -1 -1</clus>
<clus scale="   80.630">  2  5  1 -1</clus>
<clus scale="   91.740">  7  8 -1 -1</clus>
<clus scale="  114.984">  1  9  2 -1</clus>
<clus scale="  114.984">  1  5  2 -1</clus>
</clustering>
</event>
<event>
 9    2  0.1592151E-004  0.9628546E+02  0.7546771E-02  0.1294680E+00
          2   -1    0    0  502    0 -0.00000000000E+00  0.00000000000E+00  0.13883970531E+03  0.13883970531E+03  0.00000000000E+00 0. -1.
         21   -1    0    0  501  502  0.00000000000E+00 -0.00000000000E+00 -0.16157884310E+03  0.16157884310E+03  0.00000000000E+00 0.  1.
         24    2    1    2    0    0 -0.24010126229E+02  0.13083818848E+02  0.56291998453E+02  0.10145393894E+03  0.79852615232E+02 0.  0.
         23    2    1    2    0    0 -0.29218975782E+01 -0.71305715824E+02 -0.66417557554E+02  0.13358704787E+03  0.91329977619E+02 0.  0.
        -13    1    3    3    0    0  0.18914885469E+02  0.25572036173E+02  0.30807596058E+01  0.31956110622E+02  0.00000000000E+00 0.  1.
         14    1    3    3    0    0 -0.42925011698E+02 -0.12488217325E+02  0.53211238847E+02  0.69497828318E+02  0.00000000000E+00 0. -1.
        -11    1    4    4    0    0  0.32854321650E+02 -0.64560898110E+02 -0.64721540988E+02  0.97141102957E+02  0.00000000000E+00 0.  1.
         11    1    4    4    0    0 -0.35776219228E+02 -0.67448177141E+01 -0.16960165664E+01  0.36445944911E+02  0.00000000000E+00 0. -1.
          1    1    1    2  501    0  0.26932023807E+02  0.58221896976E+02 -0.12613578681E+02  0.65377561602E+02  0.00000000000E+00 0. -1.
<scales pt_clust_5="13000.00000" pt_clust_6="13000.00000" pt_clust_7="13000.00000" pt_clust_8="13000.00000" pt_clust_9="64.14923"></scales>
<clustering>
<clus scale="   64.149">  2  9  1 -1</clus>
<clus scale="   79.853">  5  6 -1 -1</clus>
<clus scale="   85.476">  1  5  2 -1</clus>
<clus scale="   91.330">  7  8 -1 -1</clus>
<clus scale="   64.149">  2  5  1 -1</clus>
</clustering>
</event>
<event>
 9    2  0.1592151E-004  0.1096740E+03  0.7546771E-02  0.1264666E+00
          2   -1    0    0  502    0 -0.00000000000E+00  0.00000000000E+00  0.73419661689E+03  0.73419661689E+03  0.00000000000E+00 0. -1.
         21   -1    0    0  501  502  0.00000000000E+00 -0.00000000000E+00 -0.53050917671E+02  0.53050917671E+02  0.00000000000E+00 0.  1.
         24    2    1    2    0    0 -0.10155930038E+02  0.43595422784E+02  0.17973138914E+03  0.20196137556E+03  0.80506652993E+02 0.  0.
         23    2    1    2    0    0  0.94596588888E+00 -0.12731284660E+03  0.12518254131E+03  0.19974267984E+03  0.89537778272E+02 0.  0.
        -11    1    3    3    0    0 -0.23380566450E+02  0.85935033485E-01  0.13887257137E+03  0.14082701925E+03  0.00000000000E+00 0.  1.
         12    1    3    3    0    0  0.13224636412E+02  0.43509487750E+02  0.40858817767E+02  0.61134356314E+02  0.00000000000E+00 0. -1.
        -13    1    4    4    0    0  0.34654909573E+02 -0.14851409750E+02  0.23507998894E+02  0.44431443158E+02  0.00000000000E+00 0. -1.
         13    1    4    4    0    0 -0.33708943684E+02 -0.11246143685E+03  0.10167454242E+03  0.15531123668E+03  0.00000000000E+00 0.  1.
          1    1    1    2  501    0  0.92099641488E+01  0.83717423818E+02  0.37623176878E+03  0.38554347916E+03  0.00000000000E+00 0. -1.
<scales pt_clust_5="13000.00000" pt_clust_6="13000.00000" pt_clust_7="13000.00000" pt_clust_8="13000.00000" pt_clust_9="84.22255"></scales>
<clustering>
<clus scale="   80.507">  5  6 -1 -1</clus>
<clus scale="   84.223">  2  9  1 -1</clus>
<clus scale="   89.538">  7  8 -1 -1</clus>
<clus scale="  102.434">  1  5  2 -1</clus>
<clus scale="   84.223">  2  5  1 -1</clus>
</clustering>
</event>
<event>
 9    2  0.1592151E-004  0.9831687E+02  0.7546771E-02  0.1289606E+00
         -3   -1    0    0    0  501 -0.00000000000E+00  0.00000000000E+00  0.59491868611E+02  0.59491868611E+02  0.00000000000E+00 0.  1.
         21   -1    0    0  501  502  0.00000000000E+00 -0.00000000000E+00 -0.44070790282E+03  0.44070790282E+03  0.00000000000E+00 0.  1.
         24    2    1    2    0    0  0.28966925356E+01 -0.40825586338E+02  0.49532329410E+01  0.89727630016E+02  0.79695631902E+02 0.  0.
         23    2    1    2    0    0  0.27107096969E+02  0.22010276121E+02 -0.21909465894E+03  0.23968523328E+03  0.90704434919E+02 0.  0.
        -13    1    3    3    0    0  0.11031578619E+02  0.20343229997E+02 -0.11532323640E+02  0.25856086750E+02  0.00000000000E+00 0.  1.
         14    1    3    3    0    0 -0.81348860831E+01 -0.61168816335E+02  0.16485556581E+02  0.63871543266E+02  0.00000000000E+00 0. -1.
        -11    1    4    4    0    0  0.47057044088E+02  0.26067417505E+02 -0.21104516560E+03  0.21779333685E+03  0.00000000000E+00 0.  1.
         11    1    4    4    0    0 -0.19949947119E+02 -0.40571413840E+01 -0.80494933478E+01  0.21891896433E+02  0.00000000000E+00 0. -1.
         -4    1    1    2    0  502 -0.30003789505E+02  0.18815310217E+02 -0.16707460821E+03  0.17078690814E+03  0.00000000000E+00 0.  1.
<scales pt_clust_5="13000.00000" pt_clust_6="13000.00000" pt_clust_7="13000.00000" pt_clust_8="13000.00000" pt_clust_9="35.41530"></scales>
<clustering>
<clus scale="   35.415">  2  9  1 -1</clus>
<clus scale="   79.696">  5  6 -1 -1</clus>
<clus scale="   88.263">  1  5  2 -1</clus>
<clus scale="   90.704">  7  8 -1 -1</clus>
<clus scale="   35.415">  2  5  1 -1</clus>
</clustering>
</event>
<event>
 9    2  0.1592151E-004  0.1044439E+03  0.7546771E-02  0.1276861E+00
         21   -1    0    0  501  502  0.00000000000E+00  0.00000000000E+00  0.16156793312E+03  0.16156793312E+03  0.00000000000E+00 0. -1.
          2   -1    0    0  502    0 -0.00000000000E+00 -0.00000000000E+00 -0.12249083547E+03  0.12249083547E+03  0.00000000000E+00 0. -1.
         23    2    1    2    0    0  0.72798659571E+02 -0.27823886162E+02 -0.21681863694E+02  0.12237967402E+03  0.91830648069E+02 0.  0.
         24    2    1    2    0    0 -0.15428654817E+02  0.22175995350E+02  0.92867796336E+01  0.84396485884E+02  0.79414761817E+02 0.  0.
        -13    1    4    4    0    0 -0.21064072624E+02 -0.20318970912E+02 -0.17257825595E+02  0.33976289949E+02  0.00000000000E+00 0.  1.
         14    1    4    4    0    0  0.56354178069E+01  0.42494966262E+02  0.26544605228E+02  0.50420195935E+02  0.00000000000E+00 0. -1.
        -11    1    3    3    0    0  0.31814245445E+02  0.21576516064E+02 -0.40152303798E+02  0.55586866785E+02  0.00000000000E+00 0. -1.
         11    1    3    3    0    0  0.40984414125E+02 -0.49400402226E+02  0.18470440104E+02  0.66792807239E+02  0.00000000000E+00 0.  1.
          1    1    1    2  501    0 -0.57370004753E+02  0.56478908122E+01  0.51472181710E+02  0.77282608690E+02  0.00000000000E+00 0. -1.
<scales pt_clust_5="13000.00000" pt_clust_6="13000.00000" pt_clust_7="13000.00000" pt_clust_8="13000.00000" pt_clust_9="57.64734"></scales>
<clustering>
<clus scale="   57.647">  1  9  2 -1</clus>
<clus scale="   79.415">  5  6 -1 -1</clus>
<clus scale="   91.831">  7  8 -1 -1</clus>
<clus scale="   93.714">  1  5  2 -1</clus>
<clus scale="   57.647">  1  5  2 -1</clus>
</clustering>
</event>
<event>
 9    2  0.3398314E-004  0.1075283E+03  0.7546771E-02  0.1270165E+00
         21   -1    0    0  501  502  0.00000000000E+00  0.00000000000E+00  0.32604732189E+03  0.32604732189E+03  0.00000000000E+00 0.  1.
          2   -1    0    0  502    0 -0.00000000000E+00 -0.00000000000E+00 -0.25292197583E+03  0.25292197583E+03  0.00000000000E+00 0. -1.
         23    2    1    2    0    0  0.47555128500E+02  0.21136233791E+02 -0.24371662315E+02  0.10932070943E+03  0.92998972901E+02 0.  0.
         24    2    1    2    0    0 -0.67706545856E+02 -0.11450843503E+02  0.27283740316E+03  0.29288846709E+03  0.81413189488E+02 0.  0.
        -11    1    4    4    0    0 -0.55198973949E+02 -0.99853593730E+01  0.27451179272E+03  0.28018450790E+03  0.00000000000E+00 0.  1.
         12    1    4    4    0    0 -0.12507571906E+02 -0.14654841301E+01 -0.16743895559E+01  0.12703959190E+02  0.00000000000E+00 0. -1.
        -13    1    3    3    0    0  0.32201678328E+02  0.52393457154E+02 -0.37584787754E+02  0.72073842066E+02  0.00000000000E+00 0.  1.
         13    1    3    3    0    0  0.15353450171E+02 -0.31257223363E+02  0.13213125438E+02  0.37246867363E+02  0.00000000000E+00 0. -1.
          1    1    1    2  501    0  0.20151417356E+02 -0.96853902878E+01 -0.17534039478E+03  0.17676012121E+03  0.00000000000E+00 0. -1.
<scales pt_clust_5="13000.00000" pt_clust_6="13000.00000" pt_clust_7="13000.00000" pt_clust_8="13000.00000" pt_clust_9="22.35815"></scales>
<clustering>
<clus scale="   22.358">  1  9  2 -1</clus>
<clus scale="   81.413">  5  6 -1 -1</clus>
<clus scale="   92.999">  7  8 -1 -1</clus>
<clus scale="   97.681">  1  5  2 -1</clus>
<clus scale="   22.358">  1  5  2 -1</clus>
</clustering>
</event>
<event>
 9    2  0.1592151E-004  0.1175880E+03  0.7546771E-02  0.1249904E+00
         21   -1    0    0  501  502  0.00000000000E+00  0.00000000000E+00  0.16601883653E+03  0.16601883653E+03  0.00000000000E+00 0. -1.
         -1   -1    0    0    0  501 -0.00000000000E+00 -0.00000000000E+00 -0.21323633419E+03  0.21323633419E+03  0.00000000000E+00 0.  1.
         23    2    1    2    0    0 -0.32573100946E+02 -0.89299879350E+02 -0.14251530141E+03  0.19351502540E+03  0.90010991331E+02 0.  0.
         24    2    1    2    0    0  0.73946552318E+00  0.21241454233E+02  0.48451965668E+02  0.97197149439E+02  0.81534941558E+02 0.  0.
        -13    1    4    4    0    0 -0.27368812336E+01  0.21094833056E+02 -0.19678422537E+02  0.28977971187E+02  0.00000000000E+00 0.  1.
         14    1    4    4    0    0  0.34763467568E+01  0.14662117699E+00  0.68130388205E+02  0.68219178253E+02  0.00000000000E+00 0. -1.
        -13    1    3    3    0    0 -0.60364277221E+02 -0.49918281496E+02 -0.62958787417E+02  0.10049621737E+03  0.00000000000E+00 0. -1.
         13    1    3    3    0    0  0.27791176275E+02 -0.39381597853E+02 -0.79556513996E+02  0.93018808030E+02  0.00000000000E+00 0.  1.
         -2    1    1    2    0  502  0.31833635423E+02  0.68058425116E+02  0.46845838086E+02  0.88542995881E+02  0.00000000000E+00 0.  1.
<scales pt_clust_5="13000.00000" pt_clust_6="13000.00000" pt_clust_7="13000.00000" pt_clust_8="13000.00000" pt_clust_9="75.13541"></scales>
<clustering>
<clus scale="   75.135">  1  9  2 -1</clus>
<clus scale="   81.535">  5  6 -1 -1</clus>
<clus scale="   90.011">  7  8 -1 -1</clus>
<clus scale="  111.234">  1  5  2 -1</clus>
<clus scale="   75.135">  1  5  2 -1</clus>
</clustering>
</event>
<event>
 9    2  0.1592151E-004  0.1725720E+03  0.7546771E-02  0.1186019E+00
         21   -1    0    0  501  502  0.00000000000E+00  0.00000000000E+00  0.25798831568E+03  0.25798831568E+03  0.00000000000E+00 0. -1.
          2   -1    0    0  502    0 -0.00000000000E+00 -0.00000000000E+00 -0.36880561128E+03  0.36880561128E+03  0.00000000000E+00 0. -1.
         23    2    1    2    0    0  0.96028082198E+02 -0.22218371202E+02 -0.70233638165E+01  0.13550862006E+03  0.92726532776E+02 0.  0.
         24    2    1    2    0    0 -0.31979746706E+02 -0.12634093580E+03 -0.23741355514E+03  0.28146095007E+03  0.76618104844E+02 0.  0.
        -13    1    4    4    0    0  0.59215561036E+01 -0.58094102038E+02 -0.44710439532E+02  0.73545991878E+02  0.00000000000E+00 0.  1.
         14    1    4    4    0    0 -0.37901302810E+02 -0.68246833765E+02 -0.19270311561E+03  0.20791495819E+03  0.00000000000E+00 0. -1.
        -13    1    3    3    0    0  0.21517655042E+02 -0.35449884886E+02 -0.35562831821E+02  0.54629834560E+02  0.00000000000E+00 0.  1.
         13    1    3    3    0    0  0.74510427156E+02  0.13231513684E+02  0.28539468004E+02  0.80878785496E+02  0.00000000000E+00 0. -1.
          1    1    1    2  501    0 -0.64048335492E+02  0.14855930700E+03  0.13361962336E+03  0.20982435684E+03  0.00000000000E+00 0. -1.
<scales pt_clust_5="13000.00000" pt_clust_6="13000.00000" pt_clust_7="13000.00000" pt_clust_8="13000.00000" pt_clust_9="154.63108"></scales>
<clustering>
<clus scale="   76.618">  5  6 -1 -1</clus>
<clus scale="   92.727">  7  8 -1 -1</clus>
<clus scale="  135.327">  2  7  1 -1</clus>
<clus scale="  154.631">  1  9  2 -1</clus>
<clus scale="  154.631">  1  5  2 -1</clus>
</clustering>
</event>
<event>
 9    2  0.1592151E-004  0.1407575E+03  0.7546771E-02  0.1240308E+00
         21   -1    0    0  501  502  0.00000000000E+00  0.00000000000E+00  0.18375340291E+03  0.18375340291E+03  0.00000000000E+00 0. -1.
          2   -1    0    0  502    0 -0.00000000000E+00 -0.00000000000E+00 -0.18907097341E+03  0.18907097341E+03  0.00000000000E+00 0. -1.
         24    2    1    2    0    0  0.22149542709E+02 -0.46457311196E+01 -0.41789327773E+02  0.89085288966E+02  0.75350220534E+02 0.  0.
         23    2    1    2    0    0 -0.12603933460E+03  0.41394371280E+02  0.76295949164E+02  0.16656606285E+03  0.65755407344E+02 0.  0.
        -11    1    3    3    0    0  0.45136974715E+02  0.15841552290E+02 -0.26926036602E+02  0.54893649109E+02  0.00000000000E+00 0.  1.
         12    1    3    3    0    0 -0.22987432005E+02 -0.20487283409E+02 -0.14863291170E+02  0.34191639857E+02  0.00000000000E+00 0. -1.
        -13    1    4    4    0    0 -0.11303763268E+03  0.22143941337E+02  0.83474055839E+02  0.14225251680E+03  0.00000000000E+00 0. -1.
         13    1    4    4    0    0 -0.13001701919E+02  0.19250429944E+02 -0.71781066743E+01  0.24313546044E+02  0.00000000000E+00 0.  1.
          1    1    1    2  501    0  0.10388979189E+03 -0.36748640161E+02 -0.39824191897E+02  0.11717302451E+03  0.00000000000E+00 0. -1.
<scales pt_clust_5="13000.00000" pt_clust_6="13000.00000" pt_clust_7="13000.00000" pt_clust_8="13000.00000" pt_clust_9="124.45452"></scales>
<clustering>
<clus scale="   65.755">  7  8 -1 -1</clus>
<clus scale="   75.350">  5  6 -1 -1</clus>
<clus scale="   78.676">  2  5  1 -1</clus>
<clus scale="  124.455">  1  9  2 -1</clus>
<clus scale="  124.455">  1  5  2 -1</clus>
</clustering>
</event>
<event>
 9    2  0.1592151E-004  0.1388142E+03  0.7546771E-02  0.1217313E+00
         21   -1    0    0  501  502  0.00000000000E+00  0.00000000000E+00  0.28209384162E+03  0.28209384162E+03  0.00000000000E+00 0. -1.
          2   -1    0    0  502    0 -0.00000000000E+00 -0.00000000000E+00 -0.23453177277E+03  0.23453177277E+03  0.00000000000E+00 0. -1.
         23    2    1    2    0    0 -0.12187074283E+03  0.32760507810E+02  0.14715022101E+02  0.15719353840E+03  0.92561049085E+02 0.  0.
         24    2    1    2    0    0  0.57946005740E+02  0.10617680200E+02  0.17247626754E+03  0.19985651864E+03  0.82000551590E+02 0.  0.
        -11    1    4    4    0    0  0.48805996875E+02  0.37102697505E+02  0.67413122602E+02  0.91121702091E+02  0.00000000000E+00 0.  1.
         12    1    4    4    0    0  0.91400088650E+01 -0.26485017305E+02  0.10506314494E+03  0.10873481654E+03  0.00000000000E+00 0. -1.
        -13    1    3    3    0    0 -0.73515132206E+02 -0.27835754807E+02  0.20112459452E+01  0.78634273820E+02  0.00000000000E+00 0.  1.
         13    1    3    3    0    0 -0.48355610627E+02  0.60596262618E+02  0.12703776155E+02  0.78559264578E+02  0.00000000000E+00 0. -1.
          1    1    1    2  501    0  0.63924737093E+02 -0.43378188010E+02 -0.13962922079E+03  0.15957555736E+03  0.00000000000E+00 0. -1.
<scales pt_clust_5="13000.00000" pt_clust_6="13000.00000" pt_clust_7="13000.00000" pt_clust_8="13000.00000" pt_clust_9="77.25312"></scales>
<clustering>
<clus scale="   77.253">  1  9  2 -1</clus>
<clus scale="   82.001">  5  6 -1 -1</clus>
<clus scale="   92.561">  7  8 -1 -1</clus>
<clus scale="  132.007">  1  5  2 -1</clus>
<clus scale="   77.253">  1  5  2 -1</clus>
</clustering>
</event>
<event>
 9    2  0.1592151E-004  0.1247966E+03  0.7546771E-02  0.1240005E+00
         21   -1    0    0  501  502  0.00000000000E+00  0.00000000000E+00  0.25301492068E+02  0.25301492068E+02  0.00000000000E+00 0. -1.
          2   -1    0    0  502    0 -0.00000000000E+00 -0.00000000000E+00 -0.90840218964E+03  0.90840218964E+03  0.00000000000E+00 0. -1.
         24    2    1    2    0    0 -0.85238380253E+02  0.12871740446E+02 -0.58992423052E+03  0.60024121548E+03  0.69625109255E+02 0.  0.
         23    2    1    2    0    0  0.10304457817E+03  0.24983603285E+01 -0.23787974366E+03  0.27337063400E+03  0.86719687475E+02 0.  0.
        -11    1    3    3    0    0 -0.47888539318E+02  0.24583982038E+02 -0.16591397483E+03  0.17442801213E+03  0.00000000000E+00 0.  1.
         12    1    3    3    0    0 -0.37349840935E+02 -0.11712241592E+02 -0.42401025569E+03  0.42581320335E+03  0.00000000000E+00 0. -1.
        -11    1    4    4    0    0 -0.17714389658E+01 -0.23675876407E+02 -0.24027649744E+02  0.33778885000E+02  0.00000000000E+00 0.  1.
         11    1    4    4    0    0  0.10481601714E+03  0.26174236735E+02 -0.21385209391E+03  0.23959174900E+03  0.00000000000E+00 0. -1.
          1    1    1    2  501    0 -0.17806197919E+02 -0.15370100774E+02 -0.55296723399E+02  0.60091832231E+02  0.00000000000E+00 0. -1.
<scales pt_clust_5="13000.00000" pt_clust_6="13000.00000" pt_clust_7="13000.00000" pt_clust_8="13000.00000" pt_clust_9="23.52234"></scales>
<clustering>
<clus scale="   23.522">  1  9  2 -1</clus>
<clus scale="   69.625">  5  6 -1 -1</clus>
<clus scale="   86.720">  7  8 -1 -1</clus>
<clus scale="  113.585">  2  5  1 -1</clus>
<clus scale="   23.522">  1  5  2 -1</clus>
</clustering>
</event>
<event>
 9    2  0.1592151E-004  0.2365552E+03  0.7546771E-02  0.1136470E+00
         21   -1    0    0  501  502  0.00000000000E+00  0.00000000000E+00  0.16874586846E+03  0.16874586846E+03  0.00000000000E+00 0.  1.
          2   -1    0    0  502    0 -0.00000000000E+00 -0.00000000000E+00 -0.62025083847E+03  0.62025083847E+03  0.00000000000E+00 0. -1.
         24    2    1    2    0    0  0.49027417221E+02  0.13650038867E+03 -0.14035126647E+03  0.21751264543E+03  0.81100118228E+02 0.  0.
         23    2    1    2    0    0  0.15371486915E+03 -0.19916789529E+03 -0.17471893780E+03  0.31920228180E+03  0.89818026963E+02 0.  0.
        -13    1    3    3    0    0  0.50610179596E+02  0.13866609586E+03 -0.14822792108E+03  0.20919176133E+03  0.00000000000E+00 0.  1.
         14    1    3    3    0    0 -0.15827623756E+01 -0.21657071920E+01  0.78766546107E+01  0.83208841018E+01  0.00000000000E+00 0. -1.
        -11    1    4    4    0    0  0.39093920486E+02 -0.12383067655E+03 -0.89775857445E+02  0.15786727227E+03  0.00000000000E+00 0. -1.
         11    1    4    4    0    0  0.11462094866E+03 -0.75337218744E+02 -0.84943080354E+02  0.16133500953E+03  0.00000000000E+00 0.  1.
          1    1    1    2  501    0 -0.20274228637E+03  0.62667506625E+02 -0.13643476574E+03  0.25228177970E+03  0.00000000000E+00 0. -1.
<scales pt_clust_5="13000.00000" pt_clust_6="13000.00000" pt_clust_7="13000.00000" pt_clust_8="13000.00000" pt_clust_9="218.84031"></scales>
<clustering>
<clus scale="   81.100">  5  6 -1 -1</clus>
<clus scale="   89.818">  7  8 -1 -1</clus>
<clus scale="  166.172">  2  5  1 -1</clus>
<clus scale="  218.840">  1  9  2 -1</clus>
<clus scale="  218.840">  1  5  2 -1</clus>
</clustering>
</event>
<event>
 9    2  0.1592151E-004  0.3155500E+03  0.7546771E-02  0.1122911E+00
         21   -1    0    0  501  502  0.00000000000E+00  0.00000000000E+00  0.73275368062E+02  0.73275368062E+02  0.00000000000E+00 0.  1.
         -1   -1    0    0    0  501 -0.00000000000E+00 -0.00000000000E+00 -0.27873674992E+04  0.27873674992E+04  0.00000000000E+00 0.  1.
         23    2    1    2    0    0  0.28013235110E+02 -0.18331863945E+02 -0.42348521434E+02  0.10647597671E+03  0.91776564393E+02 0.  0.
         24    2    1    2    0    0  0.19917921203E+03 -0.21736062935E+03 -0.84912021062E+03  0.90237764382E+03  0.79763890822E+02 0.  0.
        -11    1    4    4    0    0  0.17944776895E+03 -0.15634938925E+03 -0.71796870383E+03  0.75638990804E+03  0.00000000000E+00 0.  1.
         12    1    4    4    0    0  0.19731443085E+02 -0.61011240106E+02 -0.13115150679E+03  0.14598773579E+03  0.00000000000E+00 0. -1.
        -13    1    3    3    0    0 -0.10600487488E+02 -0.26975357299E+02 -0.57270273086E+02  0.64186637361E+02  0.00000000000E+00 0. -1.
         13    1    3    3    0    0  0.38613722598E+02  0.86434933539E+01  0.14921751652E+02  0.42289339349E+02  0.00000000000E+00 0.  1.
         -2    1    1    2    0  502 -0.22719244714E+03  0.23569249330E+03 -0.18226233991E+04  0.18517892468E+04  0.00000000000E+00 0.  1.
<scales pt_clust_5="13000.00000" pt_clust_6="13000.00000" pt_clust_7="13000.00000" pt_clust_8="13000.00000" pt_clust_9="305.30253"></scales>
<clustering>
<clus scale="   79.764">  5  6 -1 -1</clus>
<clus scale="   91.777">  7  8 -1 -1</clus>
<clus scale="   97.692">  2  7  1 -1</clus>
<clus scale="  305.303">  1  9  2 -1</clus>
<clus scale="  305.303">  1  5  2 -1</clus>
</clustering>
</event>
<event>
 9    2  0.1592151E-004  0.1387182E+03  0.7546771E-02  0.1216710E+00
          2   -1    0    0  502    0 -0.00000000000E+00  0.00000000000E+00  0.17230831037E+03  0.17230831037E+03  0.00000000000E+00 0. -1.
         21   -1    0    0  501  502  0.00000000000E+00 -0.00000000000E+00 -0.25873031032E+03  0.25873031032E+03  0.00000000000E+00 0. -1.
         24    2    1    2    0    0  0.92379266828E+02 -0.39547202562E+02  0.87134163519E+01  0.14081969039E+03  0.98266736009E+02 0.  0.
         23    2    1    2    0    0 -0.27922079659E+02  0.11648708901E+03  0.17529913320E+01  0.15071323638E+03  0.91446827196E+02 0.  0.
        -13    1    3    3    0    0 -0.10047121218E+01 -0.46244703931E+02  0.93623506394E+01  0.47193598057E+02  0.00000000000E+00 0.  1.
         14    1    3    3    0    0  0.93383978950E+02  0.66975013693E+01 -0.64893428746E+00  0.93626092329E+02  0.00000000000E+00 0. -1.
        -13    1    4    4    0    0 -0.47554848214E+02  0.89427351014E+02  0.31388295965E+02  0.10603744537E+03  0.00000000000E+00 0.  1.
         13    1    4    4    0    0  0.19632768555E+02  0.27059737992E+02 -0.29635304633E+02  0.44675791006E+02  0.00000000000E+00 0. -1.
          1    1    1    2  501    0 -0.64457187169E+02 -0.76939886445E+02 -0.96888407637E+02  0.13950569393E+03  0.00000000000E+00 0. -1.
<scales pt_clust_5="13000.00000" pt_clust_6="13000.00000" pt_clust_7="13000.00000" pt_clust_8="13000.00000" pt_clust_9="100.37168"></scales>
<clustering>
<clus scale="   91.447">  7  8 -1 -1</clus>
<clus scale="   98.267">  5  6 -1 -1</clus>
<clus scale="  100.372">  2  9  1 -1</clus>
<clus scale="  133.974">  2  7  1 -1</clus>
<clus scale="  100.372">  2  5  1 -1</clus>
</clustering>
</event>
<event>
 9    2  0.1592151E-004  0.1006257E+03  0.7546771E-02  0.1286899E+00
          2   -1    0    0  502    0 -0.00000000000E+00  0.00000000000E+00  0.17914235672E+03  0.17914235672E+03  0.00000000000E+00 0. -1.
         21   -1    0    0  501  502  0.00000000000E+00 -0.00000000000E+00 -0.76939088308E+02  0.76939088308E+02  0.00000000000E+00 0. -1.
         23    2    1    2    0    0 -0.38692176440E+02 -0.35983754042E+00  0.97130771450E+02  0.14058982425E+03  0.93988818057E+02 0.  0.
         24    2    1    2    0    0  0.28284747670E+02 -0.18103209794E+02 -0.14210237892E+02  0.86838129649E+02  0.78811019181E+02 0.  0.
        -11    1    4    4    0    0  0.36128718145E+02  0.18297334997E+02  0.10884669343E+02  0.41935101878E+02  0.00000000000E+00 0.  1.
         12    1    4    4    0    0 -0.78439704748E+01 -0.36400544791E+02 -0.25094907235E+02  0.44903027771E+02  0.00000000000E+00 0. -1.
        -13    1    3    3    0    0  0.11197640745E+02  0.30152157601E+02  0.66332196308E+01  0.32841123138E+02  0.00000000000E+00 0. -1.
         13    1    3    3    0    0 -0.49889817186E+02 -0.30511995142E+02  0.90497551820E+02  0.10774870111E+03  0.00000000000E+00 0.  1.
          1    1    1    2  501    0  0.10407428770E+02  0.18463047335E+02  0.19282734857E+02  0.28653491132E+02  0.00000000000E+00 0. -1.
<scales pt_clust_5="13000.00000" pt_clust_6="13000.00000" pt_clust_7="13000.00000" pt_clust_8="13000.00000" pt_clust_9="21.19432"></scales>
<clustering>
<clus scale="   21.194">  2  9  1 -1</clus>
<clus scale="   78.811">  5  6 -1 -1</clus>
<clus scale="   86.619">  2  5  1 -1</clus>
<clus scale="   93.989">  7  8 -1 -1</clus>
<clus scale="   21.194">  2  5  1 -1</clus>
</clustering>
</event>
<event>
 9    2  0.1592151E-004  0.1173674E+03  0.7546771E-02  0.1254300E+00
         21   -1    0    0  501  502  0.00000000000E+00  0.00000000000E+00  0.20732035137E+03  0.20732035137E+03  0.00000000000E+00 0.  1.
          2   -1    0    0  502    0 -0.00000000000E+00 -0.00000000000E+00 -0.61302579500E+03  0.61302579500E+03  0.00000000000E+00 0. -1.
         24    2    1    2    0    0  0.63614106151E+02  0.36335576884E+01  0.11665068733E+03  0.15527689217E+03  0.80271870181E+02 0.  0.
         23    2    1    2    0    0  0.60280189440E+02  0.35776835679E+02  0.12205146858E+02  0.11492496829E+03  0.90250205075E+02 0.  0.
        -11    1    3    3    0    0  0.37577975523E+02 -0.11350787383E+02  0.11884156926E+03  0.12515695427E+03  0.00000000000E+00 0.  1.
         12    1    3    3    0    0  0.26036130628E+02  0.14984345071E+02 -0.21908819223E+01  0.30119937897E+02  0.00000000000E+00 0. -1.
        -11    1    4    4    0    0  0.59717647889E+02 -0.16482233201E+02  0.47269223518E+01  0.62130550260E+02  0.00000000000E+00 0. -1.
         11    1    4    4    0    0  0.56254155128E+00  0.52259068880E+02  0.74782245064E+01  0.52794418029E+02  0.00000000000E+00 0.  1.
          1    1    1    2  501    0 -0.12389429559E+03 -0.39410393368E+02 -0.53456127781E+03  0.55014428591E+03  0.00000000000E+00 0. -1.
<scales pt_clust_5="13000.00000" pt_clust_6="13000.00000" pt_clust_7="13000.00000" pt_clust_8="13000.00000" pt_clust_9="75.03338"></scales>
<clustering>
<clus scale="   80.272">  5  6 -1 -1</clus>
<clus scale="   90.250">  7  8 -1 -1</clus>
<clus scale="  102.487">  2  5  1 -1</clus>
<clus scale="   75.033">  1  9  2 -1</clus>
<clus scale="   75.033">  1  5  2 -1</clus>
</clustering>
</event>
<event>
 9    2  0.1592151E-004  0.1693672E+03  0.7546771E-02  0.1199853E+00
          2   -1    0    0  502    0 -0.00000000000E+00  0.00000000000E+00  0.68177850426E+03  0.68177850426E+03  0.00000000000E+00 0. -1.
         21   -1    0    0  501  502  0.00000000000E+00 -0.00000000000E+00 -0.77264738384E+02  0.77264738384E+02  0.00000000000E+00 0. -1.
         23    2    1    2    0    0  0.50066238483E+02 -0.10237233048E+02  0.14777255091E+03  0.18163492053E+03  0.92428828713E+02 0.  0.
         24    2    1    2    0    0 -0.20582691303E+02  0.16393273753E+03  0.33660345480E+03  0.38011496422E+03  0.62353112386E+02 0.  0.
        -13    1    4    4    0    0 -0.25208399541E+02  0.30736780701E+02  0.11320354338E+03  0.11998022891E+03  0.00000000000E+00 0.  1.
         14    1    4    4    0    0  0.46257082383E+01  0.13319595683E+03  0.22339991142E+03  0.26013473531E+03  0.00000000000E+00 0. -1.
        -13    1    3    3    0    0  0.62864365333E+02  0.12694305360E+02  0.14040668173E+03  0.15436032551E+03  0.00000000000E+00 0.  1.
         13    1    3    3    0    0 -0.12798126850E+02 -0.22931538407E+02  0.73658691763E+01  0.27274595016E+02  0.00000000000E+00 0. -1.
          1    1    1    2  501    0 -0.29483547180E+02 -0.15369550448E+03  0.12013776016E+03  0.19729335789E+03  0.00000000000E+00 0. -1.
<scales pt_clust_5="13000.00000" pt_clust_6="13000.00000" pt_clust_7="13000.00000" pt_clust_8="13000.00000" pt_clust_9="157.47176"></scales>
<clustering>
<clus scale="   62.353">  5  6 -1 -1</clus>
<clus scale="   92.429">  7  8 -1 -1</clus>
<clus scale="  105.615">  1  7  2 -1</clus>
<clus scale="  157.472">  2  9  1 -1</clus>
<clus scale="  157.472">  2  5  1 -1</clus>
</clustering>
</event>
<event>
 9    2  0.1592151E-004  0.9883176E+02  0.7546771E-02  0.1292400E+00
          2   -1    0    0  502    0 -0.00000000000E+00  0.00000000000E+00  0.71422211815E+03  0.71422211815E+03  0.00000000000E+00 0. -1.
         21   -1    0    0  501  502  0.00000000000E+00 -0.00000000000E+00 -0.34464985013E+02  0.34464985013E+02  0.00000000000E+00 0.  1.
         24    2    1    2    0    0  0.45033282291E+02  0.81953974016E+00  0.41236083947E+03  0.42122561214E+03  0.73218073173E+02 0.  0.
         23    2    1    2    0    0 -0.25286028156E+02  0.89028159617E+01  0.28424878722E+03  0.29973993290E+03  0.91257936543E+02 0.  0.
        -13    1    3    3    0    0  0.19189514297E+02  0.28656438471E+02  0.85935704473E+02  0.92597916975E+02  0.00000000000E+00 0.  1.
         14    1    3    3    0    0  0.25843767994E+02 -0.27836898731E+02  0.32642513499E+03  0.32862769517E+03  0.00000000000E+00 0. -1.
        -11    1    4    4    0    0 -0.29793624786E+02  0.47216518335E+02  0.14979763627E+03  0.15986366540E+03  0.00000000000E+00 0.  1.
         11    1    4    4    0    0  0.45075966306E+01 -0.38313702373E+02  0.13445115095E+03  0.13987626750E+03  0.00000000000E+00 0. -1.
          1    1    1    2  501    0 -0.19747254135E+02 -0.97223557019E+01 -0.16852493550E+02  0.27721558130E+02  0.00000000000E+00 0. -1.
<scales pt_clust_5="13000.00000" pt_clust_6="13000.00000" pt_clust_7="13000.00000" pt_clust_8="13000.00000" pt_clust_9="22.01087"></scales>
<clustering>
<clus scale="   22.011">  2  9  1 -1</clus>
<clus scale="   73.218">  5  6 -1 -1</clus>
<clus scale="   82.466">  1  5  2 -1</clus>
<clus scale="   91.258">  7  8 -1 -1</clus>
<clus scale="   22.011">  2  5  1 -1</clus>
</clustering>
</event>
<event>
 9    2  0.1592151E-004  0.1439003E+03  0.7546771E-02  0.1218697E+00
         21   -1    0    0  501  502  0.00000000000E+00  0.00000000000E+00  0.25778833625E+03  0.25778833625E+03  0.00000000000E+00 0. -1.
          2   -1    0    0  502    0 -0.00000000000E+00 -0.00000000000E+00 -0.52245982863E+03  0.52245982863E+03  0.00000000000E+00 0. -1.
         23    2    1    2    0    0 -0.20396950523E+02 -0.65405764654E+02  0.18156772969E+03  0.21497277988E+03  0.92479759843E+02 0.  0.
         24    2    1    2    0    0 -0.96889008480E+02  0.69533268751E+02 -0.55070733072E+02  0.15688118909E+03  0.85770428597E+02 0.  0.
        -13    1    4    4    0    0  0.90055658371E+01  0.31808224433E+02 -0.36312401261E+01  0.33257318931E+02  0.00000000000E+00 0.  1.
         14    1    4    4    0    0 -0.10589457432E+03  0.37725044319E+02 -0.51439492946E+02  0.12362387016E+03  0.00000000000E+00 0. -1.
        -13    1    3    3    0    0 -0.24508383613E+02 -0.88339672601E+02  0.14076032161E+03  0.16798222157E+03  0.00000000000E+00 0. -1.
         13    1    3    3    0    0  0.41114330896E+01  0.22933907946E+02  0.40807408083E+02  0.46990558309E+02  0.00000000000E+00 0.  1.
          1    1    1    2  501    0  0.11728595900E+03 -0.41275040973E+01 -0.39116848900E+03  0.40839419591E+03  0.00000000000E+00 0. -1.
<scales pt_clust_5="13000.00000" pt_clust_6="13000.00000" pt_clust_7="13000.00000" pt_clust_8="13000.00000" pt_clust_9="115.54543"></scales>
<clustering>
<clus scale="   85.770">  5  6 -1 -1</clus>
<clus scale="   92.480">  7  8 -1 -1</clus>
<clus scale="  115.093">  2  7  1 -1</clus>
<clus scale="  115.545">  1  9  2 -1</clus>
<clus scale="  115.545">  1  5  2 -1</clus>
</clustering>
</event>
<event>
 9    2  0.1592151E-004  0.1802061E+03  0.7546771E-02  0.1168909E+00
         21   -1    0    0  501  502  0.00000000000E+00  0.00000000000E+00  0.16530202979E+03  0.16530202979E+03  0.00000000000E+00 0.  1.
          2   -1    0    0  502    0 -0.00000000000E+00 -0.00000000000E+00 -0.36829033447E+03  0.36829033447E+03  0.00000000000E+00 0. -1.
         23    2    1    2    0    0  0.15865546171E+03  0.32581796165E+02 -0.14049427534E+03  0.23279498242E+03  0.90673774945E+02 0.  0.
         24    2    1    2    0    0 -0.13227120067E+03 -0.49245744891E+02  0.61217669707E+02  0.17321054514E+03  0.79583138583E+02 0.  0.
        -13    1    4    4    0    0 -0.53947529989E+02 -0.21823847642E+02  0.68528041621E+02  0.89903886491E+02  0.00000000000E+00 0.  1.
         14    1    4    4    0    0 -0.78323670680E+02 -0.27421897248E+02 -0.73103719144E+01  0.83306658647E+02  0.00000000000E+00 0. -1.
        -13    1    3    3    0    0  0.22458537855E+02 -0.27941925028E+02 -0.19394529177E+02  0.40758862335E+02  0.00000000000E+00 0.  1.
         13    1    3    3    0    0  0.13619692386E+03  0.60523721194E+02 -0.12109974617E+03  0.19203612008E+03  0.00000000000E+00 0. -1.
          1    1    1    2  501    0 -0.26384261042E+02  0.16663948725E+02 -0.12371169905E+03  0.12758683670E+03  0.00000000000E+00 0. -1.
<scales pt_clust_5="13000.00000" pt_clust_6="13000.00000" pt_clust_7="13000.00000" pt_clust_8="13000.00000" pt_clust_9="31.20605"></scales>
<clustering>
<clus scale="   31.206">  1  9  2 -1</clus>
<clus scale="   79.583">  5  6 -1 -1</clus>
<clus scale="   90.674">  7  8 -1 -1</clus>
<clus scale="  174.889">  1  5  2 -1</clus>
<clus scale="   31.206">  1  5  2 -1</clus>
</clustering>
</event>
<event>
 9    2  0.1592151E-004  0.2368780E+03  0.7546771E-02  0.1122425E+00
          4   -1    0    0  502    0 -0.00000000000E+00  0.00000000000E+00  0.14663015376E+04  0.14663015376E+04  0.00000000000E+00 0. -1.
         21   -1    0    0  501  502  0.00000000000E+00 -0.00000000000E+00 -0.89958869678E+02  0.89958869678E+02  0.00000000000E+00 0.  1.
         24    2    1    2    0    0  0.15216082667E+03  0.92373804256E+02  0.21347342346E+03  0.28944059147E+03  0.80741046471E+02 0.  0.
         23    2    1    2    0    0 -0.24714955147E+03 -0.11670088770E+03  0.37347751953E+03  0.47136148237E+03  0.89410242628E+02 0.  0.
        -11    1    3    3    0    0  0.12758120043E+03  0.35402518927E+02  0.13123928082E+03  0.18642438113E+03  0.00000000000E+00 0.  1.
         12    1    3    3    0    0  0.24579626235E+02  0.56971285329E+02  0.82234142634E+02  0.10301621034E+03  0.00000000000E+00 0. -1.
        -11    1    4    4    0    0 -0.16276350547E+03 -0.28272063641E+02  0.20744191792E+03  0.26518562858E+03  0.00000000000E+00 0.  1.
         11    1    4    4    0    0 -0.84386046003E+02 -0.88428824062E+02  0.16603560161E+03  0.20617585379E+03  0.00000000000E+00 0. -1.
          3    1    1    2  501    0  0.94988724804E+02  0.24327083446E+02  0.78939172492E+03  0.79545833341E+03  0.00000000000E+00 0. -1.
<scales pt_clust_5="13000.00000" pt_clust_6="13000.00000" pt_clust_7="13000.00000" pt_clust_8="13000.00000" pt_clust_9="98.05445"></scales>
<clustering>
<clus scale="   80.741">  5  6 -1 -1</clus>
<clus scale="   89.410">  7  8 -1 -1</clus>
<clus scale="   98.054">  2  9  1 -1</clus>
<clus scale="  233.744">  1  5  2 -1</clus>
<clus scale="   98.054">  2  5  1 -1</clus>
</clustering>
</event>
<event>
 9    2  0.1592151E-004  0.1418471E+03  0.7546771E-02  0.1211888E+00
          2   -1    0    0  502    0 -0.00000000000E+00  0.00000000000E+00  0.94744472967E+03  0.94744472967E+03  0.00000000000E+00 0. -1.
         21   -1    0    0  501  502  0.00000000000E+00 -0.00000000000E+00 -0.10244557526E+03  0.10244557526E+03  0.00000000000E+00 0. -1.
         24    2    1    2    0    0 -0.19234533843E+02  0.11666461278E+03  0.83836905739E+03  0.85096193818E+03  0.85398739288E+02 0.  0.
         23    2    1    2    0    0  0.46968267083E+02 -0.44329629595E+02  0.35052112211E+02  0.11640975855E+03  0.90285365045E+02 0.  0.
        -13    1    3    3    0    0  0.30173581039E+02  0.67542642930E+02  0.35766458910E+03  0.36523473535E+03  0.00000000000E+00 0.  1.
         14    1    3    3    0    0 -0.49408114882E+02  0.49121969853E+02  0.48070446828E+03  0.48572720283E+03  0.00000000000E+00 0. -1.
        -11    1    4    4    0    0 -0.14476582799E+02 -0.45238530877E+02  0.42988421514E+01  0.47692516911E+02  0.00000000000E+00 0.  1.
         11    1    4    4    0    0  0.61444849881E+02  0.90890128226E+00  0.30753270060E+02  0.68717241634E+02  0.00000000000E+00 0. -1.
          1    1    1    2  501    0 -0.27733733240E+02 -0.72334983189E+02 -0.28422015189E+02  0.82518608203E+02  0.00000000000E+00 0. -1.
<scales pt_clust_5="13000.00000" pt_clust_6="13000.00000" pt_clust_7="13000.00000" pt_clust_8="13000.00000" pt_clust_9="77.46941"></scales>
<clustering>
<clus scale="   77.469">  2  9  1 -1</clus>
<clus scale="   85.399">  5  6 -1 -1</clus>
<clus scale="   90.285">  7  8 -1 -1</clus>
<clus scale="  138.788">  1  5  2 -1</clus>
<clus scale="   77.469">  2  5  1 -1</clus>
</clustering>
</event>
<event>
 9    2  0.1592151E-004  0.8541702E+02  0.7546771E-02  0.1317232E+00
         -1   -1    0    0    0  501 -0.00000000000E+00  0.00000000000E+00  0.30795539476E+03  0.30795539476E+03  0.00000000000E+00 0.  1.
         21   -1    0    0  501  502  0.00000000000E+00 -0.00000000000E+00 -0.47653015176E+02  0.47653015176E+02  0.00000000000E+00 0. -1.
         23    2    1    2    0    0  0.19359000383E+02 -0.15308578153E+01  0.11784112741E+03  0.14498096964E+03  0.82193891662E+02 0.  0.
         24    2    1    2    0    0 -0.14460392232E+02 -0.48687914775E+02  0.50341224542E+02  0.10559401241E+03  0.77693246685E+02 0.  0.
        -11    1    4    4    0    0 -0.22392475853E+02  0.45177464510E+01  0.46324377767E+02  0.51650566147E+02  0.00000000000E+00 0.  1.
         12    1    4    4    0    0  0.79320836214E+01 -0.53205661226E+02  0.40168467758E+01  0.53943446266E+02  0.00000000000E+00 0. -1.
        -13    1    3    3    0    0  0.41621358181E+02 -0.26930782455E+02  0.81291435311E+02  0.95215030092E+02  0.00000000000E+00 0.  1.
         13    1    3    3    0    0 -0.22262357797E+02  0.25399924640E+02  0.36549692098E+02  0.49765939546E+02  0.00000000000E+00 0. -1.
         -2    1    1    2    0  502 -0.48986081516E+01  0.50218772590E+02  0.92120027634E+02  0.10503342789E+03  0.00000000000E+00 0.  1.
<scales pt_clust_5="13000.00000" pt_clust_6="13000.00000" pt_clust_7="13000.00000" pt_clust_8="13000.00000" pt_clust_9="50.45715"></scales>
<clustering>
<clus scale="   50.457">  2  9  1 -1</clus>
<clus scale="   77.693">  5  6 -1 -1</clus>
<clus scale="   81.095">  2  5  1 -1</clus>
<clus scale="   82.194">  7  8 -1 -1</clus>
<clus scale="   50.457">  2  5  1 -1</clus>
</clustering>
</event>
<event>
 9    2  0.1592151E-004  0.1053698E+03  0.7546771E-02  0.1285080E+00
          4   -1    0    0  502    0 -0.00000000000E+00  0.00000000000E+00  0.47746991371E+03  0.47746991371E+03  0.00000000000E+00 0. -1.
         21   -1    0    0  501  502  0.00000000000E+00 -0.00000000000E+00 -0.69002984411E+02  0.69002984411E+02  0.00000000000E+00 0.  1.
         24    2    1    2    0    0 -0.22083994364E+02  0.96256517146E+01  0.35813633532E+03  0.36628849494E+03  0.72974453538E+02 0.  0.
         23    2    1    2    0    0  0.46970606597E+02 -0.32477474642E+02  0.74748480396E+02  0.13849768520E+03  0.10165259092E+03 0.  0.
        -13    1    3    3    0    0  0.22740898314E+02 -0.69214590360E+01  0.63510391848E+02  0.67813161879E+02  0.00000000000E+00 0.  1.
         14    1    3    3    0    0 -0.44824892678E+02  0.16547110751E+02  0.29462594347E+03  0.29847533306E+03  0.00000000000E+00 0. -1.
        -13    1    4    4    0    0  0.47467491301E+02  0.22793645602E+02  0.10408069030E+02  0.53675328701E+02  0.00000000000E+00 0.  1.
         13    1    4    4    0    0 -0.49688470381E+00 -0.55271120244E+02  0.64340411366E+02  0.84822356499E+02  0.00000000000E+00 0. -1.
          3    1    1    2  501    0 -0.24886612233E+02  0.22851822927E+02 -0.24417886414E+02  0.41686717986E+02  0.00000000000E+00 0. -1.
<scales pt_clust_5="13000.00000" pt_clust_6="13000.00000" pt_clust_7="13000.00000" pt_clust_8="13000.00000" pt_clust_9="33.78682"></scales>
<clustering>
<clus scale="   33.787">  2  9  1 -1</clus>
<clus scale="   72.974">  5  6 -1 -1</clus>
<clus scale="   78.069">  1  5  2 -1</clus>
<clus scale="  101.653">  7  8 -1 -1</clus>
<clus scale="   33.787">  2  5  1 -1</clus>
</clustering>
</event>
<event>
 9    2  0.1592151E-004  0.9974942E+02  0.7546771E-02  0.1285780E+00
         -1   -1    0    0    0  501 -0.00000000000E+00  0.00000000000E+00  0.22259021742E+03  0.22259021742E+03  0.00000000000E+00 0.  1.
         21   -1    0    0  501  502  0.00000000000E+00 -0.00000000000E+00 -0.11006831656E+03  0.11006831656E+03  0.00000000000E+00 0. -1.
         23    2    1    2    0    0 -0.20015998895E+02  0.28914158586E+02  0.15195313230E+03  0.18041089933E+03  0.90673421696E+02 0.  0.
         24    2    1    2    0    0  0.30878843538E+02 -0.65335233086E+02 -0.22643325695E+02  0.11069850901E+03  0.80741835740E+02 0.  0.
        -11    1    4    4    0    0  0.50783722330E+02 -0.20014120716E+02  0.35411091410E+01  0.54700008553E+02  0.00000000000E+00 0.  1.
         12    1    4    4    0    0 -0.19904878792E+02 -0.45321112370E+02 -0.26184434836E+02  0.55998500461E+02  0.00000000000E+00 0. -1.
        -11    1    3    3    0    0 -0.25059389580E+01  0.52125788540E+02  0.13920140944E+03  0.14866206628E+03  0.00000000000E+00 0.  1.
         11    1    3    3    0    0 -0.17510059937E+02 -0.23211629954E+02  0.12751722866E+02  0.31748833052E+02  0.00000000000E+00 0. -1.
         -2    1    1    2    0  502 -0.10862844643E+02  0.36421074499E+02 -0.16787905758E+02  0.41549125636E+02  0.00000000000E+00 0.  1.
<scales pt_clust_5="13000.00000" pt_clust_6="13000.00000" pt_clust_7="13000.00000" pt_clust_8="13000.00000" pt_clust_9="38.00653"></scales>
<clustering>
<clus scale="   38.007">  2  9  1 -1</clus>
<clus scale="   80.742">  5  6 -1 -1</clus>
<clus scale="   90.673">  7  8 -1 -1</clus>
<clus scale="   90.816">  2  5  1 -1</clus>
<clus scale="   38.007">  2  5  1 -1</clus>
</clustering>
</event>
<event>
 9    2  0.1592151E-004  0.1894500E+03  0.7546771E-02  0.1160163E+00
         21   -1    0    0  501  502  0.00000000000E+00  0.00000000000E+00  0.44052090628E+02  0.44052090628E+02  0.00000000000E+00 0. -1.
         -3   -1    0    0    0  501 -0.00000000000E+00 -0.00000000000E+00 -0.13997582208E+04  0.13997582208E+04  0.00000000000E+00 0.  1.
         23    2    1    2    0    0  0.19336951262E+03 -0.16253264702E+02 -0.88087984255E+03  0.90665701782E+03  0.91769896618E+02 0.  0.
         24    2    1    2    0    0 -0.13019022785E+03 -0.40779749610E+02 -0.36756856469E+03  0.40022774495E+03  0.80393498939E+02 0.  0.
        -11    1    4    4    0    0 -0.72065909454E+02 -0.10745488753E+01 -0.27290002526E+03  0.28225710575E+03  0.00000000000E+00 0.  1.
         12    1    4    4    0    0 -0.58124318396E+02 -0.39705200735E+02 -0.94668539432E+02  0.11797063920E+03  0.00000000000E+00 0. -1.
        -11    1    3    3    0    0  0.72044394223E+02 -0.51082548475E+02 -0.34809464802E+03  0.35912352399E+03  0.00000000000E+00 0.  1.
         11    1    3    3    0    0  0.12132511839E+03  0.34829283773E+02 -0.53278519453E+03  0.54753349384E+03  0.00000000000E+00 0. -1.
         -4    1    1    2    0  502 -0.63179284765E+02  0.57033014312E+02 -0.10725772288E+03  0.13692554861E+03  0.00000000000E+00 0.  1.
<scales pt_clust_5="13000.00000" pt_clust_6="13000.00000" pt_clust_7="13000.00000" pt_clust_8="13000.00000" pt_clust_9="85.11396"></scales>
<clustering>
<clus scale="   80.393">  5  6 -1 -1</clus>
<clus scale="   85.114">  1  9  2 -1</clus>
<clus scale="   91.770">  7  8 -1 -1</clus>
<clus scale="  184.208">  1  5  2 -1</clus>
<clus scale="   85.114">  1  5  2 -1</clus>
</clustering>
</event>
<event>
 9    2  0.1592151E-004  0.1022029E+03  0.7546771E-02  0.1281368E+00
          2   -1    0    0  502    0 -0.00000000000E+00  0.00000000000E+00  0.64670204576E+03  0.64670204576E+03  0.00000000000E+00 0. -1.
         21   -1    0    0  501  502  0.00000000000E+00 -0.00000000000E+00 -0.54340468722E+02  0.54340468722E+02  0.00000000000E+00 0.  1.
         24    2    1    2    0    0  0.23365862747E+02 -0.41401837099E+02  0.53870692922E+03  0.54665240682E+03  0.79772317447E+02 0.  0.
         23    2    1    2    0    0 -0.25399868892E+02  0.92111176099E+01  0.44748779811E+01  0.95576594223E+02  0.91568896482E+02 0.  0.
        -13    1    3    3    0    0 -0.23954270096E+02  0.72006007185E+01  0.14050736908E+03  0.14271641977E+03  0.00000000000E+00 0.  1.
         14    1    3    3    0    0  0.47320132843E+02 -0.48602437818E+02  0.39819956014E+03  0.40393598705E+03  0.00000000000E+00 0. -1.
        -11    1    4    4    0    0  0.19692224390E+02  0.24933198242E+02 -0.24142755179E+02  0.39903893339E+02  0.00000000000E+00 0.  1.
         11    1    4    4    0    0 -0.45092093282E+02 -0.15722080633E+02  0.28617633160E+02  0.55672700883E+02  0.00000000000E+00 0. -1.
          1    1    1    2  501    0  0.20340061449E+01  0.32190719489E+02  0.49179769827E+02  0.58813513434E+02  0.00000000000E+00 0. -1.
<scales pt_clust_5="13000.00000" pt_clust_6="13000.00000" pt_clust_7="13000.00000" pt_clust_8="13000.00000" pt_clust_9="32.25492"></scales>
<clustering>
<clus scale="   32.255">  2  9  1 -1</clus>
<clus scale="   79.772">  5  6 -1 -1</clus>
<clus scale="   91.569">  7  8 -1 -1</clus>
<clus scale="   91.783">  1  5  2 -1</clus>
<clus scale="   32.255">  2  5  1 -1</clus>
</clustering>
</event>
<event>
 9    2  0.1592151E-004  0.1013332E+03  0.7546771E-02  0.1282874E+00
          2   -1    0    0  502    0 -0.00000000000E+00  0.00000000000E+00  0.34447554539E+03  0.34447554539E+03  0.00000000000E+00 0. -1.
         21   -1    0    0  501  502  0.00000000000E+00 -0.00000000000E+00 -0.12722832093E+03  0.12722832093E+03  0.00000000000E+00 0. -1.
         24    2    1    2    0    0 -0.44189300614E+02  0.45929936820E+01  0.28719922297E+03  0.30107135238E+03  0.78656059332E+02 0.  0.
         23    2    1    2    0    0  0.76332593774E+02  0.10019233857E+02 -0.41948515028E+02  0.12556696638E+03  0.89890684796E+02 0.  0.
        -13    1    3    3    0    0  0.42868555390E+01  0.33205386448E+02  0.91309611794E+02  0.97254408772E+02  0.00000000000E+00 0.  1.
         14    1    3    3    0    0 -0.48476156153E+02 -0.28612392766E+02  0.19588961118E+03  0.20381694361E+03  0.00000000000E+00 0. -1.
        -13    1    4    4    0    0 -0.18047414911E+02  0.11144038915E+02 -0.18893468908E+02  0.28405315624E+02  0.00000000000E+00 0.  1.
         13    1    4    4    0    0  0.94380008685E+02 -0.11248050581E+01 -0.23055046120E+02  0.97161650755E+02  0.00000000000E+00 0. -1.
          1    1    1    2  501    0 -0.32143293160E+02 -0.14612227539E+02 -0.28003483488E+02  0.45065547553E+02  0.00000000000E+00 0. -1.
<scales pt_clust_5="13000.00000" pt_clust_6="13000.00000" pt_clust_7="13000.00000" pt_clust_8="13000.00000" pt_clust_9="35.30876"></scales>
<clustering>
<clus scale="   35.309">  2  9  1 -1</clus>
<clus scale="   78.656">  5  6 -1 -1</clus>
<clus scale="   89.891">  7  8 -1 -1</clus>
<clus scale="   91.514">  1  5  2 -1</clus>
<clus scale="   35.309">  2  5  1 -1</clus>
</clustering>
</event>
<event>
 9    2  0.1592151E-004  0.1300967E+03  0.7546771E-02  0.1230121E+00
         21   -1    0    0  501  502  0.00000000000E+00  0.00000000000E+00  0.23100267390E+03  0.23100267390E+03  0.00000000000E+00 0. -1.
          2   -1    0    0  502    0 -0.00000000000E+00 -0.00000000000E+00 -0.49730327637E+03  0.49730327637E+03  0.00000000000E+00 0. -1.
         23    2    1    2    0    0 -0.77147918229E+02 -0.55448666565E+02 -0.46074928841E+03  0.47923556951E+03  0.91380897367E+02 0.  0.
         24    2    1    2    0    0  0.36349278426E+02  0.26881826123E+02  0.17023014077E+03  0.19368869323E+03  0.80579814103E+02 0.  0.
        -11    1    4    4    0    0 -0.24785069451E+02  0.13356831804E+01  0.62055228618E+02  0.66835133845E+02  0.00000000000E+00 0.  1.
         12    1    4    4    0    0  0.61134347877E+02  0.25546142942E+02  0.10817491215E+03  0.12685355939E+03  0.00000000000E+00 0. -1.
        -13    1    3    3    0    0 -0.57321109070E+02  0.46083091600E+01 -0.12516111352E+03  0.13773979235E+03  0.00000000000E+00 0.  1.
         13    1    3    3    0    0 -0.19826809159E+02 -0.60056975725E+02 -0.33558817489E+03  0.34149577717E+03  0.00000000000E+00 0. -1.
          1    1    1    2  501    0  0.40798639803E+02  0.28566840442E+02  0.24218545177E+02  0.55381687525E+02  0.00000000000E+00 0. -1.
<scales pt_clust_5="13000.00000" pt_clust_6="13000.00000" pt_clust_7="13000.00000" pt_clust_8="13000.00000" pt_clust_9="49.80556"></scales>
<clustering>
<clus scale="   49.806">  1  9  2 -1</clus>
<clus scale="   80.580">  5  6 -1 -1</clus>
<clus scale="   91.381">  7  8 -1 -1</clus>
<clus scale="  122.751">  1  5  2 -1</clus>
<clus scale="   49.806">  1  5  2 -1</clus>
</clustering>
</event>
<event>
 9    2  0.1592151E-004  0.1320374E+03  0.7546771E-02  0.1224619E+00
         21   -1    0    0  501  502  0.00000000000E+00  0.00000000000E+00  0.72266541212E+03  0.72266541212E+03  0.00000000000E+00 0.  1.
         -3   -1    0    0    0  501 -0.00000000000E+00 -0.00000000000E+00 -0.50336073715E+02  0.50336073715E+02  0.00000000000E+00 0.  1.
         23    2    1    2    0    0  0.44317576648E+02  0.81737204562E+02  0.70412407094E+02  0.14709622269E+03  0.89634666551E+02 0.  0.
         24    2    1    2    0    0 -0.45072954178E+02 -0.10643466216E+03  0.48794195181E+03  0.50928266259E+03  0.89003222271E+02 0.  0.
        -11    1    4    4    0    0 -0.29645291230E+02 -0.11193031866E+03  0.31570902486E+03  0.33627284741E+03  0.00000000000E+00 0.  1.
         12    1    4    4    0    0 -0.15427662948E+02  0.54956564963E+01  0.17223292695E+03  0.17300981518E+03  0.00000000000E+00 0. -1.
        -13    1    3    3    0    0  0.29836108108E+02 -0.11854844742E+02  0.30635110837E+02  0.44376127669E+02  0.00000000000E+00 0. -1.
         13    1    3    3    0    0  0.14481468540E+02  0.93592049304E+02  0.39777296257E+02  0.10272009502E+03  0.00000000000E+00 0.  1.
         -4    1    1    2    0  502  0.75537753014E+00  0.24697457598E+02  0.11397497950E+03  0.11662260055E+03  0.00000000000E+00 0.  1.
<scales pt_clust_5="13000.00000" pt_clust_6="13000.00000" pt_clust_7="13000.00000" pt_clust_8="13000.00000" pt_clust_9="24.70901"></scales>
<clustering>
<clus scale="   24.709">  1  9  2 -1</clus>
<clus scale="   89.003">  5  6 -1 -1</clus>
<clus scale="   89.635">  7  8 -1 -1</clus>
<clus scale="  131.610">  1  5  2 -1</clus>
<clus scale="   24.709">  1  5  2 -1</clus>
</clustering>
</event>
<event>
 9    2  0.1592151E-004  0.1533881E+03  0.7546771E-02  0.1198683E+00
          2   -1    0    0  502    0 -0.00000000000E+00  0.00000000000E+00  0.33305414156E+03  0.33305414156E+03  0.00000000000E+00 0. -1.
         21   -1    0    0  501  502  0.00000000000E+00 -0.00000000000E+00 -0.17437518797E+03  0.17437518797E+03  0.00000000000E+00 0.  1.
         23    2    1    2    0    0 -0.12508222868E+03 -0.48185102293E+02  0.21403835015E+03  0.26958920213E+03  0.94332150166E+02 0.  0.
         24    2    1    2    0    0  0.88755442692E+02  0.44249254049E+02  0.41028856490E+02  0.13475850145E+03  0.81492095065E+02 0.  0.
        -13    1    4    4    0    0  0.92978222997E+02  0.55555958024E+02  0.19465165718E+02  0.11004684048E+03  0.00000000000E+00 0.  1.
         14    1    4    4    0    0 -0.42227803054E+01 -0.11306703975E+02  0.21563690772E+02  0.24711660972E+02  0.00000000000E+00 0. -1.
        -13    1    3    3    0    0 -0.27469537549E+02 -0.52335397410E+02  0.12105382614E+03  0.13471302141E+03  0.00000000000E+00 0. -1.
         13    1    3    3    0    0 -0.97612691127E+02  0.41502951167E+01  0.92984524012E+02  0.13487618072E+03  0.00000000000E+00 0.  1.
          1    1    1    2  501    0  0.36326785984E+02  0.39358482442E+01 -0.96388253050E+02  0.10308162594E+03  0.00000000000E+00 0. -1.
<scales pt_clust_5="13000.00000" pt_clust_6="13000.00000" pt_clust_7="13000.00000" pt_clust_8="13000.00000" pt_clust_9="36.53938"></scales>
<clustering>
<clus scale="   36.539">  2  9  1 -1</clus>
<clus scale="   81.492">  5  6 -1 -1</clus>
<clus scale="   94.332">  7  8 -1 -1</clus>
<clus scale="  145.844">  2  5  1 -1</clus>
<clus scale="   36.539">  2  5  1 -1</clus>
</clustering>
</event>
<event>
 9    2  0.1592151E-004  0.1338567E+03  0.7546771E-02  0.1223312E+00
         21   -1    0    0  501  502  0.00000000000E+00  0.00000000000E+00  0.14198375896E+03  0.14198375896E+03  0.00000000000E+00 0. -1.
          2   -1    0    0  502    0 -0.00000000000E+00 -0.00000000000E+00 -0.27716437171E+03  0.27716437171E+03  0.00000000000E+00 0. -1.
         23    2    1    2    0    0  0.13851740598E+02  0.12526726297E+03 -0.11501678971E+03  0.19255206764E+03  0.89239447275E+02 0.  0.
         24    2    1    2    0    0 -0.23407938183E+02 -0.39901305592E+02  0.57245672518E+02  0.11096346558E+03  0.83040820761E+02 0.  0.
        -11    1    4    4    0    0 -0.24984352848E+02  0.15200813379E+02  0.46299588403E+02  0.54762528255E+02  0.00000000000E+00 0.  1.
         12    1    4    4    0    0  0.15764146648E+01 -0.55102118971E+02  0.10946084115E+02  0.56200937321E+02  0.00000000000E+00 0. -1.
        -11    1    3    3    0    0 -0.30824188003E+02  0.46536880443E+02 -0.15306520073E+02  0.57880060160E+02  0.00000000000E+00 0.  1.
         11    1    3    3    0    0  0.44675928602E+02  0.78730382527E+02 -0.99710269634E+02  0.13467200748E+03  0.00000000000E+00 0. -1.
          1    1    1    2  501    0  0.95561975850E+01 -0.85365957379E+02 -0.77409495556E+02  0.11563259745E+03  0.00000000000E+00 0. -1.
<scales pt_clust_5="13000.00000" pt_clust_6="13000.00000" pt_clust_7="13000.00000" pt_clust_8="13000.00000" pt_clust_9="85.89921"></scales>
<clustering>
<clus scale="   83.041">  5  6 -1 -1</clus>
<clus scale="   85.899">  1  9  2 -1</clus>
<clus scale="   89.239">  7  8 -1 -1</clus>
<clus scale="  129.806">  1  5  2 -1</clus>
<clus scale="   85.899">  1  5  2 -1</clus>
</clustering>
</event>
<event>
 9    2  0.1592151E-004  0.2038177E+03  0.7546771E-02  0.1177304E+00
         21   -1    0    0  501  502  0.00000000000E+00  0.00000000000E+00  0.11656470454E+03  0.11656470454E+03  0.00000000000E+00 0. -1.
          2   -1    0    0  502    0 -0.00000000000E+00 -0.00000000000E+00 -0.92750214582E+03  0.92750214582E+03  0.00000000000E+00 0. -1.
         24    2    1    2    0    0  0.13159296138E+02 -0.55385932574E+02 -0.58535941173E+03  0.59381669858E+03  0.82047925041E+02 0.  0.
         23    2    1    2    0    0  0.17226708703E+03  0.55995477845E+02 -0.13029010412E+03  0.24177208614E+03  0.93095583111E+02 0.  0.
        -13    1    3    3    0    0  0.20717864635E+02 -0.25053116080E+02 -0.66547682236E+02  0.74064043579E+02  0.00000000000E+00 0.  1.
         14    1    3    3    0    0 -0.75585684969E+01 -0.30332816494E+02 -0.51881172950E+03  0.51975265500E+03  0.00000000000E+00 0. -1.
        -11    1    4    4    0    0  0.17371887651E+03  0.29801984343E+02 -0.10409950615E+03  0.20470250001E+03  0.00000000000E+00 0. -1.
         11    1    4    4    0    0 -0.14517894852E+01  0.26193493502E+02 -0.26190597967E+02  0.37069586138E+02  0.00000000000E+00 0.  1.
          1    1    1    2  501    0 -0.18542638316E+03 -0.60954527146E+00 -0.95287925428E+02  0.20847806564E+03  0.00000000000E+00 0. -1.
<scales pt_clust_5="13000.00000" pt_clust_6="13000.00000" pt_clust_7="13000.00000" pt_clust_8="13000.00000" pt_clust_9="181.31432"></scales>
<clustering>
<clus scale="   82.048">  5  6 -1 -1</clus>
<clus scale="   93.096">  7  8 -1 -1</clus>
<clus scale="   99.863">  2  5  1 -1</clus>
<clus scale="  181.314">  1  9  2 -1</clus>
<clus scale="  181.314">  1  5  2 -1</clus>
</clustering>
</event>
<event>
 9    2  0.1592151E-004  0.1422604E+03  0.7546771E-02  0.1214284E+00
          2   -1    0    0  502    0 -0.00000000000E+00  0.00000000000E+00  0.24395730761E+03  0.24395730761E+03  0.00000000000E+00 0. -1.
         21   -1    0    0  501  502  0.00000000000E+00 -0.00000000000E+00 -0.11668218524E+03  0.11668218524E+03  0.00000000000E+00 0. -1.
         23    2    1    2    0    0 -0.11219438398E+03  0.20088290179E+02  0.90183994014E+02  0.17037373137E+03  0.88898460981E+02 0.  0.
         24    2    1    2    0    0  0.61699836517E+02 -0.32248773257E+02 -0.65686907802E+00  0.12605915759E+03  0.10508866034E+03 0.  0.
        -13    1    4    4    0    0 -0.21555080978E+02  0.77163389402E+01 -0.21476416416E+02  0.31391079381E+02  0.00000000000E+00 0.  1.
         14    1    4    4    0    0  0.83254917496E+02 -0.39965112197E+02  0.20819547338E+02  0.94668078208E+02  0.00000000000E+00 0. -1.
        -11    1    3    3    0    0 -0.53806581122E+02  0.41175986250E+02  0.92644205585E+01  0.68384497542E+02  0.00000000000E+00 0. -1.
         11    1    3    3    0    0 -0.58387802860E+02 -0.21087696072E+02  0.80919573456E+02  0.10198923383E+03  0.00000000000E+00 0.  1.
          1    1    1    2  501    0  0.50494547465E+02  0.12160483079E+02  0.37747997434E+02  0.64206603887E+02  0.00000000000E+00 0. -1.
<scales pt_clust_5="13000.00000" pt_clust_6="13000.00000" pt_clust_7="13000.00000" pt_clust_8="13000.00000" pt_clust_9="51.93823"></scales>
<clustering>
<clus scale="   51.938">  2  9  1 -1</clus>
<clus scale="   88.898">  7  8 -1 -1</clus>
<clus scale="  105.089">  5  6 -1 -1</clus>
<clus scale="  130.757">  1  7  2 -1</clus>
<clus scale="   51.938">  2  5  1 -1</clus>
</clustering>
</event>
<event>
 9    2  0.1592151E-004  0.1244709E+03  0.7546771E-02  0.1238212E+00
         21   -1    0    0  501  502  0.00000000000E+00  0.00000000000E+00  0.17437068285E+03  0.17437068285E+03  0.00000000000E+00 0. -1.
         -3   -1    0    0    0  501 -0.00000000000E+00 -0.00000000000E+00 -0.27411946547E+03  0.27411946547E+03  0.00000000000E+00 0.  1.
         23    2    1    2    0    0 -0.86117168600E+02  0.47720093859E+02 -0.14694199016E+03  0.19755522892E+03  0.87992874219E+02 0.  0.
         24    2    1    2    0    0 -0.93104077311E+00 -0.70743734198E+02  0.10035786085E+03  0.14636934604E+03  0.79666445018E+02 0.  0.
        -11    1    4    4    0    0  0.10649033438E+02 -0.27402009776E+02 -0.68216924489E+01  0.30179588148E+02  0.00000000000E+00 0.  1.
         12    1    4    4    0    0 -0.11580074212E+02 -0.43341724423E+02  0.10717955330E+03  0.11618975790E+03  0.00000000000E+00 0. -1.
        -11    1    3    3    0    0 -0.58114342483E+02  0.42340139425E+02 -0.15241127304E+03  0.16852050427E+03  0.00000000000E+00 0.  1.
         11    1    3    3    0    0 -0.28002826117E+02  0.53799544340E+01  0.54692828768E+01  0.29034724649E+02  0.00000000000E+00 0. -1.
         -4    1    1    2    0  502  0.87048209373E+02  0.23023640339E+02 -0.53164653310E+02  0.10456557336E+03  0.00000000000E+00 0.  1.
<scales pt_clust_5="13000.00000" pt_clust_6="13000.00000" pt_clust_7="13000.00000" pt_clust_8="13000.00000" pt_clust_9="90.04158"></scales>
<clustering>
<clus scale="   79.666">  5  6 -1 -1</clus>
<clus scale="   87.993">  7  8 -1 -1</clus>
<clus scale="   90.042">  1  9  2 -1</clus>
<clus scale="  118.731">  1  5  2 -1</clus>
<clus scale="   90.042">  1  5  2 -1</clus>
</clustering>
</event>
<event>
 9    2  0.1592151E-004  0.9723338E+02  0.7546771E-02  0.1291899E+00
          2   -1    0    0  502    0 -0.00000000000E+00  0.00000000000E+00  0.24680781017E+03  0.24680781017E+03  0.00000000000E+00 0. -1.
         21   -1    0    0  501  502  0.00000000000E+00 -0.00000000000E+00 -0.76757652108E+02  0.76757652108E+02  0.00000000000E+00 0. -1.
         24    2    1    2    0    0  0.77639223876E+01 -0.42291024095E+02  0.16330731127E+03  0.18710917723E+03  0.80571440836E+02 0.  0.
         23    2    1    2    0    0 -0.44411991926E+01  0.71753797376E+01  0.27458374779E+02  0.95550514452E+02  0.91130281147E+02 0.  0.
        -13    1    3    3    0    0 -0.22414438113E+02 -0.98872225145E+01  0.82452395703E+01  0.25848562447E+02  0.00000000000E+00 0.  1.
         14    1    3    3    0    0  0.30178360501E+02 -0.32403801580E+02  0.15506207170E+03  0.16126061478E+03  0.00000000000E+00 0. -1.
        -13    1    4    4    0    0 -0.49066313500E+01  0.32086042565E+02  0.51533642537E+02  0.60904067777E+02  0.00000000000E+00 0.  1.
         13    1    4    4    0    0  0.46543215735E+00 -0.24910662828E+02 -0.24075267758E+02  0.34646446675E+02  0.00000000000E+00 0. -1.
          1    1    1    2  501    0 -0.33227231949E+01  0.35115644357E+02 -0.20715527991E+02  0.40905770595E+02  0.00000000000E+00 0. -1.
<scales pt_clust_5="13000.00000" pt_clust_6="13000.00000" pt_clust_7="13000.00000" pt_clust_8="13000.00000" pt_clust_9="35.27250"></scales>
<clustering>
<clus scale="   35.272">  2  9  1 -1</clus>
<clus scale="   80.571">  5  6 -1 -1</clus>
<clus scale="   87.415">  1  5  2 -1</clus>
<clus scale="   91.130">  7  8 -1 -1</clus>
<clus scale="   35.272">  2  5  1 -1</clus>
</clustering>
</event>
<event>
 9    2  0.1592151E-004  0.2752582E+03  0.7546771E-02  0.1110607E+00
          2   -1    0    0  502    0 -0.00000000000E+00  0.00000000000E+00  0.12357442173E+04  0.12357442173E+04  0.00000000000E+00 0. -1.
         21   -1    0    0  501  502  0.00000000000E+00 -0.00000000000E+00 -0.24493091770E+03  0.24493091770E+03  0.00000000000E+00 0.  1.
         24    2    1    2    0    0 -0.15844354179E+03  0.98088002629E+02 -0.71285789873E+02  0.21286555933E+03  0.74192117615E+02 0.  0.
         23    2    1    2    0    0  0.17806494816E+02 -0.28057879411E+03  0.15769962111E+03  0.33452501760E+03  0.89421954442E+02 0.  0.
        -13    1    3    3    0    0 -0.16494270662E+03  0.84565933130E+02 -0.68476625547E+02  0.19760197813E+03  0.00000000000E+00 0.  1.
         14    1    3    3    0    0  0.64991648273E+01  0.13522069499E+02 -0.28091643259E+01  0.15263581205E+02  0.00000000000E+00 0. -1.
        -13    1    4    4    0    0  0.44712882417E+02 -0.94485812660E+02  0.36036905513E+02  0.11056884374E+03  0.00000000000E+00 0.  1.
         13    1    4    4    0    0 -0.26906387602E+02 -0.18609298145E+03  0.12166271560E+03  0.22395617385E+03  0.00000000000E+00 0. -1.
          1    1    1    2  501    0  0.14063704698E+03  0.18249079148E+03  0.90439946840E+03  0.93328455810E+03  0.00000000000E+00 0. -1.
<scales pt_clust_5="13000.00000" pt_clust_6="13000.00000" pt_clust_7="13000.00000" pt_clust_8="13000.00000" pt_clust_9="260.32836"></scales>
<clustering>
<clus scale="   74.192">  5  6 -1 -1</clus>
<clus scale="   89.422">  7  8 -1 -1</clus>
<clus scale="  200.574">  1  5  2 -1</clus>
<clus scale="  260.328">  2  9  1 -1</clus>
<clus scale="  260.328">  2  5  1 -1</clus>
</clustering>
</event>
<event>
 9    2  0.1592151E-004  0.1276951E+03  0.7546771E-02  0.1234110E+00
          2   -1    0    0  502    0 -0.00000000000E+00  0.00000000000E+00  0.19574855260E+03  0.19574855260E+03  0.00000000000E+00 0. -1.
         21   -1    0    0  501  502  0.00000000000E+00 -0.00000000000E+00 -0.27612080817E+03  0.27612080817E+03  0.00000000000E+00 0. -1.
         23    2    1    2    0    0 -0.68904678641E+02  0.63333427326E+02  0.14359620537E+03  0.19479292226E+03  0.92549633236E+02 0.  0.
         24    2    1    2    0    0  0.20687733252E+02 -0.64545619409E+02 -0.10599679626E+03  0.14962583278E+03  0.80984256043E+02 0.  0.
        -11    1    4    4    0    0  0.45910157541E+02 -0.61048922150E+02 -0.94970346787E+02  0.12187731631E+03  0.00000000000E+00 0.  1.
         12    1    4    4    0    0 -0.25222424289E+02 -0.34966972590E+01 -0.11026449472E+02  0.27748516477E+02  0.00000000000E+00 0. -1.
        -13    1    3    3    0    0 -0.81550351737E+02  0.18378059767E+02  0.78480878834E+02  0.11466237958E+03  0.00000000000E+00 0.  1.
         13    1    3    3    0    0  0.12645673096E+02  0.44955367559E+02  0.65115326537E+02  0.80130542681E+02  0.00000000000E+00 0. -1.
          1    1    1    2  501    0  0.48216945389E+02  0.12121920830E+01 -0.11797166468E+03  0.12745060572E+03  0.00000000000E+00 0. -1.
<scales pt_clust_5="13000.00000" pt_clust_6="13000.00000" pt_clust_7="13000.00000" pt_clust_8="13000.00000" pt_clust_9="48.23218"></scales>
<clustering>
<clus scale="   48.232">  2  9  1 -1</clus>
<clus scale="   80.984">  5  6 -1 -1</clus>
<clus scale="   92.550">  7  8 -1 -1</clus>
<clus scale="  119.579">  2  5  1 -1</clus>
<clus scale="   48.232">  2  5  1 -1</clus>
</clustering>
</event>
<event>
 9    2  0.1592151E-004  0.1259926E+03  0.7546771E-02  0.1236522E+00
          2   -1    0    0  502    0 -0.00000000000E+00  0.00000000000E+00  0.94828458268E+03  0.94828458268E+03  0.00000000000E+00 0. -1.
         21   -1    0    0  501  502  0.00000000000E+00 -0.00000000000E+00 -0.27074911167E+02  0.27074911167E+02  0.00000000000E+00 0. -1.
         24    2    1    2    0    0 -0.63045895707E+02  0.72426336626E+02  0.65103866599E+03  0.66284578407E+03  0.79327357502E+02 0.  0.
         23    2    1    2    0    0  0.21731112437E+02 -0.68790895665E+02  0.20454392522E+03  0.23487968749E+03  0.90143339601E+02 0.  0.
        -11    1    3    3    0    0 -0.61258241512E+01  0.23747933638E+02  0.37857244500E+02  0.45107217102E+02  0.00000000000E+00 0.  1.
         12    1    3    3    0    0 -0.56920071556E+02  0.48678402987E+02  0.61318142149E+03  0.61773856697E+03  0.00000000000E+00 0. -1.
        -13    1    4    4    0    0  0.22495343050E+02 -0.47043984629E+02  0.20654658690E+03  0.21302739146E+03  0.00000000000E+00 0.  1.
         13    1    4    4    0    0 -0.76423061279E+00 -0.21746911037E+02 -0.20026616807E+01  0.21852296032E+02  0.00000000000E+00 0. -1.
          1    1    1    2  501    0  0.41314783270E+02 -0.36354409604E+01  0.65627080307E+02  0.77634022292E+02  0.00000000000E+00 0. -1.
<scales pt_clust_5="13000.00000" pt_clust_6="13000.00000" pt_clust_7="13000.00000" pt_clust_8="13000.00000" pt_clust_9="41.47442"></scales>
<clustering>
<clus scale="   41.474">  2  9  1 -1</clus>
<clus scale="   79.327">  5  6 -1 -1</clus>
<clus scale="   90.143">  7  8 -1 -1</clus>
<clus scale="  118.495">  1  5  2 -1</clus>
<clus scale="   41.474">  2  5  1 -1</clus>
</clustering>
</event>
<event>
 9    2  0.1592151E-004  0.1057711E+03  0.7546771E-02  0.1275516E+00
          4   -1    0    0  502    0 -0.00000000000E+00  0.00000000000E+00  0.49363687318E+02  0.49363687318E+02  0.00000000000E+00 0. -1.
         21   -1    0    0  501  502  0.00000000000E+00 -0.00000000000E+00 -0.38024961492E+03  0.38024961492E+03  0.00000000000E+00 0. -1.
         24    2    1    2    0    0  0.51078118426E+02  0.13221599313E+02 -0.85256972062E+02  0.12797365741E+03  0.79528113491E+02 0.  0.
         23    2    1    2    0    0 -0.40537038067E+02  0.38409915604E+02 -0.10695825936E+03  0.15329379997E+03  0.94553407087E+02 0.  0.
        -11    1    3    3    0    0 -0.17375113689E+02 -0.13429988604E+02 -0.18539753470E+02  0.28739896108E+02  0.00000000000E+00 0.  1.
         12    1    3    3    0    0  0.68453232114E+02  0.26651587917E+02 -0.66717218592E+02  0.99233761301E+02  0.00000000000E+00 0. -1.
        -11    1    4    4    0    0  0.22623656240E+02 -0.14449706763E+02 -0.33536439779E+02  0.42957148884E+02  0.00000000000E+00 0.  1.
         11    1    4    4    0    0 -0.63160694308E+02  0.52859622367E+02 -0.73421819578E+02  0.11033665108E+03  0.00000000000E+00 0. -1.
          3    1    1    2  501    0 -0.10541080358E+02 -0.51631514917E+02 -0.13867069618E+03  0.14834584486E+03  0.00000000000E+00 0. -1.
<scales pt_clust_5="13000.00000" pt_clust_6="13000.00000" pt_clust_7="13000.00000" pt_clust_8="13000.00000" pt_clust_9="52.69656"></scales>
<clustering>
<clus scale="   52.697">  2  9  1 -1</clus>
<clus scale="   79.528">  5  6 -1 -1</clus>
<clus scale="   92.585">  1  5  2 -1</clus>
<clus scale="   94.553">  7  8 -1 -1</clus>
<clus scale="   52.697">  2  5  1 -1</clus>
</clustering>
</event>
<event>
 9    2  0.1592151E-004  0.9631947E+02  0.7546771E-02  0.1294654E+00
         -1   -1    0    0    0  501 -0.00000000000E+00  0.00000000000E+00  0.19652351114E+03  0.19652351114E+03  0.00000000000E+00 0.  1.
         21   -1    0    0  501  502  0.00000000000E+00 -0.00000000000E+00 -0.11603599864E+03  0.11603599864E+03  0.00000000000E+00 0.  1.
         23    2    1    2    0    0  0.28716131106E+02  0.14872255891E+02  0.12982433411E+03  0.16149745635E+03  0.90450375901E+02 0.  0.
         24    2    1    2    0    0 -0.42568723251E+02  0.14849639892E+02  0.12806724551E+01  0.90751058559E+02  0.78749644466E+02 0.  0.
        -11    1    4    4    0    0 -0.93010414584E+01  0.24884558929E+02  0.33914936019E+02  0.43081011251E+02  0.00000000000E+00 0.  1.
         12    1    4    4    0    0 -0.33267681792E+02 -0.10034919037E+02 -0.32634263564E+02  0.47670047307E+02  0.00000000000E+00 0. -1.
        -11    1    3    3    0    0  0.55487818710E+02  0.95054195505E+01  0.44049199598E+02  0.71481347296E+02  0.00000000000E+00 0.  1.
         11    1    3    3    0    0 -0.26771687604E+02  0.53668363404E+01  0.85775134510E+02  0.90016109056E+02  0.00000000000E+00 0. -1.
         -2    1    1    2    0  502  0.13852592145E+02 -0.29721895782E+02 -0.50617494056E+02  0.60310994872E+02  0.00000000000E+00 0.  1.
<scales pt_clust_5="13000.00000" pt_clust_6="13000.00000" pt_clust_7="13000.00000" pt_clust_8="13000.00000" pt_clust_9="32.79154"></scales>
<clustering>
<clus scale="   32.792">  2  9  1 -1</clus>
<clus scale="   78.750">  5  6 -1 -1</clus>
<clus scale="   85.426">  2  5  1 -1</clus>
<clus scale="   90.450">  7  8 -1 -1</clus>
<clus scale="   32.792">  2  5  1 -1</clus>
</clustering>
</event>
<event>
 9    2  0.1592151E-004  0.1284375E+03  0.7546771E-02  0.1243965E+00
          2   -1    0    0  502    0 -0.00000000000E+00  0.00000000000E+00  0.20686966145E+03  0.20686966145E+03  0.00000000000E+00 0. -1.
         21   -1    0    0  501  502  0.00000000000E+00 -0.00000000000E+00 -0.49633453752E+03  0.49633453752E+03  0.00000000000E+00 0. -1.
         24    2    1    2    0    0 -0.15970662041E+02  0.26801875641E+02  0.13465279778E+03  0.16546949508E+03  0.90969089614E+02 0.  0.
         23    2    1    2    0    0 -0.36888832682E+02  0.55806215491E+02 -0.73582798185E+01  0.10959148554E+03  0.86492946278E+02 0.  0.
        -11    1    3    3    0    0 -0.23438215215E+02 -0.24517971264E+02  0.92874139606E+02  0.98874094964E+02  0.00000000000E+00 0.  1.
         12    1    3    3    0    0  0.74675531740E+01  0.51319846905E+02  0.41778658179E+02  0.66595400111E+02  0.00000000000E+00 0. -1.
        -11    1    4    4    0    0 -0.20974542738E+01  0.30677957580E+02  0.36838874651E+02  0.47985821669E+02  0.00000000000E+00 0.  1.
         11    1    4    4    0    0 -0.34791378408E+02  0.25128257911E+02 -0.44197154469E+02  0.61605663866E+02  0.00000000000E+00 0. -1.
          1    1    1    2  501    0  0.52859494722E+02 -0.82608091132E+02 -0.41675939404E+03  0.42814321836E+03  0.00000000000E+00 0. -1.
<scales pt_clust_5="13000.00000" pt_clust_6="13000.00000" pt_clust_7="13000.00000" pt_clust_8="13000.00000" pt_clust_9="94.94816"></scales>
<clustering>
<clus scale="   86.493">  7  8 -1 -1</clus>
<clus scale="   90.969">  5  6 -1 -1</clus>
<clus scale="   96.171">  1  5  2 -1</clus>
<clus scale="   94.948">  2  9  1 -1</clus>
<clus scale="   94.948">  2  5  1 -1</clus>
</clustering>
</event>
<event>
 9    2  0.1592151E-004  0.2339138E+03  0.7546771E-02  0.1167365E+00
          2   -1    0    0  502    0 -0.00000000000E+00  0.00000000000E+00  0.45601704146E+03  0.45601704146E+03  0.00000000000E+00 0. -1.
         21   -1    0    0  501  502  0.00000000000E+00 -0.00000000000E+00 -0.22803123323E+03  0.22803123323E+03  0.00000000000E+00 0.  1.
         24    2    1    2    0    0 -0.11959050664E+02  0.21812597453E+02  0.95722283322E+02  0.12659683919E+03  0.79026551661E+02 0.  0.
         23    2    1    2    0    0 -0.18477687853E+03  0.98511811175E+02 -0.81048773515E+02  0.24330954748E+03  0.93720651023E+02 0.  0.
        -11    1    3    3    0    0  0.15983431111E+02  0.43065285976E+02  0.40944743491E+02  0.61535038359E+02  0.00000000000E+00 0.  1.
         12    1    3    3    0    0 -0.27942481775E+02 -0.21252688522E+02  0.54777539831E+02  0.65061800829E+02  0.00000000000E+00 0. -1.
        -13    1    4    4    0    0 -0.15124295640E+02 -0.14783414741E+02 -0.22916288170E+02  0.31184129514E+02  0.00000000000E+00 0. -1.
         13    1    4    4    0    0 -0.16965258289E+03  0.11329522592E+03 -0.58132485344E+02  0.21212541797E+03  0.00000000000E+00 0.  1.
          1    1    1    2  501    0  0.19673592919E+03 -0.12032440863E+03  0.21331229842E+03  0.31414188801E+03  0.00000000000E+00 0. -1.
<scales pt_clust_5="13000.00000" pt_clust_6="13000.00000" pt_clust_7="13000.00000" pt_clust_8="13000.00000" pt_clust_9="214.31783"></scales>
<clustering>
<clus scale="   79.027">  5  6 -1 -1</clus>
<clus scale="   82.849">  1  5  2 -1</clus>
<clus scale="   93.721">  7  8 -1 -1</clus>
<clus scale="  214.318">  2  9  1 -1</clus>
<clus scale="  214.318">  2  5  1 -1</clus>
</clustering>
</event>
<event>
 9    2  0.1592151E-004  0.1407901E+03  0.7546771E-02  0.1231597E+00
         -3   -1    0    0    0  501 -0.00000000000E+00  0.00000000000E+00  0.61727410010E+03  0.61727410010E+03  0.00000000000E+00 0.  1.
         21   -1    0    0  501  502  0.00000000000E+00 -0.00000000000E+00 -0.51970941212E+02  0.51970941212E+02  0.00000000000E+00 0.  1.
         24    2    1    2    0    0  0.47385575030E+02  0.41793715591E+01  0.12880589676E+03  0.15942781700E+03  0.81014874723E+02 0.  0.
         23    2    1    2    0    0  0.69364269046E+01  0.10656342242E+03  0.18855736013E+03  0.23288936130E+03  0.85321155228E+02 0.  0.
        -13    1    3    3    0    0  0.47149042163E+02 -0.64751418086E+01  0.22593870271E+02  0.52682469685E+02  0.00000000000E+00 0.  1.
         14    1    3    3    0    0  0.23653286772E+00  0.10654513368E+02  0.10621202649E+03  0.10674534732E+03  0.00000000000E+00 0. -1.
        -11    1    4    4    0    0  0.32125735014E+02  0.10185837510E+03  0.17172911484E+03  0.20223273799E+03  0.00000000000E+00 0.  1.
         11    1    4    4    0    0 -0.25189308109E+02  0.47050473118E+01  0.16828245294E+02  0.30656623312E+02  0.00000000000E+00 0. -1.
         -4    1    1    2    0  502 -0.54322001935E+02 -0.11074279398E+03  0.24793990199E+03  0.27692786301E+03  0.00000000000E+00 0.  1.
<scales pt_clust_5="13000.00000" pt_clust_6="13000.00000" pt_clust_7="13000.00000" pt_clust_8="13000.00000" pt_clust_9="111.99183"></scales>
<clustering>
<clus scale="   81.015">  5  6 -1 -1</clus>
<clus scale="   85.321">  7  8 -1 -1</clus>
<clus scale="   93.948">  1  5  2 -1</clus>
<clus scale="  111.992">  2  9  1 -1</clus>
<clus scale="  111.992">  2  5  1 -1</clus>
</clustering>
</event>
<event>
 9    2  0.1592151E-004  0.1541199E+03  0.7546771E-02  0.1225059E+00
         21   -1    0    0  501  502  0.00000000000E+00  0.00000000000E+00  0.94114619451E+02  0.94114619451E+02  0.00000000000E+00 0. -1.
          4   -1    0    0  502    0 -0.00000000000E+00 -0.00000000000E+00 -0.36829706638E+03  0.36829706638E+03  0.00000000000E+00 0. -1.
         24    2    1    2    0    0  0.10297604701E+02 -0.15274138700E+02 -0.46313801659E+02  0.94177082154E+02  0.79906286382E+02 0.  0.
         23    2    1    2    0    0 -0.60575641215E+02 -0.10889671746E+03 -0.15685826796E+03  0.21661416917E+03  0.82397079294E+02 0.  0.
        -13    1    3    3    0    0  0.44489256943E+02 -0.71273949056E+01 -0.35625019308E+02  0.57438974070E+02  0.00000000000E+00 0.  1.
         14    1    3    3    0    0 -0.34191652242E+02 -0.81467437945E+01 -0.10688782350E+02  0.36738108084E+02  0.00000000000E+00 0. -1.
        -13    1    4    4    0    0 -0.38085495051E+02 -0.50596501015E+00 -0.48944544840E+02  0.62018782667E+02  0.00000000000E+00 0.  1.
         13    1    4    4    0    0 -0.22490146164E+02 -0.10839075245E+03 -0.10791372312E+03  0.15459538651E+03  0.00000000000E+00 0. -1.
          3    1    1    2  501    0  0.50278036514E+02  0.12417085616E+03 -0.71010377308E+02  0.15162043451E+03  0.00000000000E+00 0. -1.
<scales pt_clust_5="13000.00000" pt_clust_6="13000.00000" pt_clust_7="13000.00000" pt_clust_8="13000.00000" pt_clust_9="130.24466"></scales>
<clustering>
<clus scale="   79.906">  5  6 -1 -1</clus>
<clus scale="   82.002">  2  5  1 -1</clus>
<clus scale="   82.397">  7  8 -1 -1</clus>
<clus scale="  130.245">  1  9  2 -1</clus>
<clus scale="  130.245">  1  5  2 -1</clus>
</clustering>
</event>
<event>
 9    2  0.1592151E-004  0.1573380E+03  0.7546771E-02  0.1192284E+00
         21   -1    0    0  501  502  0.00000000000E+00  0.00000000000E+00  0.31481438580E+03  0.31481438580E+03  0.00000000000E+00 0.  1.
          2   -1    0    0  502    0 -0.00000000000E+00 -0.00000000000E+00 -0.10696542446E+03  0.10696542446E+03  0.00000000000E+00 0. -1.
         24    2    1    2    0    0  0.13326434894E+03 -0.49543789391E+02  0.91852487974E+02  0.19339133458E+03  0.93537986824E+02 0.  0.
         23    2    1    2    0    0 -0.99419908140E+02  0.44773400766E+02  0.12926760383E+03  0.19172342850E+03  0.90325987880E+02 0.  0.
        -13    1    3    3    0    0  0.94261371594E+02 -0.75716768305E+02  0.51308137907E+02  0.13134214934E+03  0.00000000000E+00 0.  1.
         14    1    3    3    0    0  0.39002977342E+02  0.26172978914E+02  0.40544350067E+02  0.62049185242E+02  0.00000000000E+00 0. -1.
        -11    1    4    4    0    0 -0.78899964614E+02  0.12740166780E+01  0.35893345295E+02  0.86690021173E+02  0.00000000000E+00 0. -1.
         11    1    4    4    0    0 -0.20519943526E+02  0.43499384088E+02  0.93374258536E+02  0.10503340733E+03  0.00000000000E+00 0.  1.
          1    1    1    2  501    0 -0.33844440797E+02  0.47703886256E+01 -0.13271130460E+02  0.36665047173E+02  0.00000000000E+00 0. -1.
<scales pt_clust_5="13000.00000" pt_clust_6="13000.00000" pt_clust_7="13000.00000" pt_clust_8="13000.00000" pt_clust_9="34.17900"></scales>
<clustering>
<clus scale="   34.179">  1  9  2 -1</clus>
<clus scale="   90.326">  7  8 -1 -1</clus>
<clus scale="   93.538">  5  6 -1 -1</clus>
<clus scale="  155.450">  1  7  2 -1</clus>
<clus scale="   34.179">  1  5  2 -1</clus>
</clustering>
</event>
<event>
 9    2  0.1592151E-004  0.3501367E+03  0.7546771E-02  0.1117776E+00
         21   -1    0    0  501  502  0.00000000000E+00  0.00000000000E+00  0.86889562213E+02  0.86889562213E+02  0.00000000000E+00 0.  1.
          2   -1    0    0  502    0 -0.00000000000E+00 -0.00000000000E+00 -0.18117281729E+04  0.18117281729E+04  0.00000000000E+00 0. -1.
         24    2    1    2    0    0 -0.41615200179E+01  0.40287259724E+01 -0.26672291753E+03  0.27883805719E+03  0.81092530616E+02 0.  0.
         23    2    1    2    0    0  0.31900235453E+03 -0.11899122504E+03 -0.92358211658E+03  0.98885395190E+03  0.94375835247E+02 0.  0.
        -13    1    3    3    0    0  0.11406390706E+02 -0.36236690692E+02 -0.13302312938E+03  0.13834144879E+03  0.00000000000E+00 0.  1.
         14    1    3    3    0    0 -0.15567910724E+02  0.40265416664E+02 -0.13369978815E+03  0.14049660841E+03  0.00000000000E+00 0. -1.
        -11    1    4    4    0    0  0.68550764001E+02  0.13495487668E+02 -0.19264149762E+03  0.20491969656E+03  0.00000000000E+00 0. -1.
         11    1    4    4    0    0  0.25045159053E+03 -0.13248671271E+03 -0.73094061896E+03  0.78393425534E+03  0.00000000000E+00 0.  1.
          1    1    1    2  501    0 -0.31484083451E+03  0.11496249907E+03 -0.53453357656E+03  0.63092572601E+03  0.00000000000E+00 0. -1.
<scales pt_clust_5="13000.00000" pt_clust_6="13000.00000" pt_clust_7="13000.00000" pt_clust_8="13000.00000" pt_clust_9="337.17788"></scales>
<clustering>
<clus scale="   81.093">  5  6 -1 -1</clus>
<clus scale="   81.299">  2  5  1 -1</clus>
<clus scale="   94.376">  7  8 -1 -1</clus>
<clus scale="  337.178">  1  9  2 -1</clus>
<clus scale="  337.178">  1  5  2 -1</clus>
</clustering>
</event>
<event>
 9    2  0.1592151E-004  0.2247750E+03  0.7546771E-02  0.1168602E+00
          2   -1    0    0  502    0 -0.00000000000E+00  0.00000000000E+00  0.51910307193E+03  0.51910307193E+03  0.00000000000E+00 0. -1.
         21   -1    0    0  501  502  0.00000000000E+00 -0.00000000000E+00 -0.20498081386E+03  0.20498081386E+03  0.00000000000E+00 0. -1.
         24    2    1    2    0    0  0.23562100512E+01  0.34574546609E+02 -0.63118930920E+02  0.11054820992E+03  0.83880607281E+02 0.  0.
         23    2    1    2    0    0  0.60540862733E+02  0.17043288691E+03  0.34043525270E+03  0.39596093811E+03  0.90423106697E+02 0.  0.
        -13    1    3    3    0    0  0.27544480084E+02 -0.10417080456E+02 -0.48863534130E+02  0.57051370851E+02  0.00000000000E+00 0.  1.
         14    1    3    3    0    0 -0.25188270033E+02  0.44991627064E+02 -0.14255396790E+02  0.53496839073E+02  0.00000000000E+00 0. -1.
        -13    1    4    4    0    0  0.23911022157E+02  0.13185587421E+03  0.16458436142E+03  0.21223977141E+03  0.00000000000E+00 0.  1.
         13    1    4    4    0    0  0.36629840576E+02  0.38577012708E+02  0.17585089128E+03  0.18372116670E+03  0.00000000000E+00 0. -1.
          1    1    1    2  501    0 -0.62897072785E+02 -0.20500743352E+03  0.36805936286E+02  0.21757473776E+03  0.00000000000E+00 0. -1.
<scales pt_clust_5="13000.00000" pt_clust_6="13000.00000" pt_clust_7="13000.00000" pt_clust_8="13000.00000" pt_clust_9="205.78500"></scales>
<clustering>
<clus scale="   83.881">  5  6 -1 -1</clus>
<clus scale="   90.423">  7  8 -1 -1</clus>
<clus scale="   90.757">  1  5  2 -1</clus>
<clus scale="  205.785">  2  9  1 -1</clus>
<clus scale="  205.785">  2  5  1 -1</clus>
</clustering>
</event>
<event>
 9    2  0.1592151E-004  0.2232079E+03  0.7546771E-02  0.1169512E+00
         21   -1    0    0  501  502  0.00000000000E+00  0.00000000000E+00  0.18075150627E+03  0.18075150627E+03  0.00000000000E+00 0.  1.
         -3   -1    0    0    0  501 -0.00000000000E+00 -0.00000000000E+00 -0.40728250808E+03  0.40728250808E+03  0.00000000000E+00 0.  1.
         24    2    1    2    0    0 -0.85646027924E+01 -0.42820963493E+02 -0.32504906611E+02  0.96415783619E+02  0.79576673979E+02 0.  0.
         23    2    1    2    0    0 -0.17003945336E+03 -0.76348525338E+02 -0.18425098442E+03  0.27668491844E+03  0.88676974526E+02 0.  0.
        -13    1    3    3    0    0 -0.24754743548E+02 -0.34032750740E+02 -0.53770366610E+02  0.68280874163E+02  0.00000000000E+00 0.  1.
         14    1    3    3    0    0  0.16190140756E+02 -0.87882127531E+01  0.21265460000E+02  0.28134909456E+02  0.00000000000E+00 0. -1.
        -13    1    4    4    0    0 -0.63548371949E+02 -0.73727791080E+02 -0.66402738933E+02  0.11782829241E+03  0.00000000000E+00 0. -1.
         13    1    4    4    0    0 -0.10649108141E+03 -0.26207342580E+01 -0.11784824548E+03  0.15885662603E+03  0.00000000000E+00 0.  1.
         -4    1    1    2    0  502  0.17860405616E+03  0.11916948883E+03 -0.97751107769E+01  0.21493331230E+03  0.00000000000E+00 0.  1.
<scales pt_clust_5="13000.00000" pt_clust_6="13000.00000" pt_clust_7="13000.00000" pt_clust_8="13000.00000" pt_clust_9="204.83686"></scales>
<clustering>
<clus scale="   79.577">  5  6 -1 -1</clus>
<clus scale="   88.677">  7  8 -1 -1</clus>
<clus scale="   90.771">  2  5  1 -1</clus>
<clus scale="  204.837">  1  9  2 -1</clus>
<clus scale="  204.837">  1  5  2 -1</clus>
</clustering>
</event>
<event>
 9    2  0.1592151E-004  0.1757039E+03  0.7546771E-02  0.1173354E+00
          2   -1    0    0  502    0 -0.00000000000E+00  0.00000000000E+00  0.29718896553E+03  0.29718896553E+03  0.00000000000E+00 0. -1.
         21   -1    0    0  501  502  0.00000000000E+00 -0.00000000000E+00 -0.45301157445E+03  0.45301157445E+03  0.00000000000E+00 0. -1.
         23    2    1    2    0    0  0.13633951452E+03  0.14659060185E+01 -0.98618526750E+02  0.19143703094E+03  0.91279301587E+02 0.  0.
         24    2    1    2    0    0 -0.16838883668E+03 -0.92199838646E+02 -0.26069030173E+03  0.33367142314E+03  0.80756266874E+02 0.  0.
        -13    1    4    4    0    0 -0.12508475516E+03 -0.23894492855E+02 -0.15586721876E+03  0.20127526586E+03  0.00000000000E+00 0.  1.
         14    1    4    4    0    0 -0.43304081522E+02 -0.68305345791E+02 -0.10482308296E+03  0.13239615728E+03  0.00000000000E+00 0. -1.
        -13    1    3    3    0    0  0.60072278413E+02  0.45868672715E+02 -0.50749205410E+02  0.91038978576E+02  0.00000000000E+00 0. -1.
         13    1    3    3    0    0  0.76267236107E+02 -0.44402766697E+02 -0.47869321340E+02  0.10039805237E+03  0.00000000000E+00 0.  1.
          1    1    1    2  501    0  0.32049322158E+02  0.90733932627E+02  0.20348621956E+03  0.22509208589E+03  0.00000000000E+00 0. -1.
<scales pt_clust_5="13000.00000" pt_clust_6="13000.00000" pt_clust_7="13000.00000" pt_clust_8="13000.00000" pt_clust_9="96.22793"></scales>
<clustering>
<clus scale="   80.756">  5  6 -1 -1</clus>
<clus scale="   91.279">  7  8 -1 -1</clus>
<clus scale="   96.228">  2  9  1 -1</clus>
<clus scale="  170.474">  2  5  1 -1</clus>
<clus scale="   96.228">  2  5  1 -1</clus>
</clustering>
</event>
<event>
 9    2  0.1592151E-004  0.2800367E+03  0.7546771E-02  0.1117113E+00
         -3   -1    0    0    0  501 -0.00000000000E+00  0.00000000000E+00  0.55927042850E+03  0.55927042850E+03  0.00000000000E+00 0.  1.
         21   -1    0    0  501  502  0.00000000000E+00 -0.00000000000E+00 -0.49496124977E+03  0.49496124977E+03  0.00000000000E+00 0.  1.
         23    2    1    2    0    0 -0.13139916605E+03  0.11968778125E+02 -0.29189821712E+03  0.33363609456E+03  0.93271013413E+02 0.  0.
         24    2    1    2    0    0  0.99646197246E+02  0.25277545392E+03  0.15587832966E+02  0.28802253087E+03  0.94282570096E+02 0.  0.
        -11    1    4    4    0    0  0.71679367043E+01  0.14667376952E+03  0.71698815000E+01  0.14702374360E+03  0.00000000000E+00 0.  1.
         12    1    4    4    0    0  0.92478260542E+02  0.10610168440E+03  0.84179514659E+01  0.14099878727E+03  0.00000000000E+00 0. -1.
        -13    1    3    3    0    0 -0.13664492451E+03  0.31719785310E+02 -0.26519349440E+03  0.30000928261E+03  0.00000000000E+00 0.  1.
         13    1    3    3    0    0  0.52457584597E+01 -0.19751007184E+02 -0.26704722719E+02  0.33626811953E+02  0.00000000000E+00 0. -1.
         -4    1    1    2    0  502  0.31752968805E+02 -0.26474423204E+03  0.34061956289E+03  0.43257305285E+03  0.00000000000E+00 0.  1.
<scales pt_clust_5="13000.00000" pt_clust_6="13000.00000" pt_clust_7="13000.00000" pt_clust_8="13000.00000" pt_clust_9="263.68807"></scales>
<clustering>
<clus scale="   93.271">  7  8 -1 -1</clus>
<clus scale="   94.283">  5  6 -1 -1</clus>
<clus scale="  161.581">  1  7  2 -1</clus>
<clus scale="  263.688">  2  9  1 -1</clus>
<clus scale="  263.688">  2  5  1 -1</clus>
</clustering>
</event>
<event>
 9    2  0.1592151E-004  0.1227122E+03  0.7546771E-02  0.1256117E+00
          2   -1    0    0  502    0 -0.00000000000E+00  0.00000000000E+00  0.34204981087E+03  0.34204981087E+03  0.00000000000E+00 0. -1.
         21   -1    0    0  501  502  0.00000000000E+00 -0.00000000000E+00 -0.18275695960E+03  0.18275695960E+03  0.00000000000E+00 0. -1.
         23    2    1    2    0    0  0.21306492691E+02  0.13580791204E+02  0.26809669356E+03  0.29555620902E+03  0.12181638260E+03 0.  0.
         24    2    1    2    0    0  0.22384388572E+02 -0.74658384790E+01  0.22067718164E+02  0.91143171760E+02  0.85224961001E+02 0.  0.
        -13    1    4    4    0    0 -0.31011163718E+02  0.62447891008E+01  0.16655356962E+02  0.35750392748E+02  0.00000000000E+00 0.  1.
         14    1    4    4    0    0  0.53395552289E+02 -0.13710627580E+02  0.54123612011E+01  0.55392779012E+02  0.00000000000E+00 0. -1.
        -11    1    3    3    0    0  0.15628208057E+02 -0.38017503229E+02  0.22311173556E+03  0.22686652019E+03  0.00000000000E+00 0. -1.
         11    1    3    3    0    0  0.56782846347E+01  0.51598294433E+02  0.44984958008E+02  0.68689688832E+02  0.00000000000E+00 0.  1.
          1    1    1    2  501    0 -0.43690881263E+02 -0.61149527249E+01 -0.13087156046E+03  0.13810738970E+03  0.00000000000E+00 0. -1.
<scales pt_clust_5="13000.00000" pt_clust_6="13000.00000" pt_clust_7="13000.00000" pt_clust_8="13000.00000" pt_clust_9="44.11673"></scales>
<clustering>
<clus scale="   44.117">  2  9  1 -1</clus>
<clus scale="   85.225">  5  6 -1 -1</clus>
<clus scale="   86.501">  2  5  1 -1</clus>
<clus scale="  121.816">  7  8 -1 -1</clus>
<clus scale="   44.117">  2  5  1 -1</clus>
</clustering>
</event>
<event>
 9    2  0.1592151E-004  0.1133711E+03  0.7546771E-02  0.1267691E+00
         21   -1    0    0  501  502  0.00000000000E+00  0.00000000000E+00  0.13179204719E+03  0.13179204719E+03  0.00000000000E+00 0. -1.
          2   -1    0    0  502    0 -0.00000000000E+00 -0.00000000000E+00 -0.34816298858E+03  0.34816298858E+03  0.00000000000E+00 0. -1.
         23    2    1    2    0    0 -0.97912524227E+01  0.26955640905E+02 -0.26309476654E+03  0.28587994923E+03  0.10810186857E+03 0.  0.
         24    2    1    2    0    0  0.16610752870E+02 -0.45955122278E+02 -0.41988425165E+02  0.10309514789E+03  0.80484727103E+02 0.  0.
        -13    1    4    4    0    0  0.27859649918E+02 -0.24700312763E+02  0.15842935027E+02  0.40463120671E+02  0.00000000000E+00 0.  1.
         14    1    4    4    0    0 -0.11248897048E+02 -0.21254809516E+02 -0.57831360192E+02  0.62632027223E+02  0.00000000000E+00 0. -1.
        -13    1    3    3    0    0  0.36907434608E+02  0.26656505146E+02 -0.49555839787E+02  0.67294199251E+02  0.00000000000E+00 0.  1.
         13    1    3    3    0    0 -0.46698687030E+02  0.29913575942E+00 -0.21353892676E+03  0.21858574998E+03  0.00000000000E+00 0. -1.
          1    1    1    2  501    0 -0.68195004471E+01  0.18999481373E+02  0.88712250324E+02  0.90979938648E+02  0.00000000000E+00 0. -1.
<scales pt_clust_5="13000.00000" pt_clust_6="13000.00000" pt_clust_7="13000.00000" pt_clust_8="13000.00000" pt_clust_9="20.18628"></scales>
<clustering>
<clus scale="   20.186">  1  9  2 -1</clus>
<clus scale="   80.485">  5  6 -1 -1</clus>
<clus scale="   87.435">  1  5  2 -1</clus>
<clus scale="  108.102">  7  8 -1 -1</clus>
<clus scale="   20.186">  1  5  2 -1</clus>
</clustering>
</event>
<event>
 9    2  0.1592151E-004  0.9306974E+02  0.7546771E-02  0.1302984E+00
         21   -1    0    0  501  502  0.00000000000E+00  0.00000000000E+00  0.15030110464E+03  0.15030110464E+03  0.00000000000E+00 0. -1.
          2   -1    0    0  502    0 -0.00000000000E+00 -0.00000000000E+00 -0.42409889208E+03  0.42409889208E+03  0.00000000000E+00 0. -1.
         24    2    1    2    0    0  0.12085731498E+02 -0.79140419079E+01 -0.26234966086E+03  0.27419941260E+03  0.78417321746E+02 0.  0.
         23    2    1    2    0    0 -0.51260923665E+02 -0.35124018104E+02 -0.12873120724E+03  0.16927201086E+03  0.90663724828E+02 0.  0.
        -13    1    3    3    0    0  0.20691790231E+02  0.18227777555E+02 -0.32131022219E+02  0.42341523903E+02  0.00000000000E+00 0.  1.
         14    1    3    3    0    0 -0.86060587335E+01 -0.26141819463E+02 -0.23021863864E+03  0.23185788869E+03  0.00000000000E+00 0. -1.
        -11    1    4    4    0    0  0.24070457655E+02 -0.11263863434E+02 -0.55508520746E+02  0.61542322240E+02  0.00000000000E+00 0.  1.
         11    1    4    4    0    0 -0.75331381320E+02 -0.23860154670E+02 -0.73222686494E+02  0.10772968862E+03  0.00000000000E+00 0. -1.
          1    1    1    2  501    0  0.39175192167E+02  0.43038060012E+02  0.11728308066E+03  0.13092857327E+03  0.00000000000E+00 0. -1.
<scales pt_clust_5="13000.00000" pt_clust_6="13000.00000" pt_clust_7="13000.00000" pt_clust_8="13000.00000" pt_clust_9="58.19768"></scales>
<clustering>
<clus scale="   58.198">  1  9  2 -1</clus>
<clus scale="   78.417">  5  6 -1 -1</clus>
<clus scale="   81.187">  2  5  1 -1</clus>
<clus scale="   90.664">  7  8 -1 -1</clus>
<clus scale="   58.198">  1  5  2 -1</clus>
</clustering>
</event>
<event>
 9    2  0.1592151E-004  0.9586571E+02  0.7546771E-02  0.1296408E+00
         21   -1    0    0  501  502  0.00000000000E+00  0.00000000000E+00  0.27732047713E+03  0.27732047713E+03  0.00000000000E+00 0.  1.
          2   -1    0    0  502    0 -0.00000000000E+00 -0.00000000000E+00 -0.60822689343E+02  0.60822689343E+02  0.00000000000E+00 0. -1.
         24    2    1    2    0    0  0.14416229744E+02  0.67442816900E+01  0.36904135225E+02  0.89310601116E+02  0.79756850862E+02 0.  0.
         23    2    1    2    0    0 -0.55612657095E+02 -0.12533083200E+02  0.17643093572E+03  0.20711136418E+03  0.92289740996E+02 0.  0.
        -11    1    3    3    0    0 -0.42408157168E+01 -0.34799726218E+02  0.22019248870E+02  0.41398705096E+02  0.00000000000E+00 0.  1.
         12    1    3    3    0    0  0.18657045460E+02  0.41544007908E+02  0.14884886355E+02  0.47911896020E+02  0.00000000000E+00 0. -1.
        -11    1    4    4    0    0  0.52120001733E+01  0.28312177974E+02  0.86203028205E+02  0.90882927105E+02  0.00000000000E+00 0. -1.
         11    1    4    4    0    0 -0.60824657269E+02 -0.40845261174E+02  0.90227907510E+02  0.11622843708E+03  0.00000000000E+00 0.  1.
          1    1    1    2  501    0  0.41196427352E+02  0.57888015103E+01  0.31627168464E+01  0.41721201173E+02  0.00000000000E+00 0. -1.
<scales pt_clust_5="13000.00000" pt_clust_6="13000.00000" pt_clust_7="13000.00000" pt_clust_8="13000.00000" pt_clust_9="41.60117"></scales>
<clustering>
<clus scale="   41.601">  1  9  2 -1</clus>
<clus scale="   79.757">  5  6 -1 -1</clus>
<clus scale="   83.869">  2  5  1 -1</clus>
<clus scale="   92.290">  7  8 -1 -1</clus>
<clus scale="   41.601">  1  5  2 -1</clus>
</clustering>
</event>
<event>
 9    2  0.1592151E-004  0.1401708E+03  0.7546771E-02  0.1215091E+00
          2   -1    0    0  502    0 -0.00000000000E+00  0.00000000000E+00  0.15003558133E+04  0.15003558133E+04  0.00000000000E+00 0. -1.
         21   -1    0    0  501  502  0.00000000000E+00 -0.00000000000E+00 -0.24163115607E+02  0.24163115607E+02  0.00000000000E+00 0.  1.
         24    2    1    2    0    0  0.48036546941E+02 -0.91487620983E+02  0.95511612254E+03  0.96413681308E+03  0.81458530356E+02 0.  0.
         23    2    1    2    0    0 -0.14063613367E+02  0.12532528933E+03  0.35449555169E+03  0.38703741475E+03  0.90700886875E+02 0.  0.
        -11    1    3    3    0    0  0.20967659467E+01 -0.22200650395E+02  0.44904336402E+02  0.50136461115E+02  0.00000000000E+00 0.  1.
         12    1    3    3    0    0  0.45939780994E+02 -0.69286970588E+02  0.91021178613E+03  0.91400035196E+03  0.00000000000E+00 0. -1.
        -13    1    4    4    0    0 -0.24170015335E+02  0.77729300709E+02  0.10508197908E+03  0.13292199276E+03  0.00000000000E+00 0.  1.
         13    1    4    4    0    0  0.10106401969E+02  0.47595988618E+02  0.24941357261E+03  0.25411542199E+03  0.00000000000E+00 0. -1.
          1    1    1    2  501    0 -0.33972933574E+02 -0.33837668344E+02  0.16658102347E+03  0.17334470109E+03  0.00000000000E+00 0. -1.
<scales pt_clust_5="13000.00000" pt_clust_6="13000.00000" pt_clust_7="13000.00000" pt_clust_8="13000.00000" pt_clust_9="47.94943"></scales>
<clustering>
<clus scale="   47.949">  2  9  1 -1</clus>
<clus scale="   81.459">  5  6 -1 -1</clus>
<clus scale="   90.701">  7  8 -1 -1</clus>
<clus scale="  134.375">  1  5  2 -1</clus>
<clus scale="   47.949">  2  5  1 -1</clus>
</clustering>
</event>
<event>
 9    2  0.1592151E-004  0.9567515E+02  0.7546771E-02  0.1297129E+00
         21   -1    0    0  501  502  0.00000000000E+00  0.00000000000E+00  0.35549407018E+03  0.35549407018E+03  0.00000000000E+00 0. -1.
         -1   -1    0    0    0  501 -0.00000000000E+00 -0.00000000000E+00 -0.10347051545E+03  0.10347051545E+03  0.00000000000E+00 0.  1.
         24    2    1    2    0    0 -0.11145865367E+02 -0.11138324733E+02 -0.70310109493E+02  0.10875771923E+03  0.81464332082E+02 0.  0.
         23    2    1    2    0    0  0.42135516320E+02  0.35311035768E+01  0.21965546725E+03  0.24268458771E+03  0.94124462241E+02 0.  0.
        -11    1    3    3    0    0 -0.19890287995E+02  0.32605207537E+02 -0.35932049694E+02  0.52438872130E+02  0.00000000000E+00 0.  1.
         12    1    3    3    0    0  0.87444226284E+01 -0.43743532270E+02 -0.34378059799E+02  0.56318847095E+02  0.00000000000E+00 0. -1.
        -13    1    4    4    0    0 -0.19879380034E+02 -0.26494189822E+02  0.55145790358E+02  0.64328765254E+02  0.00000000000E+00 0.  1.
         13    1    4    4    0    0  0.62014896355E+02  0.30025293399E+02  0.16450967689E+03  0.17835582246E+03  0.00000000000E+00 0. -1.
         -2    1    1    2    0  502 -0.30989650953E+02  0.76072211562E+01  0.10267819698E+03  0.10752227869E+03  0.00000000000E+00 0.  1.
<scales pt_clust_5="13000.00000" pt_clust_6="13000.00000" pt_clust_7="13000.00000" pt_clust_8="13000.00000" pt_clust_9="31.90969"></scales>
<clustering>
<clus scale="   31.910">  1  9  2 -1</clus>
<clus scale="   81.464">  5  6 -1 -1</clus>
<clus scale="   83.251">  2  5  1 -1</clus>
<clus scale="   94.124">  7  8 -1 -1</clus>
<clus scale="   31.910">  1  5  2 -1</clus>
</clustering>
</event>
<event>
 9    2  0.1592151E-004  0.1010198E+03  0.7546771E-02  0.1283140E+00
         -1   -1    0    0    0  501 -0.00000000000E+00  0.00000000000E+00  0.41769618164E+03  0.41769618164E+03  0.00000000000E+00 0.  1.
         21   -1    0    0  501  502  0.00000000000E+00 -0.00000000000E+00 -0.52234133575E+02  0.52234133575E+02  0.00000000000E+00 0. -1.
         23    2    1    2    0    0 -0.51356401912E+02 -0.39450206398E+02  0.20733534741E+03  0.23530972678E+03  0.90492665045E+02 0.  0.
         24    2    1    2    0    0  0.37406704843E+02 -0.21811999144E+02  0.14368929908E+03  0.17015284115E+03  0.80189461944E+02 0.  0.
        -13    1    4    4    0    0  0.54455141162E+02  0.91569375080E+01  0.96623562907E+02  0.11128937421E+03  0.00000000000E+00 0.  1.
         14    1    4    4    0    0 -0.17048436319E+02 -0.30968936653E+02  0.47065736176E+02  0.58863466940E+02  0.00000000000E+00 0. -1.
        -13    1    3    3    0    0 -0.44139442231E+02 -0.66406146830E+02  0.12398535007E+03  0.14741246124E+03  0.00000000000E+00 0.  1.
         13    1    3    3    0    0 -0.72169596815E+01  0.26955940432E+02  0.83349997342E+02  0.87897265535E+02  0.00000000000E+00 0. -1.
         -2    1    1    2    0  502  0.13949697069E+02  0.61262205542E+02  0.14437401570E+02  0.64467747287E+02  0.00000000000E+00 0.  1.
<scales pt_clust_5="13000.00000" pt_clust_6="13000.00000" pt_clust_7="13000.00000" pt_clust_8="13000.00000" pt_clust_9="62.83034"></scales>
<clustering>
<clus scale="   62.830">  2  9  1 -1</clus>
<clus scale="   80.189">  5  6 -1 -1</clus>
<clus scale="   90.493">  7  8 -1 -1</clus>
<clus scale="   91.904">  2  5  1 -1</clus>
<clus scale="   62.830">  2  5  1 -1</clus>
</clustering>
</event>
<event>
 9    2  0.1592151E-004  0.2115909E+03  0.7546771E-02  0.1140312E+00
          2   -1    0    0  502    0 -0.00000000000E+00  0.00000000000E+00  0.64131723952E+03  0.64131723952E+03  0.00000000000E+00 0. -1.
         21   -1    0    0  501  502  0.00000000000E+00 -0.00000000000E+00 -0.40052603103E+02  0.40052603103E+02  0.00000000000E+00 0.  1.
         24    2    1    2    0    0 -0.54388292926E+02 -0.53779228171E+02  0.16867294972E+03  0.20161694466E+03  0.79677704652E+02 0.  0.
         23    2    1    2    0    0  0.73810414329E+01 -0.42045287620E+02  0.19183918990E+03  0.21640183145E+03  0.90582514249E+02 0.  0.
        -11    1    3    3    0    0 -0.64938292651E+02 -0.25082944914E+02  0.71686190386E+02  0.99925201376E+02  0.00000000000E+00 0.  1.
         12    1    3    3    0    0  0.10549999725E+02 -0.28696283257E+02  0.96986759335E+02  0.10169174329E+03  0.00000000000E+00 0. -1.
        -13    1    4    4    0    0  0.38877964520E+02 -0.10444077186E+02  0.35013493155E+02  0.53352784148E+02  0.00000000000E+00 0.  1.
         13    1    4    4    0    0 -0.31496923087E+02 -0.31601210434E+02  0.15682569675E+03  0.16304904730E+03  0.00000000000E+00 0. -1.
          1    1    1    2  501    0  0.47007251493E+02  0.95824515791E+02  0.24075249679E+03  0.26335106651E+03  0.00000000000E+00 0. -1.
<scales pt_clust_5="13000.00000" pt_clust_6="13000.00000" pt_clust_7="13000.00000" pt_clust_8="13000.00000" pt_clust_9="106.73346"></scales>
<clustering>
<clus scale="   79.678">  5  6 -1 -1</clus>
<clus scale="   90.583">  7  8 -1 -1</clus>
<clus scale="   99.683">  5  7 -1 -1</clus>
<clus scale="  106.733">  2  9  1 -1</clus>
<clus scale="  106.733">  2  5  1 -1</clus>
</clustering>
</event>
<event>
 9    2  0.1592151E-004  0.9816028E+02  0.7546771E-02  0.1288854E+00
         21   -1    0    0  501  502  0.00000000000E+00  0.00000000000E+00  0.83735858426E+03  0.83735858426E+03  0.00000000000E+00 0. -1.
         -1   -1    0    0    0  501 -0.00000000000E+00 -0.00000000000E+00 -0.24759518362E+02  0.24759518362E+02  0.00000000000E+00 0.  1.
         23    2    1    2    0    0  0.39389506381E+02 -0.35723273468E+00  0.98480855974E+02  0.13890602526E+03  0.89692497074E+02 0.  0.
         24    2    1    2    0    0 -0.41783615307E+02 -0.20066444696E+02  0.61416828367E+03  0.62116872327E+03  0.80618666501E+02 0.  0.
        -11    1    4    4    0    0  0.23596542269E+02 -0.19829178899E+01  0.11503177932E+03  0.11744376963E+03  0.00000000000E+00 0.  1.
         12    1    4    4    0    0 -0.65380157575E+02 -0.18083526806E+02  0.49913650434E+03  0.50372495364E+03  0.00000000000E+00 0. -1.
        -13    1    3    3    0    0  0.34128259588E+02 -0.40800231491E+02  0.74674614684E+02  0.91682577792E+02  0.00000000000E+00 0. -1.
         13    1    3    3    0    0  0.52612467931E+01  0.40442998757E+02  0.23806241289E+02  0.47223447466E+02  0.00000000000E+00 0.  1.
         -2    1    1    2    0  502  0.23941089255E+01  0.20423677430E+02  0.99949926259E+02  0.10204335410E+03  0.00000000000E+00 0.  1.
<scales pt_clust_5="13000.00000" pt_clust_6="13000.00000" pt_clust_7="13000.00000" pt_clust_8="13000.00000" pt_clust_9="20.56352"></scales>
<clustering>
<clus scale="   20.564">  1  9  2 -1</clus>
<clus scale="   80.619">  5  6 -1 -1</clus>
<clus scale="   89.692">  7  8 -1 -1</clus>
<clus scale="   89.945">  1  5  2 -1</clus>
<clus scale="   20.564">  1  5  2 -1</clus>
</clustering>
</event>
<event>
 9    2  0.1592151E-004  0.1685664E+03  0.7546771E-02  0.1181033E+00
         21   -1    0    0  501  502  0.00000000000E+00  0.00000000000E+00  0.99599503178E+02  0.99599503178E+02  0.00000000000E+00 0. -1.
          2   -1    0    0  502    0 -0.00000000000E+00 -0.00000000000E+00 -0.83230573466E+03  0.83230573466E+03  0.00000000000E+00 0. -1.
         24    2    1    2    0    0 -0.82203313949E+02  0.11124662905E+03 -0.48389464603E+03  0.51039151816E+03  0.84925120265E+02 0.  0.
         23    2    1    2    0    0 -0.88379106178E+02 -0.11123952838E+03 -0.12265957727E+03  0.20935177381E+03  0.92723752173E+02 0.  0.
        -13    1    3    3    0    0 -0.10827715052E+02  0.83884377056E+02 -0.22188997818E+03  0.23746366152E+03  0.00000000000E+00 0.  1.
         14    1    3    3    0    0 -0.71375598897E+02  0.27362251995E+02 -0.26200466786E+03  0.27292785664E+03  0.00000000000E+00 0. -1.
        -11    1    4    4    0    0 -0.69442770694E+00 -0.61267568685E+02 -0.77471346856E+02  0.98772500152E+02  0.00000000000E+00 0.  1.
         11    1    4    4    0    0 -0.87684678471E+02 -0.49971959698E+02 -0.45188230415E+02  0.11057927366E+03  0.00000000000E+00 0. -1.
          1    1    1    2  501    0  0.17058242013E+03 -0.71006680515E-02 -0.12615200818E+03  0.21216194587E+03  0.00000000000E+00 0. -1.
<scales pt_clust_5="13000.00000" pt_clust_6="13000.00000" pt_clust_7="13000.00000" pt_clust_8="13000.00000" pt_clust_9="140.77276"></scales>
<clustering>
<clus scale="   84.925">  5  6 -1 -1</clus>
<clus scale="   92.724">  7  8 -1 -1</clus>
<clus scale="  162.313">  2  5  1 -1</clus>
<clus scale="  140.773">  1  9  2 -1</clus>
<clus scale="  140.773">  1  5  2 -1</clus>
</clustering>
</event>
<event>
 9    2  0.1592151E-004  0.1198578E+03  0.7546771E-02  0.1245374E+00
          2   -1    0    0  502    0 -0.00000000000E+00  0.00000000000E+00  0.20153327906E+03  0.20153327906E+03  0.00000000000E+00 0. -1.
         21   -1    0    0  501  502  0.00000000000E+00 -0.00000000000E+00 -0.44632865236E+03  0.44632865236E+03  0.00000000000E+00 0.  1.
         23    2    1    2    0    0 -0.14925304385E+02 -0.67799791061E+02 -0.32007160908E+03  0.34011200575E+03  0.91710223744E+02 0.  0.
         24    2    1    2    0    0  0.74356527378E+02 -0.35350634125E+02 -0.56676392066E+02  0.13003223809E+03  0.83172164992E+02 0.  0.
        -11    1    4    4    0    0  0.48995192956E+02  0.22395998745E+02 -0.28640195981E+02  0.61011232723E+02  0.00000000000E+00 0.  1.
         12    1    4    4    0    0  0.25361334422E+02 -0.57746632870E+02 -0.28036196086E+02  0.69021005371E+02  0.00000000000E+00 0. -1.
        -13    1    3    3    0    0  0.16037184544E+02 -0.79164584548E+02 -0.24870174768E+03  0.26148954479E+03  0.00000000000E+00 0.  1.
         13    1    3    3    0    0 -0.30962488929E+02  0.11364793487E+02 -0.71369861393E+02  0.78622460957E+02  0.00000000000E+00 0. -1.
          1    1    1    2  501    0 -0.59431222992E+02  0.10315042519E+03  0.13195262784E+03  0.17771768758E+03  0.00000000000E+00 0. -1.
<scales pt_clust_5="13000.00000" pt_clust_6="13000.00000" pt_clust_7="13000.00000" pt_clust_8="13000.00000" pt_clust_9="86.30351"></scales>
<clustering>
<clus scale="   83.172">  5  6 -1 -1</clus>
<clus scale="   91.710">  7  8 -1 -1</clus>
<clus scale="  115.023">  1  7  2 -1</clus>
<clus scale="   86.304">  2  9  1 -1</clus>
<clus scale="   86.304">  2  5  1 -1</clus>
</clustering>
</event>
<event>
 9    2  0.1592151E-004  0.9479256E+02  0.7546771E-02  0.1302942E+00
         21   -1    0    0  501  502  0.00000000000E+00  0.00000000000E+00  0.10505292157E+03  0.10505292157E+03  0.00000000000E+00 0. -1.
          2   -1    0    0  502    0 -0.00000000000E+00 -0.00000000000E+00 -0.19459408472E+03  0.19459408472E+03  0.00000000000E+00 0. -1.
         24    2    1    2    0    0 -0.65693516591E+01 -0.10982661068E+02 -0.12852061916E+03  0.15002320612E+03  0.76325864566E+02 0.  0.
         23    2    1    2    0    0 -0.33787557666E+02  0.76634221276E+00  0.14261585407E+02  0.10120865348E+03  0.94327156150E+02 0.  0.
        -11    1    3    3    0    0  0.28549097558E+02 -0.51796588568E+01 -0.18556281875E+02  0.34441478398E+02  0.00000000000E+00 0.  1.
         12    1    3    3    0    0 -0.35118449217E+02 -0.58030022117E+01 -0.10996433728E+03  0.11558172773E+03  0.00000000000E+00 0. -1.
        -13    1    4    4    0    0 -0.36844732287E+01 -0.44859854074E+02  0.11600803511E+02  0.46481829704E+02  0.00000000000E+00 0.  1.
         13    1    4    4    0    0 -0.30103084438E+02  0.45626196287E+02  0.26607818961E+01  0.54726823776E+02  0.00000000000E+00 0. -1.
          1    1    1    2  501    0  0.40356909326E+02  0.10216318856E+02  0.24717870604E+02  0.48415146684E+02  0.00000000000E+00 0. -1.
<scales pt_clust_5="13000.00000" pt_clust_6="13000.00000" pt_clust_7="13000.00000" pt_clust_8="13000.00000" pt_clust_9="41.62996"></scales>
<clustering>
<clus scale="   41.630">  1  9  2 -1</clus>
<clus scale="   76.326">  5  6 -1 -1</clus>
<clus scale="   76.900">  2  5  1 -1</clus>
<clus scale="   94.327">  7  8 -1 -1</clus>
<clus scale="   41.630">  1  5  2 -1</clus>
</clustering>
</event>
<event>
 9    2  0.1592151E-004  0.9702905E+02  0.7546771E-02  0.1291134E+00
         -1   -1    0    0    0  501 -0.00000000000E+00  0.00000000000E+00  0.15384954981E+03  0.15384954981E+03  0.00000000000E+00 0.  1.
         21   -1    0    0  501  502  0.00000000000E+00 -0.00000000000E+00 -0.11669957319E+03  0.11669957319E+03  0.00000000000E+00 0.  1.
         23    2    1    2    0    0  0.19923802960E+02  0.24729957786E+02  0.85812800876E+02  0.12752845822E+03  0.88832100765E+02 0.  0.
         24    2    1    2    0    0 -0.43470930128E+02 -0.43302464785E+02 -0.23119455240E+02  0.10362689731E+03  0.80244622335E+02 0.  0.
        -13    1    4    4    0    0 -0.63454728220E+02 -0.26615846634E+02 -0.32308837077E+02  0.76018200313E+02  0.00000000000E+00 0.  1.
         14    1    4    4    0    0  0.19983798093E+02 -0.16686618151E+02  0.91893818374E+01  0.27608697001E+02  0.00000000000E+00 0. -1.
        -11    1    3    3    0    0  0.31678063720E+02  0.52184788954E+02  0.40503126838E+02  0.73261553374E+02  0.00000000000E+00 0.  1.
         11    1    3    3    0    0 -0.11754260760E+02 -0.27454831168E+02  0.45309674038E+02  0.54266904849E+02  0.00000000000E+00 0. -1.
         -2    1    1    2    0  502  0.23547127168E+02  0.18572507000E+02 -0.25543369021E+02  0.39393767464E+02  0.00000000000E+00 0.  1.
<scales pt_clust_5="13000.00000" pt_clust_6="13000.00000" pt_clust_7="13000.00000" pt_clust_8="13000.00000" pt_clust_9="29.99009"></scales>
<clustering>
<clus scale="   29.990">  2  9  1 -1</clus>
<clus scale="   80.245">  5  6 -1 -1</clus>
<clus scale="   88.832">  7  8 -1 -1</clus>
<clus scale="   89.234">  2  5  1 -1</clus>
<clus scale="   29.990">  2  5  1 -1</clus>
</clustering>
</event>
<event>
 9    2  0.1592151E-004  0.1118980E+03  0.7546771E-02  0.1261273E+00
         21   -1    0    0  501  502  0.00000000000E+00  0.00000000000E+00  0.27098747249E+03  0.27098747249E+03  0.00000000000E+00 0.  1.
          2   -1    0    0  502    0 -0.00000000000E+00 -0.00000000000E+00 -0.13755485201E+03  0.13755485201E+03  0.00000000000E+00 0. -1.
         23    2    1    2    0    0  0.89053941206E+02  0.19061244504E+02  0.85370270059E+02  0.15435458636E+03  0.90792730073E+02 0.  0.
         24    2    1    2    0    0 -0.37133948659E+02  0.11117043219E+02  0.12709986341E+03  0.15492373089E+03  0.79652170850E+02 0.  0.
        -13    1    4    4    0    0 -0.30322008598E+02 -0.79259359675E+01  0.13067909078E+03  0.13438478125E+03  0.00000000000E+00 0.  1.
         14    1    4    4    0    0 -0.68119400614E+01  0.19042979187E+02 -0.35792273649E+01  0.20538949638E+02  0.00000000000E+00 0. -1.
        -11    1    3    3    0    0 -0.13447707542E+02  0.21183064221E+02  0.95769534336E+01  0.26856676730E+02  0.00000000000E+00 0. -1.
         11    1    3    3    0    0  0.10250164875E+03 -0.21218197170E+01  0.75793316625E+02  0.12749790963E+03  0.00000000000E+00 0.  1.
          1    1    1    2  501    0 -0.51919992547E+02 -0.30178287723E+02 -0.79037512992E+02  0.99264007253E+02  0.00000000000E+00 0. -1.
<scales pt_clust_5="13000.00000" pt_clust_6="13000.00000" pt_clust_7="13000.00000" pt_clust_8="13000.00000" pt_clust_9="60.05346"></scales>
<clustering>
<clus scale="   60.053">  1  9  2 -1</clus>
<clus scale="   79.652">  5  6 -1 -1</clus>
<clus scale="   90.793">  7  8 -1 -1</clus>
<clus scale="  103.065">  1  5  2 -1</clus>
<clus scale="   60.053">  1  5  2 -1</clus>
</clustering>
</event>
<event>
 9    2  0.1592151E-004  0.1087640E+03  0.7546771E-02  0.1268295E+00
          2   -1    0    0  502    0 -0.00000000000E+00  0.00000000000E+00  0.71021262761E+03  0.71021262761E+03  0.00000000000E+00 0. -1.
         21   -1    0    0  501  502  0.00000000000E+00 -0.00000000000E+00 -0.71351046647E+02  0.71351046647E+02  0.00000000000E+00 0. -1.
         24    2    1    2    0    0 -0.59843056079E+02  0.15139032640E+02  0.35216762186E+03  0.36665388483E+03  0.81256727129E+02 0.  0.
         23    2    1    2    0    0  0.45957150572E+02  0.40399773436E+02  0.32645280660E+03  0.34520940703E+03  0.94095156019E+02 0.  0.
        -11    1    3    3    0    0 -0.24618049572E+02  0.29719497968E+02  0.55803729014E+02  0.67848014681E+02  0.00000000000E+00 0.  1.
         12    1    3    3    0    0 -0.35225006507E+02 -0.14580465327E+02  0.29636389285E+03  0.29880587015E+03  0.00000000000E+00 0. -1.
        -11    1    4    4    0    0 -0.18813491362E+02  0.40427516044E+02  0.96417166229E+02  0.10622900477E+03  0.00000000000E+00 0. -1.
         11    1    4    4    0    0  0.64770641934E+02 -0.27742607456E-01  0.23003564037E+03  0.23898040226E+03  0.00000000000E+00 0.  1.
          1    1    1    2  501    0  0.13885905507E+02 -0.55538806077E+02 -0.39758847494E+02  0.69700382396E+02  0.00000000000E+00 0. -1.
<scales pt_clust_5="13000.00000" pt_clust_6="13000.00000" pt_clust_7="13000.00000" pt_clust_8="13000.00000" pt_clust_9="57.24838"></scales>
<clustering>
<clus scale="   57.248">  2  9  1 -1</clus>
<clus scale="   81.257">  5  6 -1 -1</clus>
<clus scale="   94.095">  7  8 -1 -1</clus>
<clus scale="   97.869">  1  5  2 -1</clus>
<clus scale="   57.248">  2  5  1 -1</clus>
</clustering>
</event>
<event>
 9    2  0.1592151E-004  0.1137658E+03  0.7546771E-02  0.1257935E+00
         21   -1    0    0  501  502  0.00000000000E+00  0.00000000000E+00  0.56851701641E+02  0.56851701641E+02  0.00000000000E+00 0.  1.
         -3   -1    0    0    0  501 -0.00000000000E+00 -0.00000000000E+00 -0.35637480309E+03  0.35637480309E+03  0.00000000000E+00 0.  1.
         23    2    1    2    0    0  0.47838896219E+00  0.63966334959E+02 -0.14414849452E+03  0.18223947234E+03  0.91326425219E+02 0.  0.
         24    2    1    2    0    0  0.22908783929E+02 -0.73991176502E+02 -0.48831101884E+02  0.12144719593E+03  0.79783697001E+02 0.  0.
        -11    1    4    4    0    0  0.35147395150E+02 -0.41064972928E+01 -0.12011358480E+00  0.35386680165E+02  0.00000000000E+00 0.  1.
         12    1    4    4    0    0 -0.12238611221E+02 -0.69884679210E+02 -0.48710988300E+02  0.86060515766E+02  0.00000000000E+00 0. -1.
        -11    1    3    3    0    0  0.27587457153E+02  0.46039070755E+02 -0.25878011144E+02  0.59584690054E+02  0.00000000000E+00 0.  1.
         11    1    3    3    0    0 -0.27109068191E+02  0.17927264205E+02 -0.11827048338E+03  0.12265478229E+03  0.00000000000E+00 0. -1.
         -4    1    1    2    0  502 -0.23387172891E+02  0.10024841543E+02 -0.10654350504E+03  0.10953983645E+03  0.00000000000E+00 0.  1.
<scales pt_clust_5="13000.00000" pt_clust_6="13000.00000" pt_clust_7="13000.00000" pt_clust_8="13000.00000" pt_clust_9="25.44520"></scales>
<clustering>
<clus scale="   25.445">  1  9  2 -1</clus>
<clus scale="   79.784">  5  6 -1 -1</clus>
<clus scale="   91.326">  7  8 -1 -1</clus>
<clus scale="  104.726">  1  5  2 -1</clus>
<clus scale="   25.445">  1  5  2 -1</clus>
</clustering>
</event>
<event>
 9    2  0.1592151E-004  0.3285435E+03  0.7546771E-02  0.1072219E+00
         21   -1    0    0  501  502  0.00000000000E+00  0.00000000000E+00  0.10036963524E+03  0.10036963524E+03  0.00000000000E+00 0. -1.
         -1   -1    0    0    0  501 -0.00000000000E+00 -0.00000000000E+00 -0.13846099374E+04  0.13846099374E+04  0.00000000000E+00 0.  1.
         23    2    1    2    0    0 -0.93210768409E+02 -0.30763797789E+03 -0.82381484498E+03  0.88938231576E+03  0.94871660637E+02 0.  0.
         24    2    1    2    0    0  0.77597259047E+02  0.29463154307E+03 -0.47540899096E+03  0.57034937962E+03  0.80346906374E+02 0.  0.
        -13    1    4    4    0    0 -0.14452201685E+00  0.99497864335E+02 -0.10588629530E+03  0.14529884179E+03  0.00000000000E+00 0.  1.
         14    1    4    4    0    0  0.77741781064E+02  0.19513367874E+03 -0.36952269566E+03  0.42505053783E+03  0.00000000000E+00 0. -1.
        -13    1    3    3    0    0 -0.51529648548E+02 -0.49984694401E+02 -0.22452246986E+03  0.23572041453E+03  0.00000000000E+00 0.  1.
         13    1    3    3    0    0 -0.41681119861E+02 -0.25765328348E+03 -0.59929237512E+03  0.65366190123E+03  0.00000000000E+00 0. -1.
         -2    1    1    2    0  502  0.15613509362E+02  0.13006434813E+02  0.14983533788E+02  0.25247877256E+02  0.00000000000E+00 0.  1.
<scales pt_clust_5="13000.00000" pt_clust_6="13000.00000" pt_clust_7="13000.00000" pt_clust_8="13000.00000" pt_clust_9="20.32115"></scales>
<clustering>
<clus scale="   20.321">  1  9  2 -1</clus>
<clus scale="   80.347">  5  6 -1 -1</clus>
<clus scale="   94.872">  7  8 -1 -1</clus>
<clus scale="  324.647">  1  5  2 -1</clus>
<clus scale="   20.321">  1  5  2 -1</clus>
</clustering>
</event>
<event>
 9    2  0.1592151E-004  0.1880937E+03  0.7546771E-02  0.1160398E+00
          2   -1    0    0  502    0 -0.00000000000E+00  0.00000000000E+00  0.49534328544E+02  0.49534328544E+02  0.00000000000E+00 0. -1.
         21   -1    0    0  501  502  0.00000000000E+00 -0.00000000000E+00 -0.10198142066E+04  0.10198142066E+04  0.00000000000E+00 0. -1.
         23    2    1    2    0    0 -0.14999950556E+03 -0.56700575055E+02 -0.24598401571E+03  0.30757149701E+03  0.91527498080E+02 0.  0.
         24    2    1    2    0    0  0.15133012884E+03  0.84097773055E+02 -0.51461636876E+03  0.55031104312E+03  0.89660436444E+02 0.  0.
        -13    1    4    4    0    0  0.14156493374E+03  0.60098064009E+02 -0.49342882771E+03  0.51684080313E+03  0.00000000000E+00 0.  1.
         14    1    4    4    0    0  0.97651951065E+01  0.23999709046E+02 -0.21187541042E+02  0.33470239993E+02  0.00000000000E+00 0. -1.
        -11    1    3    3    0    0 -0.31437326442E+02  0.25069936919E+02 -0.45569657199E+02  0.60773356730E+02  0.00000000000E+00 0.  1.
         11    1    3    3    0    0 -0.11856217912E+03 -0.81770511974E+02 -0.20041435852E+03  0.24679814028E+03  0.00000000000E+00 0. -1.
          1    1    1    2  501    0 -0.13306232811E+01 -0.27397197999E+02 -0.20967949358E+03  0.21146599501E+03  0.00000000000E+00 0. -1.
<scales pt_clust_5="13000.00000" pt_clust_6="13000.00000" pt_clust_7="13000.00000" pt_clust_8="13000.00000" pt_clust_9="27.42949"></scales>
<clustering>
<clus scale="   27.429">  2  9  1 -1</clus>
<clus scale="   89.660">  5  6 -1 -1</clus>
<clus scale="   91.527">  7  8 -1 -1</clus>
<clus scale="  187.192">  2  5  1 -1</clus>
<clus scale="   27.429">  2  5  1 -1</clus>
</clustering>
</event>
<event>
 9    2  0.1592151E-004  0.2981942E+03  0.7546771E-02  0.1090234E+00
         21   -1    0    0  501  502  0.00000000000E+00  0.00000000000E+00  0.19991986258E+03  0.19991986258E+03  0.00000000000E+00 0. -1.
          2   -1    0    0  502    0 -0.00000000000E+00 -0.00000000000E+00 -0.12030814363E+04  0.12030814363E+04  0.00000000000E+00 0. -1.
         23    2    1    2    0    0 -0.13575076960E+03 -0.21172695243E+03 -0.37016468935E+03  0.45673525559E+03  0.91261287641E+02 0.  0.
         24    2    1    2    0    0 -0.10546499008E+03  0.35619262340E+03 -0.51784833418E+03  0.64243292888E+03  0.80976056911E+02 0.  0.
        -13    1    4    4    0    0 -0.17135556009E+01  0.94451928662E+02 -0.91563107655E+02  0.13155951423E+03  0.00000000000E+00 0.  1.
         14    1    4    4    0    0 -0.10375143448E+03  0.26174069474E+03 -0.42628522653E+03  0.51087341465E+03  0.00000000000E+00 0. -1.
        -11    1    3    3    0    0 -0.41752852350E+02 -0.24047480504E+02 -0.29199771151E+02  0.56340115666E+02  0.00000000000E+00 0.  1.
         11    1    3    3    0    0 -0.93997917253E+02 -0.18767947192E+03 -0.34096491820E+03  0.40039513992E+03  0.00000000000E+00 0. -1.
          1    1    1    2  501    0  0.24121575969E+03 -0.14446567097E+03 -0.11514855020E+03  0.30383311443E+03  0.00000000000E+00 0. -1.
<scales pt_clust_5="13000.00000" pt_clust_6="13000.00000" pt_clust_7="13000.00000" pt_clust_8="13000.00000" pt_clust_9="286.98899"></scales>
<clustering>
<clus scale="   80.976">  5  6 -1 -1</clus>
<clus scale="   91.261">  7  8 -1 -1</clus>
<clus scale="  267.554">  2  7  1 -1</clus>
<clus scale="  286.989">  1  9  2 -1</clus>
<clus scale="  286.989">  1  5  2 -1</clus>
</clustering>
</event>
<event>
 9    2  0.1592151E-004  0.1425021E+03  0.7546771E-02  0.1212318E+00
          2   -1    0    0  502    0 -0.00000000000E+00  0.00000000000E+00  0.68084004785E+03  0.68084004785E+03  0.00000000000E+00 0. -1.
         21   -1    0    0  501  502  0.00000000000E+00 -0.00000000000E+00 -0.65871201742E+02  0.65871201742E+02  0.00000000000E+00 0. -1.
         23    2    1    2    0    0  0.77743714443E+02  0.97614838498E+02  0.27116299556E+03  0.31179669126E+03  0.90083653851E+02 0.  0.
         24    2    1    2    0    0  0.36974418226E+02 -0.11835593841E+03  0.15958971036E+03  0.21690990357E+03  0.78776867519E+02 0.  0.
        -11    1    4    4    0    0  0.12356965471E+02 -0.85344417030E+02  0.15240157261E+03  0.17510740546E+03  0.00000000000E+00 0.  1.
         12    1    4    4    0    0  0.24617452755E+02 -0.33011521380E+02  0.71881377470E+01  0.41802498110E+02  0.00000000000E+00 0. -1.
        -11    1    3    3    0    0  0.32538867440E+02 -0.11598285908E+02  0.46373148867E+02  0.57825315098E+02  0.00000000000E+00 0.  1.
         11    1    3    3    0    0  0.45204847003E+02  0.10921312441E+03  0.22478984669E+03  0.25397137616E+03  0.00000000000E+00 0. -1.
          1    1    1    2  501    0 -0.11471813267E+03  0.20741099911E+02  0.18421614020E+03  0.21800465476E+03  0.00000000000E+00 0. -1.
<scales pt_clust_5="13000.00000" pt_clust_6="13000.00000" pt_clust_7="13000.00000" pt_clust_8="13000.00000" pt_clust_9="116.57811"></scales>
<clustering>
<clus scale="   78.777">  5  6 -1 -1</clus>
<clus scale="   90.084">  7  8 -1 -1</clus>
<clus scale="  116.578">  2  9  1 -1</clus>
<clus scale="  135.638">  2  5  1 -1</clus>
<clus scale="  116.578">  2  5  1 -1</clus>
</clustering>
</event>
<event>
 9    2  0.1592151E-004  0.1070191E+03  0.7546771E-02  0.1269980E+00
         21   -1    0    0  501  502  0.00000000000E+00  0.00000000000E+00  0.97488327960E+02  0.97488327960E+02  0.00000000000E+00 0. -1.
          2   -1    0    0  502    0 -0.00000000000E+00 -0.00000000000E+00 -0.24183090026E+03  0.24183090026E+03  0.00000000000E+00 0. -1.
         24    2    1    2    0    0  0.36221036298E+02 -0.82745515736E+02 -0.11294202264E+03  0.16594436784E+03  0.81380887772E+02 0.  0.
         23    2    1    2    0    0 -0.15799260879E+02  0.96240293932E+01 -0.31096427251E+02  0.97454552375E+02  0.90488471115E+02 0.  0.
        -11    1    3    3    0    0  0.37741949365E+02 -0.55790076026E+01 -0.14410903739E+02  0.40783013795E+02  0.00000000000E+00 0.  1.
         12    1    3    3    0    0 -0.15209130662E+01 -0.77166508133E+02 -0.98531118906E+02  0.12516135405E+03  0.00000000000E+00 0. -1.
        -13    1    4    4    0    0 -0.25235862173E+02  0.32352977249E+02 -0.51245662154E+02  0.65648166510E+02  0.00000000000E+00 0.  1.
         13    1    4    4    0    0  0.94366012936E+01 -0.22728947856E+02  0.20149234903E+02  0.31806385865E+02  0.00000000000E+00 0. -1.
          1    1    1    2  501    0 -0.20421775419E+02  0.73121486342E+02 -0.30412240050E+00  0.75920307999E+02  0.00000000000E+00 0. -1.
<scales pt_clust_5="13000.00000" pt_clust_6="13000.00000" pt_clust_7="13000.00000" pt_clust_8="13000.00000" pt_clust_9="75.91970"></scales>
<clustering>
<clus scale="   75.920">  1  9  2 -1</clus>
<clus scale="   81.381">  5  6 -1 -1</clus>
<clus scale="   90.488">  7  8 -1 -1</clus>
<clus scale="   99.437">  2  5  1 -1</clus>
<clus scale="   75.920">  1  5  2 -1</clus>
</clustering>
</event>
<event>
 9    2  0.1592151E-004  0.1341112E+03  0.7546771E-02  0.1222847E+00
         21   -1    0    0  501  502  0.00000000000E+00  0.00000000000E+00  0.48563479927E+03  0.48563479927E+03  0.00000000000E+00 0. -1.
         -1   -1    0    0    0  501 -0.00000000000E+00 -0.00000000000E+00 -0.64745733300E+02  0.64745733300E+02  0.00000000000E+00 0.  1.
         23    2    1    2    0    0  0.40420813009E+02 -0.98212749482E+02  0.13593821806E+03  0.19583761232E+03  0.92701591056E+02 0.  0.
         24    2    1    2    0    0 -0.32293730023E+02  0.72594589117E+02  0.30097482879E+03  0.32325222544E+03  0.87139510676E+02 0.  0.
        -11    1    4    4    0    0  0.12807028031E+02  0.22996158118E+02  0.16683476758E+02  0.31163787509E+02  0.00000000000E+00 0.  1.
         12    1    4    4    0    0 -0.45100758054E+02  0.49598430999E+02  0.28429135203E+03  0.29208843793E+03  0.00000000000E+00 0. -1.
        -11    1    3    3    0    0 -0.13038004802E+02 -0.65238724212E+02  0.30677041190E+02  0.73260914287E+02  0.00000000000E+00 0.  1.
         11    1    3    3    0    0  0.53458817811E+02 -0.32974025270E+02  0.10526117687E+03  0.12257669803E+03  0.00000000000E+00 0. -1.
         -2    1    1    2    0  502 -0.81270829866E+01  0.25618160365E+02 -0.16023980880E+02  0.31290694808E+02  0.00000000000E+00 0.  1.
<scales pt_clust_5="13000.00000" pt_clust_6="13000.00000" pt_clust_7="13000.00000" pt_clust_8="13000.00000" pt_clust_9="26.87639"></scales>
<clustering>
<clus scale="   26.876">  1  9  2 -1</clus>
<clus scale="   87.140">  5  6 -1 -1</clus>
<clus scale="   92.702">  7  8 -1 -1</clus>
<clus scale="  130.329">  1  5  2 -1</clus>
<clus scale="   26.876">  1  5  2 -1</clus>
</clustering>
</event>
<event>
 9    2  0.1592151E-004  0.1396357E+03  0.7546771E-02  0.1215871E+00
         -1   -1    0    0    0  501 -0.00000000000E+00  0.00000000000E+00  0.20117319701E+03  0.20117319701E+03  0.00000000000E+00 0.  1.
         21   -1    0    0  501  502  0.00000000000E+00 -0.00000000000E+00 -0.19285243018E+03  0.19285243018E+03  0.00000000000E+00 0.  1.
         23    2    1    2    0    0 -0.84779654007E+02  0.86022669013E+02  0.12244970923E+03  0.19430439977E+03  0.90403424493E+02 0.  0.
         24    2    1    2    0    0  0.46556989341E+02 -0.40568727682E+02 -0.89051316728E+02  0.13525480061E+03  0.80934227331E+02 0.  0.
        -11    1    4    4    0    0  0.53241054621E+02  0.37944304086E+01 -0.65789943656E+02  0.84719090443E+02  0.00000000000E+00 0.  1.
         12    1    4    4    0    0 -0.66840652799E+01 -0.44363158091E+02 -0.23261373072E+02  0.50535710162E+02  0.00000000000E+00 0. -1.
        -11    1    3    3    0    0 -0.56030174696E+02  0.26413460692E+02  0.11103832505E+03  0.12714779200E+03  0.00000000000E+00 0.  1.
         11    1    3    3    0    0 -0.28749479310E+02  0.59609208321E+02  0.11411384187E+02  0.67156607763E+02  0.00000000000E+00 0. -1.
         -2    1    1    2    0  502  0.38222664666E+02 -0.45453941331E+02 -0.25077625677E+02  0.64466426815E+02  0.00000000000E+00 0.  1.
<scales pt_clust_5="13000.00000" pt_clust_6="13000.00000" pt_clust_7="13000.00000" pt_clust_8="13000.00000" pt_clust_9="59.38883"></scales>
<clustering>
<clus scale="   59.389">  2  9  1 -1</clus>
<clus scale="   80.934">  5  6 -1 -1</clus>
<clus scale="   90.403">  7  8 -1 -1</clus>
<clus scale="  133.700">  2  5  1 -1</clus>
<clus scale="   59.389">  2  5  1 -1</clus>
</clustering>
</event>
<event>
 9    2  0.1592151E-004  0.1292251E+03  0.7546771E-02  0.1232341E+00
         21   -1    0    0  501  502  0.00000000000E+00  0.00000000000E+00  0.22633339839E+03  0.22633339839E+03  0.00000000000E+00 0. -1.
          2   -1    0    0  502    0 -0.00000000000E+00 -0.00000000000E+00 -0.42022012960E+03  0.42022012960E+03  0.00000000000E+00 0. -1.
         23    2    1    2    0    0 -0.90680622264E+02  0.55678746406E+02  0.26293883260E+02  0.14365867470E+03  0.92861986104E+02 0.  0.
         24    2    1    2    0    0  0.39776495485E+02 -0.52723714026E+02  0.12045355916E+03  0.15846546635E+03  0.78995471375E+02 0.  0.
        -13    1    4    4    0    0 -0.78179895028E+01 -0.20683734488E+02  0.91625786714E+02  0.94256154299E+02  0.00000000000E+00 0.  1.
         14    1    4    4    0    0  0.47594484988E+02 -0.32039979538E+02  0.28827772448E+02  0.64209312054E+02  0.00000000000E+00 0. -1.
        -11    1    3    3    0    0 -0.24472182232E+02  0.58153803164E+02 -0.15955548202E+02  0.65079428732E+02  0.00000000000E+00 0.  1.
         11    1    3    3    0    0 -0.66208440032E+02 -0.24750567587E+01  0.42249431462E+02  0.78579245964E+02  0.00000000000E+00 0. -1.
          1    1    1    2  501    0  0.50904126779E+02 -0.29550323797E+01 -0.34063417363E+03  0.34442938694E+03  0.00000000000E+00 0. -1.
<scales pt_clust_5="13000.00000" pt_clust_6="13000.00000" pt_clust_7="13000.00000" pt_clust_8="13000.00000" pt_clust_9="50.98985"></scales>
<clustering>
<clus scale="   50.990">  1  9  2 -1</clus>
<clus scale="   78.995">  5  6 -1 -1</clus>
<clus scale="   92.862">  7  8 -1 -1</clus>
<clus scale="  119.650">  1  5  2 -1</clus>
<clus scale="   50.990">  1  5  2 -1</clus>
</clustering>
</event>
<event>
 9    2  0.1592151E-004  0.1452575E+03  0.7546771E-02  0.1209104E+00
         -1   -1    0    0    0  501 -0.00000000000E+00  0.00000000000E+00  0.10218832918E+03  0.10218832918E+03  0.00000000000E+00 0.  1.
         21   -1    0    0  501  502  0.00000000000E+00 -0.00000000000E+00 -0.31209727986E+03  0.31209727986E+03  0.00000000000E+00 0. -1.
         24    2    1    2    0    0  0.10350035647E+02 -0.11619704095E+03 -0.55423440800E+01  0.14179391384E+03  0.80410949883E+02 0.  0.
         23    2    1    2    0    0 -0.43956219045E+02  0.91630250728E+02 -0.16502400796E+03  0.21521392627E+03  0.93572746129E+02 0.  0.
        -13    1    3    3    0    0  0.12141888557E+01 -0.94870617761E+02  0.29860291857E+02  0.99466302830E+02  0.00000000000E+00 0.  1.
         14    1    3    3    0    0  0.91358467909E+01 -0.21326423188E+02 -0.35402635937E+02  0.42327611011E+02  0.00000000000E+00 0. -1.
        -13    1    4    4    0    0 -0.36788588553E+02  0.55120532762E+02 -0.16521123177E+03  0.17800681021E+03  0.00000000000E+00 0. -1.
         13    1    4    4    0    0 -0.71676304921E+01  0.36509717966E+02  0.18722381023E+00  0.37207116061E+02  0.00000000000E+00 0.  1.
         -2    1    1    2    0  502  0.33606183399E+02  0.24566790221E+02 -0.39342598649E+02  0.57277768923E+02  0.00000000000E+00 0.  1.
<scales pt_clust_5="13000.00000" pt_clust_6="13000.00000" pt_clust_7="13000.00000" pt_clust_8="13000.00000" pt_clust_9="41.62815"></scales>
<clustering>
<clus scale="   41.628">  2  9  1 -1</clus>
<clus scale="   80.411">  5  6 -1 -1</clus>
<clus scale="   93.573">  7  8 -1 -1</clus>
<clus scale="  137.149">  1  5  2 -1</clus>
<clus scale="   41.628">  2  5  1 -1</clus>
</clustering>
</event>
<event>
 9    2  0.1592151E-004  0.2671079E+03  0.7546771E-02  0.1103231E+00
         -1   -1    0    0    0  501 -0.00000000000E+00  0.00000000000E+00  0.22464128039E+03  0.22464128039E+03  0.00000000000E+00 0.  1.
         21   -1    0    0  501  502  0.00000000000E+00 -0.00000000000E+00 -0.41628307451E+03  0.41628307451E+03  0.00000000000E+00 0.  1.
         23    2    1    2    0    0 -0.20135175445E+03  0.15260381773E+03  0.19920168489E+02  0.26794410885E+03  0.86987229806E+02 0.  0.
         24    2    1    2    0    0  0.17785211312E+03 -0.18157119448E+03 -0.16615056183E+03  0.31421344098E+03  0.80775023911E+02 0.  0.
        -13    1    4    4    0    0  0.14419335820E+03 -0.17293400912E+03 -0.16552701347E+03  0.27945856266E+03  0.00000000000E+00 0.  1.
         14    1    4    4    0    0  0.33658754928E+02 -0.86371853622E+01 -0.62354836179E+00  0.34754878317E+02  0.00000000000E+00 0. -1.
        -11    1    3    3    0    0 -0.99918023875E+02  0.12808114443E+03  0.19289174280E+02  0.16358625645E+03  0.00000000000E+00 0.  1.
         11    1    3    3    0    0 -0.10143373058E+03  0.24522673294E+02  0.63099420841E+00  0.10435785240E+03  0.00000000000E+00 0. -1.
         -2    1    1    2    0  502  0.23499641328E+02  0.28967376752E+02 -0.45411400776E+02  0.58766805076E+02  0.00000000000E+00 0.  1.
<scales pt_clust_5="13000.00000" pt_clust_6="13000.00000" pt_clust_7="13000.00000" pt_clust_8="13000.00000" pt_clust_9="37.30070"></scales>
<clustering>
<clus scale="   37.301">  2  9  1 -1</clus>
<clus scale="   80.775">  5  6 -1 -1</clus>
<clus scale="   86.987">  7  8 -1 -1</clus>
<clus scale="  265.150">  2  5  1 -1</clus>
<clus scale="   37.301">  2  5  1 -1</clus>
</clustering>
</event>
<event>
 9    2  0.1592151E-004  0.1113657E+03  0.7546771E-02  0.1261641E+00
          2   -1    0    0  502    0 -0.00000000000E+00  0.00000000000E+00  0.58424219184E+03  0.58424219184E+03  0.00000000000E+00 0. -1.
         21   -1    0    0  501  502  0.00000000000E+00 -0.00000000000E+00 -0.55119019181E+02  0.55119019181E+02  0.00000000000E+00 0. -1.
         24    2    1    2    0    0  0.33301396746E+02  0.63115619624E+02  0.40072295806E+03  0.41504528397E+03  0.81185800286E+02 0.  0.
         23    2    1    2    0    0 -0.21311383471E+02 -0.16077503140E+02  0.84151690543E+01  0.94883489167E+02  0.90660908189E+02 0.  0.
        -13    1    3    3    0    0  0.57283770697E+02  0.54801199796E+02  0.34206222510E+03  0.35112842056E+03  0.00000000000E+00 0.  1.
         14    1    3    3    0    0 -0.23982373952E+02  0.83144198280E+01  0.58660732953E+02  0.63916863409E+02  0.00000000000E+00 0. -1.
        -13    1    4    4    0    0 -0.80738153368E+01 -0.42080897908E+02  0.35064057163E+02  0.55366746045E+02  0.00000000000E+00 0.  1.
         13    1    4    4    0    0 -0.13237568134E+02  0.26003394768E+02 -0.26648888109E+02  0.39516743123E+02  0.00000000000E+00 0. -1.
          1    1    1    2  501    0 -0.11990013275E+02 -0.47038116484E+02  0.11998504555E+03  0.12943243788E+03  0.00000000000E+00 0. -1.
<scales pt_clust_5="13000.00000" pt_clust_6="13000.00000" pt_clust_7="13000.00000" pt_clust_8="13000.00000" pt_clust_9="48.54222"></scales>
<clustering>
<clus scale="   48.542">  2  9  1 -1</clus>
<clus scale="   81.186">  5  6 -1 -1</clus>
<clus scale="   90.661">  7  8 -1 -1</clus>
<clus scale="  103.798">  1  5  2 -1</clus>
<clus scale="   48.542">  2  5  1 -1</clus>
</clustering>
</event>
<event>
 9    2  0.1592151E-004  0.1006570E+03  0.7546771E-02  0.1285524E+00
         21   -1    0    0  501  502  0.00000000000E+00  0.00000000000E+00  0.29765830047E+02  0.29765830047E+02  0.00000000000E+00 0.  1.
          2   -1    0    0  502    0 -0.00000000000E+00 -0.00000000000E+00 -0.50656542775E+03  0.50656542775E+03  0.00000000000E+00 0. -1.
         24    2    1    2    0    0  0.33388268525E+02  0.52878767128E+01 -0.25375049258E+03  0.26810063254E+03  0.79661148414E+02 0.  0.
         23    2    1    2    0    0 -0.40445179621E+02 -0.43529318540E+02 -0.16413580866E+03  0.19764036837E+03  0.92685151989E+02 0.  0.
        -11    1    3    3    0    0 -0.22585984936E+02  0.14352566392E+02 -0.51315116666E+02  0.57873690707E+02  0.00000000000E+00 0.  1.
         12    1    3    3    0    0  0.55974253461E+02 -0.90646896795E+01 -0.20243537592E+03  0.21022694183E+03  0.00000000000E+00 0. -1.
        -11    1    4    4    0    0 -0.16773795340E+02 -0.27611040734E+02 -0.16594175669E+03  0.16905737605E+03  0.00000000000E+00 0. -1.
         11    1    4    4    0    0 -0.23671384280E+02 -0.15918277805E+02  0.18059480360E+01  0.28582992327E+02  0.00000000000E+00 0.  1.
          1    1    1    2  501    0  0.70569110955E+01  0.38241441827E+02 -0.58913296460E+02  0.70590256884E+02  0.00000000000E+00 0. -1.
<scales pt_clust_5="13000.00000" pt_clust_6="13000.00000" pt_clust_7="13000.00000" pt_clust_8="13000.00000" pt_clust_9="38.88712"></scales>
<clustering>
<clus scale="   38.887">  1  9  2 -1</clus>
<clus scale="   79.661">  5  6 -1 -1</clus>
<clus scale="   88.810">  2  5  1 -1</clus>
<clus scale="   92.685">  7  8 -1 -1</clus>
<clus scale="   38.887">  1  5  2 -1</clus>
</clustering>
</event>
<event>
 9    2  0.1592151E-004  0.1858915E+03  0.7546771E-02  0.1175002E+00
         21   -1    0    0  501  502  0.00000000000E+00  0.00000000000E+00  0.23022657494E+03  0.23022657494E+03  0.00000000000E+00 0.  1.
          2   -1    0    0  502    0 -0.00000000000E+00 -0.00000000000E+00 -0.65714881151E+03  0.65714881151E+03  0.00000000000E+00 0. -1.
         24    2    1    2    0    0  0.99499122605E+02  0.58241251907E+02  0.13915360839E+03  0.19644868510E+03  0.77047000760E+02 0.  0.
         23    2    1    2    0    0  0.75748193267E+02 -0.13764101498E+03 -0.16588847193E+03  0.24689305664E+03  0.93564728980E+02 0.  0.
        -11    1    3    3    0    0  0.97468304013E+02  0.19208987379E+02  0.10494261227E+03  0.14450608068E+03  0.00000000000E+00 0.  1.
         12    1    3    3    0    0  0.20308185925E+01  0.39032264528E+02  0.34210996119E+02  0.51942604419E+02  0.00000000000E+00 0. -1.
        -13    1    4    4    0    0 -0.21291590507E+02 -0.35053658488E+02 -0.29067341567E+02  0.50269286303E+02  0.00000000000E+00 0.  1.
         13    1    4    4    0    0  0.97039783774E+02 -0.10258735649E+03 -0.13682113036E+03  0.19662377034E+03  0.00000000000E+00 0. -1.
          1    1    1    2  501    0 -0.17524731587E+03  0.79399763076E+02 -0.40018737304E+03  0.44403364471E+03  0.00000000000E+00 0. -1.
<scales pt_clust_5="13000.00000" pt_clust_6="13000.00000" pt_clust_7="13000.00000" pt_clust_8="13000.00000" pt_clust_9="160.62790"></scales>
<clustering>
<clus scale="   77.047">  5  6 -1 -1</clus>
<clus scale="   93.565">  7  8 -1 -1</clus>
<clus scale="  138.666">  2  5  1 -1</clus>
<clus scale="  160.628">  1  9  2 -1</clus>
<clus scale="  160.628">  1  5  2 -1</clus>
</clustering>
</event>
<event>
 9    2  0.1592151E-004  0.2887837E+03  0.7546771E-02  0.1091583E+00
         21   -1    0    0  501  502  0.00000000000E+00  0.00000000000E+00  0.15947692543E+04  0.15947692543E+04  0.00000000000E+00 0.  1.
         -1   -1    0    0    0  501 -0.00000000000E+00 -0.00000000000E+00 -0.73521255668E+02  0.73521255668E+02  0.00000000000E+00 0.  1.
         24    2    1    2    0    0  0.37933670886E+02 -0.26914146319E+03  0.56204835778E+03  0.62886893331E+03  0.75509523914E+02 0.  0.
         23    2    1    2    0    0 -0.67895237294E+02  0.27037556954E+03  0.96526329551E+03  0.10088276821E+04  0.91034887010E+02 0.  0.
        -13    1    3    3    0    0  0.50825768143E+02 -0.19768441274E+03  0.35550900246E+03  0.40993784477E+03  0.00000000000E+00 0.  1.
         14    1    3    3    0    0 -0.12892097256E+02 -0.71457050449E+02  0.20653935532E+03  0.21893108853E+03  0.00000000000E+00 0. -1.
        -13    1    4    4    0    0 -0.17737714850E+02  0.21642783921E+03  0.77346830487E+03  0.80337342174E+03  0.00000000000E+00 0.  1.
         13    1    4    4    0    0 -0.50157522443E+02  0.53947730328E+02  0.19179499064E+03  0.20545426036E+03  0.00000000000E+00 0. -1.
         -2    1    1    2    0  502  0.29961566407E+02 -0.12341063522E+01 -0.60636546138E+01  0.30593894609E+02  0.00000000000E+00 0.  1.
<scales pt_clust_5="13000.00000" pt_clust_6="13000.00000" pt_clust_7="13000.00000" pt_clust_8="13000.00000" pt_clust_9="29.98699"></scales>
<clustering>
<clus scale="   29.987">  1  9  2 -1</clus>
<clus scale="   75.510">  5  6 -1 -1</clus>
<clus scale="   91.035">  7  8 -1 -1</clus>
<clus scale="  284.272">  2  5  1 -1</clus>
<clus scale="   29.987">  1  5  2 -1</clus>
</clustering>
</event>
<event>
 9    2  0.1592151E-004  0.1041552E+03  0.7546771E-02  0.1272958E+00
         21   -1    0    0  501  502  0.00000000000E+00  0.00000000000E+00  0.11162909584E+03  0.11162909584E+03  0.00000000000E+00 0.  1.
          2   -1    0    0  502    0 -0.00000000000E+00 -0.00000000000E+00 -0.14124968430E+03  0.14124968430E+03  0.00000000000E+00 0. -1.
         23    2    1    2    0    0  0.37340981316E+01 -0.55578650065E+02 -0.58192963387E+02  0.12242443450E+03  0.92186719996E+02 0.  0.
         24    2    1    2    0    0 -0.19661559109E+02  0.31393300495E+02  0.29997105642E+02  0.10146046690E+03  0.89567202553E+02 0.  0.
        -13    1    4    4    0    0 -0.18056630400E+01 -0.31103563771E+02  0.15788079697E+02  0.34927862213E+02  0.00000000000E+00 0.  1.
         14    1    4    4    0    0 -0.17855896069E+02  0.62496864266E+02  0.14209025946E+02  0.66532604683E+02  0.00000000000E+00 0. -1.
        -13    1    3    3    0    0  0.20255075236E+02 -0.73026652494E+02 -0.21875888638E+02  0.78877845755E+02  0.00000000000E+00 0. -1.
         13    1    3    3    0    0 -0.16520977104E+02  0.17448002429E+02 -0.36317074749E+02  0.43546588747E+02  0.00000000000E+00 0.  1.
          1    1    1    2  501    0  0.15927460977E+02  0.24185349569E+02 -0.14247307202E+01  0.28993878744E+02  0.00000000000E+00 0. -1.
<scales pt_clust_5="13000.00000" pt_clust_6="13000.00000" pt_clust_7="13000.00000" pt_clust_8="13000.00000" pt_clust_9="28.95885"></scales>
<clustering>
<clus scale="   28.959">  1  9  2 -1</clus>
<clus scale="   89.567">  5  6 -1 -1</clus>
<clus scale="   92.187">  7  8 -1 -1</clus>
<clus scale="  101.844">  1  5  2 -1</clus>
<clus scale="   28.959">  1  5  2 -1</clus>
</clustering>
</event>
<event>
 9    2  0.1592151E-004  0.1159465E+03  0.7546771E-02  0.1253320E+00
         21   -1    0    0  501  502  0.00000000000E+00  0.00000000000E+00  0.68567211967E+02  0.68567211967E+02  0.00000000000E+00 0.  1.
          2   -1    0    0  502    0 -0.00000000000E+00 -0.00000000000E+00 -0.55373273410E+03  0.55373273410E+03  0.00000000000E+00 0. -1.
         24    2    1    2    0    0  0.93007816929E+01  0.83990093591E+02 -0.23548212157E+03  0.26315114600E+03  0.81583427847E+02 0.  0.
         23    2    1    2    0    0 -0.75196072604E+02 -0.12098628182E+02 -0.36039972839E+02  0.12429972859E+03  0.91382256195E+02 0.  0.
        -11    1    3    3    0    0  0.37383949020E+02  0.80723129183E+02 -0.17145025530E+03  0.19315530868E+03  0.00000000000E+00 0.  1.
         12    1    3    3    0    0 -0.28083167327E+02  0.32669644079E+01 -0.64031866270E+02  0.69995837316E+02  0.00000000000E+00 0. -1.
        -11    1    4    4    0    0 -0.75569220945E+02  0.25381351332E+02 -0.34282296407E+02  0.86776701923E+02  0.00000000000E+00 0.  1.
         11    1    4    4    0    0  0.37314834179E+00 -0.37479979514E+02 -0.17576764317E+01  0.37523026670E+02  0.00000000000E+00 0. -1.
          1    1    1    2  501    0  0.65895290911E+02 -0.71891465409E+02 -0.21364342772E+03  0.23484907147E+03  0.00000000000E+00 0. -1.
<scales pt_clust_5="13000.00000" pt_clust_6="13000.00000" pt_clust_7="13000.00000" pt_clust_8="13000.00000" pt_clust_9="97.52221"></scales>
<clustering>
<clus scale="   81.583">  5  6 -1 -1</clus>
<clus scale="   91.382">  7  8 -1 -1</clus>
<clus scale="   97.522">  1  9  2 -1</clus>
<clus scale="  108.392">  2  5  1 -1</clus>
<clus scale="   97.522">  1  5  2 -1</clus>
</clustering>
</event>
<event>
 9    2  0.1592151E-004  0.4033739E+03  0.7546771E-02  0.1042683E+00
          2   -1    0    0  502    0 -0.00000000000E+00  0.00000000000E+00  0.17645562423E+04  0.17645562423E+04  0.00000000000E+00 0. -1.
         21   -1    0    0  501  502  0.00000000000E+00 -0.00000000000E+00 -0.12318933166E+03  0.12318933166E+03  0.00000000000E+00 0.  1.
         23    2    1    2    0    0  0.41977815871E+03  0.15750984105E+03  0.90770424293E+03  0.10164688837E+04  0.90878745399E+02 0.  0.
         24    2    1    2    0    0 -0.30414159945E+03 -0.14510318470E+03  0.48778272738E+03  0.59927910935E+03  0.87443782169E+02 0.  0.
        -11    1    4    4    0    0 -0.10930615171E+03 -0.24051610116E+02  0.10757045197E+03  0.15523439338E+03  0.00000000000E+00 0.  1.
         12    1    4    4    0    0 -0.19483544775E+03 -0.12105157458E+03  0.38021227541E+03  0.44404471597E+03  0.00000000000E+00 0. -1.
        -11    1    3    3    0    0  0.81210134894E+02 -0.60465264599E+00  0.20689954279E+03  0.22226756943E+03  0.00000000000E+00 0.  1.
         11    1    3    3    0    0  0.33856802382E+03  0.15811449369E+03  0.70080470014E+03  0.79420131428E+03  0.00000000000E+00 0. -1.
          1    1    1    2  501    0 -0.11563655926E+03 -0.12406656351E+02  0.24587994033E+03  0.27199758091E+03  0.00000000000E+00 0. -1.
<scales pt_clust_5="13000.00000" pt_clust_6="13000.00000" pt_clust_7="13000.00000" pt_clust_8="13000.00000" pt_clust_9="116.30027"></scales>
<clustering>
<clus scale="   87.444">  5  6 -1 -1</clus>
<clus scale="   90.879">  7  8 -1 -1</clus>
<clus scale="  116.300">  2  9  1 -1</clus>
<clus scale="  402.614">  2  5  1 -1</clus>
<clus scale="  116.300">  2  5  1 -1</clus>
</clustering>
</event>
<event>
 9    2  0.1592151E-004  0.1119348E+03  0.7546771E-02  0.1262439E+00
         21   -1    0    0  501  502  0.00000000000E+00  0.00000000000E+00  0.17492444663E+02  0.17492444663E+02  0.00000000000E+00 0. -1.
          2   -1    0    0  502    0 -0.00000000000E+00 -0.00000000000E+00 -0.12009126689E+04  0.12009126689E+04  0.00000000000E+00 0. -1.
         24    2    1    2    0    0  0.21646893026E+00 -0.73470620676E+02 -0.53321754187E+03  0.54434080126E+03  0.81166384623E+02 0.  0.
         23    2    1    2    0    0  0.36477998580E+02  0.30811822818E+02 -0.27703782573E+03  0.29668086380E+03  0.94813317904E+02 0.  0.
        -13    1    3    3    0    0 -0.18374517161E+02  0.10560820093E+02 -0.67879358696E+02  0.71110907313E+02  0.00000000000E+00 0.  1.
         14    1    3    3    0    0  0.18590986091E+02 -0.84031440768E+02 -0.46533818317E+03  0.47322989394E+03  0.00000000000E+00 0. -1.
        -13    1    4    4    0    0 -0.28592998235E+02  0.25803627774E+02 -0.74171438275E+02  0.83575050165E+02  0.00000000000E+00 0.  1.
         13    1    4    4    0    0  0.65070996815E+02  0.50081950439E+01 -0.20286638746E+03  0.21310581363E+03  0.00000000000E+00 0. -1.
          1    1    1    2  501    0 -0.36694467510E+02  0.42658797858E+02 -0.37316485665E+03  0.37738344852E+03  0.00000000000E+00 0. -1.
<scales pt_clust_5="13000.00000" pt_clust_6="13000.00000" pt_clust_7="13000.00000" pt_clust_8="13000.00000" pt_clust_9="56.26953"></scales>
<clustering>
<clus scale="   56.270">  1  9  2 -1</clus>
<clus scale="   81.166">  5  6 -1 -1</clus>
<clus scale="   94.813">  7  8 -1 -1</clus>
<clus scale="  100.637">  2  5  1 -1</clus>
<clus scale="   56.270">  1  5  2 -1</clus>
</clustering>
</event>
<event>
 9    2  0.1592151E-004  0.1510793E+03  0.7546771E-02  0.1200972E+00
          2   -1    0    0  502    0 -0.00000000000E+00  0.00000000000E+00  0.84136194597E+03  0.84136194597E+03  0.00000000000E+00 0. -1.
         21   -1    0    0  501  502  0.00000000000E+00 -0.00000000000E+00 -0.78694088302E+02  0.78694088302E+02  0.00000000000E+00 0. -1.
         24    2    1    2    0    0 -0.12555226741E+03 -0.18842051192E+02  0.50755000979E+03  0.52929923087E+03  0.80201425297E+02 0.  0.
         23    2    1    2    0    0  0.10608056548E+03 -0.97299806359E+02  0.19454287382E+03  0.25832793293E+03  0.90366213204E+02 0.  0.
        -13    1    3    3    0    0 -0.54331458202E+02 -0.46098990882E+02  0.29500358225E+03  0.30348663537E+03  0.00000000000E+00 0.  1.
         14    1    3    3    0    0 -0.71220809208E+02  0.27256939691E+02  0.21254642754E+03  0.22581259550E+03  0.00000000000E+00 0. -1.
        -13    1    4    4    0    0  0.55658608032E+02 -0.10510813832E+03  0.13560694193E+03  0.18037417800E+03  0.00000000000E+00 0. -1.
         13    1    4    4    0    0  0.50421957449E+02  0.78083319566E+01  0.58935931891E+02  0.77953754937E+02  0.00000000000E+00 0.  1.
          1    1    1    2  501    0  0.19471701930E+02  0.11614185755E+03  0.60574974059E+02  0.13242887047E+03  0.00000000000E+00 0. -1.
<scales pt_clust_5="13000.00000" pt_clust_6="13000.00000" pt_clust_7="13000.00000" pt_clust_8="13000.00000" pt_clust_9="117.76281"></scales>
<clustering>
<clus scale="   80.201">  5  6 -1 -1</clus>
<clus scale="   90.366">  7  8 -1 -1</clus>
<clus scale="  117.763">  2  9  1 -1</clus>
<clus scale="  145.228">  1  5  2 -1</clus>
<clus scale="  117.763">  2  5  1 -1</clus>
</clustering>
</event>
<event>
 9    2  0.1704097E-004  0.1013283E+03  0.7546771E-02  0.1281646E+00
         21   -1    0    0  501  502  0.00000000000E+00  0.00000000000E+00  0.11459529044E+03  0.11459529044E+03  0.00000000000E+00 0.  1.
          4   -1    0    0  502    0 -0.00000000000E+00 -0.00000000000E+00 -0.93625858651E+03  0.93625858651E+03  0.00000000000E+00 0. -1.
         24    2    1    2    0    0 -0.43861771875E+02  0.15563393704E+02 -0.87972227984E+03  0.88471811363E+03  0.81540031217E+02 0.  0.
         23    2    1    2    0    0  0.25241969683E+02 -0.40083879055E+02  0.16968131179E+01  0.10191236015E+03  0.90218488033E+02 0.  0.
        -13    1    3    3    0    0 -0.38279375654E+02 -0.15559617262E+02 -0.19813813952E+03  0.20240092545E+03  0.00000000000E+00 0.  1.
         14    1    3    3    0    0 -0.55823962208E+01  0.31123010966E+02 -0.68158414032E+03  0.68231718818E+03  0.00000000000E+00 0. -1.
        -13    1    4    4    0    0  0.80343626634E+01 -0.64760044313E+02  0.18002350083E+02  0.67694157291E+02  0.00000000000E+00 0.  1.
         13    1    4    4    0    0  0.17207607020E+02  0.24676165258E+02 -0.16305536965E+02  0.34218202859E+02  0.00000000000E+00 0. -1.
          3    1    1    2  501    0  0.18619802192E+02  0.24520485351E+02  0.56362170643E+02  0.64223403173E+02  0.00000000000E+00 0. -1.
<scales pt_clust_5="13000.00000" pt_clust_6="13000.00000" pt_clust_7="13000.00000" pt_clust_8="13000.00000" pt_clust_9="30.78882"></scales>
<clustering>
<clus scale="   30.789">  1  9  2 -1</clus>
<clus scale="   81.540">  5  6 -1 -1</clus>
<clus scale="   90.218">  7  8 -1 -1</clus>
<clus scale="   93.685">  2  5  1 -1</clus>
<clus scale="   30.789">  1  5  2 -1</clus>
</clustering>
</event>
<event>
 9    2  0.1592151E-004  0.1392327E+03  0.7546771E-02  0.1225713E+00
         21   -1    0    0  501  502  0.00000000000E+00  0.00000000000E+00  0.71953184041E+02  0.71953184041E+02  0.00000000000E+00 0. -1.
          2   -1    0    0  502    0 -0.00000000000E+00 -0.00000000000E+00 -0.89461920893E+03  0.89461920893E+03  0.00000000000E+00 0. -1.
         23    2    1    2    0    0 -0.91608989340E+01  0.58785278442E+02 -0.90646134497E+02  0.14231756077E+03  0.92184246883E+02 0.  0.
         24    2    1    2    0    0 -0.91241655057E+02 -0.10818792285E+03 -0.68303299996E+03  0.70210324786E+03  0.79907605104E+02 0.  0.
        -11    1    4    4    0    0  0.63550870574E+01 -0.45986918867E+02 -0.21761719299E+03  0.22251387940E+03  0.00000000000E+00 0.  1.
         12    1    4    4    0    0 -0.97596742114E+02 -0.62201003985E+02 -0.46541580697E+03  0.47958936847E+03  0.00000000000E+00 0. -1.
        -11    1    3    3    0    0 -0.98985032899E+01  0.37401194368E+02  0.95599686959E+01  0.39852511953E+02  0.00000000000E+00 0. -1.
         11    1    3    3    0    0  0.73760435594E+00  0.21384084074E+02 -0.10020610319E+03  0.10246504882E+03  0.00000000000E+00 0.  1.
          1    1    1    2  501    0  0.10040255399E+03  0.49402644410E+02 -0.48986890433E+02  0.12215158434E+03  0.00000000000E+00 0. -1.
<scales pt_clust_5="13000.00000" pt_clust_6="13000.00000" pt_clust_7="13000.00000" pt_clust_8="13000.00000" pt_clust_9="114.01986"></scales>
<clustering>
<clus scale="   79.908">  5  6 -1 -1</clus>
<clus scale="   92.184">  7  8 -1 -1</clus>
<clus scale="  109.716">  2  7  1 -1</clus>
<clus scale="  114.020">  1  9  2 -1</clus>
<clus scale="  114.020">  1  5  2 -1</clus>
</clustering>
</event>
<event>
 9    2  0.1592151E-004  0.1179792E+03  0.7546771E-02  0.1249441E+00
         21   -1    0    0  501  502  0.00000000000E+00  0.00000000000E+00  0.98953090809E+02  0.98953090809E+02  0.00000000000E+00 0. -1.
          2   -1    0    0  502    0 -0.00000000000E+00 -0.00000000000E+00 -0.56966035165E+03  0.56966035165E+03  0.00000000000E+00 0. -1.
         24    2    1    2    0    0 -0.76636324226E+02 -0.18570430874E+02 -0.44534682317E+03  0.46248395054E+03  0.96641732748E+02 0.  0.
         23    2    1    2    0    0  0.41537452317E+02 -0.13414392832E+02 -0.84910066633E+02  0.12996442075E+03  0.88180073522E+02 0.  0.
        -13    1    3    3    0    0 -0.79828773607E+02  0.42715150332E+01 -0.19047994926E+03  0.20657562782E+03  0.00000000000E+00 0.  1.
         14    1    3    3    0    0  0.31924493813E+01 -0.22841945907E+02 -0.25486687390E+03  0.25590832272E+03  0.00000000000E+00 0. -1.
        -11    1    4    4    0    0  0.22984477620E+02  0.33521470035E+02 -0.14124268421E+02  0.43028712776E+02  0.00000000000E+00 0.  1.
         11    1    4    4    0    0  0.18552974697E+02 -0.46935862867E+02 -0.70785798212E+02  0.86935707979E+02  0.00000000000E+00 0. -1.
          1    1    1    2  501    0  0.35098871909E+02  0.31984823705E+02  0.59549628958E+02  0.76165071166E+02  0.00000000000E+00 0. -1.
<scales pt_clust_5="13000.00000" pt_clust_6="13000.00000" pt_clust_7="13000.00000" pt_clust_8="13000.00000" pt_clust_9="47.48642"></scales>
<clustering>
<clus scale="   47.486">  1  9  2 -1</clus>
<clus scale="   88.180">  7  8 -1 -1</clus>
<clus scale="   96.642">  5  6 -1 -1</clus>
<clus scale="  111.154">  1  7  2 -1</clus>
<clus scale="   47.486">  1  5  2 -1</clus>
</clustering>
</event>
<event>
 9    2  0.1592151E-004  0.9314407E+02  0.7546771E-02  0.1303103E+00
         21   -1    0    0  501  502  0.00000000000E+00  0.00000000000E+00  0.46677803920E+02  0.46677803920E+02  0.00000000000E+00 0.  1.
         -1   -1    0    0    0  501 -0.00000000000E+00 -0.00000000000E+00 -0.31286614368E+03  0.31286614368E+03  0.00000000000E+00 0.  1.
         24    2    1    2    0    0  0.86838543641E+01 -0.22095232469E+01 -0.18364324047E+03  0.20078820444E+03  0.80689354629E+02 0.  0.
         23    2    1    2    0    0  0.12832072275E+02 -0.68596456954E+01 -0.26164330542E+02  0.97731354523E+02  0.93032943876E+02 0.  0.
        -13    1    3    3    0    0  0.15808861761E+02 -0.31206111499E+02 -0.15674152518E+03  0.16059778088E+03  0.00000000000E+00 0.  1.
         14    1    3    3    0    0 -0.71250073970E+01  0.28996588252E+02 -0.26901715289E+02  0.40190423562E+02  0.00000000000E+00 0. -1.
        -13    1    4    4    0    0 -0.10693311198E+01  0.37911708953E+02 -0.33102289302E+02  0.50340865128E+02  0.00000000000E+00 0. -1.
         13    1    4    4    0    0  0.13901403395E+02 -0.44771354648E+02  0.69379587603E+01  0.47390489395E+02  0.00000000000E+00 0.  1.
         -2    1    1    2    0  502 -0.21515926639E+02  0.90691689423E+01 -0.56380768747E+02  0.61024388641E+02  0.00000000000E+00 0.  1.
<scales pt_clust_5="13000.00000" pt_clust_6="13000.00000" pt_clust_7="13000.00000" pt_clust_8="13000.00000" pt_clust_9="23.34921"></scales>
<clustering>
<clus scale="   23.349">  1  9  2 -1</clus>
<clus scale="   80.689">  5  6 -1 -1</clus>
<clus scale="   80.817">  2  5  1 -1</clus>
<clus scale="   93.033">  7  8 -1 -1</clus>
<clus scale="   23.349">  1  5  2 -1</clus>
</clustering>
</event>
<event>
 9    2  0.1592151E-004  0.2284403E+03  0.7546771E-02  0.1128514E+00
         21   -1    0    0  501  502  0.00000000000E+00  0.00000000000E+00  0.82433327095E+02  0.82433327095E+02  0.00000000000E+00 0.  1.
          2   -1    0    0  502    0 -0.00000000000E+00 -0.00000000000E+00 -0.93116947385E+03  0.93116947385E+03  0.00000000000E+00 0. -1.
         24    2    1    2    0    0  0.17695159549E+03  0.12395910667E+03 -0.60686454523E+03  0.64905783918E+03  0.79459266801E+02 0.  0.
         23    2    1    2    0    0 -0.17136764914E+03 -0.98773407564E+02 -0.25526572444E+03  0.33547775645E+03  0.90893771958E+02 0.  0.
        -13    1    3    3    0    0  0.10927172571E+03  0.40032436218E+02 -0.24080372613E+03  0.26744969715E+03  0.00000000000E+00 0.  1.
         14    1    3    3    0    0  0.67679869777E+02  0.83926670449E+02 -0.36606081910E+03  0.38160814203E+03  0.00000000000E+00 0. -1.
        -11    1    4    4    0    0 -0.81955285289E+02 -0.85590451749E+02 -0.19027250662E+03  0.22415624237E+03  0.00000000000E+00 0. -1.
         11    1    4    4    0    0 -0.89412363853E+02 -0.13182955815E+02 -0.64993217826E+02  0.11132151408E+03  0.00000000000E+00 0.  1.
          1    1    1    2  501    0 -0.55839463463E+01 -0.25185699103E+02  0.13394122916E+02  0.29067205314E+02  0.00000000000E+00 0. -1.
<scales pt_clust_5="13000.00000" pt_clust_6="13000.00000" pt_clust_7="13000.00000" pt_clust_8="13000.00000" pt_clust_9="25.79728"></scales>
<clustering>
<clus scale="   25.797">  1  9  2 -1</clus>
<clus scale="   79.459">  5  6 -1 -1</clus>
<clus scale="   90.894">  7  8 -1 -1</clus>
<clus scale="  224.136">  2  5  1 -1</clus>
<clus scale="   25.797">  1  5  2 -1</clus>
</clustering>
</event>
<event>
 9    2  0.1757451E-004  0.1228532E+03  0.7546771E-02  0.1246840E+00
          2   -1    0    0  502    0 -0.00000000000E+00  0.00000000000E+00  0.46376555742E+03  0.46376555742E+03  0.00000000000E+00 0. -1.
         21   -1    0    0  501  502  0.00000000000E+00 -0.00000000000E+00 -0.23543190861E+03  0.23543190861E+03  0.00000000000E+00 0. -1.
         24    2    1    2    0    0  0.20256539806E+02 -0.65697461504E+02  0.40767215569E+03  0.42039877511E+03  0.76236866017E+02 0.  0.
         23    2    1    2    0    0  0.10947814951E+02  0.11180563418E+03 -0.96930842735E+02  0.17934670023E+03  0.10074371506E+03 0.  0.
        -13    1    3    3    0    0 -0.22835160338E+02  0.12400664759E+01  0.81001974664E+02  0.84168296953E+02  0.00000000000E+00 0.  1.
         14    1    3    3    0    0  0.43091700143E+02 -0.66937527980E+02  0.32667018102E+03  0.33623047816E+03  0.00000000000E+00 0. -1.
        -13    1    4    4    0    0  0.12211473717E+02 -0.16715797682E+02 -0.49161275628E+01  0.21276895748E+02  0.00000000000E+00 0.  1.
         13    1    4    4    0    0 -0.12636587662E+01  0.12852143186E+03 -0.92014715173E+02  0.15806980448E+03  0.00000000000E+00 0. -1.
          1    1    1    2  501    0 -0.31204354757E+02 -0.46108172673E+02 -0.82407664140E+02  0.99451990689E+02  0.00000000000E+00 0. -1.
<scales pt_clust_5="13000.00000" pt_clust_6="13000.00000" pt_clust_7="13000.00000" pt_clust_8="13000.00000" pt_clust_9="55.67473"></scales>
<clustering>
<clus scale="   55.675">  2  9  1 -1</clus>
<clus scale="   76.237">  5  6 -1 -1</clus>
<clus scale="  100.744">  7  8 -1 -1</clus>
<clus scale="  103.710">  1  5  2 -1</clus>
<clus scale="   55.675">  2  5  1 -1</clus>
</clustering>
</event>
<event>
 9    2  0.1592151E-004  0.9898214E+02  0.7546771E-02  0.1286081E+00
         21   -1    0    0  501  502  0.00000000000E+00  0.00000000000E+00  0.57621973165E+02  0.57621973165E+02  0.00000000000E+00 0.  1.
         -3   -1    0    0    0  501 -0.00000000000E+00 -0.00000000000E+00 -0.46120507235E+03  0.46120507235E+03  0.00000000000E+00 0.  1.
         24    2    1    2    0    0  0.27207321587E+02  0.42884294217E+02 -0.16718136838E+03  0.19270754128E+03  0.81285210803E+02 0.  0.
         23    2    1    2    0    0 -0.61302161167E+02  0.32683950647E+02 -0.21137817882E+03  0.23952160662E+03  0.88677336229E+02 0.  0.
        -11    1    3    3    0    0 -0.56057192097E+01  0.35938258631E+02 -0.15127569906E+03  0.15558701632E+03  0.00000000000E+00 0.  1.
         12    1    3    3    0    0  0.32813040797E+02  0.69460355865E+01 -0.15905669312E+02  0.37120524955E+02  0.00000000000E+00 0. -1.
        -11    1    4    4    0    0 -0.22813631703E+02  0.57684450023E+02 -0.86237294904E+02  0.10623007389E+03  0.00000000000E+00 0.  1.
         11    1    4    4    0    0 -0.38488529465E+02 -0.25000499376E+02 -0.12514088392E+03  0.13329153273E+03  0.00000000000E+00 0. -1.
         -4    1    1    2    0  502  0.34094839580E+02 -0.75568244864E+02 -0.25023551986E+02  0.86597897618E+02  0.00000000000E+00 0.  1.
<scales pt_clust_5="13000.00000" pt_clust_6="13000.00000" pt_clust_7="13000.00000" pt_clust_8="13000.00000" pt_clust_9="82.90367"></scales>
<clustering>
<clus scale="   81.285">  5  6 -1 -1</clus>
<clus scale="   82.904">  1  9  2 -1</clus>
<clus scale="   88.677">  7  8 -1 -1</clus>
<clus scale="   92.418">  2  5  1 -1</clus>
<clus scale="   82.904">  1  5  2 -1</clus>
</clustering>
</event>
<event>
 9    2  0.1592151E-004  0.1216151E+03  0.7546771E-02  0.1242200E+00
         21   -1    0    0  501  502  0.00000000000E+00  0.00000000000E+00  0.73064131618E+02  0.73064131618E+02  0.00000000000E+00 0. -1.
          2   -1    0    0  502    0 -0.00000000000E+00 -0.00000000000E+00 -0.10961701429E+04  0.10961701429E+04  0.00000000000E+00 0. -1.
         24    2    1    2    0    0 -0.30510648291E+02  0.81820353394E+02 -0.94577046108E+03  0.95342238248E+03  0.83108389912E+02 0.  0.
         23    2    1    2    0    0 -0.73250248707E+00 -0.17615571526E+02  0.22136230537E+02  0.93365889053E+02  0.88973769259E+02 0.  0.
        -11    1    3    3    0    0 -0.41500049643E+02  0.49655712920E+02 -0.30692052715E+03  0.31366886032E+03  0.00000000000E+00 0.  1.
         12    1    3    3    0    0  0.10989401352E+02  0.32164640474E+02 -0.63884993393E+03  0.63975352216E+03  0.00000000000E+00 0. -1.
        -13    1    4    4    0    0  0.83432045135E+01  0.28724586779E+02  0.33384122051E+02  0.44824218368E+02  0.00000000000E+00 0. -1.
         13    1    4    4    0    0 -0.90757070005E+01 -0.46340158305E+02 -0.11247891514E+02  0.48541670684E+02  0.00000000000E+00 0.  1.
          1    1    1    2  501    0  0.31243150778E+02 -0.64204781868E+02 -0.99471780771E+02  0.12244600302E+03  0.00000000000E+00 0. -1.
<scales pt_clust_5="13000.00000" pt_clust_6="13000.00000" pt_clust_7="13000.00000" pt_clust_8="13000.00000" pt_clust_9="71.40300"></scales>
<clustering>
<clus scale="   71.403">  1  9  2 -1</clus>
<clus scale="   83.108">  5  6 -1 -1</clus>
<clus scale="   88.974">  7  8 -1 -1</clus>
<clus scale="  117.392">  2  5  1 -1</clus>
<clus scale="   71.403">  1  5  2 -1</clus>
</clustering>
</event>
<event>
 9    2  0.1592151E-004  0.1575269E+03  0.7546771E-02  0.1193813E+00
         21   -1    0    0  501  502  0.00000000000E+00  0.00000000000E+00  0.41127428204E+02  0.41127428204E+02  0.00000000000E+00 0.  1.
          2   -1    0    0  502    0 -0.00000000000E+00 -0.00000000000E+00 -0.10956105883E+04  0.10956105883E+04  0.00000000000E+00 0. -1.
         24    2    1    2    0    0 -0.11354936554E+03 -0.69843177545E+02 -0.85774529374E+03  0.87150565145E+03  0.77611749743E+02 0.  0.
         23    2    1    2    0    0  0.86298514505E+02  0.68811817641E+02 -0.18818908068E+03  0.23665345108E+03  0.91690926315E+02 0.  0.
        -11    1    3    3    0    0 -0.80371255198E+02 -0.27029203828E+02 -0.32016358663E+03  0.33120211159E+03  0.00000000000E+00 0.  1.
         12    1    3    3    0    0 -0.33178110346E+02 -0.42813973717E+02 -0.53758170712E+03  0.54030353985E+03  0.00000000000E+00 0. -1.
        -11    1    4    4    0    0  0.38865235148E+01  0.55263405554E+02 -0.10530371817E+03  0.11898748724E+03  0.00000000000E+00 0.  1.
         11    1    4    4    0    0  0.82411990990E+02  0.13548412087E+02 -0.82885362514E+02  0.11766596385E+03  0.00000000000E+00 0. -1.
          1    1    1    2  501    0  0.27250851039E+02  0.10313599031E+01 -0.85487856206E+01  0.28578913926E+02  0.00000000000E+00 0. -1.
<scales pt_clust_5="13000.00000" pt_clust_6="13000.00000" pt_clust_7="13000.00000" pt_clust_8="13000.00000" pt_clust_9="27.27036"></scales>
<clustering>
<clus scale="   27.270">  1  9  2 -1</clus>
<clus scale="   77.612">  5  6 -1 -1</clus>
<clus scale="   91.691">  7  8 -1 -1</clus>
<clus scale="  149.770">  2  5  1 -1</clus>
<clus scale="   27.270">  1  5  2 -1</clus>
</clustering>
</event>
<event>
 9    2  0.1592151E-004  0.2036281E+03  0.7546771E-02  0.1147156E+00
          2   -1    0    0  502    0 -0.00000000000E+00  0.00000000000E+00  0.33982899355E+03  0.33982899355E+03  0.00000000000E+00 0. -1.
         21   -1    0    0  501  502  0.00000000000E+00 -0.00000000000E+00 -0.16474197835E+03  0.16474197835E+03  0.00000000000E+00 0. -1.
         23    2    1    2    0    0  0.33291327915E+02 -0.15301279792E+03  0.82700001279E+02  0.19949430196E+03  0.91855633793E+02 0.  0.
         24    2    1    2    0    0 -0.52515059790E+02  0.20162601310E+03  0.10315707279E+03  0.25170260578E+03  0.96446562521E+02 0.  0.
        -11    1    4    4    0    0 -0.38747176912E+02  0.53712451910E+02  0.75789117716E+02  0.10064969733E+03  0.00000000000E+00 0.  1.
         12    1    4    4    0    0 -0.13767882878E+02  0.14791356120E+03  0.27367955075E+02  0.15105290844E+03  0.00000000000E+00 0. -1.
        -13    1    3    3    0    0  0.46001260999E+02 -0.27583502618E+02  0.37994846045E+02  0.65731072988E+02  0.00000000000E+00 0.  1.
         13    1    3    3    0    0 -0.12709933084E+02 -0.12542929531E+03  0.44705155234E+02  0.13376322897E+03  0.00000000000E+00 0. -1.
          1    1    1    2  501    0  0.19223731875E+02 -0.48613215180E+02 -0.10770058868E+02  0.53374064164E+02  0.00000000000E+00 0. -1.
<scales pt_clust_5="13000.00000" pt_clust_6="13000.00000" pt_clust_7="13000.00000" pt_clust_8="13000.00000" pt_clust_9="52.27616"></scales>
<clustering>
<clus scale="   52.276">  2  9  1 -1</clus>
<clus scale="   91.856">  7  8 -1 -1</clus>
<clus scale="   96.447">  5  6 -1 -1</clus>
<clus scale="  201.494">  1  7  2 -1</clus>
<clus scale="   52.276">  2  5  1 -1</clus>
</clustering>
</event>
<event>
 9    2  0.1592151E-004  0.2659791E+03  0.7546771E-02  0.1103603E+00
         21   -1    0    0  501  502  0.00000000000E+00  0.00000000000E+00  0.59141144371E+02  0.59141144371E+02  0.00000000000E+00 0. -1.
          2   -1    0    0  502    0 -0.00000000000E+00 -0.00000000000E+00 -0.90240712048E+03  0.90240712048E+03  0.00000000000E+00 0. -1.
         24    2    1    2    0    0  0.82163855539E+02 -0.24983967314E+02 -0.14058115272E+03  0.19346753762E+03  0.10144717756E+03 0.  0.
         23    2    1    2    0    0  0.86435393549E+02  0.31640173181E+02 -0.20530741960E+03  0.24286239770E+03  0.91426636475E+02 0.  0.
        -11    1    3    3    0    0 -0.17050366213E+02 -0.27939333194E+02 -0.25482715713E+02  0.41481202097E+02  0.00000000000E+00 0.  1.
         12    1    3    3    0    0  0.99214221752E+02  0.29553658802E+01 -0.11509843700E+03  0.15198633552E+03  0.00000000000E+00 0. -1.
        -13    1    4    4    0    0  0.36690628339E+02 -0.19894418057E+02 -0.13944660236E+03  0.14555873380E+03  0.00000000000E+00 0.  1.
         13    1    4    4    0    0  0.49744765211E+02  0.51534591238E+02 -0.65860817246E+02  0.97303663900E+02  0.00000000000E+00 0. -1.
          1    1    1    2  501    0 -0.16859924909E+03 -0.66562058669E+01 -0.49737740380E+03  0.52521832953E+03  0.00000000000E+00 0. -1.
<scales pt_clust_5="13000.00000" pt_clust_6="13000.00000" pt_clust_7="13000.00000" pt_clust_8="13000.00000" pt_clust_9="168.73067"></scales>
<clustering>
<clus scale="   91.427">  7  8 -1 -1</clus>
<clus scale="  101.447">  5  6 -1 -1</clus>
<clus scale="  122.578">  5  7 -1 -1</clus>
<clus scale="  168.731">  1  9  2 -1</clus>
<clus scale="  168.731">  1  5  2 -1</clus>
</clustering>
</event>
<event>
 9    2  0.1592151E-004  0.1652767E+03  0.7546771E-02  0.1183814E+00
          2   -1    0    0  502    0 -0.00000000000E+00  0.00000000000E+00  0.13834020340E+04  0.13834020340E+04  0.00000000000E+00 0. -1.
         21   -1    0    0  501  502  0.00000000000E+00 -0.00000000000E+00 -0.18052563295E+03  0.18052563295E+03  0.00000000000E+00 0. -1.
         24    2    1    2    0    0 -0.12635791343E+03 -0.68080135954E+02  0.12075364024E+04  0.12190403805E+04  0.85522272384E+02 0.  0.
         23    2    1    2    0    0  0.92745559217E+02  0.51143633540E+02  0.13835819923E+03  0.19699935200E+03  0.91914870325E+02 0.  0.
        -11    1    3    3    0    0 -0.50965480464E+02 -0.27855310600E+02  0.21102851600E+03  0.21887538257E+03  0.00000000000E+00 0.  1.
         12    1    3    3    0    0 -0.75392432961E+02 -0.40224825354E+02  0.99650788637E+03  0.10001649979E+04  0.00000000000E+00 0. -1.
        -13    1    4    4    0    0  0.75839305441E+02  0.75776995111E+02  0.12378626273E+03  0.16375833438E+03  0.00000000000E+00 0.  1.
         13    1    4    4    0    0  0.16906253776E+02 -0.24633361570E+02  0.14571936502E+02  0.33241017619E+02  0.00000000000E+00 0. -1.
          1    1    1    2  501    0  0.33612354208E+02  0.16936502413E+02 -0.14301820054E+03  0.14788793445E+03  0.00000000000E+00 0. -1.
<scales pt_clust_5="13000.00000" pt_clust_6="13000.00000" pt_clust_7="13000.00000" pt_clust_8="13000.00000" pt_clust_9="37.63822"></scales>
<clustering>
<clus scale="   37.638">  2  9  1 -1</clus>
<clus scale="   85.522">  5  6 -1 -1</clus>
<clus scale="   91.915">  7  8 -1 -1</clus>
<clus scale="  161.809">  1  5  2 -1</clus>
<clus scale="   37.638">  2  5  1 -1</clus>
</clustering>
</event>
<event>
 9    2  0.1592151E-004  0.1217073E+03  0.7546771E-02  0.1241476E+00
         21   -1    0    0  501  502  0.00000000000E+00  0.00000000000E+00  0.35144022628E+03  0.35144022628E+03  0.00000000000E+00 0.  1.
         -3   -1    0    0    0  501 -0.00000000000E+00 -0.00000000000E+00 -0.17815821962E+03  0.17815821962E+03  0.00000000000E+00 0.  1.
         24    2    1    2    0    0  0.61288900191E+02  0.40338281828E+02 -0.73876558884E+02  0.13971295327E+03  0.93158236845E+02 0.  0.
         23    2    1    2    0    0 -0.53614988828E+02 -0.12889289647E+03  0.25113045478E+03  0.30091030174E+03  0.89401110691E+02 0.  0.
        -11    1    3    3    0    0  0.36712085882E+02  0.70595266088E+02 -0.51098299314E+02  0.94564819234E+02  0.00000000000E+00 0.  1.
         12    1    3    3    0    0  0.24576814308E+02 -0.30256984261E+02 -0.22778259570E+02  0.45148134038E+02  0.00000000000E+00 0. -1.
        -13    1    4    4    0    0  0.59945785968E+01 -0.21537714650E+02  0.11676890780E+03  0.11888980592E+03  0.00000000000E+00 0. -1.
         13    1    4    4    0    0 -0.59609567425E+02 -0.10735518182E+03  0.13436154698E+03  0.18202049582E+03  0.00000000000E+00 0.  1.
         -4    1    1    2    0  502 -0.76739113628E+01  0.88554614639E+02 -0.39718892312E+01  0.88975190887E+02  0.00000000000E+00 0.  1.
<scales pt_clust_5="13000.00000" pt_clust_6="13000.00000" pt_clust_7="13000.00000" pt_clust_8="13000.00000" pt_clust_9="88.88654"></scales>
<clustering>
<clus scale="   88.887">  1  9  2 -1</clus>
<clus scale="   89.401">  7  8 -1 -1</clus>
<clus scale="   93.158">  5  6 -1 -1</clus>
<clus scale="  118.856">  1  7  2 -1</clus>
<clus scale="   88.887">  1  5  2 -1</clus>
</clustering>
</event>
<event>
 9    2  0.1592151E-004  0.1689960E+03  0.7546771E-02  0.1190091E+00
         -1   -1    0    0    0  501 -0.00000000000E+00  0.00000000000E+00  0.32587699397E+03  0.32587699397E+03  0.00000000000E+00 0.  1.
         21   -1    0    0  501  502  0.00000000000E+00 -0.00000000000E+00 -0.30648123188E+03  0.30648123188E+03  0.00000000000E+00 0.  1.
         23    2    1    2    0    0 -0.36103513200E+02  0.85753724615E+02 -0.12683353290E+03  0.18281534665E+03  0.93153319586E+02 0.  0.
         24    2    1    2    0    0  0.17105361244E+03 -0.65228703665E+02  0.21416541440E+03  0.29706953042E+03  0.94177274701E+02 0.  0.
        -11    1    4    4    0    0  0.14495766655E+03 -0.48371246126E+02  0.21750726635E+03  0.26582308677E+03  0.00000000000E+00 0.  1.
         12    1    4    4    0    0  0.26095945886E+02 -0.16857457539E+02 -0.33418519529E+01  0.31246443651E+02  0.00000000000E+00 0. -1.
        -11    1    3    3    0    0 -0.20835908696E+02  0.10335014188E+03 -0.87094563000E+02  0.13675105053E+03  0.00000000000E+00 0.  1.
         11    1    3    3    0    0 -0.15267604504E+02 -0.17596417260E+02 -0.39738969903E+02  0.46064296116E+02  0.00000000000E+00 0. -1.
         -2    1    1    2    0  502 -0.13495009924E+03 -0.20525020950E+02 -0.67936119402E+02  0.15247334878E+03  0.00000000000E+00 0.  1.
<scales pt_clust_5="13000.00000" pt_clust_6="13000.00000" pt_clust_7="13000.00000" pt_clust_8="13000.00000" pt_clust_9="140.32209"></scales>
<clustering>
<clus scale="   93.153">  7  8 -1 -1</clus>
<clus scale="   94.177">  5  6 -1 -1</clus>
<clus scale="  131.661">  1  7  2 -1</clus>
<clus scale="  140.322">  2  9  1 -1</clus>
<clus scale="  140.322">  2  5  1 -1</clus>
</clustering>
</event>
<event>
 9    2  0.1592151E-004  0.4208795E+03  0.7546771E-02  0.1036780E+00
         21   -1    0    0  501  502  0.00000000000E+00  0.00000000000E+00  0.17730168846E+03  0.17730168846E+03  0.00000000000E+00 0.  1.
          2   -1    0    0  502    0 -0.00000000000E+00 -0.00000000000E+00 -0.93226009851E+03  0.93226009851E+03  0.00000000000E+00 0. -1.
         24    2    1    2    0    0 -0.20397285870E+03  0.20961916434E+03 -0.38497110163E+03  0.49017116612E+03  0.80745909256E+02 0.  0.
         23    2    1    2    0    0 -0.17257639554E+02  0.68654880439E+02 -0.18583939859E+03  0.21902849721E+03  0.91792602040E+02 0.  0.
        -11    1    3    3    0    0 -0.13640188301E+03  0.13333064700E+03 -0.18495702831E+03  0.26569086819E+03  0.00000000000E+00 0.  1.
         12    1    3    3    0    0 -0.67570975692E+02  0.76288517345E+02 -0.20001407332E+03  0.22448029794E+03  0.00000000000E+00 0. -1.
        -13    1    4    4    0    0 -0.38473780275E+02  0.59134540430E+02 -0.18234030493E+03  0.19551243552E+03  0.00000000000E+00 0.  1.
         13    1    4    4    0    0  0.21216140721E+02  0.95203400090E+01 -0.34990936631E+01  0.23516061691E+02  0.00000000000E+00 0. -1.
          1    1    1    2  501    0  0.22123049825E+03 -0.27827404478E+03 -0.18414790983E+03  0.40036212365E+03  0.00000000000E+00 0. -1.
<scales pt_clust_5="13000.00000" pt_clust_6="13000.00000" pt_clust_7="13000.00000" pt_clust_8="13000.00000" pt_clust_9="355.49877"></scales>
<clustering>
<clus scale="   80.746">  5  6 -1 -1</clus>
<clus scale="   91.793">  7  8 -1 -1</clus>
<clus scale="  103.377">  5  7 -1 -1</clus>
<clus scale="  355.499">  1  9  2 -1</clus>
<clus scale="  355.499">  1  5  2 -1</clus>
</clustering>
</event>
<event>
 9    2  0.1592151E-004  0.1206275E+03  0.7546771E-02  0.1251121E+00
          2   -1    0    0  502    0 -0.00000000000E+00  0.00000000000E+00  0.23805741829E+03  0.23805741829E+03  0.00000000000E+00 0. -1.
         21   -1    0    0  501  502  0.00000000000E+00 -0.00000000000E+00 -0.24412553686E+03  0.24412553686E+03  0.00000000000E+00 0. -1.
         24    2    1    2    0    0 -0.62931009810E+02  0.57289743899E+00  0.35718035001E+02  0.10920630433E+03  0.81789966829E+02 0.  0.
         23    2    1    2    0    0  0.31705993672E+02 -0.39120981920E+02 -0.18644003943E+03  0.22005280328E+03  0.10548756640E+03 0.  0.
        -11    1    3    3    0    0 -0.18779607301E+02  0.36313169619E+02  0.32649519490E+02  0.52319318239E+02  0.00000000000E+00 0.  1.
         12    1    3    3    0    0 -0.44151402509E+02 -0.35740272180E+02  0.30685155112E+01  0.56886986090E+02  0.00000000000E+00 0. -1.
        -13    1    4    4    0    0 -0.30250444329E+02  0.54907611547E+01 -0.19297836151E+02  0.36299370797E+02  0.00000000000E+00 0.  1.
         13    1    4    4    0    0  0.61956438001E+02 -0.44611743075E+02 -0.16714220328E+03  0.18375343248E+03  0.00000000000E+00 0. -1.
          1    1    1    2  501    0  0.31225016137E+02  0.38548084481E+02  0.14465388587E+03  0.15292384754E+03  0.00000000000E+00 0. -1.
<scales pt_clust_5="13000.00000" pt_clust_6="13000.00000" pt_clust_7="13000.00000" pt_clust_8="13000.00000" pt_clust_9="49.60805"></scales>
<clustering>
<clus scale="   49.608">  2  9  1 -1</clus>
<clus scale="   81.790">  5  6 -1 -1</clus>
<clus scale="  100.563">  1  5  2 -1</clus>
<clus scale="  105.488">  7  8 -1 -1</clus>
<clus scale="   49.608">  2  5  1 -1</clus>
</clustering>
</event>
<event>
 9    2  0.1592151E-004  0.1334939E+03  0.7546771E-02  0.1224376E+00
         -1   -1    0    0    0  501 -0.00000000000E+00  0.00000000000E+00  0.38577702671E+03  0.38577702671E+03  0.00000000000E+00 0.  1.
         21   -1    0    0  501  502  0.00000000000E+00 -0.00000000000E+00 -0.12991601682E+03  0.12991601682E+03  0.00000000000E+00 0.  1.
         24    2    1    2    0    0  0.12325546091E+03  0.22269905180E+02  0.24368386966E+03  0.28613776674E+03  0.82493247607E+02 0.  0.
         23    2    1    2    0    0 -0.59554315356E+02  0.29504248429E+02  0.66896308897E+02  0.13090140536E+03  0.90790113056E+02 0.  0.
        -11    1    3    3    0    0  0.11242475710E+03  0.70136045537E+01  0.24250644157E+03  0.26739089525E+03  0.00000000000E+00 0.  1.
         12    1    3    3    0    0  0.10830703818E+02  0.15256300627E+02  0.11774280921E+01  0.18746871497E+02  0.00000000000E+00 0. -1.
        -13    1    4    4    0    0 -0.23366609226E+02  0.16147682574E+01  0.80010787333E+02  0.83368651140E+02  0.00000000000E+00 0.  1.
         13    1    4    4    0    0 -0.36187706129E+02  0.27889480171E+02 -0.13114478437E+02  0.47532754221E+02  0.00000000000E+00 0. -1.
         -2    1    1    2    0  502 -0.63701145558E+02 -0.51774153609E+02 -0.54719168665E+02  0.98653871423E+02  0.00000000000E+00 0.  1.
<scales pt_clust_5="13000.00000" pt_clust_6="13000.00000" pt_clust_7="13000.00000" pt_clust_8="13000.00000" pt_clust_9="82.08775"></scales>
<clustering>
<clus scale="   82.088">  2  9  1 -1</clus>
<clus scale="   82.493">  5  6 -1 -1</clus>
<clus scale="   90.790">  7  8 -1 -1</clus>
<clus scale="  127.996">  1  5  2 -1</clus>
<clus scale="   82.088">  2  5  1 -1</clus>
</clustering>
</event>
<event>
 9    2  0.1592151E-004  0.1857767E+03  0.7546771E-02  0.1177327E+00
         -3   -1    0    0    0  501 -0.00000000000E+00  0.00000000000E+00  0.24798126416E+03  0.24798126416E+03  0.00000000000E+00 0.  1.
         21   -1    0    0  501  502  0.00000000000E+00 -0.00000000000E+00 -0.31610219243E+03  0.31610219243E+03  0.00000000000E+00 0.  1.
         23    2    1    2    0    0 -0.94339527459E+02  0.18976412185E+02  0.10881885098E+03  0.17091970785E+03  0.90066384084E+02 0.  0.
         24    2    1    2    0    0 -0.13109262801E+02 -0.14789177867E+03 -0.85915316994E+02  0.20224526620E+03  0.10713484511E+03 0.  0.
        -13    1    4    4    0    0 -0.33819299254E+02 -0.12218419026E+03 -0.19757520474E+02  0.12830853817E+03  0.00000000000E+00 0.  1.
         14    1    4    4    0    0  0.20710036453E+02 -0.25707588411E+02 -0.66157796520E+02  0.73936728033E+02  0.00000000000E+00 0. -1.
        -11    1    3    3    0    0 -0.43874226023E+02 -0.19059967198E+02  0.94806073639E+02  0.10619049702E+03  0.00000000000E+00 0.  1.
         11    1    3    3    0    0 -0.50465301437E+02  0.38036379383E+02  0.14012777341E+02  0.64729210828E+02  0.00000000000E+00 0. -1.
         -4    1    1    2    0  502  0.10744879026E+03  0.12891536649E+03 -0.91024462250E+02  0.19091848254E+03  0.00000000000E+00 0.  1.
<scales pt_clust_5="13000.00000" pt_clust_6="13000.00000" pt_clust_7="13000.00000" pt_clust_8="13000.00000" pt_clust_9="151.77329"></scales>
<clustering>
<clus scale="   90.066">  7  8 -1 -1</clus>
<clus scale="  107.135">  5  6 -1 -1</clus>
<clus scale="  131.803">  1  7  2 -1</clus>
<clus scale="  151.773">  2  9  1 -1</clus>
<clus scale="  151.773">  2  5  1 -1</clus>
</clustering>
</event>
<event>
 9    2  0.1592151E-004  0.2919097E+03  0.7546771E-02  0.1137416E+00
         21   -1    0    0  501  502  0.00000000000E+00  0.00000000000E+00  0.52020335066E+02  0.52020335066E+02  0.00000000000E+00 0. -1.
          2   -1    0    0  502    0 -0.00000000000E+00 -0.00000000000E+00 -0.26570007886E+04  0.26570007886E+04  0.00000000000E+00 0. -1.
         24    2    1    2    0    0  0.29699083363E+02  0.46933156262E+01 -0.97391528813E+03  0.97774261822E+03  0.81028243572E+02 0.  0.
         23    2    1    2    0    0 -0.26034201250E+03  0.12561444915E+03 -0.67923316583E+03  0.74327019084E+03  0.86809732867E+02 0.  0.
        -13    1    3    3    0    0  0.30347684988E+02 -0.56842200620E+01 -0.12476206147E+03  0.12852573409E+03  0.00000000000E+00 0.  1.
         14    1    3    3    0    0 -0.64860162507E+00  0.10377535688E+02 -0.84915322666E+03  0.84921688413E+03  0.00000000000E+00 0. -1.
        -13    1    4    4    0    0 -0.84312185072E+02  0.87744723223E+02 -0.26599282162E+03  0.29250617457E+03  0.00000000000E+00 0. -1.
         13    1    4    4    0    0 -0.17602982743E+03  0.37869725928E+02 -0.41324034420E+03  0.45076401627E+03  0.00000000000E+00 0.  1.
          1    1    1    2  501    0  0.23064292914E+03 -0.13030776478E+03 -0.95183199954E+03  0.98800831457E+03  0.00000000000E+00 0. -1.
<scales pt_clust_5="13000.00000" pt_clust_6="13000.00000" pt_clust_7="13000.00000" pt_clust_8="13000.00000" pt_clust_9="278.70310"></scales>
<clustering>
<clus scale="   81.028">  5  6 -1 -1</clus>
<clus scale="   86.427">  2  5  1 -1</clus>
<clus scale="   86.810">  7  8 -1 -1</clus>
<clus scale="  278.703">  1  9  2 -1</clus>
<clus scale="  278.703">  1  5  2 -1</clus>
</clustering>
</event>
<event>
 9    2  0.1592151E-004  0.6064090E+03  0.7546771E-02  0.9892812E-01
         21   -1    0    0  501  502  0.00000000000E+00  0.00000000000E+00  0.25031519629E+03  0.25031519629E+03  0.00000000000E+00 0. -1.
          2   -1    0    0  502    0 -0.00000000000E+00 -0.00000000000E+00 -0.16820239544E+04  0.16820239544E+04  0.00000000000E+00 0. -1.
         23    2    1    2    0    0 -0.17563054180E+03  0.56197625905E+03 -0.59834701953E+03  0.84425881329E+03  0.89946567936E+02 0.  0.
         24    2    1    2    0    0  0.14448594246E+03 -0.59409675136E+03 -0.63704743006E+03  0.88673233065E+03  0.81471838760E+02 0.  0.
        -11    1    4    4    0    0  0.81320036344E+02 -0.17847083158E+03 -0.21554640591E+03  0.29141900957E+03  0.00000000000E+00 0.  1.
         12    1    4    4    0    0  0.63165906117E+02 -0.41562591978E+03 -0.42150102416E+03  0.59531332108E+03  0.00000000000E+00 0. -1.
        -13    1    3    3    0    0 -0.13080558323E+03  0.49735924287E+03 -0.48963367028E+03  0.71008270514E+03  0.00000000000E+00 0. -1.
         13    1    3    3    0    0 -0.44824958566E+02  0.64617016173E+02 -0.10871334926E+03  0.13417610814E+03  0.00000000000E+00 0.  1.
          1    1    1    2  501    0  0.31144599335E+02  0.32120492318E+02 -0.19631430847E+03  0.20134800671E+03  0.00000000000E+00 0. -1.
<scales pt_clust_5="13000.00000" pt_clust_6="13000.00000" pt_clust_7="13000.00000" pt_clust_8="13000.00000" pt_clust_9="44.74052"></scales>
<clustering>
<clus scale="   44.741">  1  9  2 -1</clus>
<clus scale="   81.472">  5  6 -1 -1</clus>
<clus scale="   89.947">  7  8 -1 -1</clus>
<clus scale="  605.210">  1  5  2 -1</clus>
<clus scale="   44.741">  1  5  2 -1</clus>
</clustering>
</event>
<event>
 9    2  0.1592151E-004  0.4064746E+03  0.7546771E-02  0.1084715E+00
         21   -1    0    0  501  502  0.00000000000E+00  0.00000000000E+00  0.52242959382E+03  0.52242959382E+03  0.00000000000E+00 0. -1.
          2   -1    0    0  502    0 -0.00000000000E+00 -0.00000000000E+00 -0.58030544394E+03  0.58030544394E+03  0.00000000000E+00 0. -1.
         24    2    1    2    0    0 -0.14076852290E+02 -0.89233413683E+02  0.21413818929E+03  0.24660844409E+03  0.82460904048E+02 0.  0.
         23    2    1    2    0    0  0.38914957120E+03 -0.56713294644E+02 -0.18548085709E+03  0.44446170837E+03  0.92137263394E+02 0.  0.
        -13    1    3    3    0    0 -0.28550531774E+02  0.23395505691E+01  0.38312340929E+02  0.47837661198E+02  0.00000000000E+00 0.  1.
         14    1    3    3    0    0  0.14473679484E+02 -0.91572964252E+02  0.17582584836E+03  0.19877078289E+03  0.00000000000E+00 0. -1.
        -13    1    4    4    0    0  0.20825061846E+03 -0.24166043750E+02 -0.14866063576E+03  0.25700642479E+03  0.00000000000E+00 0. -1.
         13    1    4    4    0    0  0.18089895275E+03 -0.32547250893E+02 -0.36820221337E+02  0.18745528359E+03  0.00000000000E+00 0.  1.
          1    1    1    2  501    0 -0.37507271891E+03  0.14594670833E+03 -0.86533182318E+02  0.41166488530E+03  0.00000000000E+00 0. -1.
<scales pt_clust_5="13000.00000" pt_clust_6="13000.00000" pt_clust_7="13000.00000" pt_clust_8="13000.00000" pt_clust_9="395.89430"></scales>
<clustering>
<clus scale="   82.461">  5  6 -1 -1</clus>
<clus scale="   92.137">  7  8 -1 -1</clus>
<clus scale="  122.313">  2  5  1 -1</clus>
<clus scale="  395.894">  1  9  2 -1</clus>
<clus scale="  395.894">  1  5  2 -1</clus>
</clustering>
</event>
<event>
 9    2  0.1592151E-004  0.9758457E+02  0.7546771E-02  0.1295351E+00
          2   -1    0    0  502    0 -0.00000000000E+00  0.00000000000E+00  0.53629911753E+03  0.53629911753E+03  0.00000000000E+00 0. -1.
         21   -1    0    0  501  502  0.00000000000E+00 -0.00000000000E+00 -0.36782047269E+02  0.36782047269E+02  0.00000000000E+00 0.  1.
         24    2    1    2    0    0 -0.14112445820E+02 -0.61839889683E+01  0.30850769842E+03  0.31899299811E+03  0.79637491280E+02 0.  0.
         23    2    1    2    0    0  0.17975250160E+01  0.25743799864E+02  0.50758383793E+02  0.11194534018E+03  0.96381384797E+02 0.  0.
        -11    1    3    3    0    0 -0.43933837178E+02  0.12210204861E+02  0.15708946002E+03  0.16357374362E+03  0.00000000000E+00 0.  1.
         12    1    3    3    0    0  0.29821391358E+02 -0.18394193829E+02  0.15141823840E+03  0.15541925450E+03  0.00000000000E+00 0. -1.
        -13    1    4    4    0    0  0.43135498716E+02  0.22421931278E+02  0.30193138279E+01  0.48708628678E+02  0.00000000000E+00 0.  1.
         13    1    4    4    0    0 -0.41337973700E+02  0.33218685855E+01  0.47739069966E+02  0.63236711503E+02  0.00000000000E+00 0. -1.
          1    1    1    2  501    0  0.12314920804E+02 -0.19559810895E+02  0.14025098805E+03  0.14214282650E+03  0.00000000000E+00 0. -1.
<scales pt_clust_5="13000.00000" pt_clust_6="13000.00000" pt_clust_7="13000.00000" pt_clust_8="13000.00000" pt_clust_9="23.11372"></scales>
<clustering>
<clus scale="   23.114">  2  9  1 -1</clus>
<clus scale="   79.637">  5  6 -1 -1</clus>
<clus scale="   81.090">  1  5  2 -1</clus>
<clus scale="   96.381">  7  8 -1 -1</clus>
<clus scale="   23.114">  2  5  1 -1</clus>
</clustering>
</event>
<event>
 9    2  0.1592151E-004  0.1618805E+03  0.7546771E-02  0.1213373E+00
         21   -1    0    0  501  502  0.00000000000E+00  0.00000000000E+00  0.30578970313E+03  0.30578970313E+03  0.00000000000E+00 0. -1.
          2   -1    0    0  502    0 -0.00000000000E+00 -0.00000000000E+00 -0.13331150940E+03  0.13331150940E+03  0.00000000000E+00 0. -1.
         24    2    1    2    0    0 -0.17829562813E+02 -0.22365985272E+02  0.51901867243E+00  0.90474626897E+02  0.85832733409E+02 0.  0.
         23    2    1    2    0    0  0.10462073142E+03  0.10200089744E+03  0.15060646603E+03  0.22891708573E+03  0.91493409645E+02 0.  0.
        -13    1    3    3    0    0 -0.27227737978E+02 -0.24592123836E+02  0.37375232171E+02  0.52373946290E+02  0.00000000000E+00 0.  1.
         14    1    3    3    0    0  0.93981751654E+01  0.22261385634E+01 -0.36856213498E+02  0.38100680608E+02  0.00000000000E+00 0. -1.
        -13    1    4    4    0    0 -0.23222914621E+01  0.33264045145E+02  0.20748139903E+01  0.33409498502E+02  0.00000000000E+00 0.  1.
         13    1    4    4    0    0  0.10694302289E+03  0.68736852291E+02  0.14853165204E+03  0.19550758723E+03  0.00000000000E+00 0. -1.
          1    1    1    2  501    0 -0.86791168611E+02 -0.79634912164E+02  0.21352709026E+02  0.11970949990E+03  0.00000000000E+00 0. -1.
<scales pt_clust_5="13000.00000" pt_clust_6="13000.00000" pt_clust_7="13000.00000" pt_clust_8="13000.00000" pt_clust_9="133.54503"></scales>
<clustering>
<clus scale="   85.833">  5  6 -1 -1</clus>
<clus scale="   90.473">  2  5  1 -1</clus>
<clus scale="   91.493">  7  8 -1 -1</clus>
<clus scale="  133.545">  1  9  2 -1</clus>
<clus scale="  133.545">  1  5  2 -1</clus>
</clustering>
</event>
<event>
 9    2  0.1592151E-004  0.3650133E+03  0.7546771E-02  0.1056883E+00
          2   -1    0    0  502    0 -0.00000000000E+00  0.00000000000E+00  0.21665347773E+04  0.21665347773E+04  0.00000000000E+00 0. -1.
         21   -1    0    0  501  502  0.00000000000E+00 -0.00000000000E+00 -0.14638504556E+03  0.14638504556E+03  0.00000000000E+00 0.  1.
         24    2    1    2    0    0 -0.15958616020E+03  0.31834173827E+03  0.18780799570E+04  0.19132896516E+04  0.81754274091E+02 0.  0.
         23    2    1    2    0    0  0.13736757794E+03 -0.30253330120E+03  0.13968086660E+03  0.37225721078E+03  0.93104439631E+02 0.  0.
        -13    1    3    3    0    0 -0.39083015053E+02  0.10995906203E+03  0.44051491598E+03  0.45571029019E+03  0.00000000000E+00 0.  1.
         14    1    3    3    0    0 -0.12050314514E+03  0.20838267624E+03  0.14375650410E+04  0.14575793615E+04  0.00000000000E+00 0. -1.
        -13    1    4    4    0    0  0.74657588031E+02 -0.23884631088E+03  0.72772858580E+02  0.26060929496E+03  0.00000000000E+00 0.  1.
         13    1    4    4    0    0  0.62709989910E+02 -0.63686990322E+02  0.66908008023E+02  0.11164791583E+03  0.00000000000E+00 0. -1.
          1    1    1    2  501    0  0.22218582255E+02 -0.15808437068E+02  0.23889081102E+01  0.27372960415E+02  0.00000000000E+00 0. -1.
<scales pt_clust_5="13000.00000" pt_clust_6="13000.00000" pt_clust_7="13000.00000" pt_clust_8="13000.00000" pt_clust_9="27.26852"></scales>
<clustering>
<clus scale="   27.269">  2  9  1 -1</clus>
<clus scale="   81.754">  5  6 -1 -1</clus>
<clus scale="   93.104">  7  8 -1 -1</clus>
<clus scale="  362.284">  1  5  2 -1</clus>
<clus scale="   27.269">  2  5  1 -1</clus>
</clustering>
</event>
<event>
 9    2  0.1592151E-004  0.9768855E+02  0.7546771E-02  0.1291358E+00
         21   -1    0    0  501  502  0.00000000000E+00  0.00000000000E+00  0.14157712953E+03  0.14157712953E+03  0.00000000000E+00 0. -1.
          2   -1    0    0  502    0 -0.00000000000E+00 -0.00000000000E+00 -0.16560713465E+03  0.16560713465E+03  0.00000000000E+00 0. -1.
         23    2    1    2    0    0 -0.31433240371E+02  0.16378565538E+02 -0.78316690415E+02  0.12560294253E+03  0.91576684620E+02 0.  0.
         24    2    1    2    0    0  0.41578907344E+02  0.34987278562E+02  0.77766135553E+02  0.12419953810E+03  0.80156336174E+02 0.  0.
        -11    1    4    4    0    0 -0.19062258273E+02  0.24976270761E+02  0.10607210349E+02  0.33161675214E+02  0.00000000000E+00 0.  1.
         12    1    4    4    0    0  0.60641165618E+02  0.10011007801E+02  0.67158925204E+02  0.91037862888E+02  0.00000000000E+00 0. -1.
        -11    1    3    3    0    0  0.27738358898E+02 -0.14035265953E+02 -0.31460641559E+02  0.44228692181E+02  0.00000000000E+00 0.  1.
         11    1    3    3    0    0 -0.59171599269E+02  0.30413831491E+02 -0.46856048856E+02  0.81374250352E+02  0.00000000000E+00 0. -1.
          1    1    1    2  501    0 -0.10145666973E+02 -0.51365844100E+02 -0.23479450252E+02  0.57381783543E+02  0.00000000000E+00 0. -1.
<scales pt_clust_5="13000.00000" pt_clust_6="13000.00000" pt_clust_7="13000.00000" pt_clust_8="13000.00000" pt_clust_9="52.35826"></scales>
<clustering>
<clus scale="   52.358">  1  9  2 -1</clus>
<clus scale="   80.156">  5  6 -1 -1</clus>
<clus scale="   87.074">  1  5  2 -1</clus>
<clus scale="   91.577">  7  8 -1 -1</clus>
<clus scale="   52.358">  1  5  2 -1</clus>
</clustering>
</event>
<event>
 9    2  0.1592151E-004  0.1469511E+03  0.7546771E-02  0.1219303E+00
         -1   -1    0    0    0  501 -0.00000000000E+00  0.00000000000E+00  0.24886603211E+03  0.24886603211E+03  0.00000000000E+00 0.  1.
         21   -1    0    0  501  502  0.00000000000E+00 -0.00000000000E+00 -0.26665675989E+03  0.26665675989E+03  0.00000000000E+00 0.  1.
         23    2    1    2    0    0  0.51865583842E+02 -0.14691115861E+02 -0.16443994946E+03  0.19602597933E+03  0.92085937692E+02 0.  0.
         24    2    1    2    0    0 -0.15142499728E+03 -0.30428855084E+02  0.10382757998E+03  0.20210183160E+03  0.78800627854E+02 0.  0.
        -13    1    4    4    0    0 -0.11308640363E+03 -0.97906782435E+01  0.11007333902E+03  0.15811556542E+03  0.00000000000E+00 0.  1.
         14    1    4    4    0    0 -0.38338593655E+02 -0.20638176841E+02 -0.62457590408E+01  0.43986266183E+02  0.00000000000E+00 0. -1.
        -11    1    3    3    0    0  0.91316742472E+01 -0.29535977556E+02 -0.63108087987E+01  0.31552935718E+02  0.00000000000E+00 0. -1.
         11    1    3    3    0    0  0.42733909595E+02  0.14844861696E+02 -0.15812914066E+03  0.16447304361E+03  0.00000000000E+00 0.  1.
         -2    1    1    2    0  502  0.99559413438E+02  0.45119970945E+02  0.42821641707E+02  0.11739498107E+03  0.00000000000E+00 0.  1.
<scales pt_clust_5="13000.00000" pt_clust_6="13000.00000" pt_clust_7="13000.00000" pt_clust_8="13000.00000" pt_clust_9="124.03665"></scales>
<clustering>
<clus scale="   78.801">  5  6 -1 -1</clus>
<clus scale="   92.086">  7  8 -1 -1</clus>
<clus scale="  106.704">  1  7  2 -1</clus>
<clus scale="  124.037">  2  9  1 -1</clus>
<clus scale="  124.037">  2  5  1 -1</clus>
</clustering>
</event>
<event>
 9    2  0.1592151E-004  0.1545499E+03  0.7546771E-02  0.1210045E+00
         21   -1    0    0  501  502  0.00000000000E+00  0.00000000000E+00  0.96140236703E+02  0.96140236703E+02  0.00000000000E+00 0.  1.
          2   -1    0    0  502    0 -0.00000000000E+00 -0.00000000000E+00 -0.83655382617E+03  0.83655382617E+03  0.00000000000E+00 0. -1.
         23    2    1    2    0    0 -0.63406805331E+02  0.18571257365E+01 -0.78362065100E+02  0.13636585044E+03  0.91821348504E+02 0.  0.
         24    2    1    2    0    0  0.51123491229E+02 -0.13018089337E+03 -0.41888391364E+02  0.16290877740E+03  0.72276940094E+02 0.  0.
        -13    1    4    4    0    0  0.49084159403E+02 -0.13810100108E+03 -0.31893852637E+02  0.14999453004E+03  0.00000000000E+00 0.  1.
         14    1    4    4    0    0  0.20393318264E+01  0.79201077182E+01 -0.99945387273E+01  0.12914247362E+02  0.00000000000E+00 0. -1.
        -13    1    3    3    0    0  0.65495760556E+01  0.33887730704E+02 -0.21073793383E+02  0.40439831927E+02  0.00000000000E+00 0.  1.
         13    1    3    3    0    0 -0.69956381386E+02 -0.32030604967E+02 -0.57288271717E+02  0.95926018512E+02  0.00000000000E+00 0. -1.
          1    1    1    2  501    0  0.12283314102E+02  0.12832376763E+03 -0.62016313300E+03  0.63341943504E+03  0.00000000000E+00 0. -1.
<scales pt_clust_5="13000.00000" pt_clust_6="13000.00000" pt_clust_7="13000.00000" pt_clust_8="13000.00000" pt_clust_9="136.60794"></scales>
<clustering>
<clus scale="   72.277">  5  6 -1 -1</clus>
<clus scale="   91.821">  7  8 -1 -1</clus>
<clus scale="  111.602">  2  7  1 -1</clus>
<clus scale="  136.608">  1  9  2 -1</clus>
<clus scale="  136.608">  1  5  2 -1</clus>
</clustering>
</event>
<event>
 9    2  0.1592151E-004  0.1280847E+03  0.7546771E-02  0.1236298E+00
          2   -1    0    0  502    0 -0.00000000000E+00  0.00000000000E+00  0.36934459346E+03  0.36934459346E+03  0.00000000000E+00 0. -1.
         21   -1    0    0  501  502  0.00000000000E+00 -0.00000000000E+00 -0.87646776622E+02  0.87646776622E+02  0.00000000000E+00 0. -1.
         23    2    1    2    0    0  0.70245755322E+02  0.97452734972E+01  0.16513310463E+03  0.20572329539E+03  0.10011840752E+03 0.  0.
         24    2    1    2    0    0 -0.89500506044E+02  0.98475489179E+01  0.15967694274E+03  0.20014774080E+03  0.80343495708E+02 0.  0.
        -13    1    4    4    0    0 -0.30259376272E+02  0.83978917479E+01  0.13025468936E+03  0.13398671030E+03  0.00000000000E+00 0.  1.
         14    1    4    4    0    0 -0.59241129772E+02  0.14496571700E+01  0.29422253387E+02  0.66161030501E+02  0.00000000000E+00 0. -1.
        -13    1    3    3    0    0 -0.23346798451E+02  0.14056163456E+02  0.53036108071E+02  0.59627824783E+02  0.00000000000E+00 0. -1.
         13    1    3    3    0    0  0.93592553773E+02 -0.43108899589E+01  0.11209699656E+03  0.14609547061E+03  0.00000000000E+00 0.  1.
          1    1    1    2  501    0  0.19254750723E+02 -0.19592822415E+02 -0.43112230534E+02  0.51120333892E+02  0.00000000000E+00 0. -1.
<scales pt_clust_5="13000.00000" pt_clust_6="13000.00000" pt_clust_7="13000.00000" pt_clust_8="13000.00000" pt_clust_9="27.47042"></scales>
<clustering>
<clus scale="   27.470">  2  9  1 -1</clus>
<clus scale="   80.343">  5  6 -1 -1</clus>
<clus scale="  100.118">  7  8 -1 -1</clus>
<clus scale="  113.301">  2  5  1 -1</clus>
<clus scale="   27.470">  2  5  1 -1</clus>
</clustering>
</event>
<event>
 9    2  0.1592151E-004  0.1220819E+03  0.7546771E-02  0.1243255E+00
         21   -1    0    0  501  502  0.00000000000E+00  0.00000000000E+00  0.15840513237E+03  0.15840513237E+03  0.00000000000E+00 0. -1.
          2   -1    0    0  502    0 -0.00000000000E+00 -0.00000000000E+00 -0.21968388330E+03  0.21968388330E+03  0.00000000000E+00 0. -1.
         23    2    1    2    0    0  0.39703106707E+02 -0.64624601990E+02 -0.13538186394E+03  0.17964357070E+03  0.90503522277E+02 0.  0.
         24    2    1    2    0    0 -0.33954064237E+02  0.10904451265E+03  0.62813784800E+02  0.15225422412E+03  0.78690488522E+02 0.  0.
        -13    1    4    4    0    0 -0.19671177392E+02  0.23418916169E+02 -0.16427856447E+02  0.34717075366E+02  0.00000000000E+00 0.  1.
         14    1    4    4    0    0 -0.14282886845E+02  0.85625596479E+02  0.79241641247E+02  0.11753714875E+03  0.00000000000E+00 0. -1.
        -11    1    3    3    0    0  0.35859175916E+02  0.13171204600E+02 -0.29855116957E+02  0.48483905953E+02  0.00000000000E+00 0.  1.
         11    1    3    3    0    0  0.38439307911E+01 -0.77795806590E+02 -0.10552674698E+03  0.13115966474E+03  0.00000000000E+00 0. -1.
          1    1    1    2  501    0 -0.57490424696E+01 -0.44419910658E+02  0.11289328209E+02  0.46191220850E+02  0.00000000000E+00 0. -1.
<scales pt_clust_5="13000.00000" pt_clust_6="13000.00000" pt_clust_7="13000.00000" pt_clust_8="13000.00000" pt_clust_9="44.79040"></scales>
<clustering>
<clus scale="   44.790">  1  9  2 -1</clus>
<clus scale="   78.690">  5  6 -1 -1</clus>
<clus scale="   90.504">  7  8 -1 -1</clus>
<clus scale="  113.601">  1  5  2 -1</clus>
<clus scale="   44.790">  1  5  2 -1</clus>
</clustering>
</event>
<event>
 9    2  0.1592151E-004  0.9395837E+02  0.7546771E-02  0.1298928E+00
         21   -1    0    0  501  502  0.00000000000E+00  0.00000000000E+00  0.11182523592E+03  0.11182523592E+03  0.00000000000E+00 0. -1.
          2   -1    0    0  502    0 -0.00000000000E+00 -0.00000000000E+00 -0.16083151993E+03  0.16083151993E+03  0.00000000000E+00 0. -1.
         24    2    1    2    0    0 -0.58022601789E+01  0.20739328540E+02 -0.10124668394E+03  0.13137328142E+03  0.80896613584E+02 0.  0.
         23    2    1    2    0    0  0.19614590791E+02 -0.45448832219E+02  0.39606288681E+02  0.11028410643E+03  0.90241883330E+02 0.  0.
        -11    1    3    3    0    0 -0.33773525540E+02  0.16602017641E+02 -0.14833006122E+02  0.40451156816E+02  0.00000000000E+00 0.  1.
         12    1    3    3    0    0  0.27971265361E+02  0.41373108994E+01 -0.86413677823E+02  0.90922124602E+02  0.00000000000E+00 0. -1.
        -13    1    4    4    0    0 -0.14918155355E+02 -0.43567157626E+02 -0.12525858991E+02  0.47723639072E+02  0.00000000000E+00 0.  1.
         13    1    4    4    0    0  0.34532746146E+02 -0.18816745934E+01  0.52132147673E+02  0.62560467363E+02  0.00000000000E+00 0. -1.
          1    1    1    2  501    0 -0.13812330613E+02  0.24709503679E+02  0.12634111251E+02  0.30999367996E+02  0.00000000000E+00 0. -1.
<scales pt_clust_5="13000.00000" pt_clust_6="13000.00000" pt_clust_7="13000.00000" pt_clust_8="13000.00000" pt_clust_9="28.30795"></scales>
<clustering>
<clus scale="   28.308">  1  9  2 -1</clus>
<clus scale="   80.897">  5  6 -1 -1</clus>
<clus scale="   85.023">  2  5  1 -1</clus>
<clus scale="   90.242">  7  8 -1 -1</clus>
<clus scale="   28.308">  1  5  2 -1</clus>
</clustering>
</event>
<event>
 9    2  0.1592151E-004  0.3511282E+03  0.7546771E-02  0.1105539E+00
          2   -1    0    0  502    0 -0.00000000000E+00  0.00000000000E+00  0.84435937079E+03  0.84435937079E+03  0.00000000000E+00 0. -1.
         21   -1    0    0  501  502  0.00000000000E+00 -0.00000000000E+00 -0.38114366216E+03  0.38114366216E+03  0.00000000000E+00 0. -1.
         24    2    1    2    0    0  0.53890398840E+02  0.48274912651E+02  0.71552743076E+02  0.13121736204E+03  0.82846597874E+02 0.  0.
         23    2    1    2    0    0 -0.24997740624E+03  0.22939558093E+03  0.60018609489E+03  0.69549636196E+03  0.91546735641E+02 0.  0.
        -11    1    3    3    0    0  0.81208021058E+01  0.43429174431E+02 -0.22501654942E+01  0.44239166621E+02  0.00000000000E+00 0.  1.
         12    1    3    3    0    0  0.45769596734E+02  0.48457382202E+01  0.73802908570E+02  0.86978195414E+02  0.00000000000E+00 0. -1.
        -11    1    4    4    0    0 -0.98678428806E+02  0.45627875440E+02  0.13864179295E+03  0.17618422767E+03  0.00000000000E+00 0.  1.
         11    1    4    4    0    0 -0.15129897744E+03  0.18376770549E+03  0.46154430194E+03  0.51931213428E+03  0.00000000000E+00 0. -1.
          1    1    1    2  501    0  0.19608700741E+03 -0.27767049358E+03 -0.20852312934E+03  0.39878930897E+03  0.00000000000E+00 0. -1.
<scales pt_clust_5="13000.00000" pt_clust_6="13000.00000" pt_clust_7="13000.00000" pt_clust_8="13000.00000" pt_clust_9="338.98413"></scales>
<clustering>
<clus scale="   82.847">  5  6 -1 -1</clus>
<clus scale="   91.547">  7  8 -1 -1</clus>
<clus scale="  109.992">  1  5  2 -1</clus>
<clus scale="  338.984">  2  9  1 -1</clus>
<clus scale="  338.984">  2  5  1 -1</clus>
</clustering>
</event>
<event>
 9    2  0.1592151E-004  0.1127628E+03  0.7546771E-02  0.1259594E+00
         21   -1    0    0  501  502  0.00000000000E+00  0.00000000000E+00  0.15787980841E+02  0.15787980841E+02  0.00000000000E+00 0. -1.
          2   -1    0    0  502    0 -0.00000000000E+00 -0.00000000000E+00 -0.13585852998E+04  0.13585852998E+04  0.00000000000E+00 0. -1.
         24    2    1    2    0    0 -0.53637303149E+02 -0.10949428013E+01 -0.56835063197E+03  0.57645966762E+03  0.80032170625E+02 0.  0.
         23    2    1    2    0    0  0.95294804715E+02  0.29416151286E+02 -0.45825824054E+03  0.47773776766E+03  0.91029390130E+02 0.  0.
        -13    1    3    3    0    0 -0.52946339338E+02 -0.30713148110E+02 -0.28119831241E+03  0.28778308363E+03  0.00000000000E+00 0.  1.
         14    1    3    3    0    0 -0.69096381114E+00  0.29618205309E+02 -0.28715231956E+03  0.28867658399E+03  0.00000000000E+00 0. -1.
        -11    1    4    4    0    0  0.17150316586E+02  0.40251984078E+02 -0.78485886364E+02  0.89857609247E+02  0.00000000000E+00 0.  1.
         11    1    4    4    0    0  0.78144488129E+02 -0.10835832792E+02 -0.37977235417E+03  0.38788015842E+03  0.00000000000E+00 0. -1.
          1    1    1    2  501    0 -0.41657501566E+02 -0.28321208485E+02 -0.31618844647E+03  0.32017584539E+03  0.00000000000E+00 0. -1.
<scales pt_clust_5="13000.00000" pt_clust_6="13000.00000" pt_clust_7="13000.00000" pt_clust_8="13000.00000" pt_clust_9="50.37302"></scales>
<clustering>
<clus scale="   50.373">  1  9  2 -1</clus>
<clus scale="   80.032">  5  6 -1 -1</clus>
<clus scale="   91.029">  7  8 -1 -1</clus>
<clus scale="  104.088">  2  5  1 -1</clus>
<clus scale="   50.373">  1  5  2 -1</clus>
</clustering>
</event>
<event>
 9    2  0.1592151E-004  0.2801326E+03  0.7546771E-02  0.1127280E+00
          2   -1    0    0  502    0 -0.00000000000E+00  0.00000000000E+00  0.80749865959E+03  0.80749865959E+03  0.00000000000E+00 0. -1.
         21   -1    0    0  501  502  0.00000000000E+00 -0.00000000000E+00 -0.16088647418E+03  0.16088647418E+03  0.00000000000E+00 0.  1.
         23    2    1    2    0    0  0.86792496232E+02 -0.32599244303E+01  0.26345757083E+03  0.29173656516E+03  0.90314823350E+02 0.  0.
         24    2    1    2    0    0  0.22436706571E+03  0.45735043643E+02  0.18445440856E+03  0.30502216937E+03  0.81134583102E+02 0.  0.
        -11    1    4    4    0    0  0.20831780277E+03  0.58020013696E+02  0.18532128908E+03  0.28479222097E+03  0.00000000000E+00 0.  1.
         12    1    4    4    0    0  0.16049262941E+02 -0.12284970053E+02 -0.86688052109E+00  0.20229948393E+02  0.00000000000E+00 0. -1.
        -11    1    3    3    0    0  0.73339020745E+02 -0.41683561988E+02  0.18586285651E+03  0.20411058947E+03  0.00000000000E+00 0. -1.
         11    1    3    3    0    0  0.13453475486E+02  0.38423637558E+02  0.77594714317E+02  0.87625975691E+02  0.00000000000E+00 0.  1.
          1    1    1    2  501    0 -0.31115956194E+03 -0.42475119213E+02  0.19870020602E+03  0.37162639924E+03  0.00000000000E+00 0. -1.
<scales pt_clust_5="13000.00000" pt_clust_6="13000.00000" pt_clust_7="13000.00000" pt_clust_8="13000.00000" pt_clust_9="268.12600"></scales>
<clustering>
<clus scale="   81.135">  5  6 -1 -1</clus>
<clus scale="   90.315">  7  8 -1 -1</clus>
<clus scale="  125.301">  1  7  2 -1</clus>
<clus scale="  268.126">  2  9  1 -1</clus>
<clus scale="  268.126">  2  5  1 -1</clus>
</clustering>
</event>
<event>
 9    2  0.1592151E-004  0.1455892E+03  0.7546771E-02  0.1209562E+00
          2   -1    0    0  502    0 -0.00000000000E+00  0.00000000000E+00  0.48914757150E+03  0.48914757150E+03  0.00000000000E+00 0. -1.
         21   -1    0    0  501  502  0.00000000000E+00 -0.00000000000E+00 -0.80054585651E+02  0.80054585651E+02  0.00000000000E+00 0. -1.
         24    2    1    2    0    0 -0.61967675349E+02 -0.11502711514E+03  0.27501751603E+03  0.31472281677E+03  0.79652917486E+02 0.  0.
         23    2    1    2    0    0  0.50320240579E+02  0.36190870286E+02  0.21945770398E+02  0.11691522540E+03  0.96672888586E+02 0.  0.
        -11    1    3    3    0    0 -0.10344254151E+02 -0.45486492888E+02  0.31564833178E+02  0.56323736761E+02  0.00000000000E+00 0.  1.
         12    1    3    3    0    0 -0.51623421199E+02 -0.69540622253E+02  0.24345268285E+03  0.25839908001E+03  0.00000000000E+00 0. -1.
        -11    1    4    4    0    0  0.26168772688E+01 -0.31478870346E+02  0.14418169391E+01  0.31620344100E+02  0.00000000000E+00 0. -1.
         11    1    4    4    0    0  0.47703363310E+02  0.67669740632E+02  0.20503953459E+02  0.85294881299E+02  0.00000000000E+00 0.  1.
          1    1    1    2  501    0  0.11647434770E+02  0.78836244854E+02  0.11212969942E+03  0.13756411498E+03  0.00000000000E+00 0. -1.
<scales pt_clust_5="13000.00000" pt_clust_6="13000.00000" pt_clust_7="13000.00000" pt_clust_8="13000.00000" pt_clust_9="79.69205"></scales>
<clustering>
<clus scale="   79.653">  5  6 -1 -1</clus>
<clus scale="   79.692">  2  9  1 -1</clus>
<clus scale="   96.673">  7  8 -1 -1</clus>
<clus scale="  134.889">  1  5  2 -1</clus>
<clus scale="   79.692">  2  5  1 -1</clus>
</clustering>
</event>
<event>
 9    2  0.1592151E-004  0.1019336E+03  0.7546771E-02  0.1277177E+00
         21   -1    0    0  501  502  0.00000000000E+00  0.00000000000E+00  0.80611844092E+03  0.80611844092E+03  0.00000000000E+00 0.  1.
         -3   -1    0    0    0  501 -0.00000000000E+00 -0.00000000000E+00 -0.32321414529E+02  0.32321414529E+02  0.00000000000E+00 0.  1.
         23    2    1    2    0    0 -0.26592076463E+02 -0.38859398724E+02  0.84081906572E+02  0.13283836597E+03  0.91427966509E+02 0.  0.
         24    2    1    2    0    0  0.49374195066E+02  0.82187823763E+01  0.38187217261E+03  0.39539969638E+03  0.89494157130E+02 0.  0.
        -13    1    4    4    0    0  0.37166656552E+02 -0.28587641837E+02  0.95245525901E+02  0.10616178140E+03  0.00000000000E+00 0.  1.
         14    1    4    4    0    0  0.12207538514E+02  0.36806424213E+02  0.28662664671E+03  0.28923791498E+03  0.00000000000E+00 0. -1.
        -13    1    3    3    0    0 -0.45125848423E+02 -0.59594774271E+02  0.65518899131E+02  0.99401234699E+02  0.00000000000E+00 0.  1.
         13    1    3    3    0    0  0.18533771960E+02  0.20735375547E+02  0.18563007440E+02  0.33437131267E+02  0.00000000000E+00 0. -1.
         -4    1    1    2    0  502 -0.22782118604E+02  0.30640616348E+02  0.30784294721E+03  0.31020179310E+03  0.00000000000E+00 0.  1.
<scales pt_clust_5="13000.00000" pt_clust_6="13000.00000" pt_clust_7="13000.00000" pt_clust_8="13000.00000" pt_clust_9="38.18209"></scales>
<clustering>
<clus scale="   38.182">  1  9  2 -1</clus>
<clus scale="   89.494">  5  6 -1 -1</clus>
<clus scale="   91.428">  7  8 -1 -1</clus>
<clus scale="  100.203">  1  5  2 -1</clus>
<clus scale="   38.182">  1  5  2 -1</clus>
</clustering>
</event>
<event>
 9    2  0.1592151E-004  0.1372036E+03  0.7546771E-02  0.1219517E+00
          2   -1    0    0  502    0 -0.00000000000E+00  0.00000000000E+00  0.23383789921E+03  0.23383789921E+03  0.00000000000E+00 0. -1.
         21   -1    0    0  501  502  0.00000000000E+00 -0.00000000000E+00 -0.46616516871E+03  0.46616516871E+03  0.00000000000E+00 0. -1.
         24    2    1    2    0    0  0.18403970053E+02  0.84638723945E+02 -0.13913356733E+03  0.18525909595E+03  0.86373395043E+02 0.  0.
         23    2    1    2    0    0  0.29715610981E+02 -0.12215029228E+03 -0.27812125648E+03  0.32001130346E+03  0.96187782994E+02 0.  0.
        -13    1    3    3    0    0  0.25184808402E+02 -0.10040417528E+02 -0.25802985832E+02  0.37428313296E+02  0.00000000000E+00 0.  1.
         14    1    3    3    0    0 -0.67808383489E+01  0.94679141473E+02 -0.11333058150E+03  0.14783078266E+03  0.00000000000E+00 0. -1.
        -13    1    4    4    0    0  0.59719799756E+02 -0.80413350207E+02 -0.22397441378E+03  0.24535137946E+03  0.00000000000E+00 0. -1.
         13    1    4    4    0    0 -0.30004188775E+02 -0.41736942075E+02 -0.54146842701E+02  0.74659924004E+02  0.00000000000E+00 0.  1.
          1    1    1    2  501    0 -0.48119581034E+02  0.37511568337E+02  0.18492755431E+03  0.19473266850E+03  0.00000000000E+00 0. -1.
<scales pt_clust_5="13000.00000" pt_clust_6="13000.00000" pt_clust_7="13000.00000" pt_clust_8="13000.00000" pt_clust_9="61.01324"></scales>
<clustering>
<clus scale="   61.013">  2  9  1 -1</clus>
<clus scale="   86.373">  5  6 -1 -1</clus>
<clus scale="   96.188">  7  8 -1 -1</clus>
<clus scale="  130.511">  1  5  2 -1</clus>
<clus scale="   61.013">  2  5  1 -1</clus>
</clustering>
</event>
<event>
 9    2  0.1592151E-004  0.1403146E+03  0.7546771E-02  0.1221127E+00
          2   -1    0    0  502    0 -0.00000000000E+00  0.00000000000E+00  0.41179435390E+03  0.41179435390E+03  0.00000000000E+00 0. -1.
         21   -1    0    0  501  502  0.00000000000E+00 -0.00000000000E+00 -0.14072399857E+03  0.14072399857E+03  0.00000000000E+00 0.  1.
         23    2    1    2    0    0  0.65635206134E+02 -0.34079429638E+02 -0.40652736299E+02  0.12477665807E+03  0.91908550316E+02 0.  0.
         24    2    1    2    0    0  0.83714266536E+02 -0.48428467835E+02  0.97814130032E+02  0.15411811724E+03  0.69508237706E+02 0.  0.
        -13    1    4    4    0    0  0.53539504567E+02 -0.54872671474E+01  0.14650021321E+02  0.55778237466E+02  0.00000000000E+00 0.  1.
         14    1    4    4    0    0  0.30174761969E+02 -0.42941200687E+02  0.83164108711E+02  0.98339879774E+02  0.00000000000E+00 0. -1.
        -13    1    3    3    0    0  0.11175210978E+02  0.27675682320E+02 -0.29004850708E+02  0.41618626802E+02  0.00000000000E+00 0.  1.
         13    1    3    3    0    0  0.54459995156E+02 -0.61755111957E+02 -0.11647885591E+02  0.83158031266E+02  0.00000000000E+00 0. -1.
          1    1    1    2  501    0 -0.14934947267E+03  0.82507897472E+02  0.21390896159E+03  0.27362357717E+03  0.00000000000E+00 0. -1.
<scales pt_clust_5="13000.00000" pt_clust_6="13000.00000" pt_clust_7="13000.00000" pt_clust_8="13000.00000" pt_clust_9="121.88851"></scales>
<clustering>
<clus scale="   69.508">  5  6 -1 -1</clus>
<clus scale="   91.909">  7  8 -1 -1</clus>
<clus scale="  117.969">  1  7  2 -1</clus>
<clus scale="  121.889">  2  9  1 -1</clus>
<clus scale="  121.889">  2  5  1 -1</clus>
</clustering>
</event>
<event>
 9    2  0.1592151E-004  0.1241082E+03  0.7546771E-02  0.1240662E+00
         21   -1    0    0  501  502  0.00000000000E+00  0.00000000000E+00  0.30850427806E+03  0.30850427806E+03  0.00000000000E+00 0. -1.
          4   -1    0    0  502    0 -0.00000000000E+00 -0.00000000000E+00 -0.11536628423E+03  0.11536628423E+03  0.00000000000E+00 0. -1.
         23    2    1    2    0    0  0.78530286326E+02 -0.52106573035E+02 -0.43833732640E+02  0.13953733528E+03  0.93097642275E+02 0.  0.
         24    2    1    2    0    0 -0.52710473247E+02  0.15488685808E+02  0.94183692650E+02  0.13468044549E+03  0.79056695219E+02 0.  0.
        -13    1    4    4    0    0 -0.28606927176E+02  0.35477126955E+02  0.12584707053E+02  0.47279569278E+02  0.00000000000E+00 0.  1.
         14    1    4    4    0    0 -0.24103546071E+02 -0.19988441147E+02  0.81598985597E+02  0.87400876215E+02  0.00000000000E+00 0. -1.
        -11    1    3    3    0    0  0.30967590055E+02 -0.32904393680E+01 -0.61669371239E+02  0.69086394999E+02  0.00000000000E+00 0. -1.
         11    1    3    3    0    0  0.47562696271E+02 -0.48816133667E+02  0.17835638599E+02  0.70450940285E+02  0.00000000000E+00 0.  1.
          3    1    1    2  501    0 -0.25819813079E+02  0.36617887226E+02  0.14278803382E+03  0.14965278152E+03  0.00000000000E+00 0. -1.
<scales pt_clust_5="13000.00000" pt_clust_6="13000.00000" pt_clust_7="13000.00000" pt_clust_8="13000.00000" pt_clust_9="44.80550"></scales>
<clustering>
<clus scale="   44.805">  1  9  2 -1</clus>
<clus scale="   79.057">  5  6 -1 -1</clus>
<clus scale="   93.098">  7  8 -1 -1</clus>
<clus scale="  113.954">  1  5  2 -1</clus>
<clus scale="   44.805">  1  5  2 -1</clus>
</clustering>
</event>
<event>
 9    2  0.1592151E-004  0.1354196E+03  0.7546771E-02  0.1222836E+00
          2   -1    0    0  502    0 -0.00000000000E+00  0.00000000000E+00  0.33295992737E+03  0.33295992737E+03  0.00000000000E+00 0. -1.
         21   -1    0    0  501  502  0.00000000000E+00 -0.00000000000E+00 -0.10038530238E+03  0.10038530238E+03  0.00000000000E+00 0. -1.
         24    2    1    2    0    0 -0.56158895563E+02 -0.94572635906E+02  0.22907764607E+03  0.26687574135E+03  0.81537036841E+02 0.  0.
         23    2    1    2    0    0  0.43736434817E+02  0.41964610347E+02  0.26145400437E+01  0.11240748157E+03  0.94629286378E+02 0.  0.
        -13    1    3    3    0    0 -0.49952976044E+02 -0.40891840466E+02  0.55673411821E+02  0.85246531989E+02  0.00000000000E+00 0.  1.
         14    1    3    3    0    0 -0.62059195193E+01 -0.53680795440E+02  0.17340423425E+03  0.18162920936E+03  0.00000000000E+00 0. -1.
        -11    1    4    4    0    0  0.72234724780E+01 -0.21818957112E+02 -0.24941328583E+02  0.33916298671E+02  0.00000000000E+00 0. -1.
         11    1    4    4    0    0  0.36512962339E+02  0.63783567459E+02  0.27555868627E+02  0.78491182895E+02  0.00000000000E+00 0.  1.
          1    1    1    2  501    0  0.12422460746E+02  0.52608025560E+02  0.88243887379E+00  0.54062006831E+02  0.00000000000E+00 0. -1.
<scales pt_clust_5="13000.00000" pt_clust_6="13000.00000" pt_clust_7="13000.00000" pt_clust_8="13000.00000" pt_clust_9="54.05480"></scales>
<clustering>
<clus scale="   54.055">  2  9  1 -1</clus>
<clus scale="   81.537">  5  6 -1 -1</clus>
<clus scale="   94.629">  7  8 -1 -1</clus>
<clus scale="  126.618">  1  5  2 -1</clus>
<clus scale="   54.055">  2  5  1 -1</clus>
</clustering>
</event>
<event>
 9    2  0.1592151E-004  0.1210026E+03  0.7546771E-02  0.1244296E+00
         21   -1    0    0  501  502  0.00000000000E+00  0.00000000000E+00  0.49331537598E+02  0.49331537598E+02  0.00000000000E+00 0.  1.
          2   -1    0    0  502    0 -0.00000000000E+00 -0.00000000000E+00 -0.52520581739E+03  0.52520581739E+03  0.00000000000E+00 0. -1.
         24    2    1    2    0    0  0.28342967003E+02  0.75783677048E+02 -0.32299456808E+03  0.34168155406E+03  0.76644007543E+02 0.  0.
         23    2    1    2    0    0 -0.16779194561E+02 -0.93205101374E+02 -0.16479945304E+03  0.20878700178E+03  0.86396875495E+02 0.  0.
        -13    1    3    3    0    0  0.34610519004E+02  0.31724288843E+01 -0.66514389670E+02  0.75047427430E+02  0.00000000000E+00 0.  1.
         14    1    3    3    0    0 -0.62675520005E+01  0.72611248163E+02 -0.25648017841E+03  0.26663412663E+03  0.00000000000E+00 0. -1.
        -11    1    4    4    0    0 -0.45314728157E+02 -0.61636346757E+02 -0.65342478931E+02  0.10060866455E+03  0.00000000000E+00 0.  1.
         11    1    4    4    0    0  0.28535533596E+02 -0.31568754617E+02 -0.99456974113E+02  0.10817833723E+03  0.00000000000E+00 0. -1.
          1    1    1    2  501    0 -0.11563772442E+02  0.17421424327E+02  0.11919741336E+02  0.24068799143E+02  0.00000000000E+00 0. -1.
<scales pt_clust_5="13000.00000" pt_clust_6="13000.00000" pt_clust_7="13000.00000" pt_clust_8="13000.00000" pt_clust_9="20.90997"></scales>
<clustering>
<clus scale="   20.910">  1  9  2 -1</clus>
<clus scale="   76.644">  5  6 -1 -1</clus>
<clus scale="   86.397">  7  8 -1 -1</clus>
<clus scale="  114.243">  2  5  1 -1</clus>
<clus scale="   20.910">  1  5  2 -1</clus>
</clustering>
</event>
<event>
 9    2  0.1592151E-004  0.1087952E+03  0.7546771E-02  0.1270953E+00
          2   -1    0    0  502    0 -0.00000000000E+00  0.00000000000E+00  0.14844563649E+04  0.14844563649E+04  0.00000000000E+00 0. -1.
         21   -1    0    0  501  502  0.00000000000E+00 -0.00000000000E+00 -0.23177969720E+02  0.23177969720E+02  0.00000000000E+00 0.  1.
         24    2    1    2    0    0 -0.41062795605E+02 -0.36652453701E+01  0.11277821221E+04  0.11314629614E+04  0.81340831727E+02 0.  0.
         23    2    1    2    0    0  0.63833224709E+02  0.27115638917E+02  0.31752671653E+03  0.33979225646E+03  0.99124282550E+02 0.  0.
        -13    1    3    3    0    0 -0.30298887615E+02 -0.10335629606E+02  0.14055489499E+03  0.14415452242E+03  0.00000000000E+00 0.  1.
         14    1    3    3    0    0 -0.10763907989E+02  0.66703842363E+01  0.98722722711E+03  0.98730843898E+03  0.00000000000E+00 0. -1.
        -13    1    4    4    0    0  0.44016197673E+02  0.60260378243E+02  0.14592364176E+03  0.16389767561E+03  0.00000000000E+00 0.  1.
         13    1    4    4    0    0  0.19817027036E+02 -0.33144739325E+02  0.17160307477E+03  0.17589458086E+03  0.00000000000E+00 0. -1.
          1    1    1    2  501    0 -0.22770429104E+02 -0.23450393547E+02  0.15969556553E+02  0.36379116752E+02  0.00000000000E+00 0. -1.
<scales pt_clust_5="13000.00000" pt_clust_6="13000.00000" pt_clust_7="13000.00000" pt_clust_8="13000.00000" pt_clust_9="32.68659"></scales>
<clustering>
<clus scale="   32.687">  2  9  1 -1</clus>
<clus scale="   81.341">  5  6 -1 -1</clus>
<clus scale="   92.882">  1  5  2 -1</clus>
<clus scale="   99.124">  7  8 -1 -1</clus>
<clus scale="   32.687">  2  5  1 -1</clus>
</clustering>
</event>
<event>
 9    2  0.1592151E-004  0.1170773E+03  0.7546771E-02  0.1250607E+00
         21   -1    0    0  501  502  0.00000000000E+00  0.00000000000E+00  0.88873621058E+03  0.88873621058E+03  0.00000000000E+00 0.  1.
         -3   -1    0    0    0  501 -0.00000000000E+00 -0.00000000000E+00 -0.47382917520E+02  0.47382917520E+02  0.00000000000E+00 0.  1.
         24    2    1    2    0    0  0.72841554515E+02 -0.11085388578E+02  0.18244202858E+03  0.21442481735E+03  0.85229869186E+02 0.  0.
         23    2    1    2    0    0 -0.64779021168E+02 -0.66473262220E+02  0.62148377463E+03  0.63520057829E+03  0.92858367187E+02 0.  0.
        -11    1    3    3    0    0  0.75655361148E+02 -0.33589779680E+02  0.16868067562E+03  0.18789671976E+03  0.00000000000E+00 0.  1.
         12    1    3    3    0    0 -0.28138066321E+01  0.22504391103E+02  0.13761352958E+02  0.26528097593E+02  0.00000000000E+00 0. -1.
        -11    1    4    4    0    0  0.20526174749E+02 -0.31255472204E+02  0.13735861720E+03  0.14235736058E+03  0.00000000000E+00 0. -1.
         11    1    4    4    0    0 -0.85305195917E+02 -0.35217790016E+02  0.48412515743E+03  0.49284321771E+03  0.00000000000E+00 0.  1.
         -4    1    1    2    0  502 -0.80625333477E+01  0.77558650798E+02  0.37427489850E+02  0.86493732455E+02  0.00000000000E+00 0.  1.
<scales pt_clust_5="13000.00000" pt_clust_6="13000.00000" pt_clust_7="13000.00000" pt_clust_8="13000.00000" pt_clust_9="77.97663"></scales>
<clustering>
<clus scale="   77.977">  1  9  2 -1</clus>
<clus scale="   85.230">  5  6 -1 -1</clus>
<clus scale="   92.858">  7  8 -1 -1</clus>
<clus scale="  111.124">  2  5  1 -1</clus>
<clus scale="   77.977">  1  5  2 -1</clus>
</clustering>
</event>
<event>
 9    2  0.1592151E-004  0.1562349E+03  0.7546771E-02  0.1205125E+00
         21   -1    0    0  501  502  0.00000000000E+00  0.00000000000E+00  0.33170757160E+02  0.33170757160E+02  0.00000000000E+00 0. -1.
          2   -1    0    0  502    0 -0.00000000000E+00 -0.00000000000E+00 -0.13822182110E+04  0.13822182110E+04  0.00000000000E+00 0. -1.
         23    2    1    2    0    0  0.71689777314E+02  0.31503680800E+02 -0.33486267929E+03  0.35573168239E+03  0.90995108682E+02 0.  0.
         24    2    1    2    0    0 -0.40304071001E+02  0.12009278864E+03 -0.43468337085E+03  0.45983362085E+03  0.80315813786E+02 0.  0.
        -13    1    4    4    0    0  0.22497243323E+02  0.55016388928E+02 -0.18126981930E+03  0.19076602527E+03  0.00000000000E+00 0.  1.
         14    1    4    4    0    0 -0.62801314324E+02  0.65076399711E+02 -0.25341355155E+03  0.26906759558E+03  0.00000000000E+00 0. -1.
        -13    1    3    3    0    0 -0.18284884523E+02 -0.93472591381E+01 -0.44349402199E+02  0.48873077771E+02  0.00000000000E+00 0.  1.
         13    1    3    3    0    0  0.89974661837E+02  0.40850939938E+02 -0.29051327709E+03  0.30685860462E+03  0.00000000000E+00 0. -1.
          1    1    1    2  501    0 -0.31385706313E+02 -0.15159646944E+03 -0.57950140374E+03  0.59982366496E+03  0.00000000000E+00 0. -1.
<scales pt_clust_5="13000.00000" pt_clust_6="13000.00000" pt_clust_7="13000.00000" pt_clust_8="13000.00000" pt_clust_9="134.01025"></scales>
<clustering>
<clus scale="   80.316">  5  6 -1 -1</clus>
<clus scale="   90.995">  7  8 -1 -1</clus>
<clus scale="  120.050">  2  7  1 -1</clus>
<clus scale="  134.010">  1  9  2 -1</clus>
<clus scale="  134.010">  1  5  2 -1</clus>
</clustering>
</event>
<event>
 9    2  0.1592151E-004  0.1734494E+03  0.7546771E-02  0.1201276E+00
          2   -1    0    0  502    0 -0.00000000000E+00  0.00000000000E+00  0.13718789830E+04  0.13718789830E+04  0.00000000000E+00 0. -1.
         21   -1    0    0  501  502  0.00000000000E+00 -0.00000000000E+00 -0.42259886173E+02  0.42259886173E+02  0.00000000000E+00 0.  1.
         23    2    1    2    0    0  0.18145868185E+02  0.63254820184E+01  0.13254579947E+03  0.16327389390E+03  0.93384641229E+02 0.  0.
         24    2    1    2    0    0  0.16461422337E+02  0.14905914692E+03  0.35767607585E+03  0.39650571656E+03  0.82431791958E+02 0.  0.
        -13    1    4    4    0    0  0.52731249576E+01  0.13571897603E+03  0.22592135244E+03  0.26360558376E+03  0.00000000000E+00 0.  1.
         14    1    4    4    0    0  0.11188297380E+02  0.13340170887E+02  0.13175472341E+03  0.13290013280E+03  0.00000000000E+00 0. -1.
        -11    1    3    3    0    0  0.54454442279E+02  0.14624671901E+02  0.94426667286E+02  0.10997982909E+03  0.00000000000E+00 0.  1.
         11    1    3    3    0    0 -0.36308574094E+02 -0.82991898830E+01  0.38119132186E+02  0.53294064811E+02  0.00000000000E+00 0. -1.
          1    1    1    2  501    0 -0.34607290522E+02 -0.15538462894E+03  0.83939722146E+03  0.85435925866E+03  0.00000000000E+00 0. -1.
<scales pt_clust_5="13000.00000" pt_clust_6="13000.00000" pt_clust_7="13000.00000" pt_clust_8="13000.00000" pt_clust_9="152.60968"></scales>
<clustering>
<clus scale="   82.432">  5  6 -1 -1</clus>
<clus scale="   93.385">  7  8 -1 -1</clus>
<clus scale="   95.341">  1  7  2 -1</clus>
<clus scale="  152.610">  2  9  1 -1</clus>
<clus scale="  152.610">  2  5  1 -1</clus>
</clustering>
</event>
<event>
 9    2  0.1592151E-004  0.4420091E+03  0.7546771E-02  0.1030132E+00
         21   -1    0    0  501  502  0.00000000000E+00  0.00000000000E+00  0.16574030065E+03  0.16574030065E+03  0.00000000000E+00 0.  1.
          2   -1    0    0  502    0 -0.00000000000E+00 -0.00000000000E+00 -0.10462743254E+04  0.10462743254E+04  0.00000000000E+00 0. -1.
         24    2    1    2    0    0  0.29340498751E+03 -0.12240642691E+02 -0.25697799553E+03  0.39848037976E+03  0.80700699119E+02 0.  0.
         23    2    1    2    0    0  0.87874066861E+02  0.52353003527E+02 -0.13328689393E+03  0.19116253758E+03  0.91186792209E+02 0.  0.
        -13    1    3    3    0    0  0.24356486015E+03 -0.38991363800E+02 -0.19389350798E+03  0.31374967727E+03  0.00000000000E+00 0.  1.
         14    1    3    3    0    0  0.49840127364E+02  0.26750721109E+02 -0.63084487545E+02  0.84730702489E+02  0.00000000000E+00 0. -1.
        -11    1    4    4    0    0  0.81769713069E+02  0.71841817194E+02 -0.13143876936E+03  0.17065662238E+03  0.00000000000E+00 0.  1.
         11    1    4    4    0    0  0.61043537921E+01 -0.19488813667E+02 -0.18481245719E+01  0.20505915191E+02  0.00000000000E+00 0. -1.
          1    1    1    2  501    0 -0.38127905437E+03 -0.40112360836E+02 -0.49026913528E+03  0.62237170871E+03  0.00000000000E+00 0. -1.
<scales pt_clust_5="13000.00000" pt_clust_6="13000.00000" pt_clust_7="13000.00000" pt_clust_8="13000.00000" pt_clust_9="383.38344"></scales>
<clustering>
<clus scale="   80.701">  5  6 -1 -1</clus>
<clus scale="   91.187">  7  8 -1 -1</clus>
<clus scale="  108.602">  5  7 -1 -1</clus>
<clus scale="  383.383">  1  9  2 -1</clus>
<clus scale="  383.383">  1  5  2 -1</clus>
</clustering>
</event>
<event>
 9    2  0.1592151E-004  0.1018464E+03  0.7546771E-02  0.1282406E+00
          2   -1    0    0  502    0 -0.00000000000E+00  0.00000000000E+00  0.34135904821E+03  0.34135904821E+03  0.00000000000E+00 0. -1.
         21   -1    0    0  501  502  0.00000000000E+00 -0.00000000000E+00 -0.11919457117E+03  0.11919457117E+03  0.00000000000E+00 0. -1.
         24    2    1    2    0    0  0.44344342009E+02 -0.25730306604E+02  0.23645676571E+03  0.25448622398E+03  0.78885783271E+02 0.  0.
         23    2    1    2    0    0 -0.27510228816E+02  0.10212201255E+02  0.70022422720E+02  0.11869938342E+03  0.91243093970E+02 0.  0.
        -13    1    3    3    0    0  0.29087184209E+02  0.25956506048E+02  0.79685736770E+02  0.88710885105E+02  0.00000000000E+00 0.  1.
         14    1    3    3    0    0  0.15257157800E+02 -0.51686812652E+02  0.15677102894E+03  0.16577533888E+03  0.00000000000E+00 0. -1.
        -11    1    4    4    0    0  0.21163231795E+02 -0.22617138664E+02  0.45570924670E+02  0.55101057310E+02  0.00000000000E+00 0. -1.
         11    1    4    4    0    0 -0.48673460611E+02  0.32829339920E+02  0.24451498050E+02  0.63598326112E+02  0.00000000000E+00 0.  1.
          1    1    1    2  501    0 -0.16834113193E+02  0.15518105349E+02 -0.84314711384E+02  0.87368011975E+02  0.00000000000E+00 0. -1.
<scales pt_clust_5="13000.00000" pt_clust_6="13000.00000" pt_clust_7="13000.00000" pt_clust_8="13000.00000" pt_clust_9="22.89539"></scales>
<clustering>
<clus scale="   22.895">  2  9  1 -1</clus>
<clus scale="   78.886">  5  6 -1 -1</clus>
<clus scale="   90.942">  1  5  2 -1</clus>
<clus scale="   91.243">  7  8 -1 -1</clus>
<clus scale="   22.895">  2  5  1 -1</clus>
</clustering>
</event>
<event>
 9    2  0.1592151E-004  0.2804390E+03  0.7546771E-02  0.1096143E+00
         -1   -1    0    0    0  501 -0.00000000000E+00  0.00000000000E+00  0.28057813348E+03  0.28057813348E+03  0.00000000000E+00 0.  1.
         21   -1    0    0  501  502  0.00000000000E+00 -0.00000000000E+00 -0.33726911998E+03  0.33726911998E+03  0.00000000000E+00 0.  1.
         24    2    1    2    0    0  0.15113340848E+03  0.22250720976E+03  0.28044091905E+02  0.28051809929E+03  0.74519577177E+02 0.  0.
         23    2    1    2    0    0 -0.10671646506E+03 -0.23955856000E+03 -0.61823773120E+02  0.28452251332E+03  0.91401171114E+02 0.  0.
        -11    1    3    3    0    0  0.62209247288E+02  0.14005708548E+03 -0.95763901776E+01  0.15355026828E+03  0.00000000000E+00 0.  1.
         12    1    3    3    0    0  0.88924161191E+02  0.82450124281E+02  0.37620482082E+02  0.12696783100E+03  0.00000000000E+00 0. -1.
        -13    1    4    4    0    0 -0.91844629485E+02 -0.11201881888E+03 -0.58071165272E+02  0.15606380741E+03  0.00000000000E+00 0.  1.
         13    1    4    4    0    0 -0.14871835575E+02 -0.12753974112E+03 -0.37526078487E+01  0.12845870591E+03  0.00000000000E+00 0. -1.
         -2    1    1    2    0  502 -0.44416943419E+02  0.17051350238E+02 -0.22911305286E+02  0.52806640847E+02  0.00000000000E+00 0.  1.
<scales pt_clust_5="13000.00000" pt_clust_6="13000.00000" pt_clust_7="13000.00000" pt_clust_8="13000.00000" pt_clust_9="47.57745"></scales>
<clustering>
<clus scale="   47.577">  2  9  1 -1</clus>
<clus scale="   74.520">  5  6 -1 -1</clus>
<clus scale="   91.401">  7  8 -1 -1</clus>
<clus scale="  275.400">  1  5  2 -1</clus>
<clus scale="   47.577">  2  5  1 -1</clus>
</clustering>
</event>
<event>
 9    2  0.1592151E-004  0.1334892E+03  0.7546771E-02  0.1224537E+00
          2   -1    0    0  502    0 -0.00000000000E+00  0.00000000000E+00  0.14419470918E+04  0.14419470918E+04  0.00000000000E+00 0. -1.
         21   -1    0    0  501  502  0.00000000000E+00 -0.00000000000E+00 -0.42349402836E+02  0.42349402836E+02  0.00000000000E+00 0. -1.
         24    2    1    2    0    0 -0.33971508154E+02 -0.98734039650E+02  0.10647477633E+04  0.10730330107E+04  0.82520109979E+02 0.  0.
         23    2    1    2    0    0  0.62185110640E+02  0.58891401611E+02  0.33984275160E+03  0.36218832239E+03  0.91389823813E+02 0.  0.
        -11    1    3    3    0    0 -0.32151155729E+02 -0.51325348975E+02  0.26302342725E+03  0.26990611616E+03  0.00000000000E+00 0.  1.
         12    1    3    3    0    0 -0.18203524251E+01 -0.47408690674E+02  0.80172433606E+03  0.80312689450E+03  0.00000000000E+00 0. -1.
        -11    1    4    4    0    0 -0.40618001777E+01  0.45832052131E+02  0.21880583913E+03  0.22359130229E+03  0.00000000000E+00 0. -1.
         11    1    4    4    0    0  0.66246910818E+02  0.13059349480E+02  0.12103691247E+03  0.13859702011E+03  0.00000000000E+00 0.  1.
          1    1    1    2  501    0 -0.28213602486E+02  0.39842638038E+02 -0.49928259595E+01  0.49075161560E+02  0.00000000000E+00 0. -1.
<scales pt_clust_5="13000.00000" pt_clust_6="13000.00000" pt_clust_7="13000.00000" pt_clust_8="13000.00000" pt_clust_9="48.82052"></scales>
<clustering>
<clus scale="   48.821">  2  9  1 -1</clus>
<clus scale="   82.520">  5  6 -1 -1</clus>
<clus scale="   91.390">  7  8 -1 -1</clus>
<clus scale="  127.581">  1  5  2 -1</clus>
<clus scale="   48.821">  2  5  1 -1</clus>
</clustering>
</event>
<event>
 9    2  0.1592151E-004  0.1158834E+03  0.7546771E-02  0.1251911E+00
         -1   -1    0    0    0  501 -0.00000000000E+00  0.00000000000E+00  0.98580014090E+02  0.98580014090E+02  0.00000000000E+00 0.  1.
         21   -1    0    0  501  502  0.00000000000E+00 -0.00000000000E+00 -0.32913175866E+03  0.32913175866E+03  0.00000000000E+00 0.  1.
         24    2    1    2    0    0 -0.62486940932E+01 -0.72059837326E+02 -0.60217025503E+02  0.12428951952E+03  0.81179604385E+02 0.  0.
         23    2    1    2    0    0  0.38883131303E+02  0.82578968324E+02 -0.21372682403E+03  0.24811824450E+03  0.86904108275E+02 0.  0.
        -13    1    3    3    0    0  0.52744919520E+01 -0.70898701907E+02 -0.76417697080E+02  0.10437485628E+03  0.00000000000E+00 0.  1.
         14    1    3    3    0    0 -0.11523186045E+02 -0.11611354191E+01  0.16200671577E+02  0.19914663232E+02  0.00000000000E+00 0. -1.
        -11    1    4    4    0    0  0.58603845560E+02  0.38244654563E+02 -0.82352022687E+02  0.10806905180E+03  0.00000000000E+00 0.  1.
         11    1    4    4    0    0 -0.19720714257E+02  0.44334313761E+02 -0.13137480134E+03  0.14004919270E+03  0.00000000000E+00 0. -1.
         -2    1    1    2    0  502 -0.32634437210E+02 -0.10519130997E+02  0.43392104961E+02  0.55304008733E+02  0.00000000000E+00 0.  1.
<scales pt_clust_5="13000.00000" pt_clust_6="13000.00000" pt_clust_7="13000.00000" pt_clust_8="13000.00000" pt_clust_9="34.28790"></scales>
<clustering>
<clus scale="   34.288">  2  9  1 -1</clus>
<clus scale="   81.180">  5  6 -1 -1</clus>
<clus scale="   86.904">  7  8 -1 -1</clus>
<clus scale="  111.655">  1  5  2 -1</clus>
<clus scale="   34.288">  2  5  1 -1</clus>
</clustering>
</event>
<event>
 9    2  0.1592151E-004  0.9623142E+02  0.7546771E-02  0.1293231E+00
          2   -1    0    0  502    0 -0.00000000000E+00  0.00000000000E+00  0.95017157705E+03  0.95017157705E+03  0.00000000000E+00 0. -1.
         21   -1    0    0  501  502  0.00000000000E+00 -0.00000000000E+00 -0.14211009402E+02  0.14211009402E+02  0.00000000000E+00 0. -1.
         24    2    1    2    0    0  0.14656332594E+02 -0.44286522403E+02  0.50497325752E+03  0.51368041636E+03  0.81813661434E+02 0.  0.
         23    2    1    2    0    0  0.92564489638E+01  0.13833089867E+02  0.32701707065E+03  0.33975604185E+03  0.90647488929E+02 0.  0.
        -13    1    3    3    0    0  0.37189663431E+02  0.66840345111E+01  0.17483986028E+03  0.17887628162E+03  0.00000000000E+00 0.  1.
         14    1    3    3    0    0 -0.22533330837E+02 -0.50970556914E+02  0.33013339723E+03  0.33480413474E+03  0.00000000000E+00 0. -1.
        -13    1    4    4    0    0  0.41419183067E+02  0.29385686079E+02  0.24637754078E+03  0.25155707081E+03  0.00000000000E+00 0. -1.
         13    1    4    4    0    0 -0.32162734104E+02 -0.15552596212E+02  0.80639529871E+02  0.88198971036E+02  0.00000000000E+00 0.  1.
          1    1    1    2  501    0 -0.23912781558E+02  0.30453432536E+02  0.10397023948E+03  0.11094612825E+03  0.00000000000E+00 0. -1.
<scales pt_clust_5="13000.00000" pt_clust_6="13000.00000" pt_clust_7="13000.00000" pt_clust_8="13000.00000" pt_clust_9="38.71993"></scales>
<clustering>
<clus scale="   38.720">  2  9  1 -1</clus>
<clus scale="   81.814">  5  6 -1 -1</clus>
<clus scale="   87.960">  1  5  2 -1</clus>
<clus scale="   90.647">  7  8 -1 -1</clus>
<clus scale="   38.720">  2  5  1 -1</clus>
</clustering>
</event>
<event>
 9    2  0.1592151E-004  0.1795030E+03  0.7546771E-02  0.1197967E+00
         21   -1    0    0  501  502  0.00000000000E+00  0.00000000000E+00  0.40982395745E+03  0.40982395745E+03  0.00000000000E+00 0. -1.
          2   -1    0    0  502    0 -0.00000000000E+00 -0.00000000000E+00 -0.21262315146E+03  0.21262315146E+03  0.00000000000E+00 0. -1.
         23    2    1    2    0    0  0.40466006971E+01  0.88454777145E+01  0.12069764240E+03  0.15202479291E+03  0.91918438436E+02 0.  0.
         24    2    1    2    0    0 -0.14887187572E+03  0.63679686856E+02 -0.11989072586E+03  0.21585440839E+03  0.77468713533E+02 0.  0.
        -11    1    4    4    0    0 -0.10650250286E+03  0.86426220885E+01 -0.52405741207E+02  0.11901193110E+03  0.00000000000E+00 0.  1.
         12    1    4    4    0    0 -0.42369372855E+02  0.55037064768E+02 -0.67484984650E+02  0.96842477289E+02  0.00000000000E+00 0. -1.
        -11    1    3    3    0    0 -0.21821682229E+02  0.24869938683E+02  0.11674118535E+03  0.12133921058E+03  0.00000000000E+00 0. -1.
         11    1    3    3    0    0  0.25868282927E+02 -0.16024460969E+02  0.39564570520E+01  0.30685582336E+02  0.00000000000E+00 0.  1.
          1    1    1    2  501    0  0.14482527502E+03 -0.72525164571E+02  0.19639388944E+03  0.25456790762E+03  0.00000000000E+00 0. -1.
<scales pt_clust_5="13000.00000" pt_clust_6="13000.00000" pt_clust_7="13000.00000" pt_clust_8="13000.00000" pt_clust_9="161.92572"></scales>
<clustering>
<clus scale="   77.469">  5  6 -1 -1</clus>
<clus scale="   91.918">  7  8 -1 -1</clus>
<clus scale="   92.432">  2  7  1 -1</clus>
<clus scale="  161.926">  1  9  2 -1</clus>
<clus scale="  161.926">  1  5  2 -1</clus>
</clustering>
</event>
<event>
 9    2  0.1592151E-004  0.9083606E+02  0.7546771E-02  0.1301843E+00
         -1   -1    0    0    0  501 -0.00000000000E+00  0.00000000000E+00  0.22322227839E+03  0.22322227839E+03  0.00000000000E+00 0.  1.
         21   -1    0    0  501  502  0.00000000000E+00 -0.00000000000E+00 -0.72101176082E+02  0.72101176082E+02  0.00000000000E+00 0. -1.
         23    2    1    2    0    0 -0.19262374304E+02  0.20928120534E+02  0.79805930996E+02  0.11894778837E+03  0.83489906237E+02 0.  0.
         24    2    1    2    0    0 -0.13076603317E+02 -0.50592412094E+02  0.93382782684E+01  0.10043545976E+03  0.85261294974E+02 0.  0.
        -11    1    4    4    0    0  0.13823156464E+02 -0.66527828508E+02  0.12214634392E+02  0.69037880283E+02  0.00000000000E+00 0.  1.
         12    1    4    4    0    0 -0.26899759781E+02  0.15935416415E+02 -0.28763561232E+01  0.31397579479E+02  0.00000000000E+00 0. -1.
        -11    1    3    3    0    0 -0.45235804898E+02  0.22365644656E+01  0.16846270332E+02  0.48322635374E+02  0.00000000000E+00 0.  1.
         11    1    3    3    0    0  0.25973430594E+02  0.18691556068E+02  0.62959660664E+02  0.70625152998E+02  0.00000000000E+00 0. -1.
         -2    1    1    2    0  502  0.32338977622E+02  0.29664291560E+02  0.61976893046E+02  0.75940206340E+02  0.00000000000E+00 0.  1.
<scales pt_clust_5="13000.00000" pt_clust_6="13000.00000" pt_clust_7="13000.00000" pt_clust_8="13000.00000" pt_clust_9="43.88373"></scales>
<clustering>
<clus scale="   43.884">  2  9  1 -1</clus>
<clus scale="   83.490">  7  8 -1 -1</clus>
<clus scale="   85.261">  5  6 -1 -1</clus>
<clus scale="   89.175">  1  7  2 -1</clus>
<clus scale="   43.884">  2  5  1 -1</clus>
</clustering>
</event>
<event>
 9    2  0.1592151E-004  0.1782076E+03  0.7546771E-02  0.1170777E+00
          2   -1    0    0  502    0 -0.00000000000E+00  0.00000000000E+00  0.44970320852E+03  0.44970320852E+03  0.00000000000E+00 0. -1.
         21   -1    0    0  501  502  0.00000000000E+00 -0.00000000000E+00 -0.24306288132E+03  0.24306288132E+03  0.00000000000E+00 0. -1.
         23    2    1    2    0    0  0.11613293983E+03 -0.93115005069E+02  0.23007833125E+03  0.28885939025E+03  0.91358879923E+02 0.  0.
         24    2    1    2    0    0 -0.19926702270E+03  0.32988336970E+02 -0.13193040714E+03  0.25458458643E+03  0.81314836331E+02 0.  0.
        -11    1    4    4    0    0 -0.54320819096E+02  0.45644191724E+02 -0.30545790354E+02  0.77247582057E+02  0.00000000000E+00 0.  1.
         12    1    4    4    0    0 -0.14494620360E+03 -0.12655854754E+02 -0.10138461679E+03  0.17733700437E+03  0.00000000000E+00 0. -1.
        -11    1    3    3    0    0  0.85048519196E+02 -0.11008425079E+03  0.17884664746E+03  0.22657871965E+03  0.00000000000E+00 0. -1.
         11    1    3    3    0    0  0.31084420636E+02  0.16969245720E+02  0.51231683785E+02  0.62280670597E+02  0.00000000000E+00 0.  1.
          1    1    1    2  501    0  0.83134082863E+02  0.60126668099E+02  0.10849240310E+03  0.14932211317E+03  0.00000000000E+00 0. -1.
<scales pt_clust_5="13000.00000" pt_clust_6="13000.00000" pt_clust_7="13000.00000" pt_clust_8="13000.00000" pt_clust_9="102.59875"></scales>
<clustering>
<clus scale="   81.315">  5  6 -1 -1</clus>
<clus scale="   91.359">  7  8 -1 -1</clus>
<clus scale="  102.599">  2  9  1 -1</clus>
<clus scale="  173.273">  2  5  1 -1</clus>
<clus scale="  102.599">  2  5  1 -1</clus>
</clustering>
</event>
<event>
 9    2  0.1592151E-004  0.1325891E+03  0.7546771E-02  0.1243897E+00
         21   -1    0    0  501  502  0.00000000000E+00  0.00000000000E+00  0.14473455295E+03  0.14473455295E+03  0.00000000000E+00 0.  1.
         -1   -1    0    0    0  501 -0.00000000000E+00 -0.00000000000E+00 -0.20492179513E+03  0.20492179513E+03  0.00000000000E+00 0.  1.
         24    2    1    2    0    0 -0.28297815051E+02 -0.83264198750E+01  0.41322622557E+02  0.96798758038E+02  0.82415683083E+02 0.  0.
         23    2    1    2    0    0  0.44482423027E+02  0.97847132426E+02 -0.61254211510E+02  0.15337685257E+03  0.90662192753E+02 0.  0.
        -11    1    3    3    0    0 -0.49819762699E+02  0.17409658998E+02  0.17305414349E+02  0.55539016444E+02  0.00000000000E+00 0.  1.
         12    1    3    3    0    0  0.21521947647E+02 -0.25736078873E+02  0.24017208209E+02  0.41259741594E+02  0.00000000000E+00 0. -1.
        -11    1    4    4    0    0 -0.19470562009E+02  0.17945213525E+02  0.10393906355E+02  0.28445856688E+02  0.00000000000E+00 0. -1.
         11    1    4    4    0    0  0.63952985036E+02  0.79901918901E+02 -0.71648117864E+02  0.12493099588E+03  0.00000000000E+00 0.  1.
         -2    1    1    2    0  502 -0.16184607976E+02 -0.89520712551E+02 -0.40255653226E+02  0.99480737470E+02  0.00000000000E+00 0.  1.
<scales pt_clust_5="13000.00000" pt_clust_6="13000.00000" pt_clust_7="13000.00000" pt_clust_8="13000.00000" pt_clust_9="96.74833"></scales>
<clustering>
<clus scale="   82.416">  5  6 -1 -1</clus>
<clus scale="   87.535">  2  5  1 -1</clus>
<clus scale="   90.662">  7  8 -1 -1</clus>
<clus scale="   96.748">  1  9  2 -1</clus>
<clus scale="   96.748">  1  5  2 -1</clus>
</clustering>
</event>
<event>
 9    2  0.1592151E-004  0.1802114E+03  0.7546771E-02  0.1200176E+00
         21   -1    0    0  501  502  0.00000000000E+00  0.00000000000E+00  0.47222549223E+02  0.47222549223E+02  0.00000000000E+00 0. -1.
          2   -1    0    0  502    0 -0.00000000000E+00 -0.00000000000E+00 -0.96943936486E+03  0.96943936486E+03  0.00000000000E+00 0. -1.
         24    2    1    2    0    0 -0.27996974469E+02  0.13665676544E+00 -0.21703012599E+03  0.23384043675E+03  0.82434367934E+02 0.  0.
         23    2    1    2    0    0  0.35923755248E+02  0.15407142459E+03 -0.43139249674E+03  0.46848690037E+03  0.91389110441E+02 0.  0.
        -13    1    3    3    0    0 -0.50358632060E+02  0.21861749531E+02 -0.15460280926E+03  0.16406083185E+03  0.00000000000E+00 0.  1.
         14    1    3    3    0    0  0.22361657591E+02 -0.21725092765E+02 -0.62427316731E+02  0.69779604901E+02  0.00000000000E+00 0. -1.
        -13    1    4    4    0    0 -0.69224650662E+01  0.13536517736E+03 -0.30658648640E+03  0.33521176204E+03  0.00000000000E+00 0. -1.
         13    1    4    4    0    0  0.42846220315E+02  0.18706247230E+02 -0.12480601033E+03  0.13327513833E+03  0.00000000000E+00 0.  1.
          1    1    1    2  501    0 -0.79267807794E+01 -0.15420808135E+03 -0.27379419291E+03  0.31433457697E+03  0.00000000000E+00 0. -1.
<scales pt_clust_5="13000.00000" pt_clust_6="13000.00000" pt_clust_7="13000.00000" pt_clust_8="13000.00000" pt_clust_9="155.31964"></scales>
<clustering>
<clus scale="   82.434">  5  6 -1 -1</clus>
<clus scale="   87.059">  2  5  1 -1</clus>
<clus scale="   91.389">  7  8 -1 -1</clus>
<clus scale="  155.320">  1  9  2 -1</clus>
<clus scale="  155.320">  1  5  2 -1</clus>
</clustering>
</event>
<event>
 9    2  0.1592151E-004  0.1070415E+03  0.7546771E-02  0.1271058E+00
          2   -1    0    0  502    0 -0.00000000000E+00  0.00000000000E+00  0.42401232255E+03  0.42401232255E+03  0.00000000000E+00 0. -1.
         21   -1    0    0  501  502  0.00000000000E+00 -0.00000000000E+00 -0.67789366611E+02  0.67789366611E+02  0.00000000000E+00 0.  1.
         23    2    1    2    0    0 -0.52428656203E+02  0.46784475977E+01  0.87547677276E+02  0.13699412289E+03  0.91280567741E+02 0.  0.
         24    2    1    2    0    0  0.48380107593E+02 -0.53435305237E+02  0.30531360857E+02  0.11169000726E+03  0.79665093163E+02 0.  0.
        -13    1    4    4    0    0  0.50889983390E+02 -0.70183387905E+02  0.13617136408E+02  0.87754912975E+02  0.00000000000E+00 0.  1.
         14    1    4    4    0    0 -0.25098757969E+01  0.16748082668E+02  0.16914224449E+02  0.23935094282E+02  0.00000000000E+00 0. -1.
        -13    1    3    3    0    0 -0.20778488564E+02  0.44694532596E+02  0.22117370468E+02  0.54023373714E+02  0.00000000000E+00 0.  1.
         13    1    3    3    0    0 -0.31650167639E+02 -0.40016084998E+02  0.65430306808E+02  0.82970749178E+02  0.00000000000E+00 0. -1.
          1    1    1    2  501    0  0.40485486097E+01  0.48756857639E+02  0.23814391781E+03  0.24311755901E+03  0.00000000000E+00 0. -1.
<scales pt_clust_5="13000.00000" pt_clust_6="13000.00000" pt_clust_7="13000.00000" pt_clust_8="13000.00000" pt_clust_9="48.92468"></scales>
<clustering>
<clus scale="   48.925">  2  9  1 -1</clus>
<clus scale="   79.665">  5  6 -1 -1</clus>
<clus scale="   91.281">  7  8 -1 -1</clus>
<clus scale="   97.326">  2  5  1 -1</clus>
<clus scale="   48.925">  2  5  1 -1</clus>
</clustering>
</event>
<event>
 9    2  0.1592151E-004  0.1309638E+03  0.7546771E-02  0.1250432E+00
         21   -1    0    0  501  502  0.00000000000E+00  0.00000000000E+00  0.54924874143E+02  0.54924874143E+02  0.00000000000E+00 0. -1.
          2   -1    0    0  502    0 -0.00000000000E+00 -0.00000000000E+00 -0.76726076030E+03  0.76726076030E+03  0.00000000000E+00 0. -1.
         24    2    1    2    0    0 -0.11173651893E+02  0.81548923525E+01 -0.45168197090E+03  0.45865447945E+03  0.78460027542E+02 0.  0.
         23    2    1    2    0    0  0.10219388008E+03  0.34103561381E+00 -0.22863547984E+03  0.26667020859E+03  0.91624844213E+02 0.  0.
        -13    1    3    3    0    0 -0.35671189002E+02  0.10913584023E+02 -0.11138174254E+03  0.11746247320E+03  0.00000000000E+00 0.  1.
         14    1    3    3    0    0  0.24497537109E+02 -0.27586916705E+01 -0.34030022836E+03  0.34119200625E+03  0.00000000000E+00 0. -1.
        -13    1    4    4    0    0  0.60335161068E+02 -0.53260309482E+01 -0.38207574142E+02  0.71613664817E+02  0.00000000000E+00 0. -1.
         13    1    4    4    0    0  0.41858719014E+02  0.56670665620E+01 -0.19042790569E+03  0.19505654377E+03  0.00000000000E+00 0.  1.
          1    1    1    2  501    0 -0.91020228189E+02 -0.84959279664E+01 -0.32018435427E+02  0.96860946406E+02  0.00000000000E+00 0. -1.
<scales pt_clust_5="13000.00000" pt_clust_6="13000.00000" pt_clust_7="13000.00000" pt_clust_8="13000.00000" pt_clust_9="93.57561"></scales>
<clustering>
<clus scale="   78.460">  5  6 -1 -1</clus>
<clus scale="   79.670">  2  5  1 -1</clus>
<clus scale="   91.625">  7  8 -1 -1</clus>
<clus scale="   93.576">  1  9  2 -1</clus>
<clus scale="   93.576">  1  5  2 -1</clus>
</clustering>
</event>
<event>
 9    2  0.1592151E-004  0.1424580E+03  0.7546771E-02  0.1212028E+00
          4   -1    0    0  502    0 -0.00000000000E+00  0.00000000000E+00  0.26705003156E+03  0.26705003156E+03  0.00000000000E+00 0. -1.
         21   -1    0    0  501  502  0.00000000000E+00 -0.00000000000E+00 -0.22069479426E+03  0.22069479426E+03  0.00000000000E+00 0. -1.
         23    2    1    2    0    0 -0.45842579606E+01  0.10830953970E+03  0.18642051768E+03  0.23339300511E+03  0.89262050245E+02 0.  0.
         24    2    1    2    0    0 -0.28657131836E+02 -0.12298024978E+03 -0.50297640695E+02  0.15750942884E+03  0.79586396279E+02 0.  0.
        -13    1    4    4    0    0  0.12242405769E+02 -0.92742952309E+02 -0.51191868712E+02  0.10663835672E+03  0.00000000000E+00 0.  1.
         14    1    4    4    0    0 -0.40899537605E+02 -0.30237297473E+02  0.89422801752E+00  0.50871072119E+02  0.00000000000E+00 0. -1.
        -13    1    3    3    0    0  0.40736423631E+02  0.70145832945E+02  0.10431193133E+03  0.13213959704E+03  0.00000000000E+00 0. -1.
         13    1    3    3    0    0 -0.45320681592E+02  0.38163706754E+02  0.82108586350E+02  0.10125340807E+03  0.00000000000E+00 0.  1.
          3    1    1    2  501    0  0.33241389797E+02  0.14670710083E+02 -0.89767639677E+02  0.96842391870E+02  0.00000000000E+00 0. -1.
<scales pt_clust_5="13000.00000" pt_clust_6="13000.00000" pt_clust_7="13000.00000" pt_clust_8="13000.00000" pt_clust_9="36.33483"></scales>
<clustering>
<clus scale="   36.335">  2  9  1 -1</clus>
<clus scale="   79.586">  5  6 -1 -1</clus>
<clus scale="   89.262">  7  8 -1 -1</clus>
<clus scale="  136.604">  2  5  1 -1</clus>
<clus scale="   36.335">  2  5  1 -1</clus>
</clustering>
</event>
<event>
 9    2  0.1592151E-004  0.9569539E+02  0.7546771E-02  0.1298061E+00
          2   -1    0    0  502    0 -0.00000000000E+00  0.00000000000E+00  0.49853494016E+03  0.49853494016E+03  0.00000000000E+00 0. -1.
         21   -1    0    0  501  502  0.00000000000E+00 -0.00000000000E+00 -0.39146978229E+02  0.39146978229E+02  0.00000000000E+00 0.  1.
         23    2    1    2    0    0  0.55501100770E+01 -0.25783992905E+02  0.31641321241E+03  0.33078188890E+03  0.92756234455E+02 0.  0.
         24    2    1    2    0    0 -0.26706984434E+02  0.34762329689E+01  0.27288289136E+02  0.87197871596E+02  0.78316478941E+02 0.  0.
        -11    1    4    4    0    0 -0.24569165474E+02 -0.48801320559E+01 -0.24296632047E+02  0.34896789391E+02  0.00000000000E+00 0.  1.
         12    1    4    4    0    0 -0.21378189600E+01  0.83563650248E+01  0.51584921183E+02  0.52301082205E+02  0.00000000000E+00 0. -1.
        -11    1    3    3    0    0 -0.13276889232E+02 -0.57679172479E+02  0.18389335280E+03  0.19318366372E+03  0.00000000000E+00 0.  1.
         11    1    3    3    0    0  0.18826999309E+02  0.31895179574E+02  0.13251985961E+03  0.13759822518E+03  0.00000000000E+00 0. -1.
          1    1    1    2  501    0  0.21156874357E+02  0.22307759936E+02  0.11568646039E+03  0.11970215789E+03  0.00000000000E+00 0. -1.
<scales pt_clust_5="13000.00000" pt_clust_6="13000.00000" pt_clust_7="13000.00000" pt_clust_8="13000.00000" pt_clust_9="30.74493"></scales>
<clustering>
<clus scale="   30.745">  2  9  1 -1</clus>
<clus scale="   78.316">  5  6 -1 -1</clus>
<clus scale="   81.776">  2  5  1 -1</clus>
<clus scale="   92.756">  7  8 -1 -1</clus>
<clus scale="   30.745">  2  5  1 -1</clus>
</clustering>
</event>
<event>
 9    2  0.1592151E-004  0.1410637E+03  0.7546771E-02  0.1214924E+00
         21   -1    0    0  501  502  0.00000000000E+00  0.00000000000E+00  0.22424982283E+03  0.22424982283E+03  0.00000000000E+00 0.  1.
         -1   -1    0    0    0  501 -0.00000000000E+00 -0.00000000000E+00 -0.17472804038E+03  0.17472804038E+03  0.00000000000E+00 0.  1.
         24    2    1    2    0    0 -0.10100923419E+03  0.74592041161E+01 -0.92110583321E+02  0.15750097567E+03  0.77869715929E+02 0.  0.
         23    2    1    2    0    0  0.13151071405E+03 -0.14507071582E+02  0.10094589048E+03  0.19014072114E+03  0.91966830957E+02 0.  0.
        -11    1    3    3    0    0 -0.10605802719E+03  0.18125327100E+01 -0.54729957494E+02  0.11936062438E+03  0.00000000000E+00 0.  1.
         12    1    3    3    0    0  0.50487930014E+01  0.56466714061E+01 -0.37380625828E+02  0.38140351283E+02  0.00000000000E+00 0. -1.
        -13    1    4    4    0    0  0.83529728714E+02  0.16347856724E+02  0.10230129698E+03  0.13307901173E+03  0.00000000000E+00 0.  1.
         13    1    4    4    0    0  0.47980985332E+02 -0.30854928305E+02 -0.13554065027E+01  0.57061709411E+02  0.00000000000E+00 0. -1.
         -2    1    1    2    0  502 -0.30501479861E+02  0.70478674655E+01  0.40686475285E+02  0.51336166400E+02  0.00000000000E+00 0.  1.
<scales pt_clust_5="13000.00000" pt_clust_6="13000.00000" pt_clust_7="13000.00000" pt_clust_8="13000.00000" pt_clust_9="31.30515"></scales>
<clustering>
<clus scale="   31.305">  1  9  2 -1</clus>
<clus scale="   77.870">  5  6 -1 -1</clus>
<clus scale="   91.967">  7  8 -1 -1</clus>
<clus scale="  132.306">  2  5  1 -1</clus>
<clus scale="   31.305">  1  5  2 -1</clus>
</clustering>
</event>
<event>
 9    2  0.1592151E-004  0.1374402E+03  0.7546771E-02  0.1217872E+00
         -1   -1    0    0    0  501 -0.00000000000E+00  0.00000000000E+00  0.56469788207E+03  0.56469788207E+03  0.00000000000E+00 0.  1.
         21   -1    0    0  501  502  0.00000000000E+00 -0.00000000000E+00 -0.52836152939E+02  0.52836152939E+02  0.00000000000E+00 0.  1.
         24    2    1    2    0    0  0.26205396743E+02  0.10377417850E+03  0.22313802577E+03  0.26036150802E+03  0.80880982765E+02 0.  0.
         23    2    1    2    0    0  0.10505223688E+02 -0.11146254252E+03  0.12269058072E+03  0.18695566999E+03  0.85820660871E+02 0.  0.
        -11    1    3    3    0    0 -0.32818744839E+01  0.37906965364E+02  0.16478323054E+02  0.41463765554E+02  0.00000000000E+00 0.  1.
         12    1    3    3    0    0  0.29487271227E+02  0.65867213132E+02  0.20665970271E+03  0.21889774246E+03  0.00000000000E+00 0. -1.
        -13    1    4    4    0    0 -0.31998914178E+02 -0.84857606827E+02  0.84070360842E+02  0.12366312917E+03  0.00000000000E+00 0. -1.
         13    1    4    4    0    0  0.42504137866E+02 -0.26604935695E+02  0.38620219880E+02  0.63292540813E+02  0.00000000000E+00 0.  1.
         -2    1    1    2    0  502 -0.36710620431E+02  0.76883640255E+01  0.16603312264E+03  0.17021685701E+03  0.00000000000E+00 0.  1.
<scales pt_clust_5="13000.00000" pt_clust_6="13000.00000" pt_clust_7="13000.00000" pt_clust_8="13000.00000" pt_clust_9="37.50709"></scales>
<clustering>
<clus scale="   37.507">  2  9  1 -1</clus>
<clus scale="   80.881">  5  6 -1 -1</clus>
<clus scale="   85.821">  7  8 -1 -1</clus>
<clus scale="  134.411">  1  5  2 -1</clus>
<clus scale="   37.507">  2  5  1 -1</clus>
</clustering>
</event>
<event>
 9    2  0.1592151E-004  0.9448650E+02  0.7546771E-02  0.1298854E+00
         21   -1    0    0  501  502  0.00000000000E+00  0.00000000000E+00  0.74894297275E+02  0.74894297275E+02  0.00000000000E+00 0. -1.
          4   -1    0    0  502    0 -0.00000000000E+00 -0.00000000000E+00 -0.25933440541E+03  0.25933440541E+03  0.00000000000E+00 0. -1.
         23    2    1    2    0    0 -0.14890741897E+02  0.39985728108E+01 -0.17296687689E+03  0.19625020817E+03  0.91426915772E+02 0.  0.
         24    2    1    2    0    0  0.51064085918E+02  0.84881587289E+00 -0.26132978280E+02  0.98647639220E+02  0.80250624987E+02 0.  0.
        -13    1    4    4    0    0  0.13639137946E+02  0.38234431325E+02 -0.23901839488E+01  0.40664613634E+02  0.00000000000E+00 0.  1.
         14    1    4    4    0    0  0.37424947972E+02 -0.37385615452E+02 -0.23742794331E+02  0.57983025586E+02  0.00000000000E+00 0. -1.
        -11    1    3    3    0    0  0.39156021401E+00  0.30515621381E+02 -0.16021271342E+03  0.16309343951E+03  0.00000000000E+00 0. -1.
         11    1    3    3    0    0 -0.15282302111E+02 -0.26517048570E+02 -0.12754163470E+02  0.33156768668E+02  0.00000000000E+00 0.  1.
          3    1    1    2  501    0 -0.36173344021E+02 -0.48473886837E+01  0.14659747037E+02  0.39330855291E+02  0.00000000000E+00 0. -1.
<scales pt_clust_5="13000.00000" pt_clust_6="13000.00000" pt_clust_7="13000.00000" pt_clust_8="13000.00000" pt_clust_9="36.49668"></scales>
<clustering>
<clus scale="   36.497">  1  9  2 -1</clus>
<clus scale="   80.251">  5  6 -1 -1</clus>
<clus scale="   83.720">  1  5  2 -1</clus>
<clus scale="   91.427">  7  8 -1 -1</clus>
<clus scale="   36.497">  1  5  2 -1</clus>
</clustering>
</event>
<event>
 9    2  0.1592151E-004  0.1099258E+03  0.7546771E-02  0.1264832E+00
         21   -1    0    0  501  502  0.00000000000E+00  0.00000000000E+00  0.42752888684E+02  0.42752888684E+02  0.00000000000E+00 0. -1.
          2   -1    0    0  502    0 -0.00000000000E+00 -0.00000000000E+00 -0.85129340139E+03  0.85129340139E+03  0.00000000000E+00 0. -1.
         24    2    1    2    0    0  0.80563843269E+02 -0.32197139680E+02 -0.24569729387E+03  0.27319010290E+03  0.82088266306E+02 0.  0.
         23    2    1    2    0    0 -0.77820461100E+01  0.23366828092E+01 -0.56887788098E+02  0.10882129111E+03  0.92411214887E+02 0.  0.
        -11    1    3    3    0    0  0.12329048177E+02 -0.27315799117E+02 -0.16945511093E+02  0.34428311846E+02  0.00000000000E+00 0.  1.
         12    1    3    3    0    0  0.68234795093E+02 -0.48813405633E+01 -0.22875178277E+03  0.23876179106E+03  0.00000000000E+00 0. -1.
        -13    1    4    4    0    0  0.30797956044E+02  0.25434101211E+02 -0.48920050169E+02  0.63155197010E+02  0.00000000000E+00 0.  1.
         13    1    4    4    0    0 -0.38580002154E+02 -0.23097418402E+02 -0.79677379293E+01  0.45666094104E+02  0.00000000000E+00 0. -1.
          1    1    1    2  501    0 -0.72781797159E+02  0.29860456871E+02 -0.50595543074E+03  0.51203489605E+03  0.00000000000E+00 0. -1.
<scales pt_clust_5="13000.00000" pt_clust_6="13000.00000" pt_clust_7="13000.00000" pt_clust_8="13000.00000" pt_clust_9="78.66920"></scales>
<clustering>
<clus scale="   78.669">  1  9  2 -1</clus>
<clus scale="   82.088">  5  6 -1 -1</clus>
<clus scale="   92.411">  7  8 -1 -1</clus>
<clus scale="  101.402">  2  5  1 -1</clus>
<clus scale="   78.669">  1  5  2 -1</clus>
</clustering>
</event>
<event>
 9    2  0.1592151E-004  0.9694382E+02  0.7546771E-02  0.1291926E+00
         -1   -1    0    0    0  501 -0.00000000000E+00  0.00000000000E+00  0.20904643317E+03  0.20904643317E+03  0.00000000000E+00 0.  1.
         21   -1    0    0  501  502  0.00000000000E+00 -0.00000000000E+00 -0.84418660794E+02  0.84418660794E+02  0.00000000000E+00 0.  1.
         24    2    1    2    0    0 -0.31409426109E+02  0.19356068057E+02  0.88306659816E+02  0.12554520258E+03  0.81254675585E+02 0.  0.
         23    2    1    2    0    0  0.39506437476E+02  0.29212446553E+02 -0.55079440988E+01  0.10331236717E+03  0.90713737249E+02 0.  0.
        -11    1    3    3    0    0 -0.12069598020E+02  0.40424098488E+02  0.11708164765E+02  0.43782006088E+02  0.00000000000E+00 0.  1.
         12    1    3    3    0    0 -0.19339828089E+02 -0.21068030431E+02  0.76598495051E+02  0.81763196494E+02  0.00000000000E+00 0. -1.
        -11    1    4    4    0    0 -0.26300290994E+02 -0.80051976035E+01 -0.31742044357E+01  0.27674249201E+02  0.00000000000E+00 0. -1.
         11    1    4    4    0    0  0.65806728470E+02  0.37217644156E+02 -0.23337396632E+01  0.75638117965E+02  0.00000000000E+00 0.  1.
         -2    1    1    2    0  502 -0.80970113671E+01 -0.48568514610E+02  0.41829056662E+02  0.64607524219E+02  0.00000000000E+00 0.  1.
<scales pt_clust_5="13000.00000" pt_clust_6="13000.00000" pt_clust_7="13000.00000" pt_clust_8="13000.00000" pt_clust_9="49.23885"></scales>
<clustering>
<clus scale="   49.239">  2  9  1 -1</clus>
<clus scale="   81.255">  5  6 -1 -1</clus>
<clus scale="   88.156">  1  5  2 -1</clus>
<clus scale="   90.714">  7  8 -1 -1</clus>
<clus scale="   49.239">  2  5  1 -1</clus>
</clustering>
</event>
<event>
 9    2  0.4089554E-004  0.1600172E+03  0.7546771E-02  0.1190272E+00
          2   -1    0    0  502    0 -0.00000000000E+00  0.00000000000E+00  0.10691413489E+04  0.10691413489E+04  0.00000000000E+00 0. -1.
         21   -1    0    0  501  502  0.00000000000E+00 -0.00000000000E+00 -0.20376561792E+03  0.20376561792E+03  0.00000000000E+00 0. -1.
         24    2    1    2    0    0 -0.11626186170E+03 -0.48415052668E+02  0.30917066221E+03  0.34268059292E+03  0.77347608776E+02 0.  0.
         23    2    1    2    0    0  0.22353952183E+03  0.28426443079E+02 -0.10238794013E+03  0.26265406153E+03  0.87897015127E+02 0.  0.
        -13    1    3    3    0    0 -0.64210554449E+02  0.14155227172E+02  0.15429762136E+03  0.16772334875E+03  0.00000000000E+00 0.  1.
         14    1    3    3    0    0 -0.52051307248E+02 -0.62570279840E+02  0.15487304085E+03  0.17495724417E+03  0.00000000000E+00 0. -1.
        -13    1    4    4    0    0  0.49818139769E+02 -0.19706396458E+02  0.33258540559E+01  0.53677280265E+02  0.00000000000E+00 0.  1.
         13    1    4    4    0    0  0.17372138206E+03  0.48132839537E+02 -0.10571379418E+03  0.20897678126E+03  0.00000000000E+00 0. -1.
          1    1    1    2  501    0 -0.10727766013E+03  0.19988609589E+02  0.65859300891E+03  0.66757231238E+03  0.00000000000E+00 0. -1.
<scales pt_clust_5="13000.00000" pt_clust_6="13000.00000" pt_clust_7="13000.00000" pt_clust_8="13000.00000" pt_clust_9="109.12402"></scales>
<clustering>
<clus scale="   77.348">  5  6 -1 -1</clus>
<clus scale="   87.897">  7  8 -1 -1</clus>
<clus scale="  109.124">  2  9  1 -1</clus>
<clus scale="  154.474">  1  5  2 -1</clus>
<clus scale="  109.124">  2  5  1 -1</clus>
</clustering>
</event>
<event>
 9    2  0.1592151E-004  0.9411170E+02  0.7546771E-02  0.1299485E+00
          2   -1    0    0  502    0 -0.00000000000E+00  0.00000000000E+00  0.30981460688E+03  0.30981460688E+03  0.00000000000E+00 0. -1.
         21   -1    0    0  501  502  0.00000000000E+00 -0.00000000000E+00 -0.81503778006E+02  0.81503778006E+02  0.00000000000E+00 0.  1.
         24    2    1    2    0    0  0.87748481659E+01  0.14536439740E+02  0.21436192335E+03  0.22978236482E+03  0.80997499695E+02 0.  0.
         23    2    1    2    0    0 -0.84690977812E+01 -0.37852719924E+02  0.55439101371E+02  0.11394212596E+03  0.91677478611E+02 0.  0.
        -11    1    3    3    0    0  0.16329104259E+02 -0.20411094034E+02  0.22116237448E+02  0.34240040368E+02  0.00000000000E+00 0.  1.
         12    1    3    3    0    0 -0.75542560936E+01  0.34947533774E+02  0.19224568590E+03  0.19554232445E+03  0.00000000000E+00 0. -1.
        -13    1    4    4    0    0 -0.44944096968E+02 -0.43580173833E+02  0.33764442970E+02  0.71128341838E+02  0.00000000000E+00 0.  1.
         13    1    4    4    0    0  0.36474999187E+02  0.57274539096E+01  0.21674658401E+02  0.42813784121E+02  0.00000000000E+00 0. -1.
          1    1    1    2  501    0 -0.30575038463E+00  0.23316280184E+02 -0.41490195850E+02  0.47593894110E+02  0.00000000000E+00 0. -1.
<scales pt_clust_5="13000.00000" pt_clust_6="13000.00000" pt_clust_7="13000.00000" pt_clust_8="13000.00000" pt_clust_9="23.31828"></scales>
<clustering>
<clus scale="   23.318">  2  9  1 -1</clus>
<clus scale="   80.997">  5  6 -1 -1</clus>
<clus scale="   83.743">  1  5  2 -1</clus>
<clus scale="   91.677">  7  8 -1 -1</clus>
<clus scale="   23.318">  2  5  1 -1</clus>
</clustering>
</event>
<event>
 9    2  0.1592151E-004  0.1804525E+03  0.7546771E-02  0.1191133E+00
          2   -1    0    0  502    0 -0.00000000000E+00  0.00000000000E+00  0.10864888120E+04  0.10864888120E+04  0.00000000000E+00 0. -1.
         21   -1    0    0  501  502  0.00000000000E+00 -0.00000000000E+00 -0.47537904100E+02  0.47537904100E+02  0.00000000000E+00 0.  1.
         23    2    1    2    0    0  0.34516873428E+02 -0.40415599392E+02  0.20712712206E+03  0.23253105577E+03  0.91346658286E+02 0.  0.
         24    2    1    2    0    0 -0.16414517867E+03 -0.48344029772E+02  0.40648126744E+03  0.44806647374E+03  0.79093357613E+02 0.  0.
        -11    1    4    4    0    0 -0.79382811803E+02 -0.57848374973E+02  0.16571145361E+03  0.19263528014E+03  0.00000000000E+00 0.  1.
         12    1    4    4    0    0 -0.84762366868E+02  0.95043452015E+01  0.24076981383E+03  0.25543119360E+03  0.00000000000E+00 0. -1.
        -11    1    3    3    0    0 -0.28989437137E+02 -0.13033660241E+02  0.10079116146E+03  0.10568406688E+03  0.00000000000E+00 0. -1.
         11    1    3    3    0    0  0.63506310565E+02 -0.27381939151E+02  0.10633596061E+03  0.12684698889E+03  0.00000000000E+00 0.  1.
          1    1    1    2  501    0  0.12962830524E+03  0.88759629163E+02  0.42534251843E+03  0.45342918661E+03  0.00000000000E+00 0. -1.
<scales pt_clust_5="13000.00000" pt_clust_6="13000.00000" pt_clust_7="13000.00000" pt_clust_8="13000.00000" pt_clust_9="162.19547"></scales>
<clustering>
<clus scale="   79.093">  5  6 -1 -1</clus>
<clus scale="   91.347">  7  8 -1 -1</clus>
<clus scale="  105.684">  1  7  2 -1</clus>
<clus scale="  162.195">  2  9  1 -1</clus>
<clus scale="  162.195">  2  5  1 -1</clus>
</clustering>
</event>
<event>
 9    2  0.1592151E-004  0.1653081E+03  0.7546771E-02  0.1197884E+00
          2   -1    0    0  502    0 -0.00000000000E+00  0.00000000000E+00  0.10497801293E+04  0.10497801293E+04  0.00000000000E+00 0. -1.
         21   -1    0    0  501  502  0.00000000000E+00 -0.00000000000E+00 -0.62291675420E+02  0.62291675420E+02  0.00000000000E+00 0. -1.
         23    2    1    2    0    0 -0.44879858948E+02 -0.59953166659E+02  0.66571090719E+02  0.13597175022E+03  0.91913126415E+02 0.  0.
         24    2    1    2    0    0  0.14085384801E+03 -0.53343088294E+02  0.40771748117E+03  0.44185182864E+03  0.79461955980E+02 0.  0.
        -11    1    4    4    0    0  0.36587779665E+02  0.17993542685E+02  0.66576374655E+02  0.78069500199E+02  0.00000000000E+00 0.  1.
         12    1    4    4    0    0  0.10426606834E+03 -0.71336630979E+02  0.34114110652E+03  0.36378232844E+03  0.00000000000E+00 0. -1.
        -11    1    3    3    0    0  0.21637275100E+02 -0.68240322860E+01 -0.66944460740E+01  0.23654908552E+02  0.00000000000E+00 0.  1.
         11    1    3    3    0    0 -0.66517134048E+02 -0.53129134373E+02  0.73265536793E+02  0.11231684167E+03  0.00000000000E+00 0. -1.
          1    1    1    2  501    0 -0.95973989057E+02  0.11329625495E+03  0.51319988195E+03  0.53424822582E+03  0.00000000000E+00 0. -1.
<scales pt_clust_5="13000.00000" pt_clust_6="13000.00000" pt_clust_7="13000.00000" pt_clust_8="13000.00000" pt_clust_9="144.95720"></scales>
<clustering>
<clus scale="   79.462">  5  6 -1 -1</clus>
<clus scale="   91.913">  7  8 -1 -1</clus>
<clus scale="  118.561">  1  7  2 -1</clus>
<clus scale="  144.957">  2  9  1 -1</clus>
<clus scale="  144.957">  2  5  1 -1</clus>
</clustering>
</event>
<event>
 9    2  0.1592151E-004  0.1755161E+03  0.7546771E-02  0.1173763E+00
         21   -1    0    0  501  502  0.00000000000E+00  0.00000000000E+00  0.12522381133E+03  0.12522381133E+03  0.00000000000E+00 0. -1.
          2   -1    0    0  502    0 -0.00000000000E+00 -0.00000000000E+00 -0.14560260088E+04  0.14560260088E+04  0.00000000000E+00 0. -1.
         24    2    1    2    0    0 -0.95718632965E+02  0.11379167001E+03 -0.10234367295E+04  0.10372751916E+04  0.80040508666E+02 0.  0.
         23    2    1    2    0    0  0.72940564917E+02 -0.13498488096E+03 -0.40430727754E+03  0.44216251230E+03  0.92206661970E+02 0.  0.
        -11    1    3    3    0    0 -0.81285945035E+02  0.73329650391E+02 -0.48851083240E+03  0.50062708263E+03  0.00000000000E+00 0.  1.
         12    1    3    3    0    0 -0.14432687930E+02  0.40462019622E+02 -0.53492589710E+03  0.53664810901E+03  0.00000000000E+00 0. -1.
        -11    1    4    4    0    0  0.80151944624E+02 -0.60874678299E+02 -0.27647598412E+03  0.29422615533E+03  0.00000000000E+00 0.  1.
         11    1    4    4    0    0 -0.72113797070E+01 -0.74110202660E+02 -0.12783129343E+03  0.14793635697E+03  0.00000000000E+00 0. -1.
          1    1    1    2  501    0  0.22778068048E+02  0.21193210945E+02  0.96941809538E+02  0.10181211623E+03  0.00000000000E+00 0. -1.
<scales pt_clust_5="13000.00000" pt_clust_6="13000.00000" pt_clust_7="13000.00000" pt_clust_8="13000.00000" pt_clust_9="31.11258"></scales>
<clustering>
<clus scale="   31.113">  1  9  2 -1</clus>
<clus scale="   80.041">  5  6 -1 -1</clus>
<clus scale="   92.207">  7  8 -1 -1</clus>
<clus scale="  169.441">  2  5  1 -1</clus>
<clus scale="   31.113">  1  5  2 -1</clus>
</clustering>
</event>
<event>
 9    2  0.1592151E-004  0.1004849E+03  0.7546771E-02  0.1285465E+00
         21   -1    0    0  501  502  0.00000000000E+00  0.00000000000E+00  0.31800843254E+02  0.31800843254E+02  0.00000000000E+00 0. -1.
          2   -1    0    0  502    0 -0.00000000000E+00 -0.00000000000E+00 -0.80469087581E+03  0.80469087581E+03  0.00000000000E+00 0. -1.
         24    2    1    2    0    0  0.49047189327E+02  0.10589114699E+02 -0.37289996263E+03  0.38457481923E+03  0.79533975880E+02 0.  0.
         23    2    1    2    0    0  0.63916489631E+01 -0.32269122215E+02 -0.79237596724E+02  0.12568747661E+03  0.91850942387E+02 0.  0.
        -11    1    3    3    0    0  0.62607735429E+02 -0.32097473995E+01 -0.17799651601E+03  0.18871351495E+03  0.00000000000E+00 0.  1.
         12    1    3    3    0    0 -0.13560546102E+02  0.13798862098E+02 -0.19490344663E+03  0.19586130428E+03  0.00000000000E+00 0. -1.
        -13    1    4    4    0    0 -0.10348979700E+02  0.30323774822E+02 -0.19190248277E+02  0.37348337703E+02  0.00000000000E+00 0.  1.
         13    1    4    4    0    0  0.16740628663E+02 -0.62592897037E+02 -0.60047348448E+02  0.88339138909E+02  0.00000000000E+00 0. -1.
          1    1    1    2  501    0 -0.55438838290E+02  0.21680007516E+02 -0.32075247320E+03  0.32622942323E+03  0.00000000000E+00 0. -1.
<scales pt_clust_5="13000.00000" pt_clust_6="13000.00000" pt_clust_7="13000.00000" pt_clust_8="13000.00000" pt_clust_9="59.52723"></scales>
<clustering>
<clus scale="   59.527">  1  9  2 -1</clus>
<clus scale="   79.534">  5  6 -1 -1</clus>
<clus scale="   89.366">  2  5  1 -1</clus>
<clus scale="   91.851">  7  8 -1 -1</clus>
<clus scale="   59.527">  1  5  2 -1</clus>
</clustering>
</event>
<event>
 9    2  0.1592151E-004  0.1086575E+03  0.7546771E-02  0.1268200E+00
          2   -1    0    0  502    0 -0.00000000000E+00  0.00000000000E+00  0.31000776686E+03  0.31000776686E+03  0.00000000000E+00 0. -1.
         21   -1    0    0  501  502  0.00000000000E+00 -0.00000000000E+00 -0.69773390645E+02  0.69773390645E+02  0.00000000000E+00 0.  1.
         23    2    1    2    0    0 -0.20147953419E+02  0.16390219730E+02  0.17817683459E+03  0.20303587219E+03  0.93818983589E+02 0.  0.
         24    2    1    2    0    0  0.45104851903E+02  0.36557347294E+01  0.80759724043E+02  0.13967159250E+03  0.10458589131E+03 0.  0.
        -13    1    4    4    0    0 -0.12853471347E+02 -0.28689637186E+02 -0.43542380348E+01  0.31737460459E+02  0.00000000000E+00 0.  1.
         14    1    4    4    0    0  0.57958323250E+02  0.32345371916E+02  0.85113962078E+02  0.10793413204E+03  0.00000000000E+00 0. -1.
        -13    1    3    3    0    0 -0.44742132356E+02 -0.22804840243E+02  0.10609579104E+03  0.11738073105E+03  0.00000000000E+00 0. -1.
         13    1    3    3    0    0  0.24594178937E+02  0.39195059973E+02  0.72081043550E+02  0.85655141137E+02  0.00000000000E+00 0.  1.
          1    1    1    2  501    0 -0.24956898485E+02 -0.20045954460E+02 -0.18702182415E+02  0.37073692819E+02  0.00000000000E+00 0. -1.
<scales pt_clust_5="13000.00000" pt_clust_6="13000.00000" pt_clust_7="13000.00000" pt_clust_8="13000.00000" pt_clust_9="32.01073"></scales>
<clustering>
<clus scale="   32.011">  2  9  1 -1</clus>
<clus scale="   93.819">  7  8 -1 -1</clus>
<clus scale="   98.337">  1  7  2 -1</clus>
<clus scale="  104.586">  5  6 -1 -1</clus>
<clus scale="   32.011">  2  5  1 -1</clus>
</clustering>
</event>
<event>
 9    2  0.1592151E-004  0.1172643E+03  0.7546771E-02  0.1250297E+00
         21   -1    0    0  501  502  0.00000000000E+00  0.00000000000E+00  0.33932464914E+02  0.33932464914E+02  0.00000000000E+00 0.  1.
          2   -1    0    0  502    0 -0.00000000000E+00 -0.00000000000E+00 -0.64894537502E+03  0.64894537502E+03  0.00000000000E+00 0. -1.
         24    2    1    2    0    0  0.76637121951E+02 -0.30186359033E+02 -0.46000640693E+03  0.47435411990E+03  0.81372427250E+02 0.  0.
         23    2    1    2    0    0 -0.59656466976E+02  0.30977220887E+01 -0.11883673955E+03  0.16024962040E+03  0.89382773714E+02 0.  0.
        -13    1    3    3    0    0  0.19139241408E+02 -0.12060547544E+02 -0.19874625172E+02  0.30112590298E+02  0.00000000000E+00 0.  1.
         14    1    3    3    0    0  0.57497880543E+02 -0.18125811488E+02 -0.44013178176E+03  0.44424152960E+03  0.00000000000E+00 0. -1.
        -11    1    4    4    0    0 -0.59100214226E+02 -0.35414369501E+02 -0.79381861771E+02  0.10511181126E+03  0.00000000000E+00 0.  1.
         11    1    4    4    0    0 -0.55625274997E+00  0.38512091590E+02 -0.39454877779E+02  0.55137809136E+02  0.00000000000E+00 0. -1.
          1    1    1    2  501    0 -0.16980654975E+02  0.27088636944E+02 -0.36169763623E+02  0.48274099634E+02  0.00000000000E+00 0. -1.
<scales pt_clust_5="13000.00000" pt_clust_6="13000.00000" pt_clust_7="13000.00000" pt_clust_8="13000.00000" pt_clust_9="31.97088"></scales>
<clustering>
<clus scale="   31.971">  1  9  2 -1</clus>
<clus scale="   81.372">  5  6 -1 -1</clus>
<clus scale="   89.383">  7  8 -1 -1</clus>
<clus scale="  111.279">  2  5  1 -1</clus>
<clus scale="   31.971">  1  5  2 -1</clus>
</clustering>
</event>
<event>
 9    2  0.1592151E-004  0.9174000E+02  0.7546771E-02  0.1305884E+00
         21   -1    0    0  501  502  0.00000000000E+00  0.00000000000E+00  0.36467550315E+03  0.36467550315E+03  0.00000000000E+00 0. -1.
          4   -1    0    0  502    0 -0.00000000000E+00 -0.00000000000E+00 -0.39091623745E+02  0.39091623745E+02  0.00000000000E+00 0. -1.
         23    2    1    2    0    0  0.77793449976E+01  0.19050418330E+02  0.47508341964E+02  0.10429909177E+03  0.90541820949E+02 0.  0.
         24    2    1    2    0    0  0.11336703017E+02  0.47110963918E+00  0.23745221962E+03  0.25051124503E+03  0.79016355923E+02 0.  0.
        -11    1    4    4    0    0 -0.11064441608E+02 -0.21689849481E+02  0.22153474962E+02  0.32918807565E+02  0.00000000000E+00 0.  1.
         12    1    4    4    0    0  0.22401144625E+02  0.22160959121E+02  0.21529874466E+03  0.21759243746E+03  0.00000000000E+00 0. -1.
        -11    1    3    3    0    0 -0.28382545719E+02 -0.88849496360E+01 -0.95149179000E+01  0.31225708866E+02  0.00000000000E+00 0.  1.
         11    1    3    3    0    0  0.36161890717E+02  0.27935367966E+02  0.57023259864E+02  0.73073382905E+02  0.00000000000E+00 0. -1.
          3    1    1    2  501    0 -0.19116048014E+02 -0.19521527969E+02  0.40623317825E+02  0.48956790101E+02  0.00000000000E+00 0. -1.
<scales pt_clust_5="13000.00000" pt_clust_6="13000.00000" pt_clust_7="13000.00000" pt_clust_8="13000.00000" pt_clust_9="27.32240"></scales>
<clustering>
<clus scale="   27.322">  1  9  2 -1</clus>
<clus scale="   79.016">  5  6 -1 -1</clus>
<clus scale="   80.387">  1  5  2 -1</clus>
<clus scale="   90.542">  7  8 -1 -1</clus>
<clus scale="   27.322">  1  5  2 -1</clus>
</clustering>
</event>
<event>
 9    2  0.1592151E-004  0.1003855E+03  0.7546771E-02  0.1284318E+00
         21   -1    0    0  501  502  0.00000000000E+00  0.00000000000E+00  0.54000430111E+03  0.54000430111E+03  0.00000000000E+00 0. -1.
         -1   -1    0    0    0  501 -0.00000000000E+00 -0.00000000000E+00 -0.46343134721E+02  0.46343134721E+02  0.00000000000E+00 0.  1.
         23    2    1    2    0    0  0.27468889505E+02  0.25320545817E+02  0.27350340678E+02  0.10291363980E+03  0.91910316019E+02 0.  0.
         24    2    1    2    0    0 -0.29560844934E+02 -0.50045685638E+02  0.33521666449E+03  0.35001195402E+03  0.82217647786E+02 0.  0.
        -11    1    4    4    0    0 -0.45048372588E+02 -0.45400539885E+01  0.97718027873E+02  0.10769763662E+03  0.00000000000E+00 0.  1.
         12    1    4    4    0    0  0.15487527654E+02 -0.45505631649E+02  0.23749863661E+03  0.24231431740E+03  0.00000000000E+00 0. -1.
        -13    1    3    3    0    0  0.15281498527E+02  0.60243682247E+02  0.15238123774E+02  0.63992389110E+02  0.00000000000E+00 0.  1.
         13    1    3    3    0    0  0.12187390978E+02 -0.34923136430E+02  0.12112216904E+02  0.38921250690E+02  0.00000000000E+00 0. -1.
         -2    1    1    2    0  502  0.20919554293E+01  0.24725139820E+02  0.13109416122E+03  0.13342184200E+03  0.00000000000E+00 0.  1.
<scales pt_clust_5="13000.00000" pt_clust_6="13000.00000" pt_clust_7="13000.00000" pt_clust_8="13000.00000" pt_clust_9="24.81348"></scales>
<clustering>
<clus scale="   24.813">  1  9  2 -1</clus>
<clus scale="   82.218">  5  6 -1 -1</clus>
<clus scale="   91.594">  1  5  2 -1</clus>
<clus scale="   91.910">  7  8 -1 -1</clus>
<clus scale="   24.813">  1  5  2 -1</clus>
</clustering>
</event>
<event>
 9    2  0.1592151E-004  0.3058862E+03  0.7546771E-02  0.1082547E+00
          2   -1    0    0  502    0 -0.00000000000E+00  0.00000000000E+00  0.10599738353E+04  0.10599738353E+04  0.00000000000E+00 0. -1.
         21   -1    0    0  501  502  0.00000000000E+00 -0.00000000000E+00 -0.17059339912E+03  0.17059339912E+03  0.00000000000E+00 0.  1.
         23    2    1    2    0    0  0.27301308605E+03 -0.12657891870E+03  0.83271561464E+03  0.88967125055E+03  0.86840493905E+02 0.  0.
         24    2    1    2    0    0 -0.22152614002E+03  0.14739492714E+03  0.62875429418E+02  0.28501411321E+03  0.80502359283E+02 0.  0.
        -11    1    4    4    0    0 -0.22501424505E+03  0.15065800926E+03  0.55809116374E+02  0.27648490682E+03  0.00000000000E+00 0.  1.
         12    1    4    4    0    0  0.34881050321E+01 -0.32630821236E+01  0.70663130438E+01  0.85292063929E+01  0.00000000000E+00 0. -1.
        -13    1    3    3    0    0  0.20286088150E+03 -0.11534045630E+03  0.71562637398E+03  0.75271313609E+03  0.00000000000E+00 0. -1.
         13    1    3    3    0    0  0.70152204542E+02 -0.11238462405E+02  0.11708924066E+03  0.13695811447E+03  0.00000000000E+00 0.  1.
          1    1    1    2  501    0 -0.51486946030E+02 -0.20816008437E+02 -0.62106078696E+01  0.55881870663E+02  0.00000000000E+00 0. -1.
<scales pt_clust_5="13000.00000" pt_clust_6="13000.00000" pt_clust_7="13000.00000" pt_clust_8="13000.00000" pt_clust_9="55.53568"></scales>
<clustering>
<clus scale="   55.536">  2  9  1 -1</clus>
<clus scale="   80.502">  5  6 -1 -1</clus>
<clus scale="   86.840">  7  8 -1 -1</clus>
<clus scale="  304.148">  2  5  1 -1</clus>
<clus scale="   55.536">  2  5  1 -1</clus>
</clustering>
</event>
<event>
 9    2  0.1592151E-004  0.1461398E+03  0.7546771E-02  0.1210576E+00
         21   -1    0    0  501  502  0.00000000000E+00  0.00000000000E+00  0.14765295534E+04  0.14765295534E+04  0.00000000000E+00 0.  1.
         -1   -1    0    0    0  501 -0.00000000000E+00 -0.00000000000E+00 -0.36604281749E+02  0.36604281749E+02  0.00000000000E+00 0.  1.
         24    2    1    2    0    0  0.96740602969E+02 -0.66858482245E+02  0.82852987041E+03  0.83874603568E+03  0.56607113473E+02 0.  0.
         23    2    1    2    0    0 -0.82848780829E+02 -0.72192715816E+02  0.28128522472E+03  0.31591751193E+03  0.92772776173E+02 0.  0.
        -11    1    3    3    0    0  0.81608922516E+02 -0.46118761923E+02  0.46754132412E+03  0.47684572578E+03  0.00000000000E+00 0.  1.
         12    1    3    3    0    0  0.15131680453E+02 -0.20739720322E+02  0.36098854628E+03  0.36190030989E+03  0.00000000000E+00 0. -1.
        -11    1    4    4    0    0 -0.10834953124E+01 -0.36529267492E+02  0.24291266411E+02  0.43881966335E+02  0.00000000000E+00 0. -1.
         11    1    4    4    0    0 -0.81765285516E+02 -0.35663448324E+02  0.25699395831E+03  0.27203554560E+03  0.00000000000E+00 0.  1.
         -2    1    1    2    0  502 -0.13891822141E+02  0.13905119806E+03  0.33011017655E+03  0.35847028756E+03  0.00000000000E+00 0.  1.
<scales pt_clust_5="13000.00000" pt_clust_6="13000.00000" pt_clust_7="13000.00000" pt_clust_8="13000.00000" pt_clust_9="112.91624"></scales>
<clustering>
<clus scale="   56.607">  5  6 -1 -1</clus>
<clus scale="   92.773">  7  8 -1 -1</clus>
<clus scale="  130.511">  2  5  1 -1</clus>
<clus scale="  112.916">  1  9  2 -1</clus>
<clus scale="  112.916">  1  5  2 -1</clus>
</clustering>
</event>
<event>
 9    2  0.1592151E-004  0.2424732E+03  0.7546771E-02  0.1153484E+00
         21   -1    0    0  501  502  0.00000000000E+00  0.00000000000E+00  0.80374107992E+02  0.80374107992E+02  0.00000000000E+00 0. -1.
          2   -1    0    0  502    0 -0.00000000000E+00 -0.00000000000E+00 -0.16196494411E+04  0.16196494411E+04  0.00000000000E+00 0. -1.
         24    2    1    2    0    0  0.60359982225E+02 -0.21924046760E+02 -0.53878568271E+03  0.54849225700E+03  0.80185739443E+02 0.  0.
         23    2    1    2    0    0  0.17335354372E+03  0.58663669739E+02 -0.84299722887E+03  0.86732067486E+03  0.90044144078E+02 0.  0.
        -11    1    3    3    0    0  0.14825418009E+02 -0.40766171633E+02 -0.13719427777E+03  0.14388865008E+03  0.00000000000E+00 0.  1.
         12    1    3    3    0    0  0.45534564216E+02  0.18842124873E+02 -0.40159140494E+03  0.40460360692E+03  0.00000000000E+00 0. -1.
        -11    1    4    4    0    0 -0.46322151518E+01  0.21003236595E+02 -0.71580378084E+02  0.74741848327E+02  0.00000000000E+00 0.  1.
         11    1    4    4    0    0  0.17798575887E+03  0.37660433145E+02 -0.77141685079E+03  0.79257882653E+03  0.00000000000E+00 0. -1.
          1    1    1    2  501    0 -0.23371352595E+03 -0.36739622979E+02 -0.15749242150E+03  0.28421061721E+03  0.00000000000E+00 0. -1.
<scales pt_clust_5="13000.00000" pt_clust_6="13000.00000" pt_clust_7="13000.00000" pt_clust_8="13000.00000" pt_clust_9="225.13393"></scales>
<clustering>
<clus scale="   80.186">  5  6 -1 -1</clus>
<clus scale="   90.044">  7  8 -1 -1</clus>
<clus scale="  102.731">  2  5  1 -1</clus>
<clus scale="  225.134">  1  9  2 -1</clus>
<clus scale="  225.134">  1  5  2 -1</clus>
</clustering>
</event>
<event>
 9    2  0.1592151E-004  0.1815460E+03  0.7546771E-02  0.1166971E+00
         21   -1    0    0  501  502  0.00000000000E+00  0.00000000000E+00  0.51221396514E+02  0.51221396514E+02  0.00000000000E+00 0. -1.
          2   -1    0    0  502    0 -0.00000000000E+00 -0.00000000000E+00 -0.15736321996E+04  0.15736321996E+04  0.00000000000E+00 0. -1.
         24    2    1    2    0    0  0.13127758640E+03 -0.57909594197E+02 -0.73058992433E+03  0.75049889806E+03  0.94337864486E+02 0.  0.
         23    2    1    2    0    0 -0.20969321499E+03 -0.53970532781E+02 -0.48998592658E+03  0.54303836585E+03  0.88996605119E+02 0.  0.
        -13    1    3    3    0    0 -0.98435141811E+01 -0.24669947366E+02 -0.10141846918E+03  0.10483895729E+03  0.00000000000E+00 0.  1.
         14    1    3    3    0    0  0.14112110058E+03 -0.33239646831E+02 -0.62917145515E+03  0.64565994078E+03  0.00000000000E+00 0. -1.
        -11    1    4    4    0    0 -0.15656151400E+03 -0.77346784044E+02 -0.34025076763E+03  0.38244557461E+03  0.00000000000E+00 0. -1.
         11    1    4    4    0    0 -0.53131700989E+02  0.23376251263E+02 -0.14973515895E+03  0.16059279125E+03  0.00000000000E+00 0.  1.
          1    1    1    2  501    0  0.78415628595E+02  0.11188012698E+03 -0.30183495215E+03  0.33131633217E+03  0.00000000000E+00 0. -1.
<scales pt_clust_5="13000.00000" pt_clust_6="13000.00000" pt_clust_7="13000.00000" pt_clust_8="13000.00000" pt_clust_9="136.62421"></scales>
<clustering>
<clus scale="   88.997">  7  8 -1 -1</clus>
<clus scale="   94.338">  5  6 -1 -1</clus>
<clus scale="  136.624">  1  9  2 -1</clus>
<clus scale="  178.829">  1  7  2 -1</clus>
<clus scale="  136.624">  1  5  2 -1</clus>
</clustering>
</event>
<event>
 9    2  0.1592151E-004  0.9369797E+02  0.7546771E-02  0.1300660E+00
         -1   -1    0    0    0  501 -0.00000000000E+00  0.00000000000E+00  0.17750804829E+03  0.17750804829E+03  0.00000000000E+00 0.  1.
         21   -1    0    0  501  502  0.00000000000E+00 -0.00000000000E+00 -0.21498317298E+03  0.21498317298E+03  0.00000000000E+00 0. -1.
         23    2    1    2    0    0 -0.20926901075E+02  0.14112613114E+02  0.14509389898E+03  0.17290864409E+03  0.90598336847E+02 0.  0.
         24    2    1    2    0    0  0.21091383581E+02  0.19201376249E+02 -0.15419417755E+03  0.17582208320E+03  0.79523714948E+02 0.  0.
        -13    1    4    4    0    0 -0.23902440898E+02  0.29590801877E+02 -0.76652741458E+02  0.85572104156E+02  0.00000000000E+00 0.  1.
         14    1    4    4    0    0  0.44993824479E+02 -0.10389425629E+02 -0.77541436096E+02  0.90249979047E+02  0.00000000000E+00 0. -1.
        -13    1    3    3    0    0 -0.13696606013E+02  0.43563822199E+02  0.31853876011E+02  0.55678299523E+02  0.00000000000E+00 0.  1.
         13    1    3    3    0    0 -0.72302950621E+01 -0.29451209084E+02  0.11324002297E+03  0.11723034456E+03  0.00000000000E+00 0. -1.
         -2    1    1    2    0  502 -0.16448250627E+00 -0.33313989363E+02 -0.28374846116E+02  0.43760493985E+02  0.00000000000E+00 0.  1.
<scales pt_clust_5="13000.00000" pt_clust_6="13000.00000" pt_clust_7="13000.00000" pt_clust_8="13000.00000" pt_clust_9="33.31440"></scales>
<clustering>
<clus scale="   33.314">  2  9  1 -1</clus>
<clus scale="   79.524">  5  6 -1 -1</clus>
<clus scale="   83.038">  2  5  1 -1</clus>
<clus scale="   90.598">  7  8 -1 -1</clus>
<clus scale="   33.314">  2  5  1 -1</clus>
</clustering>
</event>
<event>
 9    2  0.1592151E-004  0.2611520E+03  0.7546771E-02  0.1139212E+00
         21   -1    0    0  501  502  0.00000000000E+00  0.00000000000E+00  0.95955288615E+02  0.95955288615E+02  0.00000000000E+00 0. -1.
          2   -1    0    0  502    0 -0.00000000000E+00 -0.00000000000E+00 -0.20422452736E+04  0.20422452736E+04  0.00000000000E+00 0. -1.
         23    2    1    2    0    0 -0.19307990766E+02 -0.67994233865E+02 -0.11146304827E+03  0.16056105069E+03  0.91432081477E+02 0.  0.
         24    2    1    2    0    0  0.13112625542E+03  0.27785799385E+03 -0.16386467868E+04  0.16693656506E+04  0.84966017738E+02 0.  0.
        -13    1    4    4    0    0  0.43351241195E+02  0.23143557590E+02 -0.27599193922E+03  0.28033284660E+03  0.00000000000E+00 0.  1.
         14    1    4    4    0    0  0.87775014227E+02  0.25471443626E+03 -0.13626548475E+04  0.13890328040E+04  0.00000000000E+00 0. -1.
        -11    1    3    3    0    0 -0.49680044625E+02 -0.29896210751E+02 -0.29121257964E+02  0.64884034374E+02  0.00000000000E+00 0.  1.
         11    1    3    3    0    0  0.30372053859E+02 -0.38098023114E+02 -0.82341790302E+02  0.95677016315E+02  0.00000000000E+00 0. -1.
          1    1    1    2  501    0 -0.11181826466E+03 -0.20986375998E+03 -0.19618014994E+03  0.30827386087E+03  0.00000000000E+00 0. -1.
<scales pt_clust_5="13000.00000" pt_clust_6="13000.00000" pt_clust_7="13000.00000" pt_clust_8="13000.00000" pt_clust_9="246.94358"></scales>
<clustering>
<clus scale="   84.966">  5  6 -1 -1</clus>
<clus scale="   91.432">  7  8 -1 -1</clus>
<clus scale="  115.568">  2  7  1 -1</clus>
<clus scale="  246.944">  1  9  2 -1</clus>
<clus scale="  246.944">  1  5  2 -1</clus>
</clustering>
</event>
<event>
 9    2  0.1592151E-004  0.2162455E+03  0.7546771E-02  0.1137535E+00
          2   -1    0    0  502    0 -0.00000000000E+00  0.00000000000E+00  0.13545679997E+04  0.13545679997E+04  0.00000000000E+00 0. -1.
         21   -1    0    0  501  502  0.00000000000E+00 -0.00000000000E+00 -0.64826539827E+02  0.64826539827E+02  0.00000000000E+00 0.  1.
         24    2    1    2    0    0 -0.24053946037E+02  0.21193937989E+03  0.98012891696E+03  0.10063139355E+04  0.80735059049E+02 0.  0.
         23    2    1    2    0    0  0.49930932484E+02 -0.13371538189E+03  0.12393635336E+03  0.20994454214E+03  0.91343252175E+02 0.  0.
        -11    1    3    3    0    0  0.13978788634E+02  0.17215191389E+03  0.76498877931E+03  0.78424455398E+03  0.00000000000E+00 0.  1.
         12    1    3    3    0    0 -0.38032734670E+02  0.39787466000E+02  0.21514013765E+03  0.22206938147E+03  0.00000000000E+00 0. -1.
        -11    1    4    4    0    0 -0.39300068097E+01 -0.50279541313E+02 -0.87942445712E+00  0.50440565179E+02  0.00000000000E+00 0.  1.
         11    1    4    4    0    0  0.53860939293E+02 -0.83435840574E+02  0.12481577782E+03  0.15950397696E+03  0.00000000000E+00 0. -1.
          1    1    1    2  501    0 -0.25876986447E+02 -0.78223998007E+02  0.18567618956E+03  0.20313606194E+03  0.00000000000E+00 0. -1.
<scales pt_clust_5="13000.00000" pt_clust_6="13000.00000" pt_clust_7="13000.00000" pt_clust_8="13000.00000" pt_clust_9="82.39308"></scales>
<clustering>
<clus scale="   80.735">  5  6 -1 -1</clus>
<clus scale="   82.393">  2  9  1 -1</clus>
<clus scale="   91.343">  7  8 -1 -1</clus>
<clus scale="  211.983">  1  5  2 -1</clus>
<clus scale="   82.393">  2  5  1 -1</clus>
</clustering>
</event>
<event>
 9    2  0.1592151E-004  0.2677084E+03  0.7546771E-02  0.1102846E+00
         21   -1    0    0  501  502  0.00000000000E+00  0.00000000000E+00  0.16115745431E+03  0.16115745431E+03  0.00000000000E+00 0. -1.
          2   -1    0    0  502    0 -0.00000000000E+00 -0.00000000000E+00 -0.87283096280E+03  0.87283096280E+03  0.00000000000E+00 0. -1.
         23    2    1    2    0    0 -0.27107277416E+03 -0.11632130954E+03 -0.60790746021E+03  0.68150697776E+03  0.88821082043E+02 0.  0.
         24    2    1    2    0    0  0.16920730059E+03  0.13114006992E+02 -0.36600737536E+02  0.19267061065E+03  0.83541980273E+02 0.  0.
        -13    1    4    4    0    0  0.17844844691E+03  0.98988869328E+01 -0.30984137636E+02  0.18138867922E+03  0.00000000000E+00 0.  1.
         14    1    4    4    0    0 -0.92411463171E+01  0.32151200592E+01 -0.56165998997E+01  0.11281931425E+02  0.00000000000E+00 0. -1.
        -11    1    3    3    0    0 -0.15570219046E+03 -0.62852445683E+02 -0.43951628584E+03  0.47049778699E+03  0.00000000000E+00 0.  1.
         11    1    3    3    0    0 -0.11537058370E+03 -0.53468863853E+02 -0.16839117437E+03  0.21100919077E+03  0.00000000000E+00 0. -1.
          1    1    1    2  501    0  0.10186547357E+03  0.10320730254E+03 -0.67165310742E+02  0.15981082870E+03  0.00000000000E+00 0. -1.
<scales pt_clust_5="13000.00000" pt_clust_6="13000.00000" pt_clust_7="13000.00000" pt_clust_8="13000.00000" pt_clust_9="145.01145"></scales>
<clustering>
<clus scale="   83.542">  5  6 -1 -1</clus>
<clus scale="   88.821">  7  8 -1 -1</clus>
<clus scale="  145.011">  1  9  2 -1</clus>
<clus scale="  266.004">  1  5  2 -1</clus>
<clus scale="  145.011">  1  5  2 -1</clus>
</clustering>
</event>
<event>
 9    2  0.1592151E-004  0.1666842E+03  0.7546771E-02  0.1182380E+00
          4   -1    0    0  502    0 -0.00000000000E+00  0.00000000000E+00  0.17665075885E+03  0.17665075885E+03  0.00000000000E+00 0. -1.
         21   -1    0    0  501  502  0.00000000000E+00 -0.00000000000E+00 -0.42198258599E+03  0.42198258599E+03  0.00000000000E+00 0. -1.
         24    2    1    2    0    0  0.10299485150E+03 -0.98355249121E+02  0.94203537066E+02  0.19076948715E+03  0.85070537604E+02 0.  0.
         23    2    1    2    0    0 -0.10463540282E+03  0.71634334841E+02 -0.15171246232E+03  0.21814263816E+03  0.92138449676E+02 0.  0.
        -11    1    3    3    0    0 -0.13843547418E+02 -0.18980267956E+02  0.21776658326E+02  0.32033064552E+02  0.00000000000E+00 0.  1.
         12    1    3    3    0    0  0.11683839891E+03 -0.79374981165E+02  0.72426878740E+02  0.15873642260E+03  0.00000000000E+00 0. -1.
        -11    1    4    4    0    0 -0.60749877536E+02  0.89051516889E+02 -0.11976369429E+03  0.16113367976E+03  0.00000000000E+00 0.  1.
         11    1    4    4    0    0 -0.43885525281E+02 -0.17417182048E+02 -0.31948768024E+02  0.57008958401E+02  0.00000000000E+00 0. -1.
          3    1    1    2  501    0  0.16405513216E+01  0.26720914280E+02 -0.18782290189E+03  0.18972121954E+03  0.00000000000E+00 0. -1.
<scales pt_clust_5="13000.00000" pt_clust_6="13000.00000" pt_clust_7="13000.00000" pt_clust_8="13000.00000" pt_clust_9="26.77123"></scales>
<clustering>
<clus scale="   26.771">  2  9  1 -1</clus>
<clus scale="   85.071">  5  6 -1 -1</clus>
<clus scale="   92.138">  7  8 -1 -1</clus>
<clus scale="  162.884">  1  5  2 -1</clus>
<clus scale="   26.771">  2  5  1 -1</clus>
</clustering>
</event>
<event>
 9    2  0.1592151E-004  0.2988078E+03  0.7546771E-02  0.1113520E+00
          2   -1    0    0  502    0 -0.00000000000E+00  0.00000000000E+00  0.31158505190E+03  0.31158505190E+03  0.00000000000E+00 0. -1.
         21   -1    0    0  501  502  0.00000000000E+00 -0.00000000000E+00 -0.49478742041E+03  0.49478742041E+03  0.00000000000E+00 0. -1.
         23    2    1    2    0    0 -0.81873188670E+02 -0.76161598689E+02  0.64805892977E+02  0.15938922986E+03  0.93280837760E+02 0.  0.
         24    2    1    2    0    0  0.30920323084E+03 -0.64715396160E+02 -0.17384276122E+03  0.36944802454E+03  0.80472459568E+02 0.  0.
        -11    1    4    4    0    0  0.10130172880E+03  0.15083900955E+02 -0.67566069072E+02  0.12269775066E+03  0.00000000000E+00 0.  1.
         12    1    4    4    0    0  0.20790150203E+03 -0.79799297115E+02 -0.10627669215E+03  0.24675027389E+03  0.00000000000E+00 0. -1.
        -13    1    3    3    0    0 -0.42820875386E+01 -0.47425495670E+02  0.59873876000E+02  0.76500947317E+02  0.00000000000E+00 0. -1.
         13    1    3    3    0    0 -0.77591101132E+02 -0.28736103019E+02  0.49320169773E+01  0.82888282544E+02  0.00000000000E+00 0.  1.
          1    1    1    2  501    0 -0.22733004217E+03  0.14087699485E+03 -0.74165500266E+02  0.27753521791E+03  0.00000000000E+00 0. -1.
<scales pt_clust_5="13000.00000" pt_clust_6="13000.00000" pt_clust_7="13000.00000" pt_clust_8="13000.00000" pt_clust_9="287.76794"></scales>
<clustering>
<clus scale="   80.472">  5  6 -1 -1</clus>
<clus scale="   93.281">  7  8 -1 -1</clus>
<clus scale="  145.620">  1  7  2 -1</clus>
<clus scale="  287.768">  2  9  1 -1</clus>
<clus scale="  287.768">  2  5  1 -1</clus>
</clustering>
</event>
<event>
 9    2  0.1592151E-004  0.1070929E+03  0.7546771E-02  0.1273118E+00
          2   -1    0    0  502    0 -0.00000000000E+00  0.00000000000E+00  0.20123796312E+03  0.20123796312E+03  0.00000000000E+00 0. -1.
         21   -1    0    0  501  502  0.00000000000E+00 -0.00000000000E+00 -0.17224682122E+03  0.17224682122E+03  0.00000000000E+00 0.  1.
         23    2    1    2    0    0 -0.25736300358E+02 -0.92457351945E+01  0.14621713724E+03  0.17343528340E+03  0.89176821711E+02 0.  0.
         24    2    1    2    0    0  0.41519316809E+02 -0.32196858280E+02 -0.97392456976E+02  0.15147006695E+03  0.10342823190E+03 0.  0.
        -13    1    4    4    0    0 -0.21304803892E+02  0.33237668260E+01 -0.71684897843E+02  0.74857642720E+02  0.00000000000E+00 0.  1.
         14    1    4    4    0    0  0.62824120701E+02 -0.35520625106E+02 -0.25707559133E+02  0.76612424229E+02  0.00000000000E+00 0. -1.
        -11    1    3    3    0    0 -0.21333815615E+02  0.29224841986E+02  0.19853687232E+02  0.41272169491E+02  0.00000000000E+00 0.  1.
         11    1    3    3    0    0 -0.44024847433E+01 -0.38470577181E+02  0.12636345001E+03  0.13216311391E+03  0.00000000000E+00 0. -1.
          1    1    1    2  501    0 -0.15783016451E+02  0.41442593474E+02 -0.19833538373E+02  0.48579433988E+02  0.00000000000E+00 0. -1.
<scales pt_clust_5="13000.00000" pt_clust_6="13000.00000" pt_clust_7="13000.00000" pt_clust_8="13000.00000" pt_clust_9="44.34628"></scales>
<clustering>
<clus scale="   44.346">  2  9  1 -1</clus>
<clus scale="   89.177">  7  8 -1 -1</clus>
<clus scale="   93.402">  1  7  2 -1</clus>
<clus scale="  103.428">  5  6 -1 -1</clus>
<clus scale="   44.346">  2  5  1 -1</clus>
</clustering>
</event>
<event>
 9    2  0.1592151E-004  0.1681218E+03  0.7546771E-02  0.1203940E+00
         21   -1    0    0  501  502  0.00000000000E+00  0.00000000000E+00  0.34184998132E+03  0.34184998132E+03  0.00000000000E+00 0.  1.
          2   -1    0    0  502    0 -0.00000000000E+00 -0.00000000000E+00 -0.13794985037E+03  0.13794985037E+03  0.00000000000E+00 0. -1.
         24    2    1    2    0    0 -0.13039345661E+02  0.56506079927E+02 -0.10774145692E+02  0.99421714671E+02  0.80035201811E+02 0.  0.
         23    2    1    2    0    0  0.34208198956E+01 -0.17151182083E+03  0.16257431175E+03  0.25375567500E+03  0.92377102477E+02 0.  0.
        -13    1    3    3    0    0 -0.13978216746E+02  0.72911834175E+02  0.77691092739E+01  0.74645061223E+02  0.00000000000E+00 0.  1.
         14    1    3    3    0    0  0.93887108448E+00 -0.16405754248E+02 -0.18543254966E+02  0.24776653448E+02  0.00000000000E+00 0. -1.
        -13    1    4    4    0    0  0.33491439189E+02 -0.15683668743E+03  0.12420235340E+03  0.20284389962E+03  0.00000000000E+00 0.  1.
         13    1    4    4    0    0 -0.30070619293E+02 -0.14675133398E+02  0.38371958347E+02  0.50911775380E+02  0.00000000000E+00 0. -1.
          1    1    1    2  501    0  0.96185257658E+01  0.11500574091E+03  0.52099964901E+02  0.12662244201E+03  0.00000000000E+00 0. -1.
<scales pt_clust_5="13000.00000" pt_clust_6="13000.00000" pt_clust_7="13000.00000" pt_clust_8="13000.00000" pt_clust_9="140.46857"></scales>
<clustering>
<clus scale="   80.035">  5  6 -1 -1</clus>
<clus scale="   92.377">  7  8 -1 -1</clus>
<clus scale="   98.836">  2  5  1 -1</clus>
<clus scale="  140.469">  1  9  2 -1</clus>
<clus scale="  140.469">  1  5  2 -1</clus>
</clustering>
</event>
<event>
 9    2  0.1592151E-004  0.1282974E+03  0.7546771E-02  0.1233317E+00
         21   -1    0    0  501  502  0.00000000000E+00  0.00000000000E+00  0.62260571814E+02  0.62260571814E+02  0.00000000000E+00 0. -1.
          2   -1    0    0  502    0 -0.00000000000E+00 -0.00000000000E+00 -0.58339280113E+03  0.58339280113E+03  0.00000000000E+00 0. -1.
         24    2    1    2    0    0 -0.32160993202E+02 -0.60517108946E+02 -0.18015674165E+03  0.20872737605E+03  0.80087552037E+02 0.  0.
         23    2    1    2    0    0 -0.26970117255E+02  0.13061752435E+03 -0.28930966398E+03  0.33166482741E+03  0.92266739284E+02 0.  0.
        -13    1    3    3    0    0 -0.64881663517E+00 -0.40617077281E+02 -0.16247462098E+03  0.16747588003E+03  0.00000000000E+00 0.  1.
         14    1    3    3    0    0 -0.31512176567E+02 -0.19900031665E+02 -0.17682120671E+02  0.41251496018E+02  0.00000000000E+00 0. -1.
        -13    1    4    4    0    0 -0.35120002958E+02  0.11016081857E+03 -0.28713114958E+03  0.30953694063E+03  0.00000000000E+00 0. -1.
         13    1    4    4    0    0  0.81498857026E+01  0.20456705782E+02 -0.21785143990E+01  0.22127886782E+02  0.00000000000E+00 0.  1.
          1    1    1    2  501    0  0.59131110457E+02 -0.70100415404E+02 -0.51665823686E+02  0.10526116948E+03  0.00000000000E+00 0. -1.
<scales pt_clust_5="13000.00000" pt_clust_6="13000.00000" pt_clust_7="13000.00000" pt_clust_8="13000.00000" pt_clust_9="91.70909"></scales>
<clustering>
<clus scale="   80.088">  5  6 -1 -1</clus>
<clus scale="   91.709">  1  9  2 -1</clus>
<clus scale="   92.267">  7  8 -1 -1</clus>
<clus scale="  119.838">  2  5  1 -1</clus>
<clus scale="   91.709">  1  5  2 -1</clus>
</clustering>
</event>
<event>
 9    2  0.1592151E-004  0.1029251E+03  0.7546771E-02  0.1279429E+00
         21   -1    0    0  501  502  0.00000000000E+00  0.00000000000E+00  0.15460922426E+03  0.15460922426E+03  0.00000000000E+00 0. -1.
          2   -1    0    0  502    0 -0.00000000000E+00 -0.00000000000E+00 -0.26947688784E+03  0.26947688784E+03  0.00000000000E+00 0. -1.
         23    2    1    2    0    0  0.44132268265E+02  0.74720937861E+01 -0.22060070507E+03  0.24290503640E+03  0.91294558133E+02 0.  0.
         24    2    1    2    0    0 -0.66860461231E+02 -0.27799615476E+01  0.40668937171E+02  0.11210195779E+03  0.80217435931E+02 0.  0.
        -11    1    4    4    0    0 -0.81601266975E+02 -0.22178350946E+01  0.48952076573E+02  0.95183986916E+02  0.00000000000E+00 0.  1.
         12    1    4    4    0    0  0.14740805744E+02 -0.56212645302E+00 -0.82831394016E+01  0.16917970873E+02  0.00000000000E+00 0. -1.
        -13    1    3    3    0    0 -0.21628905291E+02 -0.17756147794E+02 -0.93441859777E+02  0.97542152361E+02  0.00000000000E+00 0.  1.
         13    1    3    3    0    0  0.65761173556E+02  0.25228241581E+02 -0.12715884529E+03  0.14536288404E+03  0.00000000000E+00 0. -1.
          1    1    1    2  501    0  0.22728192966E+02 -0.46921322385E+01  0.65064104318E+02  0.69079117909E+02  0.00000000000E+00 0. -1.
<scales pt_clust_5="13000.00000" pt_clust_6="13000.00000" pt_clust_7="13000.00000" pt_clust_8="13000.00000" pt_clust_9="23.20747"></scales>
<clustering>
<clus scale="   23.207">  1  9  2 -1</clus>
<clus scale="   80.217">  5  6 -1 -1</clus>
<clus scale="   91.295">  7  8 -1 -1</clus>
<clus scale="   93.240">  1  5  2 -1</clus>
<clus scale="   23.207">  1  5  2 -1</clus>
</clustering>
</event>
<event>
 9    2  0.1592151E-004  0.1068198E+03  0.7546771E-02  0.1269403E+00
         -1   -1    0    0    0  501 -0.00000000000E+00  0.00000000000E+00  0.20930988307E+03  0.20930988307E+03  0.00000000000E+00 0.  1.
         21   -1    0    0  501  502  0.00000000000E+00 -0.00000000000E+00 -0.12985774456E+03  0.12985774456E+03  0.00000000000E+00 0.  1.
         24    2    1    2    0    0 -0.49930709972E+02  0.13977711650E+02  0.76504366604E+02  0.12526600336E+03  0.84558862739E+02 0.  0.
         23    2    1    2    0    0  0.46205863493E+02 -0.70426159730E+02 -0.52342722830E+02  0.13479827048E+03  0.91301628107E+02 0.  0.
        -13    1    3    3    0    0 -0.99595399050E+01 -0.24006607429E+02  0.63499152934E+02  0.68612331681E+02  0.00000000000E+00 0.  1.
         14    1    3    3    0    0 -0.39971170067E+02  0.37984319079E+02  0.13005213670E+02  0.56653671682E+02  0.00000000000E+00 0. -1.
        -13    1    4    4    0    0  0.64366617751E+02 -0.41892184415E+02 -0.63003276022E+02  0.99334935371E+02  0.00000000000E+00 0.  1.
         13    1    4    4    0    0 -0.18160754258E+02 -0.28533975315E+02  0.10660553192E+02  0.35463335106E+02  0.00000000000E+00 0. -1.
         -2    1    1    2    0  502  0.37248464789E+01  0.56448448080E+02  0.55290494739E+02  0.79103353787E+02  0.00000000000E+00 0.  1.
<scales pt_clust_5="13000.00000" pt_clust_6="13000.00000" pt_clust_7="13000.00000" pt_clust_8="13000.00000" pt_clust_9="56.57124"></scales>
<clustering>
<clus scale="   56.571">  2  9  1 -1</clus>
<clus scale="   84.559">  5  6 -1 -1</clus>
<clus scale="   91.302">  7  8 -1 -1</clus>
<clus scale="  101.117">  1  5  2 -1</clus>
<clus scale="   56.571">  2  5  1 -1</clus>
</clustering>
</event>
<event>
 9    2  0.1592151E-004  0.1442948E+03  0.7546771E-02  0.1213939E+00
         21   -1    0    0  501  502  0.00000000000E+00  0.00000000000E+00  0.87707237285E+02  0.87707237285E+02  0.00000000000E+00 0.  1.
          2   -1    0    0  502    0 -0.00000000000E+00 -0.00000000000E+00 -0.14275974423E+04  0.14275974423E+04  0.00000000000E+00 0. -1.
         23    2    1    2    0    0 -0.41296234919E+02 -0.75172299793E+02 -0.23736204087E+03  0.26883582190E+03  0.92605113328E+02 0.  0.
         24    2    1    2    0    0 -0.71817274917E+02 -0.85209034598E+02 -0.14166058622E+02  0.14055343991E+03  0.84476574868E+02 0.  0.
        -11    1    4    4    0    0 -0.88707841926E+02 -0.56177472304E+02 -0.26062508566E+01  0.10503229102E+03  0.00000000000E+00 0.  1.
         12    1    4    4    0    0  0.16890567009E+02 -0.29031562294E+02 -0.11559807765E+02  0.35521148893E+02  0.00000000000E+00 0. -1.
        -11    1    3    3    0    0 -0.45750638630E+02 -0.23907397738E+02 -0.41228159818E+02  0.66063952074E+02  0.00000000000E+00 0. -1.
         11    1    3    3    0    0  0.44544037106E+01 -0.51264902055E+02 -0.19613388105E+03  0.20277186982E+03  0.00000000000E+00 0.  1.
          1    1    1    2  501    0  0.11311350984E+03  0.16038133439E+03 -0.10883621055E+04  0.11059154177E+04  0.00000000000E+00 0. -1.
<scales pt_clust_5="13000.00000" pt_clust_6="13000.00000" pt_clust_7="13000.00000" pt_clust_8="13000.00000" pt_clust_9="116.98167"></scales>
<clustering>
<clus scale="   84.477">  5  6 -1 -1</clus>
<clus scale="   92.605">  7  8 -1 -1</clus>
<clus scale="  126.222">  2  7  1 -1</clus>
<clus scale="  116.982">  1  9  2 -1</clus>
<clus scale="  116.982">  1  5  2 -1</clus>
</clustering>
</event>
<event>
 9    2  0.1592151E-004  0.1796267E+03  0.7546771E-02  0.1186756E+00
         21   -1    0    0  501  502  0.00000000000E+00  0.00000000000E+00  0.11076209819E+03  0.11076209819E+03  0.00000000000E+00 0. -1.
          2   -1    0    0  502    0 -0.00000000000E+00 -0.00000000000E+00 -0.75524049534E+03  0.75524049534E+03  0.00000000000E+00 0. -1.
         23    2    1    2    0    0  0.53764853644E+02  0.52465774335E+02 -0.15993779124E+03  0.19878501874E+03  0.91060801901E+02 0.  0.
         24    2    1    2    0    0 -0.11943079981E+03  0.97700171885E+02 -0.47159404436E+03  0.50281124479E+03  0.81296775323E+02 0.  0.
        -11    1    4    4    0    0 -0.35086561624E+02  0.62361629862E+02 -0.12182125045E+03  0.14128148055E+03  0.00000000000E+00 0.  1.
         12    1    4    4    0    0 -0.84344238185E+02  0.35338542023E+02 -0.34977279391E+03  0.36152976424E+03  0.00000000000E+00 0. -1.
        -13    1    3    3    0    0 -0.21387251903E+02 -0.32676540355E+01 -0.15207208746E+02  0.26445251080E+02  0.00000000000E+00 0.  1.
         13    1    3    3    0    0  0.75152105547E+02  0.55733428371E+02 -0.14473058250E+03  0.17233976766E+03  0.00000000000E+00 0. -1.
          1    1    1    2  501    0  0.65665946165E+02 -0.15016594622E+03 -0.12946561548E+02  0.16440633001E+03  0.00000000000E+00 0. -1.
<scales pt_clust_5="13000.00000" pt_clust_6="13000.00000" pt_clust_7="13000.00000" pt_clust_8="13000.00000" pt_clust_9="160.17669"></scales>
<clustering>
<clus scale="   81.297">  5  6 -1 -1</clus>
<clus scale="   91.061">  7  8 -1 -1</clus>
<clus scale="  118.048">  2  7  1 -1</clus>
<clus scale="  160.177">  1  9  2 -1</clus>
<clus scale="  160.177">  1  5  2 -1</clus>
</clustering>
</event>
<event>
 9    2  0.1592151E-004  0.1264089E+03  0.7546771E-02  0.1236111E+00
          2   -1    0    0  502    0 -0.00000000000E+00  0.00000000000E+00  0.14741830197E+04  0.14741830197E+04  0.00000000000E+00 0. -1.
         21   -1    0    0  501  502  0.00000000000E+00 -0.00000000000E+00 -0.18312462126E+02  0.18312462126E+02  0.00000000000E+00 0.  1.
         24    2    1    2    0    0 -0.96082711422E+02  0.79445597039E+01  0.92669329059E+03  0.93498394616E+03  0.78355097439E+02 0.  0.
         23    2    1    2    0    0  0.75703194584E+02  0.21012932783E+02  0.49140058531E+03  0.50573375321E+03  0.90108694821E+02 0.  0.
        -11    1    3    3    0    0 -0.71714546671E+02 -0.27000054401E+01  0.33068196377E+03  0.33837970890E+03  0.00000000000E+00 0.  1.
         12    1    3    3    0    0 -0.24368164751E+02  0.10644565144E+02  0.59601132682E+03  0.59660423726E+03  0.00000000000E+00 0. -1.
        -11    1    4    4    0    0  0.33569579599E+02  0.55071803747E+02  0.23632920675E+03  0.24497206821E+03  0.00000000000E+00 0.  1.
         11    1    4    4    0    0  0.42133614985E+02 -0.34058870963E+02  0.25507137856E+03  0.26076168500E+03  0.00000000000E+00 0. -1.
          1    1    1    2  501    0  0.20379516837E+02 -0.28957492487E+02  0.37776681699E+02  0.51777782473E+02  0.00000000000E+00 0. -1.
<scales pt_clust_5="13000.00000" pt_clust_6="13000.00000" pt_clust_7="13000.00000" pt_clust_8="13000.00000" pt_clust_9="35.40990"></scales>
<clustering>
<clus scale="   35.410">  2  9  1 -1</clus>
<clus scale="   78.355">  5  6 -1 -1</clus>
<clus scale="   90.109">  7  8 -1 -1</clus>
<clus scale="  118.318">  1  5  2 -1</clus>
<clus scale="   35.410">  2  5  1 -1</clus>
</clustering>
</event>
<event>
 9    2  0.1592151E-004  0.9517027E+02  0.7546771E-02  0.1291135E+00
         21   -1    0    0  501  502  0.00000000000E+00  0.00000000000E+00  0.54748041403E+03  0.54748041403E+03  0.00000000000E+00 0.  1.
         -1   -1    0    0    0  501 -0.00000000000E+00 -0.00000000000E+00 -0.24041752869E+02  0.24041752869E+02  0.00000000000E+00 0.  1.
         23    2    1    2    0    0  0.24879093434E+02  0.44567790205E+02  0.23558088043E+03  0.25383548246E+03  0.79554030168E+02 0.  0.
         24    2    1    2    0    0 -0.48844315165E+02 -0.26529474154E+02  0.25571568523E+03  0.27372275603E+03  0.80274873850E+02 0.  0.
        -11    1    4    4    0    0 -0.71490318309E-01 -0.31689631048E+02  0.18481281680E+03  0.18751003994E+03  0.00000000000E+00 0.  1.
         12    1    4    4    0    0 -0.48772824846E+02  0.51601568942E+01  0.70902868435E+02  0.86212716086E+02  0.00000000000E+00 0. -1.
        -11    1    3    3    0    0  0.15893994790E+02  0.66783522048E+02  0.14999662268E+03  0.16495952444E+03  0.00000000000E+00 0.  1.
         11    1    3    3    0    0  0.89850986434E+01 -0.22215731844E+02  0.85584257753E+02  0.88875958021E+02  0.00000000000E+00 0. -1.
         -2    1    1    2    0  502  0.23965221731E+02 -0.18038316051E+02  0.32142095503E+02  0.43963928418E+02  0.00000000000E+00 0.  1.
<scales pt_clust_5="13000.00000" pt_clust_6="13000.00000" pt_clust_7="13000.00000" pt_clust_8="13000.00000" pt_clust_9="29.99523"></scales>
<clustering>
<clus scale="   29.995">  1  9  2 -1</clus>
<clus scale="   79.554">  7  8 -1 -1</clus>
<clus scale="   80.275">  5  6 -1 -1</clus>
<clus scale="   94.563">  2  7  1 -1</clus>
<clus scale="   29.995">  1  5  2 -1</clus>
</clustering>
</event>
<event>
 9    2  0.1592151E-004  0.1423049E+03  0.7546771E-02  0.1230455E+00
          2   -1    0    0  502    0 -0.00000000000E+00  0.00000000000E+00  0.41253792434E+02  0.41253792434E+02  0.00000000000E+00 0. -1.
         21   -1    0    0  501  502  0.00000000000E+00 -0.00000000000E+00 -0.13559979298E+04  0.13559979298E+04  0.00000000000E+00 0. -1.
         23    2    1    2    0    0  0.17416999876E+02  0.42132702108E+01 -0.51494840721E+02  0.10643345994E+03  0.91407107186E+02 0.  0.
         24    2    1    2    0    0 -0.78716387648E+02  0.90338693660E+02 -0.85826480387E+03  0.87044922418E+03  0.81890347773E+02 0.  0.
        -13    1    4    4    0    0 -0.67049290501E+02  0.31188239531E+02 -0.30178131366E+03  0.31070930934E+03  0.00000000000E+00 0.  1.
         14    1    4    4    0    0 -0.11667097147E+02  0.59150454129E+02 -0.55648349021E+03  0.55973991483E+03  0.00000000000E+00 0. -1.
        -11    1    3    3    0    0  0.18039027391E+02 -0.25167501022E+02 -0.66559627232E+02  0.73409764979E+02  0.00000000000E+00 0.  1.
         11    1    3    3    0    0 -0.62202751517E+00  0.29380771233E+02  0.15064786511E+02  0.33023694965E+02  0.00000000000E+00 0. -1.
          1    1    1    2  501    0  0.61299387773E+02 -0.94551963870E+02 -0.40498449276E+03  0.42036903810E+03  0.00000000000E+00 0. -1.
<scales pt_clust_5="13000.00000" pt_clust_6="13000.00000" pt_clust_7="13000.00000" pt_clust_8="13000.00000" pt_clust_9="116.38154"></scales>
<clustering>
<clus scale="   81.890">  5  6 -1 -1</clus>
<clus scale="   91.407">  7  8 -1 -1</clus>
<clus scale="   93.147">  1  7  2 -1</clus>
<clus scale="  116.382">  2  9  1 -1</clus>
<clus scale="  116.382">  2  5  1 -1</clus>
</clustering>
</event>
<event>
 9    2  0.1592151E-004  0.1179925E+03  0.7546771E-02  0.1250570E+00
         21   -1    0    0  501  502  0.00000000000E+00  0.00000000000E+00  0.17654716992E+03  0.17654716992E+03  0.00000000000E+00 0. -1.
          2   -1    0    0  502    0 -0.00000000000E+00 -0.00000000000E+00 -0.47855116554E+03  0.47855116554E+03  0.00000000000E+00 0. -1.
         24    2    1    2    0    0 -0.55585912801E+02 -0.51722079207E+02 -0.41564678082E+03  0.42983575825E+03  0.78940265284E+02 0.  0.
         23    2    1    2    0    0  0.62966669216E+02  0.84757126239E+00  0.13036153398E+03  0.17120512920E+03  0.91386798358E+02 0.  0.
        -11    1    3    3    0    0  0.18474789847E+02 -0.18436543107E+02 -0.14271601834E+03  0.14508303096E+03  0.00000000000E+00 0.  1.
         12    1    3    3    0    0 -0.74060702648E+02 -0.33285536100E+02 -0.27293076248E+03  0.28475272729E+03  0.00000000000E+00 0. -1.
        -11    1    4    4    0    0  0.18176472538E+02  0.41391763977E+02  0.82714265005E+02  0.94261932477E+02  0.00000000000E+00 0. -1.
         11    1    4    4    0    0  0.44790196678E+02 -0.40544192714E+02  0.47647268973E+02  0.76943196722E+02  0.00000000000E+00 0.  1.
          1    1    1    2  501    0 -0.73807564149E+01  0.50874507945E+02 -0.16718748777E+02  0.54057448002E+02  0.00000000000E+00 0. -1.
<scales pt_clust_5="13000.00000" pt_clust_6="13000.00000" pt_clust_7="13000.00000" pt_clust_8="13000.00000" pt_clust_9="51.40711"></scales>
<clustering>
<clus scale="   51.407">  1  9  2 -1</clus>
<clus scale="   78.940">  5  6 -1 -1</clus>
<clus scale="   91.387">  7  8 -1 -1</clus>
<clus scale="  108.638">  2  5  1 -1</clus>
<clus scale="   51.407">  1  5  2 -1</clus>
</clustering>
</event>
<event>
 9    2  0.1592151E-004  0.9257438E+02  0.7546771E-02  0.1300458E+00
         21   -1    0    0  501  502  0.00000000000E+00  0.00000000000E+00  0.32868454134E+02  0.32868454134E+02  0.00000000000E+00 0.  1.
          2   -1    0    0  502    0 -0.00000000000E+00 -0.00000000000E+00 -0.69153550965E+03  0.69153550965E+03  0.00000000000E+00 0. -1.
         23    2    1    2    0    0 -0.21987950989E+02  0.18730776267E+02 -0.41542664485E+03  0.42561683100E+03  0.87954974948E+02 0.  0.
         24    2    1    2    0    0 -0.14593006072E+02 -0.50721520671E+02 -0.72171891089E+02  0.12095009350E+03  0.81452530776E+02 0.  0.
        -13    1    4    4    0    0 -0.38641330197E+02 -0.54445377099E+02 -0.69656272289E+02  0.96485479510E+02  0.00000000000E+00 0.  1.
         14    1    4    4    0    0  0.24048324126E+02  0.37238564284E+01 -0.25156187999E+01  0.24464613995E+02  0.00000000000E+00 0. -1.
        -11    1    3    3    0    0 -0.34675036401E+02  0.47734105972E+02 -0.30898551385E+03  0.31456787946E+03  0.00000000000E+00 0.  1.
         11    1    3    3    0    0  0.12687085412E+02 -0.29003329705E+02 -0.10644113100E+03  0.11104895154E+03  0.00000000000E+00 0. -1.
          1    1    1    2  501    0  0.36580957061E+02  0.31990744404E+02 -0.17106851958E+03  0.17783703928E+03  0.00000000000E+00 0. -1.
<scales pt_clust_5="13000.00000" pt_clust_6="13000.00000" pt_clust_7="13000.00000" pt_clust_8="13000.00000" pt_clust_9="48.59605"></scales>
<clustering>
<clus scale="   48.596">  1  9  2 -1</clus>
<clus scale="   81.453">  5  6 -1 -1</clus>
<clus scale="   86.420">  1  5  2 -1</clus>
<clus scale="   87.955">  7  8 -1 -1</clus>
<clus scale="   48.596">  1  5  2 -1</clus>
</clustering>
</event>
<event>
 9    2  0.1592151E-004  0.1872129E+03  0.7546771E-02  0.1162312E+00
         21   -1    0    0  501  502  0.00000000000E+00  0.00000000000E+00  0.14661061529E+03  0.14661061529E+03  0.00000000000E+00 0.  1.
          2   -1    0    0  502    0 -0.00000000000E+00 -0.00000000000E+00 -0.19535605770E+04  0.19535605770E+04  0.00000000000E+00 0. -1.
         23    2    1    2    0    0 -0.11795919149E+03  0.81270515425E+02 -0.38027425207E+03  0.41663266186E+03  0.91951077266E+02 0.  0.
         24    2    1    2    0    0  0.19951849422E+03 -0.23042907231E+03 -0.78560512380E+02  0.32474686868E+03  0.79897357344E+02 0.  0.
        -13    1    4    4    0    0  0.17410047504E+03 -0.14718186946E+03 -0.53509915287E+02  0.23417256274E+03  0.00000000000E+00 0.  1.
         14    1    4    4    0    0  0.25418019177E+02 -0.83247202849E+02 -0.25050597092E+02  0.90574305936E+02  0.00000000000E+00 0. -1.
        -11    1    3    3    0    0 -0.63505691032E+02  0.38221975692E+02 -0.30650449601E+03  0.31533933832E+03  0.00000000000E+00 0.  1.
         11    1    3    3    0    0 -0.54453500456E+02  0.43048539733E+02 -0.73769756061E+02  0.10129332354E+03  0.00000000000E+00 0. -1.
          1    1    1    2  501    0 -0.81559302729E+02  0.14915855688E+03 -0.13481151973E+04  0.13587916618E+04  0.00000000000E+00 0. -1.
<scales pt_clust_5="13000.00000" pt_clust_6="13000.00000" pt_clust_7="13000.00000" pt_clust_8="13000.00000" pt_clust_9="170.00066"></scales>
<clustering>
<clus scale="   79.897">  5  6 -1 -1</clus>
<clus scale="   91.951">  7  8 -1 -1</clus>
<clus scale="  170.001">  1  9  2 -1</clus>
<clus scale="  181.596">  1  5  2 -1</clus>
<clus scale="  170.001">  1  5  2 -1</clus>
</clustering>
</event>
<event>
 9    2  0.1592151E-004  0.4325285E+03  0.7546771E-02  0.1033064E+00
          2   -1    0    0  502    0 -0.00000000000E+00  0.00000000000E+00  0.41216590300E+03  0.41216590300E+03  0.00000000000E+00 0. -1.
         21   -1    0    0  501  502  0.00000000000E+00 -0.00000000000E+00 -0.49317526708E+03  0.49317526708E+03  0.00000000000E+00 0. -1.
         24    2    1    2    0    0 -0.15305354179E+02 -0.67993856776E+02 -0.37371208563E+02  0.11389932542E+03  0.81969693648E+02 0.  0.
         23    2    1    2    0    0  0.11854780529E+03 -0.28580223758E+03 -0.21296857946E+03  0.38585156794E+03  0.88257098846E+02 0.  0.
        -11    1    3    3    0    0 -0.31973605025E+02 -0.26381802512E+02 -0.52224636387E+02  0.66676259402E+02  0.00000000000E+00 0.  1.
         12    1    3    3    0    0  0.16668250846E+02 -0.41612054264E+02  0.14853427824E+02  0.47223066022E+02  0.00000000000E+00 0. -1.
        -13    1    4    4    0    0  0.54167491334E+02 -0.13000491503E+03 -0.44935003296E+02  0.14783284334E+03  0.00000000000E+00 0.  1.
         13    1    4    4    0    0  0.64380313960E+02 -0.15579732255E+03 -0.16803357617E+03  0.23801872460E+03  0.00000000000E+00 0. -1.
          1    1    1    2  501    0 -0.10324245112E+03  0.35379609436E+03  0.16933042395E+03  0.40559027672E+03  0.00000000000E+00 0. -1.
<scales pt_clust_5="13000.00000" pt_clust_6="13000.00000" pt_clust_7="13000.00000" pt_clust_8="13000.00000" pt_clust_9="368.55232"></scales>
<clustering>
<clus scale="   81.970">  5  6 -1 -1</clus>
<clus scale="   88.257">  7  8 -1 -1</clus>
<clus scale="   98.516">  5  7 -1 -1</clus>
<clus scale="  368.552">  2  9  1 -1</clus>
<clus scale="  368.552">  2  5  1 -1</clus>
</clustering>
</event>
<event>
 9    2  0.1592151E-004  0.1123667E+03  0.7546771E-02  0.1259442E+00
         21   -1    0    0  501  502  0.00000000000E+00  0.00000000000E+00  0.23675741245E+03  0.23675741245E+03  0.00000000000E+00 0. -1.
          2   -1    0    0  502    0 -0.00000000000E+00 -0.00000000000E+00 -0.12308616580E+03  0.12308616580E+03  0.00000000000E+00 0. -1.
         24    2    1    2    0    0  0.65893383443E+02  0.73503331838E+01 -0.50674327863E+02  0.11822876381E+03  0.83750747513E+02 0.  0.
         23    2    1    2    0    0 -0.48589097835E+02 -0.26933479714E+02  0.18101243173E+03  0.21061929769E+03  0.92242481324E+02 0.  0.
        -11    1    3    3    0    0  0.67784627614E+02 -0.10687209842E+02 -0.65454288731E+02  0.94832674265E+02  0.00000000000E+00 0.  1.
         12    1    3    3    0    0 -0.18912441709E+01  0.18037543026E+02  0.14779960867E+02  0.23396089549E+02  0.00000000000E+00 0. -1.
        -13    1    4    4    0    0 -0.65036096389E+02  0.15215845392E+01  0.73301901389E+02  0.98006009001E+02  0.00000000000E+00 0.  1.
         13    1    4    4    0    0  0.16446998554E+02 -0.28455064253E+02  0.10771053034E+03  0.11261328869E+03  0.00000000000E+00 0. -1.
          1    1    1    2  501    0 -0.17304285608E+02  0.19583146531E+02 -0.16666857220E+02  0.30995516741E+02  0.00000000000E+00 0. -1.
<scales pt_clust_5="13000.00000" pt_clust_6="13000.00000" pt_clust_7="13000.00000" pt_clust_8="13000.00000" pt_clust_9="26.13309"></scales>
<clustering>
<clus scale="   26.133">  1  9  2 -1</clus>
<clus scale="   83.751">  5  6 -1 -1</clus>
<clus scale="   92.242">  7  8 -1 -1</clus>
<clus scale="  105.507">  2  5  1 -1</clus>
<clus scale="   26.133">  1  5  2 -1</clus>
</clustering>
</event>
<event>
 9    2  0.1592151E-004  0.1109093E+03  0.7546771E-02  0.1263584E+00
         21   -1    0    0  501  502  0.00000000000E+00  0.00000000000E+00  0.25054271101E+03  0.25054271101E+03  0.00000000000E+00 0.  1.
         -1   -1    0    0    0  501 -0.00000000000E+00 -0.00000000000E+00 -0.71936268713E+02  0.71936268713E+02  0.00000000000E+00 0.  1.
         24    2    1    2    0    0  0.45202099511E+02  0.30319986021E+02  0.42312075240E+02  0.10472154877E+03  0.78827404585E+02 0.  0.
         23    2    1    2    0    0 -0.54855681522E+02 -0.50493782314E+02  0.48647271947E+02  0.12730198897E+03  0.90997096000E+02 0.  0.
        -13    1    3    3    0    0  0.33420597499E+02 -0.40871300650E+01 -0.14987615100E+02  0.36854709004E+02  0.00000000000E+00 0.  1.
         14    1    3    3    0    0  0.11781502012E+02  0.34407116086E+02  0.57299690340E+02  0.67866839768E+02  0.00000000000E+00 0. -1.
        -13    1    4    4    0    0 -0.35747798212E+02 -0.44536169377E+02  0.74963914914E+02  0.94238866712E+02  0.00000000000E+00 0. -1.
         13    1    4    4    0    0 -0.19107883310E+02 -0.59576129371E+01 -0.26316642967E+02  0.33063122260E+02  0.00000000000E+00 0.  1.
         -2    1    1    2    0  502  0.96535820109E+01  0.20173796293E+02  0.87647095107E+02  0.90455441977E+02  0.00000000000E+00 0.  1.
<scales pt_clust_5="13000.00000" pt_clust_6="13000.00000" pt_clust_7="13000.00000" pt_clust_8="13000.00000" pt_clust_9="22.36456"></scales>
<clustering>
<clus scale="   22.365">  1  9  2 -1</clus>
<clus scale="   78.827">  5  6 -1 -1</clus>
<clus scale="   90.997">  7  8 -1 -1</clus>
<clus scale="  101.164">  2  5  1 -1</clus>
<clus scale="   22.365">  1  5  2 -1</clus>
</clustering>
</event>
<event>
 9    2  0.1592151E-004  0.2057893E+03  0.7546771E-02  0.1175108E+00
         21   -1    0    0  501  502  0.00000000000E+00  0.00000000000E+00  0.11100994979E+03  0.11100994979E+03  0.00000000000E+00 0.  1.
         -1   -1    0    0    0  501 -0.00000000000E+00 -0.00000000000E+00 -0.56231619826E+03  0.56231619826E+03  0.00000000000E+00 0.  1.
         24    2    1    2    0    0  0.61004081259E+02 -0.16291647596E+02 -0.61886430376E+02  0.11927437790E+03  0.80059548129E+02 0.  0.
         23    2    1    2    0    0 -0.49776897788E+02 -0.17337929689E+03 -0.19192210916E+03  0.27999618845E+03  0.95003417916E+02 0.  0.
        -13    1    3    3    0    0  0.64870495202E+02 -0.68649381426E+01 -0.95173582009E+01  0.65923354212E+02  0.00000000000E+00 0.  1.
         14    1    3    3    0    0 -0.38664139428E+01 -0.94267094530E+01 -0.52369072175E+02  0.53351023686E+02  0.00000000000E+00 0. -1.
        -11    1    4    4    0    0 -0.53074970999E+02 -0.52927506302E+02 -0.11422203780E+03  0.13661971816E+03  0.00000000000E+00 0. -1.
         11    1    4    4    0    0  0.32980732107E+01 -0.12045179059E+03 -0.77700071357E+02  0.14337647029E+03  0.00000000000E+00 0.  1.
         -2    1    1    2    0  502 -0.11227183471E+02  0.18967094449E+03 -0.19749770894E+03  0.27405558171E+03  0.00000000000E+00 0.  1.
<scales pt_clust_5="13000.00000" pt_clust_6="13000.00000" pt_clust_7="13000.00000" pt_clust_8="13000.00000" pt_clust_9="182.54756"></scales>
<clustering>
<clus scale="   80.060">  5  6 -1 -1</clus>
<clus scale="   95.003">  7  8 -1 -1</clus>
<clus scale="  101.963">  2  5  1 -1</clus>
<clus scale="  182.548">  1  9  2 -1</clus>
<clus scale="  182.548">  1  5  2 -1</clus>
</clustering>
</event>
<event>
 9    2  0.1592151E-004  0.2611105E+03  0.7546771E-02  0.1136753E+00
         21   -1    0    0  501  502  0.00000000000E+00  0.00000000000E+00  0.30427403224E+03  0.30427403224E+03  0.00000000000E+00 0. -1.
          2   -1    0    0  502    0 -0.00000000000E+00 -0.00000000000E+00 -0.63299393888E+03  0.63299393888E+03  0.00000000000E+00 0. -1.
         24    2    1    2    0    0  0.90235197693E+02 -0.69392274465E+00  0.24737540584E+02  0.12518456510E+03  0.83164637884E+02 0.  0.
         23    2    1    2    0    0  0.13120414380E+03  0.12892682973E+03 -0.48360818672E+03  0.52499757323E+03  0.88932102554E+02 0.  0.
        -11    1    3    3    0    0  0.35619889968E+02 -0.29091676366E+02 -0.18907234624E+02  0.49725101470E+02  0.00000000000E+00 0.  1.
         12    1    3    3    0    0  0.54615307725E+02  0.28397753622E+02  0.43644775208E+02  0.75459463632E+02  0.00000000000E+00 0. -1.
        -11    1    4    4    0    0  0.88087566154E+02  0.37154361029E+02 -0.30479089468E+03  0.31943286514E+03  0.00000000000E+00 0. -1.
         11    1    4    4    0    0  0.43116577649E+02  0.91772468704E+02 -0.17881729204E+03  0.20556470809E+03  0.00000000000E+00 0.  1.
          1    1    1    2  501    0 -0.22143934150E+03 -0.12823290699E+03  0.13015073949E+03  0.28708583279E+03  0.00000000000E+00 0. -1.
<scales pt_clust_5="13000.00000" pt_clust_6="13000.00000" pt_clust_7="13000.00000" pt_clust_8="13000.00000" pt_clust_9="245.49902"></scales>
<clustering>
<clus scale="   83.165">  5  6 -1 -1</clus>
<clus scale="   88.932">  7  8 -1 -1</clus>
<clus scale="  122.716">  2  5  1 -1</clus>
<clus scale="  245.499">  1  9  2 -1</clus>
<clus scale="  245.499">  1  5  2 -1</clus>
</clustering>
</event>
<event>
 9    2  0.1592151E-004  0.9908037E+02  0.7546771E-02  0.1287997E+00
         -1   -1    0    0    0  501 -0.00000000000E+00  0.00000000000E+00  0.36355826654E+02  0.36355826654E+02  0.00000000000E+00 0.  1.
         21   -1    0    0  501  502  0.00000000000E+00 -0.00000000000E+00 -0.10073306771E+04  0.10073306771E+04  0.00000000000E+00 0.  1.
         24    2    1    2    0    0 -0.33831643024E+02 -0.10144050146E+02 -0.46918531362E+02  0.98584056624E+02  0.79183241991E+02 0.  0.
         23    2    1    2    0    0  0.94412765044E+02  0.62144454158E+00 -0.72889347184E+03  0.74053145870E+03  0.90481996212E+02 0.  0.
        -13    1    3    3    0    0 -0.15568528474E+02 -0.44849600271E+02 -0.26470524565E+02  0.54355812882E+02  0.00000000000E+00 0.  1.
         14    1    3    3    0    0 -0.18263114550E+02  0.34705550125E+02 -0.20448006797E+02  0.44228243742E+02  0.00000000000E+00 0. -1.
        -13    1    4    4    0    0  0.10417215786E+03  0.21798862683E+02 -0.62997173638E+03  0.63889859722E+03  0.00000000000E+00 0.  1.
         13    1    4    4    0    0 -0.97593928136E+01 -0.21177418141E+02 -0.98921735456E+02  0.10163286148E+03  0.00000000000E+00 0. -1.
         -2    1    1    2    0  502 -0.60581122020E+02  0.95226056047E+01 -0.19516284729E+03  0.20457098848E+03  0.00000000000E+00 0.  1.
<scales pt_clust_5="13000.00000" pt_clust_6="13000.00000" pt_clust_7="13000.00000" pt_clust_8="13000.00000" pt_clust_9="61.32497"></scales>
<clustering>
<clus scale="   61.325">  2  9  1 -1</clus>
<clus scale="   79.183">  5  6 -1 -1</clus>
<clus scale="   88.881">  1  5  2 -1</clus>
<clus scale="   90.482">  7  8 -1 -1</clus>
<clus scale="   61.325">  2  5  1 -1</clus>
</clustering>
</event>
<event>
 9    2  0.1592151E-004  0.9383715E+02  0.7546771E-02  0.1300028E+00
         21   -1    0    0  501  502  0.00000000000E+00  0.00000000000E+00  0.17872437166E+02  0.17872437166E+02  0.00000000000E+00 0.  1.
          2   -1    0    0  502    0 -0.00000000000E+00 -0.00000000000E+00 -0.83362470230E+03  0.83362470230E+03  0.00000000000E+00 0. -1.
         23    2    1    2    0    0 -0.16753503062E+02 -0.10637902614E+02 -0.33158449455E+03  0.34434120992E+03  0.90712441188E+02 0.  0.
         24    2    1    2    0    0  0.32888830238E+02 -0.31735536630E+02 -0.21140189021E+03  0.23064719074E+03  0.80115840973E+02 0.  0.
        -13    1    4    4    0    0  0.16031044062E+02  0.13899541119E+02 -0.10005948781E+02  0.23458700477E+02  0.00000000000E+00 0.  1.
         14    1    4    4    0    0  0.16857786176E+02 -0.45635077749E+02 -0.20139594143E+03  0.20718849027E+03  0.00000000000E+00 0. -1.
        -11    1    3    3    0    0  0.35958354634E+02  0.19489152092E+01 -0.17432552617E+03  0.17800615330E+03  0.00000000000E+00 0.  1.
         11    1    3    3    0    0 -0.52711857696E+02 -0.12586817823E+02 -0.15725896838E+03  0.16633505662E+03  0.00000000000E+00 0. -1.
          1    1    1    2  501    0 -0.16135327176E+02  0.42373439244E+02 -0.27276588038E+03  0.27650873880E+03  0.00000000000E+00 0. -1.
<scales pt_clust_5="13000.00000" pt_clust_6="13000.00000" pt_clust_7="13000.00000" pt_clust_8="13000.00000" pt_clust_9="45.34158"></scales>
<clustering>
<clus scale="   45.342">  1  9  2 -1</clus>
<clus scale="   80.116">  5  6 -1 -1</clus>
<clus scale="   83.637">  1  5  2 -1</clus>
<clus scale="   90.712">  7  8 -1 -1</clus>
<clus scale="   45.342">  1  5  2 -1</clus>
</clustering>
</event>
<event>
 9    2  0.1592151E-004  0.9442290E+02  0.7546771E-02  0.1297367E+00
          2   -1    0    0  502    0 -0.00000000000E+00  0.00000000000E+00  0.86438178429E+02  0.86438178429E+02  0.00000000000E+00 0. -1.
         21   -1    0    0  501  502  0.00000000000E+00 -0.00000000000E+00 -0.20535707645E+03  0.20535707645E+03  0.00000000000E+00 0. -1.
         23    2    1    2    0    0  0.24269185221E+01  0.13877038801E+02  0.58864644875E+01  0.92880688851E+02  0.91617191389E+02 0.  0.
         24    2    1    2    0    0  0.16551906440E+02 -0.51182066227E+02 -0.12176271011E+03  0.15694888240E+03  0.83145803285E+02 0.  0.
        -11    1    4    4    0    0  0.31155293439E+02  0.12589503167E+02 -0.42004897127E+02  0.53791814265E+02  0.00000000000E+00 0.  1.
         12    1    4    4    0    0 -0.14603386999E+02 -0.63771569394E+02 -0.79757812982E+02  0.10315706814E+03  0.00000000000E+00 0. -1.
        -13    1    3    3    0    0  0.34925857318E+02  0.38453219138E+02  0.29936276472E+01  0.52032945121E+02  0.00000000000E+00 0. -1.
         13    1    3    3    0    0 -0.32498938796E+02 -0.24576180337E+02  0.28928368404E+01  0.40847743730E+02  0.00000000000E+00 0.  1.
          1    1    1    2  501    0 -0.18978824962E+02  0.37305027426E+02 -0.30426523946E+01  0.41965683621E+02  0.00000000000E+00 0. -1.
<scales pt_clust_5="13000.00000" pt_clust_6="13000.00000" pt_clust_7="13000.00000" pt_clust_8="13000.00000" pt_clust_9="41.85526"></scales>
<clustering>
<clus scale="   41.855">  2  9  1 -1</clus>
<clus scale="   83.146">  5  6 -1 -1</clus>
<clus scale="   86.228">  2  5  1 -1</clus>
<clus scale="   91.617">  7  8 -1 -1</clus>
<clus scale="   41.855">  2  5  1 -1</clus>
</clustering>
</event>
<event>
 9    2  0.1592151E-004  0.1324991E+03  0.7546771E-02  0.1230013E+00
          2   -1    0    0  502    0 -0.00000000000E+00  0.00000000000E+00  0.46366926575E+03  0.46366926575E+03  0.00000000000E+00 0. -1.
         21   -1    0    0  501  502  0.00000000000E+00 -0.00000000000E+00 -0.93947982724E+02  0.93947982724E+02  0.00000000000E+00 0. -1.
         24    2    1    2    0    0 -0.98814425641E+02 -0.68593815300E+02  0.15439164006E+03  0.21086084260E+03  0.78460908802E+02 0.  0.
         23    2    1    2    0    0  0.14373628596E+02  0.13613829191E+02 -0.67378541589E+01  0.10289779857E+03  0.10075028897E+03 0.  0.
        -13    1    3    3    0    0 -0.10452480730E+01 -0.38732607258E+02  0.25646676567E+02  0.46465680103E+02  0.00000000000E+00 0.  1.
         14    1    3    3    0    0 -0.97769177568E+02 -0.29861208042E+02  0.12874496349E+03  0.16439516250E+03  0.00000000000E+00 0. -1.
        -11    1    4    4    0    0  0.56912970533E+02  0.15751293269E+02 -0.11083931212E+02  0.60083633259E+02  0.00000000000E+00 0. -1.
         11    1    4    4    0    0 -0.42539341937E+02 -0.21374640780E+01  0.43460770530E+01  0.42814165306E+02  0.00000000000E+00 0.  1.
          1    1    1    2  501    0  0.84440797046E+02  0.54979986109E+02  0.22206749713E+03  0.24385860731E+03  0.00000000000E+00 0. -1.
<scales pt_clust_5="13000.00000" pt_clust_6="13000.00000" pt_clust_7="13000.00000" pt_clust_8="13000.00000" pt_clust_9="100.76238"></scales>
<clustering>
<clus scale="   78.461">  5  6 -1 -1</clus>
<clus scale="  100.750">  7  8 -1 -1</clus>
<clus scale="  100.762">  2  9  1 -1</clus>
<clus scale="  116.454">  1  5  2 -1</clus>
<clus scale="  100.762">  2  5  1 -1</clus>
</clustering>
</event>
<event>
 9    2  0.1974905E-004  0.1778262E+03  0.7546771E-02  0.1198340E+00
         -3   -1    0    0    0  501 -0.00000000000E+00  0.00000000000E+00  0.67283137720E+03  0.67283137720E+03  0.00000000000E+00 0.  1.
         21   -1    0    0  501  502  0.00000000000E+00 -0.00000000000E+00 -0.73206838649E+02  0.73206838649E+02  0.00000000000E+00 0.  1.
         23    2    1    2    0    0  0.37199491643E+01  0.25963797995E+02  0.17322202150E+03  0.19722765564E+03  0.90581027747E+02 0.  0.
         24    2    1    2    0    0  0.14132281133E+03 -0.79112824797E+02  0.16385711780E+03  0.24419226120E+03  0.80930398043E+02 0.  0.
        -11    1    4    4    0    0  0.12274645400E+03 -0.81694505394E+02  0.16945149062E+03  0.22462077343E+03  0.00000000000E+00 0.  1.
         12    1    4    4    0    0  0.18576357329E+02  0.25816805973E+01 -0.55943728239E+01  0.19571487772E+02  0.00000000000E+00 0. -1.
        -13    1    3    3    0    0 -0.39220253581E+02  0.12193391859E+00  0.45765485307E+02  0.60272073170E+02  0.00000000000E+00 0.  1.
         13    1    3    3    0    0  0.42940202745E+02  0.25841864076E+02  0.12745653620E+03  0.13695558247E+03  0.00000000000E+00 0. -1.
         -4    1    1    2    0  502 -0.14504276050E+03  0.53149026802E+02  0.26254539925E+03  0.30461829900E+03  0.00000000000E+00 0.  1.
<scales pt_clust_5="13000.00000" pt_clust_6="13000.00000" pt_clust_7="13000.00000" pt_clust_8="13000.00000" pt_clust_9="158.34284"></scales>
<clustering>
<clus scale="   80.930">  5  6 -1 -1</clus>
<clus scale="   90.581">  7  8 -1 -1</clus>
<clus scale="   94.302">  1  7  2 -1</clus>
<clus scale="  158.343">  2  9  1 -1</clus>
<clus scale="  158.343">  2  5  1 -1</clus>
</clustering>
</event>
<event>
 9    2  0.1592151E-004  0.1637207E+03  0.7546771E-02  0.1189232E+00
         21   -1    0    0  501  502  0.00000000000E+00  0.00000000000E+00  0.93526426899E+03  0.93526426899E+03  0.00000000000E+00 0. -1.
          2   -1    0    0  502    0 -0.00000000000E+00 -0.00000000000E+00 -0.43383992974E+02  0.43383992974E+02  0.00000000000E+00 0. -1.
         24    2    1    2    0    0  0.22955241536E+02  0.13274941682E+03  0.23111385907E+03  0.27801664155E+03  0.75698654850E+02 0.  0.
         23    2    1    2    0    0  0.17794343879E+02 -0.10995042122E+03  0.62076044638E+03  0.63914340534E+03  0.10370644630E+03 0.  0.
        -13    1    3    3    0    0 -0.67976691640E+01  0.46181485457E+02  0.26065335393E+02  0.53463441848E+02  0.00000000000E+00 0.  1.
         14    1    3    3    0    0  0.29752910700E+02  0.86567931360E+02  0.20504852367E+03  0.22455319970E+03  0.00000000000E+00 0. -1.
        -13    1    4    4    0    0 -0.27545127930E+02 -0.92167167997E+02  0.49543808629E+03  0.50469041825E+03  0.00000000000E+00 0. -1.
         13    1    4    4    0    0  0.45339471809E+02 -0.17783253220E+02  0.12532236009E+03  0.13445298709E+03  0.00000000000E+00 0.  1.
          1    1    1    2  501    0 -0.40749585415E+02 -0.22798995600E+02  0.40005970576E+02  0.61488215079E+02  0.00000000000E+00 0. -1.
<scales pt_clust_5="13000.00000" pt_clust_6="13000.00000" pt_clust_7="13000.00000" pt_clust_8="13000.00000" pt_clust_9="46.69395"></scales>
<clustering>
<clus scale="   46.694">  1  9  2 -1</clus>
<clus scale="   75.699">  5  6 -1 -1</clus>
<clus scale="  103.706">  7  8 -1 -1</clus>
<clus scale="  147.580">  2  5  1 -1</clus>
<clus scale="   46.694">  1  5  2 -1</clus>
</clustering>
</event>
<event>
 9    2  0.1592151E-004  0.9732323E+02  0.7546771E-02  0.1293164E+00
          2   -1    0    0  502    0 -0.00000000000E+00  0.00000000000E+00  0.34394889655E+03  0.34394889655E+03  0.00000000000E+00 0. -1.
         21   -1    0    0  501  502  0.00000000000E+00 -0.00000000000E+00 -0.21931402370E+03  0.21931402370E+03  0.00000000000E+00 0. -1.
         24    2    1    2    0    0  0.19717497165E+02 -0.24934126863E+02  0.20152110348E+03  0.21895768458E+03  0.79506113666E+02 0.  0.
         23    2    1    2    0    0 -0.49570365577E+02 -0.22186504249E+02  0.10740595057E+03  0.15175613626E+03  0.92436056595E+02 0.  0.
        -11    1    3    3    0    0  0.32120836310E+02 -0.86296462508E+00  0.25927389547E+02  0.41288283591E+02  0.00000000000E+00 0.  1.
         12    1    3    3    0    0 -0.12403339145E+02 -0.24071162238E+02  0.17559371393E+03  0.17766940099E+03  0.00000000000E+00 0. -1.
        -11    1    4    4    0    0 -0.75435311337E+02 -0.17495255802E+02  0.61627674812E+02  0.98967370759E+02  0.00000000000E+00 0. -1.
         11    1    4    4    0    0  0.25864945760E+02 -0.46912484476E+01  0.45778275762E+02  0.52788765499E+02  0.00000000000E+00 0.  1.
          1    1    1    2  501    0  0.29852868412E+02  0.47120631112E+02 -0.18429218121E+03  0.19254909941E+03  0.00000000000E+00 0. -1.
<scales pt_clust_5="13000.00000" pt_clust_6="13000.00000" pt_clust_7="13000.00000" pt_clust_8="13000.00000" pt_clust_9="55.78125"></scales>
<clustering>
<clus scale="   55.781">  2  9  1 -1</clus>
<clus scale="   79.506">  5  6 -1 -1</clus>
<clus scale="   85.139">  1  5  2 -1</clus>
<clus scale="   92.436">  7  8 -1 -1</clus>
<clus scale="   55.781">  2  5  1 -1</clus>
</clustering>
</event>
<event>
 9    2  0.1592151E-004  0.1582824E+03  0.7546771E-02  0.1192418E+00
         21   -1    0    0  501  502  0.00000000000E+00  0.00000000000E+00  0.55433701857E+02  0.55433701857E+02  0.00000000000E+00 0. -1.
          2   -1    0    0  502    0 -0.00000000000E+00 -0.00000000000E+00 -0.75652910788E+03  0.75652910788E+03  0.00000000000E+00 0. -1.
         24    2    1    2    0    0 -0.31446027778E+02  0.15371359983E+03 -0.48646292250E+03  0.51737891251E+03  0.80112675042E+02 0.  0.
         23    2    1    2    0    0 -0.43203004822E+01 -0.86795595316E+02 -0.13264235861E+03  0.18287163224E+03  0.91081821555E+02 0.  0.
        -11    1    3    3    0    0 -0.32821900300E+02  0.15262181813E+02 -0.13078864899E+03  0.13570512901E+03  0.00000000000E+00 0.  1.
         12    1    3    3    0    0  0.13758725225E+01  0.13845141802E+03 -0.35567427351E+03  0.38167378350E+03  0.00000000000E+00 0. -1.
        -13    1    4    4    0    0 -0.21118772814E+02 -0.60978897875E+02 -0.13731073270E+03  0.15171903594E+03  0.00000000000E+00 0.  1.
         13    1    4    4    0    0  0.16798472332E+02 -0.25816697441E+02  0.46683740948E+01  0.31152596298E+02  0.00000000000E+00 0. -1.
          1    1    1    2  501    0  0.35766328260E+02 -0.66918004519E+02 -0.81990124915E+02  0.11171226499E+03  0.00000000000E+00 0. -1.
<scales pt_clust_5="13000.00000" pt_clust_6="13000.00000" pt_clust_7="13000.00000" pt_clust_8="13000.00000" pt_clust_9="75.87654"></scales>
<clustering>
<clus scale="   75.877">  1  9  2 -1</clus>
<clus scale="   80.113">  5  6 -1 -1</clus>
<clus scale="   91.082">  7  8 -1 -1</clus>
<clus scale="  152.235">  2  5  1 -1</clus>
<clus scale="   75.877">  1  5  2 -1</clus>
</clustering>
</event>
<event>
 9    2  0.1592151E-004  0.1135741E+03  0.7546771E-02  0.1258785E+00
         21   -1    0    0  501  502  0.00000000000E+00  0.00000000000E+00  0.44549414404E+02  0.44549414404E+02  0.00000000000E+00 0. -1.
         -1   -1    0    0    0  501 -0.00000000000E+00 -0.00000000000E+00 -0.37219939770E+03  0.37219939770E+03  0.00000000000E+00 0.  1.
         24    2    1    2    0    0 -0.71157298934E+02  0.65531559954E+01 -0.22596784733E+03  0.24984716985E+03  0.79093837996E+02 0.  0.
         23    2    1    2    0    0  0.54928059387E+02 -0.20079763220E+02 -0.95601621388E+02  0.14491687533E+03  0.91874600100E+02 0.  0.
        -13    1    3    3    0    0 -0.56145951226E+02  0.27723852661E+02 -0.21054161782E+03  0.21965598713E+03  0.00000000000E+00 0.  1.
         14    1    3    3    0    0 -0.15011347708E+02 -0.21170696665E+02 -0.15426229509E+02  0.30191182722E+02  0.00000000000E+00 0. -1.
        -11    1    4    4    0    0  0.42228554625E+02  0.30907875579E+02 -0.67245293307E+02  0.85208433095E+02  0.00000000000E+00 0.  1.
         11    1    4    4    0    0  0.12699504763E+02 -0.50987638800E+02 -0.28356328081E+02  0.59708442233E+02  0.00000000000E+00 0. -1.
         -2    1    1    2    0  502  0.16229239547E+02  0.13526607225E+02 -0.60805145740E+01  0.21984766925E+02  0.00000000000E+00 0.  1.
<scales pt_clust_5="13000.00000" pt_clust_6="13000.00000" pt_clust_7="13000.00000" pt_clust_8="13000.00000" pt_clust_9="21.12717"></scales>
<clustering>
<clus scale="   21.127">  1  9  2 -1</clus>
<clus scale="   79.094">  5  6 -1 -1</clus>
<clus scale="   91.875">  7  8 -1 -1</clus>
<clus scale="  103.508">  2  5  1 -1</clus>
<clus scale="   21.127">  1  5  2 -1</clus>
</clustering>
</event>
<event>
 9    2  0.1592151E-004  0.1154507E+03  0.7546771E-02  0.1259116E+00
          2   -1    0    0  502    0 -0.00000000000E+00  0.00000000000E+00  0.13313812377E+04  0.13313812377E+04  0.00000000000E+00 0. -1.
         21   -1    0    0  501  502  0.00000000000E+00 -0.00000000000E+00 -0.18444143069E+02  0.18444143069E+02  0.00000000000E+00 0. -1.
         24    2    1    2    0    0  0.26257308571E+02 -0.50073259625E+02  0.51446440200E+03  0.52369701279E+03  0.79925982654E+02 0.  0.
         23    2    1    2    0    0 -0.31151881506E+02 -0.48601222051E+02  0.31819999006E+03  0.33579941818E+03  0.90429514343E+02 0.  0.
        -13    1    3    3    0    0  0.31855060326E+02 -0.17129221265E+02  0.78249478496E+02  0.86204036880E+02  0.00000000000E+00 0.  1.
         14    1    3    3    0    0 -0.55977517545E+01 -0.32944038360E+02  0.43621492350E+03  0.43749297591E+03  0.00000000000E+00 0. -1.
        -13    1    4    4    0    0 -0.12307163810E+01  0.24101151452E+02  0.40112786756E+02  0.46812560552E+02  0.00000000000E+00 0.  1.
         13    1    4    4    0    0 -0.29921165125E+02 -0.72702373504E+02  0.27808720331E+03  0.28898685762E+03  0.00000000000E+00 0. -1.
          1    1    1    2  501    0  0.48945729352E+01  0.98674481676E+02  0.48027270261E+03  0.49032894984E+03  0.00000000000E+00 0. -1.
<scales pt_clust_5="13000.00000" pt_clust_6="13000.00000" pt_clust_7="13000.00000" pt_clust_8="13000.00000" pt_clust_9="71.77307"></scales>
<clustering>
<clus scale="   79.926">  5  6 -1 -1</clus>
<clus scale="   90.430">  7  8 -1 -1</clus>
<clus scale="   97.903">  1  5  2 -1</clus>
<clus scale="   71.773">  2  9  1 -1</clus>
<clus scale="   71.773">  2  5  1 -1</clus>
</clustering>
</event>
<event>
 9    2  0.1592151E-004  0.1021772E+03  0.7546771E-02  0.1282235E+00
          2   -1    0    0  502    0 -0.00000000000E+00  0.00000000000E+00  0.75883330251E+03  0.75883330251E+03  0.00000000000E+00 0. -1.
         21   -1    0    0  501  502  0.00000000000E+00 -0.00000000000E+00 -0.43243907464E+02  0.43243907464E+02  0.00000000000E+00 0.  1.
         24    2    1    2    0    0 -0.47682037394E+02 -0.37128113612E+00  0.56262233651E+03  0.57014496137E+03  0.79042196899E+02 0.  0.
         23    2    1    2    0    0  0.27092927420E+02  0.28520285134E+02  0.16659588185E+03  0.19448865503E+03  0.92326679258E+02 0.  0.
        -11    1    3    3    0    0 -0.26923649829E+02  0.20388358172E+02  0.82762486016E+02  0.89387902765E+02  0.00000000000E+00 0.  1.
         12    1    3    3    0    0 -0.20758387565E+02 -0.20759639308E+02  0.47985985049E+03  0.48075705860E+03  0.00000000000E+00 0. -1.
        -11    1    4    4    0    0  0.41999454954E+02 -0.21912653448E+02  0.70369114549E+02  0.84828832834E+02  0.00000000000E+00 0.  1.
         11    1    4    4    0    0 -0.14906527534E+02  0.50432938583E+02  0.96226767304E+02  0.10965982219E+03  0.00000000000E+00 0. -1.
          1    1    1    2  501    0  0.20589109974E+02 -0.28149003998E+02 -0.13628823315E+02  0.37443593585E+02  0.00000000000E+00 0. -1.
<scales pt_clust_5="13000.00000" pt_clust_6="13000.00000" pt_clust_7="13000.00000" pt_clust_8="13000.00000" pt_clust_9="34.87518"></scales>
<clustering>
<clus scale="   34.875">  2  9  1 -1</clus>
<clus scale="   79.042">  5  6 -1 -1</clus>
<clus scale="   90.353">  1  5  2 -1</clus>
<clus scale="   92.327">  7  8 -1 -1</clus>
<clus scale="   34.875">  2  5  1 -1</clus>
</clustering>
</event>
<event>
 9    2  0.1592151E-004  0.5343740E+03  0.7546771E-02  0.1042540E+00
         21   -1    0    0  501  502  0.00000000000E+00  0.00000000000E+00  0.55262845896E+03  0.55262845896E+03  0.00000000000E+00 0. -1.
          2   -1    0    0  502    0 -0.00000000000E+00 -0.00000000000E+00 -0.77122060295E+03  0.77122060295E+03  0.00000000000E+00 0. -1.
         24    2    1    2    0    0 -0.11247459239E+03  0.10504038266E+03  0.93112861998E+02  0.19724910508E+03  0.80951766274E+02 0.  0.
         23    2    1    2    0    0  0.36237176860E+02  0.48076899987E+03 -0.11744601637E+03  0.50473073325E+03  0.92236555146E+02 0.  0.
        -11    1    3    3    0    0 -0.93740653306E+02  0.10122073688E+03  0.10618126688E+03  0.17409023262E+03  0.00000000000E+00 0.  1.
         12    1    3    3    0    0 -0.18733939084E+02  0.38196457817E+01 -0.13068404884E+02  0.23158872462E+02  0.00000000000E+00 0. -1.
        -11    1    4    4    0    0  0.73532820864E+01  0.54036487191E+02  0.15747479859E+02  0.56762627030E+02  0.00000000000E+00 0.  1.
         11    1    4    4    0    0  0.28883894774E+02  0.42673251268E+03 -0.13319349623E+03  0.44796810622E+03  0.00000000000E+00 0. -1.
          1    1    1    2  501    0  0.76237415530E+02 -0.58580938253E+03 -0.19425898962E+03  0.62186922358E+03  0.00000000000E+00 0. -1.
<scales pt_clust_5="13000.00000" pt_clust_6="13000.00000" pt_clust_7="13000.00000" pt_clust_8="13000.00000" pt_clust_9="526.35373"></scales>
<clustering>
<clus scale="   80.952">  5  6 -1 -1</clus>
<clus scale="   92.237">  7  8 -1 -1</clus>
<clus scale="  173.889">  2  5  1 -1</clus>
<clus scale="  526.354">  1  9  2 -1</clus>
<clus scale="  526.354">  1  5  2 -1</clus>
</clustering>
</event>
<event>
 9    2  0.1592151E-004  0.1168029E+03  0.7546771E-02  0.1262715E+00
         -3   -1    0    0    0  501 -0.00000000000E+00  0.00000000000E+00  0.68913822664E+02  0.68913822664E+02  0.00000000000E+00 0.  1.
         21   -1    0    0  501  502  0.00000000000E+00 -0.00000000000E+00 -0.40030483671E+03  0.40030483671E+03  0.00000000000E+00 0.  1.
         24    2    1    2    0    0 -0.11326190513E+02  0.68517138099E+02 -0.66876370902E+02  0.12540472424E+03  0.80193609921E+02 0.  0.
         23    2    1    2    0    0 -0.23618467083E+02  0.25786417461E+02 -0.16854779659E+03  0.20480341278E+03  0.11096534071E+03 0.  0.
        -13    1    3    3    0    0  0.20422783012E+02  0.62282716452E+02 -0.66029593425E+02  0.93038347162E+02  0.00000000000E+00 0.  1.
         14    1    3    3    0    0 -0.31748973525E+02  0.62344216469E+01 -0.84677747692E+00  0.32366377080E+02  0.00000000000E+00 0. -1.
        -13    1    4    4    0    0 -0.21947722523E+02  0.47614287249E+02 -0.17442680947E+03  0.18213603360E+03  0.00000000000E+00 0.  1.
         13    1    4    4    0    0 -0.16707445593E+01 -0.21827869788E+02  0.58790128748E+01  0.22667379188E+02  0.00000000000E+00 0. -1.
         -4    1    1    2    0  502  0.34944657595E+02 -0.94303555560E+02 -0.95966846549E+02  0.13901052234E+03  0.00000000000E+00 0.  1.
<scales pt_clust_5="13000.00000" pt_clust_6="13000.00000" pt_clust_7="13000.00000" pt_clust_8="13000.00000" pt_clust_9="100.56988"></scales>
<clustering>
<clus scale="   80.194">  5  6 -1 -1</clus>
<clus scale="  100.570">  2  9  1 -1</clus>
<clus scale="   88.094">  1  5  2 -1</clus>
<clus scale="  110.965">  7  8 -1 -1</clus>
<clus scale="  100.570">  2  5  1 -1</clus>
</clustering>
</event>
<event>
 9    2  0.1592151E-004  0.1185199E+03  0.7546771E-02  0.1245738E+00
         21   -1    0    0  501  502  0.00000000000E+00  0.00000000000E+00  0.40958350966E+02  0.40958350966E+02  0.00000000000E+00 0. -1.
          2   -1    0    0  502    0 -0.00000000000E+00 -0.00000000000E+00 -0.59163401860E+03  0.59163401860E+03  0.00000000000E+00 0. -1.
         24    2    1    2    0    0 -0.28114843171E+02 -0.45075501389E+02 -0.15414854289E+03  0.18668492649E+03  0.90924382173E+02 0.  0.
         23    2    1    2    0    0  0.68213708836E+02  0.79344411735E+02 -0.20815702698E+03  0.25029156699E+03  0.91476089103E+02 0.  0.
        -11    1    3    3    0    0 -0.83486969724E+01 -0.71389703269E+02 -0.96850443166E+02  0.12060762337E+03  0.00000000000E+00 0.  1.
         12    1    3    3    0    0 -0.19766146198E+02  0.26314201880E+02 -0.57298099722E+02  0.66077303122E+02  0.00000000000E+00 0. -1.
        -13    1    4    4    0    0  0.12710331901E+02  0.82407571227E+02 -0.12663258925E+03  0.15161917092E+03  0.00000000000E+00 0.  1.
         13    1    4    4    0    0  0.55503376935E+02 -0.30631594917E+01 -0.81524437736E+02  0.98672396066E+02  0.00000000000E+00 0. -1.
          1    1    1    2  501    0 -0.40098865665E+02 -0.34268910346E+02 -0.18837009776E+03  0.19561587608E+03  0.00000000000E+00 0. -1.
<scales pt_clust_5="13000.00000" pt_clust_6="13000.00000" pt_clust_7="13000.00000" pt_clust_8="13000.00000" pt_clust_9="52.74732"></scales>
<clustering>
<clus scale="   52.747">  1  9  2 -1</clus>
<clus scale="   90.924">  5  6 -1 -1</clus>
<clus scale="   91.476">  7  8 -1 -1</clus>
<clus scale="  118.095">  2  5  1 -1</clus>
<clus scale="   52.747">  1  5  2 -1</clus>
</clustering>
</event>
<event>
 9    2  0.1592151E-004  0.9346481E+02  0.7546771E-02  0.1301455E+00
         21   -1    0    0  501  502  0.00000000000E+00  0.00000000000E+00  0.30617419504E+02  0.30617419504E+02  0.00000000000E+00 0.  1.
          2   -1    0    0  502    0 -0.00000000000E+00 -0.00000000000E+00 -0.55052603349E+03  0.55052603349E+03  0.00000000000E+00 0. -1.
         23    2    1    2    0    0 -0.76513260401E+00  0.12061417562E+02 -0.39399171705E+03  0.40468575941E+03  0.91624382935E+02 0.  0.
         24    2    1    2    0    0  0.13550553317E+02 -0.40875549653E+02 -0.83626564045E+02  0.12371119183E+03  0.80353150001E+02 0.  0.
        -11    1    4    4    0    0  0.20988023279E+02 -0.57111363127E+02 -0.86362930550E+02  0.10564450148E+03  0.00000000000E+00 0.  1.
         12    1    4    4    0    0 -0.74374699621E+01  0.16235813473E+02  0.27363665051E+01  0.18066690351E+02  0.00000000000E+00 0. -1.
        -11    1    3    3    0    0  0.45417920786E+02  0.64693317706E+01 -0.19128074138E+03  0.19670526634E+03  0.00000000000E+00 0. -1.
         11    1    3    3    0    0 -0.46183053390E+02  0.55920857912E+01 -0.20271097567E+03  0.20798049308E+03  0.00000000000E+00 0.  1.
          1    1    1    2  501    0 -0.12785420713E+02  0.28814132091E+02 -0.42290332898E+02  0.52746501757E+02  0.00000000000E+00 0. -1.
<scales pt_clust_5="13000.00000" pt_clust_6="13000.00000" pt_clust_7="13000.00000" pt_clust_8="13000.00000" pt_clust_9="31.52334"></scales>
<clustering>
<clus scale="   31.523">  1  9  2 -1</clus>
<clus scale="   80.353">  5  6 -1 -1</clus>
<clus scale="   82.446">  1  5  2 -1</clus>
<clus scale="   91.624">  7  8 -1 -1</clus>
<clus scale="   31.523">  1  5  2 -1</clus>
</clustering>
</event>
<event>
 9    2  0.1592151E-004  0.2565057E+03  0.7546771E-02  0.1110151E+00
          2   -1    0    0  502    0 -0.00000000000E+00  0.00000000000E+00  0.28618246469E+03  0.28618246469E+03  0.00000000000E+00 0. -1.
         21   -1    0    0  501  502  0.00000000000E+00 -0.00000000000E+00 -0.65724686602E+03  0.65724686602E+03  0.00000000000E+00 0. -1.
         23    2    1    2    0    0 -0.24254950322E+03 -0.27357028159E+02  0.17042912496E+03  0.31331165013E+03  0.97670031069E+02 0.  0.
         24    2    1    2    0    0  0.20911933855E+03  0.89292398718E+01 -0.24967643400E+03  0.33581447868E+03  0.81378211571E+02 0.  0.
        -13    1    4    4    0    0  0.10583475098E+03  0.11750186102E+02 -0.66608947243E+02  0.12560180430E+03  0.00000000000E+00 0.  1.
         14    1    4    4    0    0  0.10328458756E+03 -0.28209462298E+01 -0.18306748675E+03  0.21021267438E+03  0.00000000000E+00 0. -1.
        -13    1    3    3    0    0 -0.54509953275E+02 -0.20711134326E+02 -0.16462842220E+01  0.58335206718E+02  0.00000000000E+00 0.  1.
         13    1    3    3    0    0 -0.18803954995E+03 -0.66458938324E+01  0.17207540918E+03  0.25497644341E+03  0.00000000000E+00 0. -1.
          1    1    1    2  501    0  0.33430164673E+02  0.18427788287E+02 -0.29181709230E+03  0.29430320190E+03  0.00000000000E+00 0. -1.
<scales pt_clust_5="13000.00000" pt_clust_6="13000.00000" pt_clust_7="13000.00000" pt_clust_8="13000.00000" pt_clust_9="38.17276"></scales>
<clustering>
<clus scale="   38.173">  2  9  1 -1</clus>
<clus scale="   81.378">  5  6 -1 -1</clus>
<clus scale="   97.670">  7  8 -1 -1</clus>
<clus scale="  250.755">  2  5  1 -1</clus>
<clus scale="   38.173">  2  5  1 -1</clus>
</clustering>
</event>
<event>
 9    2  0.1592151E-004  0.2783084E+03  0.7546771E-02  0.1126102E+00
         21   -1    0    0  501  502  0.00000000000E+00  0.00000000000E+00  0.98451253469E+02  0.98451253469E+02  0.00000000000E+00 0. -1.
          2   -1    0    0  502    0 -0.00000000000E+00 -0.00000000000E+00 -0.14467894124E+04  0.14467894124E+04  0.00000000000E+00 0. -1.
         24    2    1    2    0    0  0.83867384687E+02  0.63216984689E+02 -0.20103939317E+03  0.24025713329E+03  0.79224536124E+02 0.  0.
         23    2    1    2    0    0  0.10899443472E+03  0.15202385890E+03 -0.90258720247E+03  0.92629097741E+03  0.91434546471E+02 0.  0.
        -11    1    3    3    0    0  0.93871918405E+02  0.49368486863E+02 -0.19528769239E+03  0.22223066251E+03  0.00000000000E+00 0.  1.
         12    1    3    3    0    0 -0.10004533718E+02  0.13848497826E+02 -0.57517007766E+01  0.18026470780E+02  0.00000000000E+00 0. -1.
        -13    1    4    4    0    0  0.96241994995E+02  0.10459348347E+03 -0.80029365345E+03  0.81281747652E+03  0.00000000000E+00 0. -1.
         13    1    4    4    0    0  0.12752439724E+02  0.47430375430E+02 -0.10229354902E+03  0.11347350089E+03  0.00000000000E+00 0.  1.
          1    1    1    2  501    0 -0.19286181941E+03 -0.21524084359E+03 -0.24471156329E+03  0.37869255517E+03  0.00000000000E+00 0. -1.
<scales pt_clust_5="13000.00000" pt_clust_6="13000.00000" pt_clust_7="13000.00000" pt_clust_8="13000.00000" pt_clust_9="262.85982"></scales>
<clustering>
<clus scale="   79.225">  5  6 -1 -1</clus>
<clus scale="   91.435">  7  8 -1 -1</clus>
<clus scale="  131.555">  2  5  1 -1</clus>
<clus scale="  262.860">  1  9  2 -1</clus>
<clus scale="  262.860">  1  5  2 -1</clus>
</clustering>
</event>
<event>
 9    2  0.1592151E-004  0.1101821E+03  0.7546771E-02  0.1265411E+00
          2   -1    0    0  502    0 -0.00000000000E+00  0.00000000000E+00  0.20523974083E+03  0.20523974083E+03  0.00000000000E+00 0. -1.
         21   -1    0    0  501  502  0.00000000000E+00 -0.00000000000E+00 -0.12925132848E+03  0.12925132848E+03  0.00000000000E+00 0.  1.
         24    2    1    2    0    0  0.61033637017E+02 -0.13679116069E+02  0.13316884457E+03  0.16723257928E+03  0.79502021014E+02 0.  0.
         23    2    1    2    0    0 -0.53686407458E+02 -0.60197546736E+01 -0.79387841470E+00  0.10707983317E+03  0.92449946658E+02 0.  0.
        -11    1    3    3    0    0 -0.19216044460E+02 -0.76386785002E+01  0.26805648138E+02  0.33854815699E+02  0.00000000000E+00 0.  1.
         12    1    3    3    0    0  0.80249681477E+02 -0.60404375692E+01  0.10636319643E+03  0.13337776358E+03  0.00000000000E+00 0. -1.
        -13    1    4    4    0    0 -0.54715192857E+02  0.35179388916E+02 -0.69168507300E+01  0.65415476440E+02  0.00000000000E+00 0.  1.
         13    1    4    4    0    0  0.10287853986E+01 -0.41199143589E+02  0.61229723153E+01  0.41664356732E+02  0.00000000000E+00 0. -1.
          1    1    1    2  501    0 -0.73472295589E+01  0.19698870743E+02 -0.56386553804E+02  0.60178656853E+02  0.00000000000E+00 0. -1.
<scales pt_clust_5="13000.00000" pt_clust_6="13000.00000" pt_clust_7="13000.00000" pt_clust_8="13000.00000" pt_clust_9="21.02445"></scales>
<clustering>
<clus scale="   21.024">  2  9  1 -1</clus>
<clus scale="   79.502">  5  6 -1 -1</clus>
<clus scale="   92.450">  7  8 -1 -1</clus>
<clus scale="   99.567">  1  5  2 -1</clus>
<clus scale="   21.024">  2  5  1 -1</clus>
</clustering>
</event>
<event>
 9    2  0.1592151E-004  0.2167298E+03  0.7546771E-02  0.1136345E+00
          2   -1    0    0  502    0 -0.00000000000E+00  0.00000000000E+00  0.23435467141E+03  0.23435467141E+03  0.00000000000E+00 0. -1.
         21   -1    0    0  501  502  0.00000000000E+00 -0.00000000000E+00 -0.15604152024E+03  0.15604152024E+03  0.00000000000E+00 0.  1.
         24    2    1    2    0    0  0.80659883839E+02 -0.11852961724E+02 -0.18100509390E+02  0.11656302950E+03  0.81319135775E+02 0.  0.
         23    2    1    2    0    0  0.35847332717E+02  0.20317606592E+02 -0.26020668733E+02  0.10461216253E+03  0.92567774885E+02 0.  0.
        -11    1    3    3    0    0  0.78051382664E+02 -0.30757352663E+02 -0.35162920672E+02  0.90964081201E+02  0.00000000000E+00 0.  1.
         12    1    3    3    0    0  0.26085011750E+01  0.18904390939E+02  0.17062411283E+02  0.25598948297E+02  0.00000000000E+00 0. -1.
        -13    1    4    4    0    0 -0.14663774800E+02 -0.27368363724E+02 -0.14227273377E+02  0.34153607892E+02  0.00000000000E+00 0.  1.
         13    1    4    4    0    0  0.50511107517E+02  0.47685970316E+02 -0.11793395357E+02  0.70458554638E+02  0.00000000000E+00 0. -1.
          1    1    1    2  501    0 -0.11650721656E+03 -0.84646448677E+01  0.12243432929E+03  0.16922099962E+03  0.00000000000E+00 0. -1.
<scales pt_clust_5="13000.00000" pt_clust_6="13000.00000" pt_clust_7="13000.00000" pt_clust_8="13000.00000" pt_clust_9="116.81436"></scales>
<clustering>
<clus scale="   81.319">  5  6 -1 -1</clus>
<clus scale="   92.568">  7  8 -1 -1</clus>
<clus scale="   98.534">  5  7 -1 -1</clus>
<clus scale="  116.814">  2  9  1 -1</clus>
<clus scale="  116.814">  2  5  1 -1</clus>
</clustering>
</event>
<event>
 9    2  0.1592151E-004  0.1216026E+03  0.7546771E-02  0.1247655E+00
         21   -1    0    0  501  502  0.00000000000E+00  0.00000000000E+00  0.11287983607E+03  0.11287983607E+03  0.00000000000E+00 0.  1.
         -1   -1    0    0    0  501 -0.00000000000E+00 -0.00000000000E+00 -0.22599750237E+03  0.22599750237E+03  0.00000000000E+00 0.  1.
         24    2    1    2    0    0  0.85369388175E+02 -0.18152825297E+01 -0.61746039706E+02  0.13267151116E+03  0.80609731210E+02 0.  0.
         23    2    1    2    0    0 -0.30891605221E+02  0.39794912811E+02  0.13046719674E+02  0.11368553498E+03  0.10107550451E+03 0.  0.
        -11    1    3    3    0    0  0.85079155521E+02 -0.27579233402E+02 -0.36499437374E+02  0.96598580465E+02  0.00000000000E+00 0.  1.
         12    1    3    3    0    0  0.29023265439E+00  0.25763950872E+02 -0.25246602332E+02  0.36072930694E+02  0.00000000000E+00 0. -1.
        -11    1    4    4    0    0 -0.34998922945E+02 -0.27226999294E+02 -0.36528880557E+01  0.44492445303E+02  0.00000000000E+00 0. -1.
         11    1    4    4    0    0  0.41073177236E+01  0.67021912105E+02  0.16699607730E+02  0.69193089680E+02  0.00000000000E+00 0.  1.
         -2    1    1    2    0  502 -0.54477782954E+02 -0.37979630281E+02 -0.64418346270E+02  0.92520292304E+02  0.00000000000E+00 0.  1.
<scales pt_clust_5="13000.00000" pt_clust_6="13000.00000" pt_clust_7="13000.00000" pt_clust_8="13000.00000" pt_clust_9="66.40998"></scales>
<clustering>
<clus scale="   66.410">  1  9  2 -1</clus>
<clus scale="   80.610">  5  6 -1 -1</clus>
<clus scale="  101.076">  7  8 -1 -1</clus>
<clus scale="  105.209">  2  5  1 -1</clus>
<clus scale="   66.410">  1  5  2 -1</clus>
</clustering>
</event>
<event>
 9    2  0.1592151E-004  0.1554077E+03  0.7546771E-02  0.1195600E+00
         21   -1    0    0  501  502  0.00000000000E+00  0.00000000000E+00  0.36832357100E+03  0.36832357100E+03  0.00000000000E+00 0.  1.
         -1   -1    0    0    0  501 -0.00000000000E+00 -0.00000000000E+00 -0.11799096518E+03  0.11799096518E+03  0.00000000000E+00 0.  1.
         24    2    1    2    0    0 -0.37428431426E+02  0.13175874132E+03  0.24791857540E+02  0.16070197761E+03  0.80307135507E+02 0.  0.
         23    2    1    2    0    0  0.92224353574E+02 -0.75423000579E+02  0.18318726483E+03  0.23633699457E+03  0.90020223268E+02 0.  0.
        -13    1    3    3    0    0 -0.40059580126E+02  0.10671125378E+03 -0.13595030333E+02  0.11479062023E+03  0.00000000000E+00 0.  1.
         14    1    3    3    0    0  0.26311487004E+01  0.25047487540E+02  0.38386887873E+02  0.45911357376E+02  0.00000000000E+00 0. -1.
        -13    1    4    4    0    0  0.47655552908E+02 -0.40568525267E+02  0.16568702296E+03  0.17711308970E+03  0.00000000000E+00 0.  1.
         13    1    4    4    0    0  0.44568800666E+02 -0.34854475312E+02  0.17500241864E+02  0.59223904865E+02  0.00000000000E+00 0. -1.
         -2    1    1    2    0  502 -0.54795922148E+02 -0.56335740741E+02  0.42353483456E+02  0.89275564013E+02  0.00000000000E+00 0.  1.
<scales pt_clust_5="13000.00000" pt_clust_6="13000.00000" pt_clust_7="13000.00000" pt_clust_8="13000.00000" pt_clust_9="78.58953"></scales>
<clustering>
<clus scale="   78.590">  1  9  2 -1</clus>
<clus scale="   80.307">  5  6 -1 -1</clus>
<clus scale="   90.020">  7  8 -1 -1</clus>
<clus scale="  149.991">  2  5  1 -1</clus>
<clus scale="   78.590">  1  5  2 -1</clus>
</clustering>
</event>
<event>
 9    2  0.1592151E-004  0.2107829E+03  0.7546771E-02  0.1141102E+00
          2   -1    0    0  502    0 -0.00000000000E+00  0.00000000000E+00  0.31124658721E+03  0.31124658721E+03  0.00000000000E+00 0. -1.
         21   -1    0    0  501  502  0.00000000000E+00 -0.00000000000E+00 -0.26996344369E+03  0.26996344369E+03  0.00000000000E+00 0. -1.
         24    2    1    2    0    0  0.13454905855E+03 -0.14867929286E+03  0.18622339230E+03  0.28683991195E+03  0.85959304133E+02 0.  0.
         23    2    1    2    0    0 -0.13286881335E+03  0.95766054681E+02 -0.15480228551E+03  0.24051945724E+03  0.84027393866E+02 0.  0.
        -11    1    3    3    0    0  0.32270950347E+02 -0.98119515705E+02  0.10067369507E+03  0.14423607897E+03  0.00000000000E+00 0.  1.
         12    1    3    3    0    0  0.10227810821E+03 -0.50559777150E+02  0.85549697224E+02  0.14260383297E+03  0.00000000000E+00 0. -1.
        -11    1    4    4    0    0 -0.95430764221E+02  0.62064444335E+02 -0.50189394280E+02  0.12441061574E+03  0.00000000000E+00 0.  1.
         11    1    4    4    0    0 -0.37438049132E+02  0.33701610346E+02 -0.10461289123E+03  0.11610884150E+03  0.00000000000E+00 0. -1.
          1    1    1    2  501    0 -0.16802452002E+01  0.52913238175E+02  0.98620367366E+01  0.53850661711E+02  0.00000000000E+00 0. -1.
<scales pt_clust_5="13000.00000" pt_clust_6="13000.00000" pt_clust_7="13000.00000" pt_clust_8="13000.00000" pt_clust_9="52.93994"></scales>
<clustering>
<clus scale="   52.940">  2  9  1 -1</clus>
<clus scale="   84.027">  7  8 -1 -1</clus>
<clus scale="   85.959">  5  6 -1 -1</clus>
<clus scale="  210.002">  2  7  1 -1</clus>
<clus scale="   52.940">  2  5  1 -1</clus>
</clustering>
</event>
<event>
 9    2  0.1592151E-004  0.1080644E+03  0.7546771E-02  0.1279074E+00
          2   -1    0    0  502    0 -0.00000000000E+00  0.00000000000E+00  0.45294946770E+03  0.45294946770E+03  0.00000000000E+00 0. -1.
         21   -1    0    0  501  502  0.00000000000E+00 -0.00000000000E+00 -0.12523369459E+03  0.12523369459E+03  0.00000000000E+00 0. -1.
         24    2    1    2    0    0 -0.16127502707E+02  0.93997593596E+01  0.35820191395E+03  0.36740309821E+03  0.79548561265E+02 0.  0.
         23    2    1    2    0    0 -0.75534956161E+01 -0.40184965197E+01  0.55976289042E+02  0.12097193833E+03  0.10690024002E+03 0.  0.
        -13    1    3    3    0    0  0.13839476503E+02 -0.21692835218E+02  0.50418379518E+02  0.56604975072E+02  0.00000000000E+00 0.  1.
         14    1    3    3    0    0 -0.29966979210E+02  0.31092594577E+02  0.30778353443E+03  0.31079812314E+03  0.00000000000E+00 0. -1.
        -13    1    4    4    0    0  0.37713214765E+02 -0.19020629963E+02 -0.61175729830E+01  0.42678983485E+02  0.00000000000E+00 0.  1.
         13    1    4    4    0    0 -0.45266710381E+02  0.15002133443E+02  0.62093862025E+02  0.78292954841E+02  0.00000000000E+00 0. -1.
          1    1    1    2  501    0  0.23680998323E+02 -0.53812628400E+01 -0.86462429880E+02  0.89808125757E+02  0.00000000000E+00 0. -1.
<scales pt_clust_5="13000.00000" pt_clust_6="13000.00000" pt_clust_7="13000.00000" pt_clust_8="13000.00000" pt_clust_9="24.28472"></scales>
<clustering>
<clus scale="   24.285">  2  9  1 -1</clus>
<clus scale="   79.549">  5  6 -1 -1</clus>
<clus scale="   81.106">  1  5  2 -1</clus>
<clus scale="  106.900">  7  8 -1 -1</clus>
<clus scale="   24.285">  2  5  1 -1</clus>
</clustering>
</event>
<event>
 9    2  0.1592151E-004  0.1383144E+03  0.7546771E-02  0.1225042E+00
          2   -1    0    0  502    0 -0.00000000000E+00  0.00000000000E+00  0.41461948568E+03  0.41461948568E+03  0.00000000000E+00 0. -1.
         21   -1    0    0  501  502  0.00000000000E+00 -0.00000000000E+00 -0.10173170167E+03  0.10173170167E+03  0.00000000000E+00 0. -1.
         24    2    1    2    0    0 -0.80491625436E+02  0.29097357309E+02  0.22939590578E+03  0.25814718011E+03  0.81804199431E+02 0.  0.
         23    2    1    2    0    0  0.14319864999E+02 -0.94205623990E+02  0.71081737179E+02  0.16454611985E+03  0.11376754402E+03 0.  0.
        -11    1    3    3    0    0 -0.46500437421E+02  0.53440741093E+02  0.10294321671E+03  0.12496203166E+03  0.00000000000E+00 0.  1.
         12    1    3    3    0    0 -0.33991188014E+02 -0.24343383785E+02  0.12645268907E+03  0.13318514846E+03  0.00000000000E+00 0. -1.
        -11    1    4    4    0    0 -0.52009269810E+01  0.20538789918E+02  0.38059418884E+02  0.43559280281E+02  0.00000000000E+00 0.  1.
         11    1    4    4    0    0  0.19520791980E+02 -0.11474441391E+03  0.33022318294E+02  0.12098683957E+03  0.00000000000E+00 0. -1.
          1    1    1    2  501    0  0.66171760437E+02  0.65108266682E+02  0.12410141043E+02  0.93657887390E+02  0.00000000000E+00 0. -1.
<scales pt_clust_5="13000.00000" pt_clust_6="13000.00000" pt_clust_7="13000.00000" pt_clust_8="13000.00000" pt_clust_9="92.83204"></scales>
<clustering>
<clus scale="   81.804">  5  6 -1 -1</clus>
<clus scale="   92.832">  2  9  1 -1</clus>
<clus scale="  113.489">  1  5  2 -1</clus>
<clus scale="  113.768">  7  8 -1 -1</clus>
<clus scale="   92.832">  2  5  1 -1</clus>
</clustering>
</event>
<event>
 9    2  0.1592151E-004  0.1720433E+03  0.7546771E-02  0.1177392E+00
         21   -1    0    0  501  502  0.00000000000E+00  0.00000000000E+00  0.64983382270E+03  0.64983382270E+03  0.00000000000E+00 0.  1.
          4   -1    0    0  502    0 -0.00000000000E+00 -0.00000000000E+00 -0.90705513404E+02  0.90705513404E+02  0.00000000000E+00 0. -1.
         24    2    1    2    0    0 -0.15608099283E+03  0.14809039896E+02  0.14537334750E+03  0.22900510156E+03  0.82032569092E+02 0.  0.
         23    2    1    2    0    0  0.11138859531E+03 -0.23792533260E+02  0.43631930581E+03  0.46066908763E+03  0.94169888329E+02 0.  0.
        -11    1    3    3    0    0 -0.12052777440E+03 -0.22047772807E+02  0.12131654642E+03  0.17242608017E+03  0.00000000000E+00 0.  1.
         12    1    3    3    0    0 -0.35553218428E+02  0.36856812703E+02  0.24056801084E+02  0.56579021391E+02  0.00000000000E+00 0. -1.
        -11    1    4    4    0    0  0.43063861223E+02  0.33796854815E+02  0.21805360773E+03  0.22482014897E+03  0.00000000000E+00 0.  1.
         11    1    4    4    0    0  0.68324734083E+02 -0.57589388075E+02  0.21826569808E+03  0.23584893865E+03  0.00000000000E+00 0. -1.
          3    1    1    2  501    0  0.44692397525E+02  0.89834933634E+01 -0.22564344019E+02  0.50865146913E+02  0.00000000000E+00 0. -1.
<scales pt_clust_5="13000.00000" pt_clust_6="13000.00000" pt_clust_7="13000.00000" pt_clust_8="13000.00000" pt_clust_9="45.58635"></scales>
<clustering>
<clus scale="   45.586">  1  9  2 -1</clus>
<clus scale="   82.033">  5  6 -1 -1</clus>
<clus scale="   94.170">  7  8 -1 -1</clus>
<clus scale="  165.711">  2  5  1 -1</clus>
<clus scale="   45.586">  1  5  2 -1</clus>
</clustering>
</event>
<event>
 9    2  0.1592151E-004  0.2404117E+03  0.7546771E-02  0.1120395E+00
          2   -1    0    0  502    0 -0.00000000000E+00  0.00000000000E+00  0.13054208812E+04  0.13054208812E+04  0.00000000000E+00 0. -1.
         21   -1    0    0  501  502  0.00000000000E+00 -0.00000000000E+00 -0.64612793047E+02  0.64612793047E+02  0.00000000000E+00 0.  1.
         24    2    1    2    0    0 -0.18468209907E+03 -0.13625807672E+03  0.89718827087E+03  0.92949295181E+03  0.79602844706E+02 0.  0.
         23    2    1    2    0    0  0.14931312847E+03  0.13086653452E+03  0.21616577213E+03  0.30816033705E+03  0.93886591702E+02 0.  0.
        -11    1    3    3    0    0 -0.46261920588E+02 -0.80898069038E+02  0.37869630604E+03  0.38999430134E+03  0.00000000000E+00 0.  1.
         12    1    3    3    0    0 -0.13842017848E+03 -0.55360007684E+02  0.51849196483E+03  0.53949865047E+03  0.00000000000E+00 0. -1.
        -11    1    4    4    0    0  0.66398691563E+02  0.11763901789E+03  0.14403876640E+03  0.19747124093E+03  0.00000000000E+00 0.  1.
         11    1    4    4    0    0  0.82914436910E+02  0.13227516636E+02  0.72127005732E+02  0.11068909612E+03  0.00000000000E+00 0. -1.
          1    1    1    2  501    0  0.35368970599E+02  0.53915422007E+01  0.12745404515E+03  0.13238038538E+03  0.00000000000E+00 0. -1.
<scales pt_clust_5="13000.00000" pt_clust_6="13000.00000" pt_clust_7="13000.00000" pt_clust_8="13000.00000" pt_clust_9="35.77756"></scales>
<clustering>
<clus scale="   35.778">  2  9  1 -1</clus>
<clus scale="   79.603">  5  6 -1 -1</clus>
<clus scale="   93.887">  7  8 -1 -1</clus>
<clus scale="  235.201">  1  5  2 -1</clus>
<clus scale="   35.778">  2  5  1 -1</clus>
</clustering>
</event>
<event>
 9    2  0.1592151E-004  0.2875043E+03  0.7546771E-02  0.1135453E+00
          2   -1    0    0  502    0 -0.00000000000E+00  0.00000000000E+00  0.36807051787E+04  0.36807051787E+04  0.00000000000E+00 0. -1.
         21   -1    0    0  501  502  0.00000000000E+00 -0.00000000000E+00 -0.32297334273E+02  0.32297334273E+02  0.00000000000E+00 0.  1.
         23    2    1    2    0    0 -0.21524456806E+02  0.18348605002E+02  0.45554765479E+03  0.46532251701E+03  0.90561611624E+02 0.  0.
         24    2    1    2    0    0  0.15087681582E+03 -0.24212155486E+03  0.11138222100E+04  0.11526369686E+04  0.81150508022E+02 0.  0.
        -11    1    4    4    0    0  0.15601603892E+03 -0.21262839262E+03  0.10413201488E+04  0.10741971374E+04  0.00000000000E+00 0.  1.
         12    1    4    4    0    0 -0.51392231003E+01 -0.29493162243E+02  0.72502061244E+02  0.78439831195E+02  0.00000000000E+00 0. -1.
        -13    1    3    3    0    0 -0.54902861371E+02  0.25520619373E+02  0.27686563596E+03  0.28340819779E+03  0.00000000000E+00 0.  1.
         13    1    3    3    0    0  0.33378404565E+02 -0.71720143705E+01  0.17868201884E+03  0.18191431922E+03  0.00000000000E+00 0. -1.
          1    1    1    2  501    0 -0.12935235902E+03  0.22377294986E+03  0.20790379796E+04  0.20950430274E+04  0.00000000000E+00 0. -1.
<scales pt_clust_5="13000.00000" pt_clust_6="13000.00000" pt_clust_7="13000.00000" pt_clust_8="13000.00000" pt_clust_9="275.81408"></scales>
<clustering>
<clus scale="   81.151">  5  6 -1 -1</clus>
<clus scale="   90.562">  7  8 -1 -1</clus>
<clus scale="   94.876">  1  7  2 -1</clus>
<clus scale="  275.814">  2  9  1 -1</clus>
<clus scale="  275.814">  2  5  1 -1</clus>
</clustering>
</event>
<event>
 9    2  0.1592151E-004  0.2586807E+03  0.7546771E-02  0.1126748E+00
         -1   -1    0    0    0  501 -0.00000000000E+00  0.00000000000E+00  0.69728543604E+03  0.69728543604E+03  0.00000000000E+00 0.  1.
         21   -1    0    0  501  502  0.00000000000E+00 -0.00000000000E+00 -0.28553308345E+03  0.28553308345E+03  0.00000000000E+00 0.  1.
         23    2    1    2    0    0  0.13450832249E+03  0.10191257533E+02  0.16661056141E+03  0.23185140733E+03  0.88315600882E+02 0.  0.
         24    2    1    2    0    0  0.10654965640E+03  0.20729281221E+03 -0.10929009048E+03  0.27031107244E+03  0.82465827672E+02 0.  0.
        -11    1    4    4    0    0  0.11811304838E+03  0.18784939841E+03 -0.86386995842E+02  0.23811930147E+03  0.00000000000E+00 0.  1.
         12    1    4    4    0    0 -0.11563391982E+02  0.19443413798E+02 -0.22903094636E+02  0.32191770970E+02  0.00000000000E+00 0. -1.
        -11    1    3    3    0    0  0.10741157849E+03  0.11756407827E+02  0.17299615644E+03  0.20396845457E+03  0.00000000000E+00 0.  1.
         11    1    3    3    0    0  0.27096743994E+02 -0.15651502940E+01 -0.63855950270E+01  0.27882952756E+02  0.00000000000E+00 0. -1.
         -2    1    1    2    0  502 -0.24105797889E+03 -0.21748406975E+03  0.35443188166E+03  0.48065603972E+03  0.00000000000E+00 0.  1.
<scales pt_clust_5="13000.00000" pt_clust_6="13000.00000" pt_clust_7="13000.00000" pt_clust_8="13000.00000" pt_clust_9="245.18392"></scales>
<clustering>
<clus scale="   82.466">  5  6 -1 -1</clus>
<clus scale="   88.316">  7  8 -1 -1</clus>
<clus scale="  161.233">  1  7  2 -1</clus>
<clus scale="  245.184">  2  9  1 -1</clus>
<clus scale="  245.184">  2  5  1 -1</clus>
</clustering>
</event>
<event>
 9    2  0.1592151E-004  0.9085279E+02  0.7546771E-02  0.1301671E+00
         21   -1    0    0  501  502  0.00000000000E+00  0.00000000000E+00  0.20799371168E+03  0.20799371168E+03  0.00000000000E+00 0. -1.
          2   -1    0    0  502    0 -0.00000000000E+00 -0.00000000000E+00 -0.15433659171E+03  0.15433659171E+03  0.00000000000E+00 0. -1.
         24    2    1    2    0    0  0.48696941556E+02  0.47116248614E+01 -0.10796886379E+03  0.14415848330E+03  0.82041460446E+02 0.  0.
         23    2    1    2    0    0  0.12068101683E+02 -0.13317924185E+02  0.71369277801E+02  0.10902635826E+03  0.80437347034E+02 0.  0.
        -13    1    3    3    0    0  0.33355976699E+02  0.10096598408E+02  0.12289632703E+00  0.34850790299E+02  0.00000000000E+00 0.  1.
         14    1    3    3    0    0  0.15340964857E+02 -0.53849735465E+01 -0.10809176012E+03  0.10930769300E+03  0.00000000000E+00 0. -1.
        -13    1    4    4    0    0 -0.32693040721E+02 -0.16361087010E+02  0.40545639793E+02  0.54593671666E+02  0.00000000000E+00 0.  1.
         13    1    4    4    0    0  0.44761142404E+02  0.30431628253E+01  0.30823638008E+02  0.54432686589E+02  0.00000000000E+00 0. -1.
          1    1    1    2  501    0 -0.60765043239E+02  0.86062993234E+01  0.90256705969E+02  0.10914546184E+03  0.00000000000E+00 0. -1.
<scales pt_clust_5="13000.00000" pt_clust_6="13000.00000" pt_clust_7="13000.00000" pt_clust_8="13000.00000" pt_clust_9="61.37148"></scales>
<clustering>
<clus scale="   61.371">  1  9  2 -1</clus>
<clus scale="   80.437">  7  8 -1 -1</clus>
<clus scale="   82.041">  5  6 -1 -1</clus>
<clus scale="   89.407">  1  7  2 -1</clus>
<clus scale="   61.371">  1  5  2 -1</clus>
</clustering>
</event>
<event>
 9    2  0.1592151E-004  0.3352234E+03  0.7546771E-02  0.1105124E+00
         21   -1    0    0  501  502  0.00000000000E+00  0.00000000000E+00  0.80784310876E+03  0.80784310876E+03  0.00000000000E+00 0. -1.
          2   -1    0    0  502    0 -0.00000000000E+00 -0.00000000000E+00 -0.20426332201E+03  0.20426332201E+03  0.00000000000E+00 0. -1.
         24    2    1    2    0    0  0.67689547100E+02  0.33705918067E+02  0.41125595215E+02  0.13421316799E+03  0.10297522119E+03 0.  0.
         23    2    1    2    0    0 -0.34906115980E+03  0.17780581877E+02  0.43303538508E+03  0.56393455281E+03  0.91338342165E+02 0.  0.
        -13    1    3    3    0    0  0.69099121400E+02 -0.57087886272E+01  0.58879080994E+02  0.90961667886E+02  0.00000000000E+00 0.  1.
         14    1    3    3    0    0 -0.14095742996E+01  0.39414706695E+02 -0.17753485780E+02  0.43251500100E+02  0.00000000000E+00 0. -1.
        -11    1    4    4    0    0 -0.28472417960E+02 -0.51710197821E+01  0.86871606840E+02  0.91564699011E+02  0.00000000000E+00 0.  1.
         11    1    4    4    0    0 -0.32058874184E+03  0.22951601659E+02  0.34616377824E+03  0.47236985380E+03  0.00000000000E+00 0. -1.
          1    1    1    2  501    0  0.28137161269E+03 -0.51486499944E+02  0.12941880644E+03  0.31395870997E+03  0.00000000000E+00 0. -1.
<scales pt_clust_5="13000.00000" pt_clust_6="13000.00000" pt_clust_7="13000.00000" pt_clust_8="13000.00000" pt_clust_9="322.54013"></scales>
<clustering>
<clus scale="   91.338">  7  8 -1 -1</clus>
<clus scale="  102.975">  5  6 -1 -1</clus>
<clus scale="  127.757">  2  5  1 -1</clus>
<clus scale="  322.540">  1  9  2 -1</clus>
<clus scale="  322.540">  1  5  2 -1</clus>
</clustering>
</event>
<event>
 9    2  0.1592151E-004  0.2681718E+03  0.7546771E-02  0.1135798E+00
         -3   -1    0    0    0  501 -0.00000000000E+00  0.00000000000E+00  0.20792199866E+03  0.20792199866E+03  0.00000000000E+00 0.  1.
         21   -1    0    0  501  502  0.00000000000E+00 -0.00000000000E+00 -0.69224266957E+03  0.69224266957E+03  0.00000000000E+00 0. -1.
         24    2    1    2    0    0 -0.30270252043E+01  0.84985123423E+02 -0.28827321128E+01  0.11596817946E+03  0.78795142100E+02 0.  0.
         23    2    1    2    0    0  0.21132552873E+03 -0.15951955971E+03 -0.48819480965E+03  0.56286121353E+03  0.91507401377E+02 0.  0.
        -13    1    3    3    0    0  0.18902326283E+02  0.91086777775E+02 -0.46002196227E+01  0.93141081403E+02  0.00000000000E+00 0.  1.
         14    1    3    3    0    0 -0.21929351487E+02 -0.61016543520E+01  0.17174875099E+01  0.22827098059E+02  0.00000000000E+00 0. -1.
        -11    1    4    4    0    0  0.10679081881E+03 -0.57226103886E+02 -0.30673824193E+03  0.32979911311E+03  0.00000000000E+00 0.  1.
         11    1    4    4    0    0  0.10453470992E+03 -0.10229345583E+03 -0.18145656772E+03  0.23306210042E+03  0.00000000000E+00 0. -1.
         -4    1    1    2    0  502 -0.20829850352E+03  0.74534436289E+02  0.67568708581E+01  0.22133527524E+03  0.00000000000E+00 0.  1.
<scales pt_clust_5="13000.00000" pt_clust_6="13000.00000" pt_clust_7="13000.00000" pt_clust_8="13000.00000" pt_clust_9="252.07656"></scales>
<clustering>
<clus scale="   78.795">  5  6 -1 -1</clus>
<clus scale="   91.507">  7  8 -1 -1</clus>
<clus scale="  115.932">  1  5  2 -1</clus>
<clus scale="  252.077">  2  9  1 -1</clus>
<clus scale="  252.077">  2  5  1 -1</clus>
</clustering>
</event>
<event>
 9    2  0.1592151E-004  0.1626529E+03  0.7546771E-02  0.1204896E+00
          2   -1    0    0  502    0 -0.00000000000E+00  0.00000000000E+00  0.74255721486E+03  0.74255721486E+03  0.00000000000E+00 0. -1.
         21   -1    0    0  501  502  0.00000000000E+00 -0.00000000000E+00 -0.78908052509E+02  0.78908052509E+02  0.00000000000E+00 0. -1.
         23    2    1    2    0    0  0.47068689014E+01 -0.56160011378E+02  0.12106038731E+03  0.16151488637E+03  0.90858899678E+02 0.  0.
         24    2    1    2    0    0  0.13609857451E+03  0.21890010350E+02  0.47325841532E+03  0.49930386020E+03  0.79553897473E+02 0.  0.
        -11    1    4    4    0    0  0.65730894345E+01  0.28558161294E+02  0.78974495775E+02  0.84236245549E+02  0.00000000000E+00 0.  1.
         12    1    4    4    0    0  0.12952548508E+03 -0.66681509435E+01  0.39428391955E+03  0.41506761465E+03  0.00000000000E+00 0. -1.
        -13    1    3    3    0    0 -0.32733307799E+02 -0.44165606209E+02  0.30682322654E+02  0.62956136593E+02  0.00000000000E+00 0. -1.
         13    1    3    3    0    0  0.37440176701E+02 -0.11994405168E+02  0.90378064652E+02  0.98558749773E+02  0.00000000000E+00 0.  1.
          1    1    1    2  501    0 -0.14080544341E+03  0.34270001027E+02  0.69330359722E+02  0.16064652080E+03  0.00000000000E+00 0. -1.
<scales pt_clust_5="13000.00000" pt_clust_6="13000.00000" pt_clust_7="13000.00000" pt_clust_8="13000.00000" pt_clust_9="141.87016"></scales>
<clustering>
<clus scale="   79.554">  5  6 -1 -1</clus>
<clus scale="   90.859">  7  8 -1 -1</clus>
<clus scale="  106.918">  1  7  2 -1</clus>
<clus scale="  141.870">  2  9  1 -1</clus>
<clus scale="  141.870">  2  5  1 -1</clus>
</clustering>
</event>
<event>
 9    2  0.1592151E-004  0.1384194E+03  0.7546771E-02  0.1239537E+00
          2   -1    0    0  502    0 -0.00000000000E+00  0.00000000000E+00  0.46322379594E+03  0.46322379594E+03  0.00000000000E+00 0. -1.
         21   -1    0    0  501  502  0.00000000000E+00 -0.00000000000E+00 -0.98790565835E+02  0.98790565835E+02  0.00000000000E+00 0. -1.
         24    2    1    2    0    0 -0.60961745177E+01  0.21055214326E+02  0.17072468219E+00  0.84036543334E+02  0.81127221539E+02 0.  0.
         23    2    1    2    0    0  0.74813371468E+02  0.70031328045E+02  0.53049726636E+02  0.14650805355E+03  0.90271306627E+02 0.  0.
        -13    1    3    3    0    0 -0.29594864719E+02  0.25392243460E+02 -0.27319289055E+02  0.47612662183E+02  0.00000000000E+00 0.  1.
         14    1    3    3    0    0  0.23498690202E+02 -0.43370291335E+01  0.27490013737E+02  0.36423881152E+02  0.00000000000E+00 0. -1.
        -13    1    4    4    0    0  0.79286331659E+02  0.17633627366E+02  0.46287216592E+02  0.93486756398E+02  0.00000000000E+00 0.  1.
         13    1    4    4    0    0 -0.44729601916E+01  0.52397700679E+02  0.67625100442E+01  0.53021297149E+02  0.00000000000E+00 0. -1.
          1    1    1    2  501    0 -0.68717196950E+02 -0.91086542371E+02  0.31121277879E+03  0.33146976489E+03  0.00000000000E+00 0. -1.
<scales pt_clust_5="13000.00000" pt_clust_6="13000.00000" pt_clust_7="13000.00000" pt_clust_8="13000.00000" pt_clust_9="104.93345"></scales>
<clustering>
<clus scale="   81.127">  5  6 -1 -1</clus>
<clus scale="   84.036">  1  5  2 -1</clus>
<clus scale="   90.271">  7  8 -1 -1</clus>
<clus scale="  104.933">  2  9  1 -1</clus>
<clus scale="  104.933">  2  5  1 -1</clus>
</clustering>
</event>
<event>
 9    2  0.1592151E-004  0.1338955E+03  0.7546771E-02  0.1224241E+00
         21   -1    0    0  501  502  0.00000000000E+00  0.00000000000E+00  0.40278647966E+03  0.40278647966E+03  0.00000000000E+00 0. -1.
         -3   -1    0    0    0  501 -0.00000000000E+00 -0.00000000000E+00 -0.86206290214E+02  0.86206290214E+02  0.00000000000E+00 0.  1.
         24    2    1    2    0    0  0.94896541663E+02  0.23010755985E+02  0.72325869811E+01  0.12651876825E+03  0.80123903386E+02 0.  0.
         23    2    1    2    0    0 -0.87677910342E+02 -0.64979054945E+02  0.19980531533E+03  0.24494545434E+03  0.90368235713E+02 0.  0.
        -13    1    3    3    0    0  0.34272828214E+02  0.48864079416E+02  0.10177797452E+02  0.60546780030E+02  0.00000000000E+00 0.  1.
         14    1    3    3    0    0  0.60623713449E+02 -0.25853323431E+02 -0.29452104712E+01  0.65971988218E+02  0.00000000000E+00 0. -1.
        -13    1    4    4    0    0 -0.57506235235E+01 -0.22916788784E+02 -0.13964866080E+01  0.23668524540E+02  0.00000000000E+00 0.  1.
         13    1    4    4    0    0 -0.81927286818E+02 -0.42062266162E+02  0.20120180194E+03  0.22127692980E+03  0.00000000000E+00 0. -1.
         -4    1    1    2    0  502 -0.72186313214E+01  0.41968298960E+02  0.10954228714E+03  0.11752854729E+03  0.00000000000E+00 0.  1.
<scales pt_clust_5="13000.00000" pt_clust_6="13000.00000" pt_clust_7="13000.00000" pt_clust_8="13000.00000" pt_clust_9="42.58458"></scales>
<clustering>
<clus scale="   42.585">  1  9  2 -1</clus>
<clus scale="   80.124">  5  6 -1 -1</clus>
<clus scale="   90.368">  7  8 -1 -1</clus>
<clus scale="  127.206">  2  5  1 -1</clus>
<clus scale="   42.585">  1  5  2 -1</clus>
</clustering>
</event>
<event>
 9    2  0.1592151E-004  0.3341494E+03  0.7546771E-02  0.1118855E+00
         21   -1    0    0  501  502  0.00000000000E+00  0.00000000000E+00  0.20158801243E+03  0.20158801243E+03  0.00000000000E+00 0. -1.
          2   -1    0    0  502    0 -0.00000000000E+00 -0.00000000000E+00 -0.78816573242E+03  0.78816573242E+03  0.00000000000E+00 0. -1.
         24    2    1    2    0    0  0.41442884232E+02 -0.11979796820E+02  0.18357730467E+02  0.92869495929E+02  0.80166756332E+02 0.  0.
         23    2    1    2    0    0  0.14249491375E+03 -0.26958822276E+03 -0.24499071517E+03  0.40426484651E+03  0.10211270887E+03 0.  0.
        -11    1    3    3    0    0 -0.13089204729E+02 -0.25726856106E+02  0.22325627843E+02  0.36491534143E+02  0.00000000000E+00 0.  1.
         12    1    3    3    0    0  0.54532088961E+02  0.13747059286E+02 -0.39678973756E+01  0.56377961785E+02  0.00000000000E+00 0. -1.
        -11    1    4    4    0    0  0.12288403998E+03 -0.20984082306E+03 -0.13649523350E+03  0.27886306150E+03  0.00000000000E+00 0. -1.
         11    1    4    4    0    0  0.19610873769E+02 -0.59747399701E+02 -0.10849548166E+03  0.12540178501E+03  0.00000000000E+00 0.  1.
          1    1    1    2  501    0 -0.18393779798E+03  0.28156801958E+03 -0.35994473529E+03  0.49261940241E+03  0.00000000000E+00 0. -1.
<scales pt_clust_5="13000.00000" pt_clust_6="13000.00000" pt_clust_7="13000.00000" pt_clust_8="13000.00000" pt_clust_9="318.16488"></scales>
<clustering>
<clus scale="   80.167">  5  6 -1 -1</clus>
<clus scale="   91.037">  2  5  1 -1</clus>
<clus scale="  102.113">  7  8 -1 -1</clus>
<clus scale="  318.165">  1  9  2 -1</clus>
<clus scale="  318.165">  1  5  2 -1</clus>
</clustering>
</event>
<event>
 9    2  0.1592151E-004  0.2634931E+03  0.7546771E-02  0.1105549E+00
         -1   -1    0    0    0  501 -0.00000000000E+00  0.00000000000E+00  0.49739379990E+03  0.49739379990E+03  0.00000000000E+00 0.  1.
         21   -1    0    0  501  502  0.00000000000E+00 -0.00000000000E+00 -0.22090880700E+03  0.22090880700E+03  0.00000000000E+00 0. -1.
         23    2    1    2    0    0 -0.11739349361E+03 -0.23172179745E+03  0.30092333614E+03  0.40798520132E+03  0.91765170478E+02 0.  0.
         24    2    1    2    0    0  0.12944049086E+03  0.17040567125E+03 -0.62051180638E+02  0.23738234533E+03  0.81896858240E+02 0.  0.
        -11    1    4    4    0    0  0.24748747986E+02  0.27558947496E+01  0.10238328221E+02  0.26924317029E+02  0.00000000000E+00 0.  1.
         12    1    4    4    0    0  0.10469174287E+03  0.16764977650E+03 -0.72289508859E+02  0.21045802830E+03  0.00000000000E+00 0. -1.
        -11    1    3    3    0    0 -0.91402988311E+02 -0.98173636873E+02  0.18927001581E+03  0.23198212891E+03  0.00000000000E+00 0.  1.
         11    1    3    3    0    0 -0.25990505294E+02 -0.13354816058E+03  0.11165332033E+03  0.17600307242E+03  0.00000000000E+00 0. -1.
         -2    1    1    2    0  502 -0.12046997251E+02  0.61316126198E+02  0.37612837407E+02  0.72935060242E+02  0.00000000000E+00 0.  1.
<scales pt_clust_5="13000.00000" pt_clust_6="13000.00000" pt_clust_7="13000.00000" pt_clust_8="13000.00000" pt_clust_9="62.48841"></scales>
<clustering>
<clus scale="   62.488">  2  9  1 -1</clus>
<clus scale="   81.897">  5  6 -1 -1</clus>
<clus scale="   91.765">  7  8 -1 -1</clus>
<clus scale="  260.221">  2  5  1 -1</clus>
<clus scale="   62.488">  2  5  1 -1</clus>
</clustering>
</event>
<event>
 9    2  0.1592151E-004  0.1352328E+03  0.7546771E-02  0.1222224E+00
         21   -1    0    0  501  502  0.00000000000E+00  0.00000000000E+00  0.15921137381E+03  0.15921137381E+03  0.00000000000E+00 0. -1.
          2   -1    0    0  502    0 -0.00000000000E+00 -0.00000000000E+00 -0.81154577864E+03  0.81154577864E+03  0.00000000000E+00 0. -1.
         24    2    1    2    0    0  0.49251543908E+02  0.86233119087E+02 -0.73040433379E+03  0.74155985515E+03  0.80985570006E+02 0.  0.
         23    2    1    2    0    0 -0.33309335494E+02 -0.10823084599E+03 -0.13963381022E+01  0.14521550405E+03  0.90896452074E+02 0.  0.
        -13    1    3    3    0    0  0.24560399535E+02  0.69514825319E+00 -0.54068571553E+02  0.59389450967E+02  0.00000000000E+00 0.  1.
         14    1    3    3    0    0  0.24691144373E+02  0.85537970834E+02 -0.67633576223E+03  0.68217040418E+03  0.00000000000E+00 0. -1.
        -13    1    4    4    0    0 -0.56719664130E+00 -0.98434610575E+02  0.25545357660E+02  0.10169690049E+03  0.00000000000E+00 0.  1.
         13    1    4    4    0    0 -0.32742138852E+02 -0.97962354185E+01 -0.26941695762E+02  0.43518603557E+02  0.00000000000E+00 0. -1.
          1    1    1    2  501    0 -0.15942208414E+02  0.21997726907E+02  0.79466267054E+02  0.83981793252E+02  0.00000000000E+00 0. -1.
<scales pt_clust_5="13000.00000" pt_clust_6="13000.00000" pt_clust_7="13000.00000" pt_clust_8="13000.00000" pt_clust_9="27.16715"></scales>
<clustering>
<clus scale="   27.167">  1  9  2 -1</clus>
<clus scale="   80.986">  5  6 -1 -1</clus>
<clus scale="   90.896">  7  8 -1 -1</clus>
<clus scale="  128.780">  2  5  1 -1</clus>
<clus scale="   27.167">  1  5  2 -1</clus>
</clustering>
</event>
<event>
 9    2  0.1592151E-004  0.2002796E+03  0.7546771E-02  0.1150072E+00
          2   -1    0    0  502    0 -0.00000000000E+00  0.00000000000E+00  0.14515247013E+04  0.14515247013E+04  0.00000000000E+00 0. -1.
         21   -1    0    0  501  502  0.00000000000E+00 -0.00000000000E+00 -0.33233283284E+02  0.33233283284E+02  0.00000000000E+00 0. -1.
         24    2    1    2    0    0 -0.14765711204E+02  0.18259576655E+03  0.88784719636E+03  0.91200052518E+03  0.99564419639E+02 0.  0.
         23    2    1    2    0    0 -0.54998039146E+01 -0.16018819563E+03  0.45694891253E+03  0.49329456995E+03  0.94056994511E+02 0.  0.
        -11    1    3    3    0    0  0.21000367541E+02  0.72355106429E+02  0.18652079435E+03  0.20116233143E+03  0.00000000000E+00 0.  1.
         12    1    3    3    0    0 -0.35766078745E+02  0.11024066012E+03  0.70132640202E+03  0.71083819375E+03  0.00000000000E+00 0. -1.
        -13    1    4    4    0    0 -0.10609985230E+02 -0.10859516241E+03  0.40674338992E+03  0.42112428845E+03  0.00000000000E+00 0.  1.
         13    1    4    4    0    0  0.51101813154E+01 -0.51593033223E+02  0.50205522614E+02  0.72170281496E+02  0.00000000000E+00 0. -1.
          1    1    1    2  501    0  0.20265515118E+02 -0.22407570915E+02  0.73495309173E+02  0.79462889501E+02  0.00000000000E+00 0. -1.
<scales pt_clust_5="13000.00000" pt_clust_6="13000.00000" pt_clust_7="13000.00000" pt_clust_8="13000.00000" pt_clust_9="30.21242"></scales>
<clustering>
<clus scale="   30.212">  2  9  1 -1</clus>
<clus scale="   94.057">  7  8 -1 -1</clus>
<clus scale="   99.564">  5  6 -1 -1</clus>
<clus scale="  197.599">  2  7  1 -1</clus>
<clus scale="   30.212">  2  5  1 -1</clus>
</clustering>
</event>
<event>
 9    2  0.1592151E-004  0.2009218E+03  0.7546771E-02  0.1187882E+00
         21   -1    0    0  501  502  0.00000000000E+00  0.00000000000E+00  0.34061803373E+03  0.34061803373E+03  0.00000000000E+00 0. -1.
          2   -1    0    0  502    0 -0.00000000000E+00 -0.00000000000E+00 -0.27347245219E+03  0.27347245219E+03  0.00000000000E+00 0. -1.
         24    2    1    2    0    0  0.64833516273E+01 -0.15148038771E+02  0.60326759041E+02  0.10201768560E+03  0.80602688488E+02 0.  0.
         23    2    1    2    0    0 -0.42760059098E+02  0.18852560166E+03 -0.16163862345E+03  0.26762712146E+03  0.90149356145E+02 0.  0.
        -11    1    3    3    0    0  0.41606598853E+02  0.37423080546E+01  0.24633100397E+02  0.48496428455E+02  0.00000000000E+00 0.  1.
         12    1    3    3    0    0 -0.35123247226E+02 -0.18890346825E+02  0.35693658644E+02  0.53521257144E+02  0.00000000000E+00 0. -1.
        -13    1    4    4    0    0 -0.44984547513E+02  0.14641019451E+03 -0.73435322053E+02  0.16985965118E+03  0.00000000000E+00 0.  1.
         13    1    4    4    0    0  0.22244884149E+01  0.42115407147E+02 -0.88203301400E+02  0.97767470284E+02  0.00000000000E+00 0. -1.
          1    1    1    2  501    0  0.36276707471E+02 -0.17337756289E+03  0.16845744595E+03  0.24444567886E+03  0.00000000000E+00 0. -1.
<scales pt_clust_5="13000.00000" pt_clust_6="13000.00000" pt_clust_7="13000.00000" pt_clust_8="13000.00000" pt_clust_9="179.56237"></scales>
<clustering>
<clus scale="   80.603">  5  6 -1 -1</clus>
<clus scale="   82.270">  2  5  1 -1</clus>
<clus scale="   90.149">  7  8 -1 -1</clus>
<clus scale="  179.562">  1  9  2 -1</clus>
<clus scale="  179.562">  1  5  2 -1</clus>
</clustering>
</event>
<event>
 9    2  0.1592151E-004  0.1407625E+03  0.7546771E-02  0.1214239E+00
         21   -1    0    0  501  502  0.00000000000E+00  0.00000000000E+00  0.72967947804E+03  0.72967947804E+03  0.00000000000E+00 0. -1.
         -1   -1    0    0    0  501 -0.00000000000E+00 -0.00000000000E+00 -0.81860466465E+02  0.81860466465E+02  0.00000000000E+00 0.  1.
         23    2    1    2    0    0 -0.78392646170E+02 -0.65866592794E+02  0.19733319219E+02  0.13853071341E+03  0.91200546332E+02 0.  0.
         24    2    1    2    0    0  0.13664023836E+03  0.32481324748E+02  0.33634920031E+03  0.37364734489E+03  0.82194662835E+02 0.  0.
        -11    1    4    4    0    0  0.14399818342E+02  0.34028083540E+02  0.48966837353E+02  0.61343429950E+02  0.00000000000E+00 0.  1.
         12    1    4    4    0    0  0.12224042002E+03 -0.15467587919E+01  0.28738236295E+03  0.31230391494E+03  0.00000000000E+00 0. -1.
        -13    1    3    3    0    0 -0.27689247444E+02  0.31388819788E+01  0.41675348869E+02  0.50133638482E+02  0.00000000000E+00 0. -1.
         13    1    3    3    0    0 -0.50703398726E+02 -0.69005474773E+02 -0.21942029650E+02  0.88397074930E+02  0.00000000000E+00 0.  1.
         -2    1    1    2    0  502 -0.58247592192E+02  0.33385268047E+02  0.29173649205E+03  0.29936188620E+03  0.00000000000E+00 0.  1.
<scales pt_clust_5="13000.00000" pt_clust_6="13000.00000" pt_clust_7="13000.00000" pt_clust_8="13000.00000" pt_clust_9="67.13686"></scales>
<clustering>
<clus scale="   67.137">  1  9  2 -1</clus>
<clus scale="   82.195">  5  6 -1 -1</clus>
<clus scale="   91.201">  7  8 -1 -1</clus>
<clus scale="  135.102">  1  5  2 -1</clus>
<clus scale="   67.137">  1  5  2 -1</clus>
</clustering>
</event>
<event>
 9    2  0.1592151E-004  0.2666304E+03  0.7546771E-02  0.1139610E+00
         21   -1    0    0  501  502  0.00000000000E+00  0.00000000000E+00  0.21852997604E+03  0.21852997604E+03  0.00000000000E+00 0.  1.
          2   -1    0    0  502    0 -0.00000000000E+00 -0.00000000000E+00 -0.48285905538E+03  0.48285905538E+03  0.00000000000E+00 0. -1.
         24    2    1    2    0    0 -0.62596766808E+02 -0.31122375581E+02 -0.71707289620E+02  0.12926487200E+03  0.81734413025E+02 0.  0.
         23    2    1    2    0    0  0.21115075994E+03  0.18058311856E+03 -0.77997705002E+01  0.29182792085E+03  0.88925771475E+02 0.  0.
        -13    1    3    3    0    0  0.20166183090E+02 -0.68219587712E+01 -0.14770875786E+02  0.25911249167E+02  0.00000000000E+00 0.  1.
         14    1    3    3    0    0 -0.82762949898E+02 -0.24300416809E+02 -0.56936413834E+02  0.10335362284E+03  0.00000000000E+00 0. -1.
        -13    1    4    4    0    0  0.17368162498E+02  0.30839831080E+02 -0.29355561197E+02  0.45983662564E+02  0.00000000000E+00 0. -1.
         13    1    4    4    0    0  0.19378259745E+03  0.14974328748E+03  0.21555790697E+02  0.24584425828E+03  0.00000000000E+00 0.  1.
          1    1    1    2  501    0 -0.14855399314E+03 -0.14946074298E+03 -0.18482201922E+03  0.28029623857E+03  0.00000000000E+00 0. -1.
<scales pt_clust_5="13000.00000" pt_clust_6="13000.00000" pt_clust_7="13000.00000" pt_clust_8="13000.00000" pt_clust_9="251.36438"></scales>
<clustering>
<clus scale="   81.734">  5  6 -1 -1</clus>
<clus scale="   88.926">  7  8 -1 -1</clus>
<clus scale="  107.552">  2  5  1 -1</clus>
<clus scale="  251.364">  1  9  2 -1</clus>
<clus scale="  251.364">  1  5  2 -1</clus>
</clustering>
</event>
<event>
 9    2  0.1592151E-004  0.1438736E+03  0.7546771E-02  0.1210817E+00
          4   -1    0    0  502    0 -0.00000000000E+00  0.00000000000E+00  0.15956245606E+04  0.15956245606E+04  0.00000000000E+00 0. -1.
         21   -1    0    0  501  502  0.00000000000E+00 -0.00000000000E+00 -0.31424504225E+02  0.31424504225E+02  0.00000000000E+00 0.  1.
         24    2    1    2    0    0 -0.75563679070E+02  0.78958534487E+02  0.12321775430E+04  0.12393771583E+04  0.76484790227E+02 0.  0.
         23    2    1    2    0    0  0.10967454960E+03 -0.75051174684E+02  0.30269456240E+03  0.34251719854E+03  0.89626154318E+02 0.  0.
        -11    1    3    3    0    0 -0.14032376819E+02  0.20626673406E+02  0.73834226422E+02  0.77934974475E+02  0.00000000000E+00 0.  1.
         12    1    3    3    0    0 -0.61531302251E+02  0.58331861081E+02  0.11583433166E+04  0.11614421838E+04  0.00000000000E+00 0. -1.
        -11    1    4    4    0    0  0.75355488957E+01 -0.37476953089E+02  0.15136531344E+03  0.15611779086E+03  0.00000000000E+00 0. -1.
         11    1    4    4    0    0  0.10213900070E+03 -0.37574221595E+02  0.15132924896E+03  0.18639940768E+03  0.00000000000E+00 0.  1.
          3    1    1    2  501    0 -0.34110870527E+02 -0.39073598031E+01  0.29327950931E+02  0.45154708000E+02  0.00000000000E+00 0. -1.
<scales pt_clust_5="13000.00000" pt_clust_6="13000.00000" pt_clust_7="13000.00000" pt_clust_8="13000.00000" pt_clust_9="34.33393"></scales>
<clustering>
<clus scale="   34.334">  2  9  1 -1</clus>
<clus scale="   76.485">  5  6 -1 -1</clus>
<clus scale="   89.626">  7  8 -1 -1</clus>
<clus scale="  136.076">  1  5  2 -1</clus>
<clus scale="   34.334">  2  5  1 -1</clus>
</clustering>
</event>
<event>
 9    2  0.1592151E-004  0.1209346E+03  0.7546771E-02  0.1245569E+00
         21   -1    0    0  501  502  0.00000000000E+00  0.00000000000E+00  0.13153105452E+03  0.13153105452E+03  0.00000000000E+00 0.  1.
          2   -1    0    0  502    0 -0.00000000000E+00 -0.00000000000E+00 -0.51788114455E+03  0.51788114455E+03  0.00000000000E+00 0. -1.
         24    2    1    2    0    0  0.84147022211E+02  0.16449671538E+02 -0.40945868578E+03  0.42582537258E+03  0.79495405703E+02 0.  0.
         23    2    1    2    0    0 -0.48397223417E+02 -0.20414517095E+02 -0.67721964824E+02  0.12589363917E+03  0.92216593530E+02 0.  0.
        -13    1    3    3    0    0  0.33812307793E+02 -0.13459581690E+02 -0.51214103923E+02  0.62827676531E+02  0.00000000000E+00 0.  1.
         14    1    3    3    0    0  0.50334714417E+02  0.29909253228E+02 -0.35824458186E+03  0.36299769605E+03  0.00000000000E+00 0. -1.
        -13    1    4    4    0    0 -0.16963376477E+02  0.23792720457E+02 -0.65364722054E+02  0.71598858772E+02  0.00000000000E+00 0. -1.
         13    1    4    4    0    0 -0.31433846940E+02 -0.44207237553E+02 -0.23572427699E+01  0.54294780403E+02  0.00000000000E+00 0.  1.
          1    1    1    2  501    0 -0.35749798794E+02  0.39648455574E+01  0.90830560570E+02  0.97693187314E+02  0.00000000000E+00 0. -1.
<scales pt_clust_5="13000.00000" pt_clust_6="13000.00000" pt_clust_7="13000.00000" pt_clust_8="13000.00000" pt_clust_9="35.96899"></scales>
<clustering>
<clus scale="   35.969">  1  9  2 -1</clus>
<clus scale="   79.495">  5  6 -1 -1</clus>
<clus scale="   92.217">  7  8 -1 -1</clus>
<clus scale="  111.538">  2  5  1 -1</clus>
<clus scale="   35.969">  1  5  2 -1</clus>
</clustering>
</event>
<event>
 9    2  0.1592151E-004  0.1445738E+03  0.7546771E-02  0.1233964E+00
          2   -1    0    0  502    0 -0.00000000000E+00  0.00000000000E+00  0.56213974138E+03  0.56213974138E+03  0.00000000000E+00 0. -1.
         21   -1    0    0  501  502  0.00000000000E+00 -0.00000000000E+00 -0.88909346151E+02  0.88909346151E+02  0.00000000000E+00 0. -1.
         24    2    1    2    0    0  0.14080564824E+02  0.12977458513E+02  0.24281531465E+03  0.25649402177E+03  0.80394212735E+02 0.  0.
         23    2    1    2    0    0 -0.27744288557E+01 -0.11225699382E+03  0.39575332762E+01  0.14703279288E+03  0.94834856431E+02 0.  0.
        -13    1    3    3    0    0  0.27573855707E+02 -0.25045752334E+02  0.73040913213E+02  0.81991354615E+02  0.00000000000E+00 0.  1.
         14    1    3    3    0    0 -0.13493290884E+02  0.38023210847E+02  0.16977440144E+03  0.17450266716E+03  0.00000000000E+00 0. -1.
        -11    1    4    4    0    0  0.27617680213E+02 -0.11067188786E+03 -0.79737240707E+01  0.11434414414E+03  0.00000000000E+00 0. -1.
         11    1    4    4    0    0 -0.30392109069E+02 -0.15851059618E+01  0.11931257347E+02  0.32688648740E+02  0.00000000000E+00 0.  1.
          1    1    1    2  501    0 -0.11306135968E+02  0.99279535309E+02  0.22645754730E+03  0.24752227288E+03  0.00000000000E+00 0. -1.
<scales pt_clust_5="13000.00000" pt_clust_6="13000.00000" pt_clust_7="13000.00000" pt_clust_8="13000.00000" pt_clust_9="109.12355"></scales>
<clustering>
<clus scale="   80.394">  5  6 -1 -1</clus>
<clus scale="   82.643">  1  5  2 -1</clus>
<clus scale="   94.835">  7  8 -1 -1</clus>
<clus scale="  109.124">  2  9  1 -1</clus>
<clus scale="  109.124">  2  5  1 -1</clus>
</clustering>
</event>
<event>
 9    2  0.1592151E-004  0.3435006E+03  0.7546771E-02  0.1095290E+00
         21   -1    0    0  501  502  0.00000000000E+00  0.00000000000E+00  0.33814180111E+03  0.33814180111E+03  0.00000000000E+00 0. -1.
          2   -1    0    0  502    0 -0.00000000000E+00 -0.00000000000E+00 -0.59431684534E+03  0.59431684534E+03  0.00000000000E+00 0. -1.
         23    2    1    2    0    0 -0.10641491276E+03  0.63695282721E+02 -0.58137075622E+02  0.16390069164E+03  0.90012746093E+02 0.  0.
         24    2    1    2    0    0  0.35561048786E+03 -0.21301822502E+03 -0.21151991405E+03  0.47773577787E+03  0.10795932639E+03 0.  0.
        -13    1    4    4    0    0  0.37879287504E+02  0.88806958663E+01 -0.33140654241E+02  0.51107828602E+02  0.00000000000E+00 0.  1.
         14    1    4    4    0    0  0.31773120036E+03 -0.22189892089E+03 -0.17837925981E+03  0.42662794927E+03  0.00000000000E+00 0. -1.
        -13    1    3    3    0    0 -0.91644730574E+01 -0.20915826550E+02 -0.17406510215E+02  0.28713167094E+02  0.00000000000E+00 0.  1.
         13    1    3    3    0    0 -0.97250439704E+02  0.84611109270E+02 -0.40730565407E+02  0.13518752455E+03  0.00000000000E+00 0. -1.
          1    1    1    2  501    0 -0.24919557510E+03  0.14932294230E+03  0.13481945436E+02  0.29082217694E+03  0.00000000000E+00 0. -1.
<scales pt_clust_5="13000.00000" pt_clust_6="13000.00000" pt_clust_7="13000.00000" pt_clust_8="13000.00000" pt_clust_9="326.09421"></scales>
<clustering>
<clus scale="   90.013">  7  8 -1 -1</clus>
<clus scale="  107.959">  5  6 -1 -1</clus>
<clus scale="  153.243">  2  7  1 -1</clus>
<clus scale="  326.094">  1  9  2 -1</clus>
<clus scale="  326.094">  1  5  2 -1</clus>
</clustering>
</event>
<event>
 9    2  0.1592151E-004  0.9628751E+02  0.7546771E-02  0.1292448E+00
         21   -1    0    0  501  502  0.00000000000E+00  0.00000000000E+00  0.59608141200E+02  0.59608141200E+02  0.00000000000E+00 0. -1.
          2   -1    0    0  502    0 -0.00000000000E+00 -0.00000000000E+00 -0.36985534271E+03  0.36985534271E+03  0.00000000000E+00 0. -1.
         24    2    1    2    0    0 -0.18261555647E+02  0.16210463733E+02 -0.17977511943E+03  0.19949512440E+03  0.82963531411E+02 0.  0.
         23    2    1    2    0    0 -0.64757416394E+01 -0.78608318699E+02 -0.66921292276E+02  0.13753390129E+03  0.90641666167E+02 0.  0.
        -13    1    3    3    0    0 -0.42311015972E+02  0.27573500802E+02 -0.15545975842E+03  0.16345720085E+03  0.00000000000E+00 0.  1.
         14    1    3    3    0    0  0.24049460325E+02 -0.11363037068E+02 -0.24315361011E+02  0.36037923559E+02  0.00000000000E+00 0. -1.
        -11    1    4    4    0    0 -0.31659565570E+02 -0.58344044169E+02 -0.78856736688E+02  0.10307638189E+03  0.00000000000E+00 0.  1.
         11    1    4    4    0    0  0.25183823930E+02 -0.20264274530E+02  0.11935444412E+02  0.34457519401E+02  0.00000000000E+00 0. -1.
          1    1    1    2  501    0  0.24737297287E+02  0.62397854966E+02 -0.63550789795E+02  0.92434458212E+02  0.00000000000E+00 0. -1.
<scales pt_clust_5="13000.00000" pt_clust_6="13000.00000" pt_clust_7="13000.00000" pt_clust_8="13000.00000" pt_clust_9="67.12247"></scales>
<clustering>
<clus scale="   67.122">  1  9  2 -1</clus>
<clus scale="   82.964">  5  6 -1 -1</clus>
<clus scale="   89.097">  2  5  1 -1</clus>
<clus scale="   90.642">  7  8 -1 -1</clus>
<clus scale="   67.122">  1  5  2 -1</clus>
</clustering>
</event>
<event>
 9    2  0.1592151E-004  0.1121628E+03  0.7546771E-02  0.1261878E+00
         -1   -1    0    0    0  501 -0.00000000000E+00  0.00000000000E+00  0.36956746951E+02  0.36956746951E+02  0.00000000000E+00 0.  1.
         21   -1    0    0  501  502  0.00000000000E+00 -0.00000000000E+00 -0.10097771210E+04  0.10097771210E+04  0.00000000000E+00 0. -1.
         23    2    1    2    0    0 -0.31398605166E+02  0.51800024461E+02 -0.64317533210E+02  0.12988137831E+03  0.95201430727E+02 0.  0.
         24    2    1    2    0    0  0.63327044361E+01 -0.53928258275E+02 -0.71656395911E+03  0.72327211078E+03  0.81916289967E+02 0.  0.
        -13    1    4    4    0    0 -0.16109622766E+02 -0.13625619199E+02 -0.40774906590E+02  0.45910461244E+02  0.00000000000E+00 0.  1.
         14    1    4    4    0    0  0.22442327202E+02 -0.40302639076E+02 -0.67578905252E+03  0.67736164954E+03  0.00000000000E+00 0. -1.
        -13    1    3    3    0    0 -0.58918053117E+02  0.80530242521E+01 -0.23175247260E+02  0.63822255274E+02  0.00000000000E+00 0. -1.
         13    1    3    3    0    0  0.27519447952E+02  0.43747000209E+02 -0.41142285950E+02  0.66059123034E+02  0.00000000000E+00 0.  1.
         -2    1    1    2    0  502  0.25065900730E+02  0.21282338144E+01 -0.19193888172E+03  0.19358037885E+03  0.00000000000E+00 0.  1.
<scales pt_clust_5="13000.00000" pt_clust_6="13000.00000" pt_clust_7="13000.00000" pt_clust_8="13000.00000" pt_clust_9="25.15609"></scales>
<clustering>
<clus scale="   25.156">  2  9  1 -1</clus>
<clus scale="   81.916">  5  6 -1 -1</clus>
<clus scale="   95.201">  7  8 -1 -1</clus>
<clus scale="  101.131">  2  5  1 -1</clus>
<clus scale="   25.156">  2  5  1 -1</clus>
</clustering>
</event>
<event>
 9    2  0.1592151E-004  0.1927112E+03  0.7546771E-02  0.1157299E+00
         21   -1    0    0  501  502  0.00000000000E+00  0.00000000000E+00  0.85124671951E+02  0.85124671951E+02  0.00000000000E+00 0. -1.
          2   -1    0    0  502    0 -0.00000000000E+00 -0.00000000000E+00 -0.84079223517E+03  0.84079223517E+03  0.00000000000E+00 0. -1.
         24    2    1    2    0    0  0.93357632827E+02  0.14132333434E+03 -0.30788990812E+03  0.36004336413E+03  0.78403418934E+02 0.  0.
         23    2    1    2    0    0  0.23610743039E+02 -0.19559329636E+03 -0.28501974961E+03  0.35822729204E+03  0.90974338858E+02 0.  0.
        -13    1    3    3    0    0  0.96516544749E+02  0.14881933914E+03 -0.28435520328E+03  0.33514253796E+03  0.00000000000E+00 0.  1.
         14    1    3    3    0    0 -0.31589119216E+01 -0.74960048086E+01 -0.23534704835E+02  0.24900826177E+02  0.00000000000E+00 0. -1.
        -13    1    4    4    0    0  0.18658469036E+02 -0.11214787705E+03 -0.86591901357E+02  0.14291060903E+03  0.00000000000E+00 0. -1.
         13    1    4    4    0    0  0.49522740023E+01 -0.83445419312E+02 -0.19842784825E+03  0.21531668301E+03  0.00000000000E+00 0.  1.
          1    1    1    2  501    0 -0.11696837587E+03  0.54269962022E+02 -0.16275790549E+03  0.20764625094E+03  0.00000000000E+00 0. -1.
<scales pt_clust_5="13000.00000" pt_clust_6="13000.00000" pt_clust_7="13000.00000" pt_clust_8="13000.00000" pt_clust_9="128.94506"></scales>
<clustering>
<clus scale="   78.403">  5  6 -1 -1</clus>
<clus scale="   90.974">  7  8 -1 -1</clus>
<clus scale="  128.945">  1  9  2 -1</clus>
<clus scale="  187.105">  2  5  1 -1</clus>
<clus scale="  128.945">  1  5  2 -1</clus>
</clustering>
</event>
<event>
 9    2  0.1592151E-004  0.2170069E+03  0.7546771E-02  0.1155075E+00
          2   -1    0    0  502    0 -0.00000000000E+00  0.00000000000E+00  0.82539411767E+03  0.82539411767E+03  0.00000000000E+00 0. -1.
         21   -1    0    0  501  502  0.00000000000E+00 -0.00000000000E+00 -0.10368866103E+03  0.10368866103E+03  0.00000000000E+00 0. -1.
         23    2    1    2    0    0 -0.87001389526E+02  0.56985778998E+02  0.25746636345E+03  0.29214010884E+03  0.90776065668E+02 0.  0.
         24    2    1    2    0    0  0.18599546826E+03  0.11288608516E+03  0.19019881312E+03  0.29966777759E+03  0.79294425873E+02 0.  0.
        -13    1    4    4    0    0  0.31650897611E+02 -0.11103706683E+02  0.29776045538E+02  0.44851806090E+02  0.00000000000E+00 0.  1.
         14    1    4    4    0    0  0.15434457065E+03  0.12398979184E+03  0.16042276758E+03  0.25481597150E+03  0.00000000000E+00 0. -1.
        -13    1    3    3    0    0 -0.18833336449E+02  0.66320066751E+02  0.13849108293E+03  0.15470237835E+03  0.00000000000E+00 0.  1.
         13    1    3    3    0    0 -0.68168053076E+02 -0.93342877524E+01  0.11897528052E+03  0.13743773049E+03  0.00000000000E+00 0. -1.
          1    1    1    2  501    0 -0.98994078739E+02 -0.16987186416E+03  0.27404028007E+03  0.33727489227E+03  0.00000000000E+00 0. -1.
<scales pt_clust_5="13000.00000" pt_clust_6="13000.00000" pt_clust_7="13000.00000" pt_clust_8="13000.00000" pt_clust_9="202.00108"></scales>
<clustering>
<clus scale="   79.294">  5  6 -1 -1</clus>
<clus scale="   90.776">  7  8 -1 -1</clus>
<clus scale="  138.047">  1  7  2 -1</clus>
<clus scale="  202.001">  2  9  1 -1</clus>
<clus scale="  202.001">  2  5  1 -1</clus>
</clustering>
</event>
<event>
 9    2  0.1592151E-004  0.2794474E+03  0.7546771E-02  0.1117851E+00
         -1   -1    0    0    0  501 -0.00000000000E+00  0.00000000000E+00  0.17290619541E+03  0.17290619541E+03  0.00000000000E+00 0.  1.
         21   -1    0    0  501  502  0.00000000000E+00 -0.00000000000E+00 -0.79560478402E+03  0.79560478402E+03  0.00000000000E+00 0.  1.
         24    2    1    2    0    0  0.11838863719E+03 -0.73207059169E+02 -0.54217604269E+02  0.16857469900E+03  0.78120020503E+02 0.  0.
         23    2    1    2    0    0  0.18687704323E+03  0.12153946874E+03 -0.16448242712E+03  0.29127333535E+03  0.89948959449E+02 0.  0.
        -11    1    3    3    0    0  0.60965763329E+02 -0.59714485285E+02  0.43519710800E+01  0.85449304874E+02  0.00000000000E+00 0.  1.
         12    1    3    3    0    0  0.57422873858E+02 -0.13492573884E+02 -0.58569575349E+02  0.83125394126E+02  0.00000000000E+00 0. -1.
        -13    1    4    4    0    0  0.13054359729E+03  0.62074260122E+02 -0.55270944108E+02  0.15475697666E+03  0.00000000000E+00 0. -1.
         13    1    4    4    0    0  0.56333445939E+02  0.59465208622E+02 -0.10921148301E+03  0.13651635869E+03  0.00000000000E+00 0.  1.
         -2    1    1    2    0  502 -0.30526568042E+03 -0.48332409576E+02 -0.40399855722E+03  0.50866294508E+03  0.00000000000E+00 0.  1.
<scales pt_clust_5="13000.00000" pt_clust_6="13000.00000" pt_clust_7="13000.00000" pt_clust_8="13000.00000" pt_clust_9="264.57518"></scales>
<clustering>
<clus scale="   78.120">  5  6 -1 -1</clus>
<clus scale="   89.949">  7  8 -1 -1</clus>
<clus scale="  159.618">  1  5  2 -1</clus>
<clus scale="  264.575">  2  9  1 -1</clus>
<clus scale="  264.575">  2  5  1 -1</clus>
</clustering>
</event>
<event>
 9    2  0.1592151E-004  0.1344897E+03  0.7546771E-02  0.1229385E+00
          2   -1    0    0  502    0 -0.00000000000E+00  0.00000000000E+00  0.35475066953E+03  0.35475066953E+03  0.00000000000E+00 0. -1.
         21   -1    0    0  501  502  0.00000000000E+00 -0.00000000000E+00 -0.89457058874E+02  0.89457058874E+02  0.00000000000E+00 0. -1.
         23    2    1    2    0    0 -0.74508981065E+02  0.37289729940E+02  0.17050512921E+03  0.20259134510E+03  0.70916442423E+02 0.  0.
         24    2    1    2    0    0  0.10659276041E+03 -0.24565216327E+02  0.97431368270E+01  0.14983407136E+03  0.10193063230E+03 0.  0.
        -13    1    4    4    0    0  0.25417933524E+02  0.31612588453E+02 -0.21989835743E+02  0.46140870921E+02  0.00000000000E+00 0.  1.
         14    1    4    4    0    0  0.81174826882E+02 -0.56177804780E+02  0.31732972570E+02  0.10369320044E+03  0.00000000000E+00 0. -1.
        -13    1    3    3    0    0 -0.61450545100E+02  0.55692987960E+02  0.15300305304E+03  0.17403394106E+03  0.00000000000E+00 0. -1.
         13    1    3    3    0    0 -0.13058435965E+02 -0.18403258020E+02  0.17502076173E+02  0.28557404048E+02  0.00000000000E+00 0.  1.
          1    1    1    2  501    0 -0.32083779341E+02 -0.12724513613E+02  0.85045344620E+02  0.91782311940E+02  0.00000000000E+00 0. -1.
<scales pt_clust_5="13000.00000" pt_clust_6="13000.00000" pt_clust_7="13000.00000" pt_clust_8="13000.00000" pt_clust_9="34.51497"></scales>
<clustering>
<clus scale="   34.515">  2  9  1 -1</clus>
<clus scale="   70.916">  7  8 -1 -1</clus>
<clus scale="  101.931">  5  6 -1 -1</clus>
<clus scale="  112.813">  1  7  2 -1</clus>
<clus scale="   34.515">  2  5  1 -1</clus>
</clustering>
</event>
<event>
 9    2  0.1592151E-004  0.1944149E+03  0.7546771E-02  0.1165362E+00
         21   -1    0    0  501  502  0.00000000000E+00  0.00000000000E+00  0.16614320002E+03  0.16614320002E+03  0.00000000000E+00 0. -1.
          2   -1    0    0  502    0 -0.00000000000E+00 -0.00000000000E+00 -0.62056283737E+03  0.62056283737E+03  0.00000000000E+00 0. -1.
         23    2    1    2    0    0  0.71344840255E+02 -0.97447311882E+02 -0.29824783699E+03  0.33434406682E+03  0.90819149569E+02 0.  0.
         24    2    1    2    0    0 -0.19678164681E+02 -0.14639723742E+03 -0.22478239172E+02  0.16951293328E+03  0.80062363338E+02 0.  0.
        -11    1    4    4    0    0 -0.46134900230E+02 -0.57692522432E+02 -0.21522009941E+02  0.76941881156E+02  0.00000000000E+00 0.  1.
         12    1    4    4    0    0  0.26456735549E+02 -0.88704714989E+02 -0.95622923140E+00  0.92571052125E+02  0.00000000000E+00 0. -1.
        -11    1    3    3    0    0  0.54031766754E+01 -0.47528013368E+02 -0.37462193999E+02  0.60757899504E+02  0.00000000000E+00 0.  1.
         11    1    3    3    0    0  0.65941663579E+02 -0.49919298514E+02 -0.26078564299E+03  0.27358616732E+03  0.00000000000E+00 0. -1.
          1    1    1    2  501    0 -0.51666675574E+02  0.24384454930E+03 -0.13369356119E+03  0.28284903729E+03  0.00000000000E+00 0. -1.
<scales pt_clust_5="13000.00000" pt_clust_6="13000.00000" pt_clust_7="13000.00000" pt_clust_8="13000.00000" pt_clust_9="177.16438"></scales>
<clustering>
<clus scale="   80.062">  5  6 -1 -1</clus>
<clus scale="   90.819">  7  8 -1 -1</clus>
<clus scale="  151.110">  2  7  1 -1</clus>
<clus scale="  177.164">  1  9  2 -1</clus>
<clus scale="  177.164">  1  5  2 -1</clus>
</clustering>
</event>
<event>
 9    2  0.1592151E-004  0.1077756E+03  0.7546771E-02  0.1275878E+00
         21   -1    0    0  501  502  0.00000000000E+00  0.00000000000E+00  0.30737944063E+03  0.30737944063E+03  0.00000000000E+00 0. -1.
         -1   -1    0    0    0  501 -0.00000000000E+00 -0.00000000000E+00 -0.72512660982E+02  0.72512660982E+02  0.00000000000E+00 0.  1.
         23    2    1    2    0    0 -0.38206017256E+02  0.49604226534E+02  0.40030662775E+01  0.11284839850E+03  0.93800093067E+02 0.  0.
         24    2    1    2    0    0  0.35752683416E+02  0.95327615391E+00  0.17636363097E+03  0.19266400893E+03  0.68819524132E+02 0.  0.
        -11    1    4    4    0    0  0.13222445868E+02 -0.31686320556E+02  0.53608837428E+02  0.63661318204E+02  0.00000000000E+00 0.  1.
         12    1    4    4    0    0  0.22530237548E+02  0.32639596710E+02  0.12275479354E+03  0.12900269072E+03  0.00000000000E+00 0. -1.
        -11    1    3    3    0    0 -0.17216488913E+02 -0.20232269385E+02  0.25499355121E+02  0.36823488788E+02  0.00000000000E+00 0.  1.
         11    1    3    3    0    0 -0.20989528344E+02  0.69836495919E+02 -0.21496288844E+02  0.76024909709E+02  0.00000000000E+00 0. -1.
         -2    1    1    2    0  502  0.24533338402E+01 -0.50557502688E+02  0.54500082402E+02  0.74379694183E+02  0.00000000000E+00 0.  1.
<scales pt_clust_5="13000.00000" pt_clust_6="13000.00000" pt_clust_7="13000.00000" pt_clust_8="13000.00000" pt_clust_9="50.61699"></scales>
<clustering>
<clus scale="   50.617">  1  9  2 -1</clus>
<clus scale="   68.820">  5  6 -1 -1</clus>
<clus scale="   86.909">  1  5  2 -1</clus>
<clus scale="   93.800">  7  8 -1 -1</clus>
<clus scale="   50.617">  1  5  2 -1</clus>
</clustering>
</event>
<event>
 9    2  0.1592151E-004  0.1421430E+03  0.7546771E-02  0.1223452E+00
         21   -1    0    0  501  502  0.00000000000E+00  0.00000000000E+00  0.29733761223E+03  0.29733761223E+03  0.00000000000E+00 0.  1.
          2   -1    0    0  502    0 -0.00000000000E+00 -0.00000000000E+00 -0.77822797735E+02  0.77822797735E+02  0.00000000000E+00 0. -1.
         24    2    1    2    0    0 -0.74425837902E+02  0.36092779538E+02  0.76469134405E+02  0.13707863043E+03  0.78109719756E+02 0.  0.
         23    2    1    2    0    0  0.66625134701E+02  0.11140660535E+01  0.14473596105E+03  0.20002843042E+03  0.12092445923E+03 0.  0.
        -11    1    3    3    0    0 -0.37106523722E+02 -0.22287447106E+02  0.19949660096E+02  0.47661444996E+02  0.00000000000E+00 0.  1.
         12    1    3    3    0    0 -0.37319314181E+02  0.58380226644E+02  0.56519474309E+02  0.89417185429E+02  0.00000000000E+00 0. -1.
        -11    1    4    4    0    0  0.50159261422E+02  0.47294084933E+02  0.13270883494E+03  0.14954703891E+03  0.00000000000E+00 0.  1.
         11    1    4    4    0    0  0.16465873279E+02 -0.46180018879E+02  0.12027126112E+02  0.50481391513E+02  0.00000000000E+00 0. -1.
          1    1    1    2  501    0  0.78007032010E+01 -0.37206845591E+02 -0.16902809595E+01  0.38053349117E+02  0.00000000000E+00 0. -1.
<scales pt_clust_5="13000.00000" pt_clust_6="13000.00000" pt_clust_7="13000.00000" pt_clust_8="13000.00000" pt_clust_9="38.01581"></scales>
<clustering>
<clus scale="   38.016">  1  9  2 -1</clus>
<clus scale="   78.110">  5  6 -1 -1</clus>
<clus scale="  108.088">  2  5  1 -1</clus>
<clus scale="  120.924">  7  8 -1 -1</clus>
<clus scale="   38.016">  1  5  2 -1</clus>
</clustering>
</event>
<event>
 9    2  0.1592151E-004  0.1747665E+03  0.7546771E-02  0.1175326E+00
         21   -1    0    0  501  502  0.00000000000E+00  0.00000000000E+00  0.52045887859E+02  0.52045887859E+02  0.00000000000E+00 0. -1.
          2   -1    0    0  502    0 -0.00000000000E+00 -0.00000000000E+00 -0.98412470431E+03  0.98412470431E+03  0.00000000000E+00 0. -1.
         24    2    1    2    0    0 -0.56848109118E+02  0.12900792159E+03 -0.32987400807E+03  0.36702003838E+03  0.77537707142E+02 0.  0.
         23    2    1    2    0    0  0.11969093820E+03 -0.11086015292E+03 -0.26411271426E+03  0.32478907688E+03  0.95480492416E+02 0.  0.
        -13    1    3    3    0    0  0.44145039023E+01  0.32707168041E+02 -0.24765658530E+02  0.41262386363E+02  0.00000000000E+00 0.  1.
         14    1    3    3    0    0 -0.61262613020E+02  0.96300753544E+02 -0.30510834954E+03  0.32575765201E+03  0.00000000000E+00 0. -1.
        -11    1    4    4    0    0  0.35440127608E+01 -0.34094295211E+02 -0.11837732212E+03  0.12324029935E+03  0.00000000000E+00 0.  1.
         11    1    4    4    0    0  0.11614692544E+03 -0.76765857705E+02 -0.14573539214E+03  0.20154877752E+03  0.00000000000E+00 0. -1.
          1    1    1    2  501    0 -0.62842829086E+02 -0.18147768669E+02 -0.33809209412E+03  0.34436147691E+03  0.00000000000E+00 0. -1.
<scales pt_clust_5="13000.00000" pt_clust_6="13000.00000" pt_clust_7="13000.00000" pt_clust_8="13000.00000" pt_clust_9="65.41076"></scales>
<clustering>
<clus scale="   65.411">  1  9  2 -1</clus>
<clus scale="   77.538">  5  6 -1 -1</clus>
<clus scale="   95.480">  7  8 -1 -1</clus>
<clus scale="  165.647">  2  5  1 -1</clus>
<clus scale="   65.411">  1  5  2 -1</clus>
</clustering>
</event>
<event>
 9    2  0.1592151E-004  0.2635372E+03  0.7546771E-02  0.1105507E+00
         21   -1    0    0  501  502  0.00000000000E+00  0.00000000000E+00  0.25360337223E+03  0.25360337223E+03  0.00000000000E+00 0.  1.
          4   -1    0    0  502    0 -0.00000000000E+00 -0.00000000000E+00 -0.14231079087E+04  0.14231079087E+04  0.00000000000E+00 0. -1.
         23    2    1    2    0    0 -0.14892057216E+03 -0.19856870311E+03 -0.12562341602E+04  0.12837353769E+04  0.90804106711E+02 0.  0.
         24    2    1    2    0    0  0.11936200487E+03  0.21148233018E+03 -0.42704939844E+02  0.25958258744E+03  0.81162452112E+02 0.  0.
        -13    1    4    4    0    0  0.54701795998E+02  0.16604061044E+03 -0.45000893847E+02  0.18051828508E+03  0.00000000000E+00 0.  1.
         14    1    4    4    0    0  0.64660208868E+02  0.45441719741E+02  0.22959540026E+01  0.79064302366E+02  0.00000000000E+00 0. -1.
        -13    1    3    3    0    0 -0.79138210377E+02 -0.16977356902E+03 -0.95410820052E+03  0.97232112976E+03  0.00000000000E+00 0. -1.
         13    1    3    3    0    0 -0.69782361779E+02 -0.28795134084E+02 -0.30212595970E+03  0.31141424709E+03  0.00000000000E+00 0.  1.
          3    1    1    2  501    0  0.29558567291E+02 -0.12913627071E+02  0.12943456360E+03  0.13339331662E+03  0.00000000000E+00 0. -1.
<scales pt_clust_5="13000.00000" pt_clust_6="13000.00000" pt_clust_7="13000.00000" pt_clust_8="13000.00000" pt_clust_9="32.25633"></scales>
<clustering>
<clus scale="   32.256">  1  9  2 -1</clus>
<clus scale="   81.162">  5  6 -1 -1</clus>
<clus scale="   90.804">  7  8 -1 -1</clus>
<clus scale="  260.372">  1  5  2 -1</clus>
<clus scale="   32.256">  1  5  2 -1</clus>
</clustering>
</event>
<event>
 9    2  0.1592151E-004  0.1210335E+03  0.7546771E-02  0.1242492E+00
         21   -1    0    0  501  502  0.00000000000E+00  0.00000000000E+00  0.75113841188E+02  0.75113841188E+02  0.00000000000E+00 0. -1.
          2   -1    0    0  502    0 -0.00000000000E+00 -0.00000000000E+00 -0.24859737924E+03  0.24859737924E+03  0.00000000000E+00 0. -1.
         23    2    1    2    0    0 -0.85577775394E+02  0.19617160882E+02 -0.10894571175E+03  0.16426984009E+03  0.86064066911E+02 0.  0.
         24    2    1    2    0    0  0.74601746458E+02  0.68923244539E+01 -0.55527686115E+02  0.12936799259E+03  0.89665092826E+02 0.  0.
        -13    1    4    4    0    0  0.63323576425E+02 -0.26167610178E+02 -0.63634143873E+02  0.93508948343E+02  0.00000000000E+00 0.  1.
         14    1    4    4    0    0  0.11278170033E+02  0.33059934632E+02  0.81064577581E+01  0.35859044251E+02  0.00000000000E+00 0. -1.
        -11    1    3    3    0    0  0.15857669343E+02  0.14300032249E+02 -0.19966255546E+02  0.29233678521E+02  0.00000000000E+00 0.  1.
         11    1    3    3    0    0 -0.10143544474E+03  0.53171286326E+01 -0.88979456204E+02  0.13503616157E+03  0.00000000000E+00 0. -1.
          1    1    1    2  501    0  0.10976028936E+02 -0.26509485336E+02 -0.90101401855E+01  0.30073387740E+02  0.00000000000E+00 0. -1.
<scales pt_clust_5="13000.00000" pt_clust_6="13000.00000" pt_clust_7="13000.00000" pt_clust_8="13000.00000" pt_clust_9="28.69192"></scales>
<clustering>
<clus scale="   28.692">  1  9  2 -1</clus>
<clus scale="   86.064">  7  8 -1 -1</clus>
<clus scale="   89.665">  5  6 -1 -1</clus>
<clus scale="  118.390">  2  7  1 -1</clus>
<clus scale="   28.692">  1  5  2 -1</clus>
</clustering>
</event>
<event>
 9    2  0.1592151E-004  0.1023068E+03  0.7546771E-02  0.1280667E+00
          2   -1    0    0  502    0 -0.00000000000E+00  0.00000000000E+00  0.15048229832E+04  0.15048229832E+04  0.00000000000E+00 0. -1.
         21   -1    0    0  501  502  0.00000000000E+00 -0.00000000000E+00 -0.17408496915E+02  0.17408496915E+02  0.00000000000E+00 0. -1.
         24    2    1    2    0    0 -0.43460676778E+02 -0.14770056744E+02  0.10116803150E+04  0.10160475375E+04  0.82149581188E+02 0.  0.
         23    2    1    2    0    0  0.41147349976E+02 -0.39873400581E+02  0.38580104627E+03  0.40092604086E+03  0.92823760144E+02 0.  0.
        -13    1    3    3    0    0 -0.34622310037E+02  0.53685545301E+01  0.14812284774E+03  0.15221006456E+03  0.00000000000E+00 0.  1.
         14    1    3    3    0    0 -0.88383667405E+01 -0.20138611274E+02  0.86355746724E+03  0.86383747292E+03  0.00000000000E+00 0. -1.
        -13    1    4    4    0    0  0.39495956337E+02  0.23280981084E+02  0.16888155242E+03  0.17499403817E+03  0.00000000000E+00 0.  1.
         13    1    4    4    0    0  0.16513936390E+01 -0.63154381665E+02  0.21691949385E+03  0.22593200269E+03  0.00000000000E+00 0. -1.
          1    1    1    2  501    0  0.23133268019E+01  0.54643457325E+02  0.89933125011E+02  0.10525790176E+03  0.00000000000E+00 0. -1.
<scales pt_clust_5="13000.00000" pt_clust_6="13000.00000" pt_clust_7="13000.00000" pt_clust_8="13000.00000" pt_clust_9="54.69240"></scales>
<clustering>
<clus scale="   54.692">  2  9  1 -1</clus>
<clus scale="   82.150">  5  6 -1 -1</clus>
<clus scale="   92.731">  1  5  2 -1</clus>
<clus scale="   92.824">  7  8 -1 -1</clus>
<clus scale="   54.692">  2  5  1 -1</clus>
</clustering>
</event>
