<event>
 9    2  0.1033155E-004  0.9375650E+02  0.7546771E-02  0.1301117E+00
         21   -1    0    0  501  502  0.00000000000E+00  0.00000000000E+00  0.68370751963E+02  0.68370751963E+02  0.00000000000E+00 0.  1.
          2   -1    0    0  502    0 -0.00000000000E+00 -0.00000000000E+00 -0.23962385849E+03  0.23962385849E+03  0.00000000000E+00 0. -1.
         24    2    1    2    0    0  0.33194705145E+02 -0.12043863065E+02 -0.10858252913E+03  0.13868157061E+03  0.78711303562E+02 0.  0.
         23    2    1    2    0    0  0.22915305687E+02  0.27417684672E+02 -0.27423084384E+02  0.10129044455E+03  0.90724241152E+02 0.  0.
        -11    1    3    3    0    0  0.39083275038E+02  0.17653732616E+02 -0.97370695773E+02  0.10639647108E+03  0.00000000000E+00 0.  1.
         12    1    3    3    0    0 -0.58885698929E+01 -0.29697595682E+02 -0.11211833355E+02  0.32285099533E+02  0.00000000000E+00 0. -1.
        -11    1    4    4    0    0  0.20503192915E+02  0.38321456989E+01  0.31498083435E+02  0.37778241362E+02  0.00000000000E+00 0.  1.
         11    1    4    4    0    0  0.24121127722E+01  0.23585538973E+02 -0.58921167818E+02  0.63512203188E+02  0.00000000000E+00 0. -1.
          1    1    1    2  501    0 -0.56110010832E+02 -0.15373821607E+02 -0.35247493018E+02  0.68022595293E+02  0.00000000000E+00 0. -1.
<scales pt_clust_5="13000.00000" pt_clust_6="13000.00000" pt_clust_7="13000.00000" pt_clust_8="13000.00000" pt_clust_9="58.17807"></scales>
<clustering>
<clus scale="   58.178">  1  9  2 -1</clus>
<clus scale="   78.711">  5  6 -1 -1</clus>
<clus scale="   82.188">  2  5  1 -1</clus>
<clus scale="   90.724">  7  8 -1 -1</clus>
<clus scale="   58.178">  1  5  2 -1</clus>
</clustering>
</event>
<event>
 9    2  0.1033155E-004  0.1252133E+03  0.7546771E-02  0.1237811E+00
         21   -1    0    0  501  502  0.00000000000E+00  0.00000000000E+00  0.67301314791E+02  0.67301314791E+02  0.00000000000E+00 0. -1.
          2   -1    0    0  502    0 -0.00000000000E+00 -0.00000000000E+00 -0.91732329850E+03  0.91732329850E+03  0.00000000000E+00 0. -1.
         24    2    1    2    0    0  0.62797214130E+01  0.97998483113E+02 -0.71869462199E+03  0.72998715063E+03  0.81952076334E+02 0.  0.
         23    2    1    2    0    0  0.13649602427E+02 -0.46797038398E+02 -0.16114563547E+03  0.19212430134E+03  0.92561098114E+02 0.  0.
        -11    1    3    3    0    0 -0.52418580519E+01  0.33696498759E+02 -0.68500899636E+02  0.76519960503E+02  0.00000000000E+00 0.  1.
         12    1    3    3    0    0  0.11521579465E+02  0.64301984354E+02 -0.65019372235E+03  0.65346719012E+03  0.00000000000E+00 0. -1.
        -11    1    4    4    0    0  0.50791534840E+02 -0.11481173057E+02 -0.66169819662E+02  0.84202389398E+02  0.00000000000E+00 0. -1.
         11    1    4    4    0    0 -0.37141932413E+02 -0.35315865341E+02 -0.94975815811E+02  0.10792191194E+03  0.00000000000E+00 0.  1.
          1    1    1    2  501    0 -0.19929323840E+02 -0.51201444715E+02  0.29818273748E+02  0.62513161326E+02  0.00000000000E+00 0. -1.
<scales pt_clust_5="13000.00000" pt_clust_6="13000.00000" pt_clust_7="13000.00000" pt_clust_8="13000.00000" pt_clust_9="54.94330"></scales>
<clustering>
<clus scale="   54.943">  1  9  2 -1</clus>
<clus scale="   81.952">  5  6 -1 -1</clus>
<clus scale="   92.561">  7  8 -1 -1</clus>
<clus scale="  117.588">  2  5  1 -1</clus>
<clus scale="   54.943">  1  5  2 -1</clus>
</clustering>
</event>
<event>
 9    2  0.1033155E-004  0.1735550E+03  0.7546771E-02  0.1179247E+00
          4   -1    0    0  502    0 -0.00000000000E+00  0.00000000000E+00  0.42906666770E+03  0.42906666770E+03  0.00000000000E+00 0. -1.
         21   -1    0    0  501  502  0.00000000000E+00 -0.00000000000E+00 -0.14869507082E+03  0.14869507082E+03  0.00000000000E+00 0. -1.
         23    2    1    2    0    0  0.10995148165E+03  0.62088133537E+02  0.63780584109E+02  0.16743260670E+03  0.89562549289E+02 0.  0.
         24    2    1    2    0    0 -0.11208251319E+03  0.10488495463E+03  0.14354054129E+03  0.22806304926E+03  0.88574962454E+02 0.  0.
        -11    1    4    4    0    0 -0.35504497268E+02  0.51352539741E+01 -0.17393886792E+01  0.35916091555E+02  0.00000000000E+00 0.  1.
         12    1    4    4    0    0 -0.76578015919E+02  0.99749700655E+02  0.14527992997E+03  0.19214695771E+03  0.00000000000E+00 0. -1.
        -11    1    3    3    0    0  0.58769076571E+02  0.58566806907E+02  0.78333297074E+02  0.11410512987E+03  0.00000000000E+00 0.  1.
         11    1    3    3    0    0  0.51182405074E+02  0.35213266302E+01 -0.14552712965E+02  0.53327476830E+02  0.00000000000E+00 0. -1.
          3    1    1    2  501    0  0.21310315417E+01 -0.16697308817E+03  0.73050471474E+02  0.18226608255E+03  0.00000000000E+00 0. -1.
<scales pt_clust_5="13000.00000" pt_clust_6="13000.00000" pt_clust_7="13000.00000" pt_clust_8="13000.00000" pt_clust_9="149.25079"></scales>
<clustering>
<clus scale="   88.575">  5  6 -1 -1</clus>
<clus scale="   89.563">  7  8 -1 -1</clus>
<clus scale="  154.809">  1  7  2 -1</clus>
<clus scale="  149.251">  2  9  1 -1</clus>
<clus scale="  149.251">  2  5  1 -1</clus>
</clustering>
</event>
<event>
 9    2  0.1033155E-004  0.9633264E+02  0.7546771E-02  0.1291402E+00
         21   -1    0    0  501  502  0.00000000000E+00  0.00000000000E+00  0.43516569115E+02  0.43516569115E+02  0.00000000000E+00 0. -1.
          2   -1    0    0  502    0 -0.00000000000E+00 -0.00000000000E+00 -0.34607531875E+03  0.34607531875E+03  0.00000000000E+00 0. -1.
         24    2    1    2    0    0  0.19783790831E+02  0.29788274257E+02 -0.19743930673E+03  0.21718957126E+03  0.83128156253E+02 0.  0.
         23    2    1    2    0    0 -0.73623973878E+00 -0.41570386533E+02 -0.11187561183E+03  0.14900844581E+03  0.89211688220E+02 0.  0.
        -13    1    3    3    0    0 -0.21564376770E+02  0.63807528433E+00 -0.11412733515E+02  0.24406555919E+02  0.00000000000E+00 0.  1.
         14    1    3    3    0    0  0.41348167602E+02  0.29150198973E+02 -0.18602657321E+03  0.19278301534E+03  0.00000000000E+00 0. -1.
        -11    1    4    4    0    0  0.25392906381E+02 -0.60052180757E+02 -0.63563659318E+02  0.91057140819E+02  0.00000000000E+00 0. -1.
         11    1    4    4    0    0 -0.26129146120E+02  0.18481794225E+02 -0.48311952509E+02  0.57951304989E+02  0.00000000000E+00 0.  1.
          1    1    1    2  501    0 -0.19047551093E+02  0.11782112276E+02  0.67561689172E+01  0.23393870794E+02  0.00000000000E+00 0. -1.
<scales pt_clust_5="13000.00000" pt_clust_6="13000.00000" pt_clust_7="13000.00000" pt_clust_8="13000.00000" pt_clust_9="22.39704"></scales>
<clustering>
<clus scale="   22.397">  1  9  2 -1</clus>
<clus scale="   83.128">  5  6 -1 -1</clus>
<clus scale="   89.212">  7  8 -1 -1</clus>
<clus scale="   90.728">  2  5  1 -1</clus>
<clus scale="   22.397">  1  5  2 -1</clus>
</clustering>
</event>
<event>
 9    2  0.1033155E-004  0.9536974E+02  0.7546771E-02  0.1294025E+00
         21   -1    0    0  501  502  0.00000000000E+00  0.00000000000E+00  0.11072932055E+03  0.11072932055E+03  0.00000000000E+00 0.  1.
          2   -1    0    0  502    0 -0.00000000000E+00 -0.00000000000E+00 -0.15761121216E+03  0.15761121216E+03  0.00000000000E+00 0. -1.
         24    2    1    2    0    0  0.31430071824E+02 -0.10720433192E+02 -0.94671801251E+02  0.13022998353E+03  0.83032051376E+02 0.  0.
         23    2    1    2    0    0 -0.32317615747E+02 -0.96999229831E+01  0.11690924011E+02  0.96626631288E+02  0.89785919700E+02 0.  0.
        -13    1    3    3    0    0  0.56570961884E+02  0.79750779205E+01 -0.51706525813E+02  0.77054788353E+02  0.00000000000E+00 0.  1.
         14    1    3    3    0    0 -0.25140890061E+02 -0.18695511112E+02 -0.42965275437E+02  0.53175195178E+02  0.00000000000E+00 0. -1.
        -13    1    4    4    0    0  0.26218136060E+02 -0.95274246952E+01 -0.15687788365E+02  0.32004205717E+02  0.00000000000E+00 0. -1.
         13    1    4    4    0    0 -0.58535751807E+02 -0.17249828790E+00  0.27378712376E+02  0.64622425570E+02  0.00000000000E+00 0.  1.
          1    1    1    2  501    0  0.88754392332E+00  0.20420356175E+02  0.36098985626E+02  0.41483917893E+02  0.00000000000E+00 0. -1.
<scales pt_clust_5="13000.00000" pt_clust_6="13000.00000" pt_clust_7="13000.00000" pt_clust_8="13000.00000" pt_clust_9="20.43964"></scales>
<clustering>
<clus scale="   20.440">  1  9  2 -1</clus>
<clus scale="   83.032">  5  6 -1 -1</clus>
<clus scale="   89.040">  2  5  1 -1</clus>
<clus scale="   89.786">  7  8 -1 -1</clus>
<clus scale="   20.440">  1  5  2 -1</clus>
</clustering>
</event>
<event>
 9    2  0.1033155E-004  0.9933460E+02  0.7546771E-02  0.1281844E+00
          2   -1    0    0  502    0 -0.00000000000E+00  0.00000000000E+00  0.34567015475E+03  0.34567015475E+03  0.00000000000E+00 0. -1.
         21   -1    0    0  501  502  0.00000000000E+00 -0.00000000000E+00 -0.51859266876E+02  0.51859266876E+02  0.00000000000E+00 0.  1.
         23    2    1    2    0    0  0.44823632468E+01  0.44767844881E+02  0.24223279549E+03  0.26276848379E+03  0.91358072163E+02 0.  0.
         24    2    1    2    0    0  0.36973852230E+01 -0.18478207269E+02  0.24553668537E+02  0.96181502701E+02  0.91065273413E+02 0.  0.
        -11    1    4    4    0    0  0.60445970844E+01 -0.19629664629E+02 -0.32836897158E+02  0.38731417510E+02  0.00000000000E+00 0.  1.
         12    1    4    4    0    0 -0.23472118614E+01  0.11514573598E+01  0.57390565695E+02  0.57450085191E+02  0.00000000000E+00 0. -1.
        -11    1    3    3    0    0 -0.27937358686E+02  0.59563994150E+02  0.16807123417E+03  0.18048907215E+03  0.00000000000E+00 0.  1.
         11    1    3    3    0    0  0.32419721933E+02 -0.14796149270E+02  0.74161561314E+02  0.82279411641E+02  0.00000000000E+00 0. -1.
          1    1    1    2  501    0 -0.81797484698E+01 -0.26289637611E+02  0.27024423846E+02  0.38579435130E+02  0.00000000000E+00 0. -1.
<scales pt_clust_5="13000.00000" pt_clust_6="13000.00000" pt_clust_7="13000.00000" pt_clust_8="13000.00000" pt_clust_9="27.53277"></scales>
<clustering>
<clus scale="   27.533">  2  9  1 -1</clus>
<clus scale="   91.065">  5  6 -1 -1</clus>
<clus scale="   91.358">  7  8 -1 -1</clus>
<clus scale="   99.065">  2  5  1 -1</clus>
<clus scale="   27.533">  2  5  1 -1</clus>
</clustering>
</event>
<event>
 9    2  0.1033155E-004  0.2112737E+03  0.7546771E-02  0.1141315E+00
         21   -1    0    0  501  502  0.00000000000E+00  0.00000000000E+00  0.30602563604E+03  0.30602563604E+03  0.00000000000E+00 0.  1.
          2   -1    0    0  502    0 -0.00000000000E+00 -0.00000000000E+00 -0.24388444070E+03  0.24388444070E+03  0.00000000000E+00 0. -1.
         23    2    1    2    0    0 -0.18278979646E+03  0.13077458815E+03 -0.66911868006E+02  0.25095132728E+03  0.89360326705E+02 0.  0.
         24    2    1    2    0    0  0.14612472973E+03 -0.41540254305E+02  0.67193678493E+02  0.18435649403E+03  0.79964348900E+02 0.  0.
        -13    1    4    4    0    0  0.63829143109E+02  0.63164956626E+00 -0.90955834186E+01  0.64477035671E+02  0.00000000000E+00 0.  1.
         14    1    4    4    0    0  0.82295586626E+02 -0.42171903871E+02  0.76289261911E+02  0.11987945836E+03  0.00000000000E+00 0. -1.
        -11    1    3    3    0    0 -0.41212173391E+02 -0.85916366684E+01 -0.27674230414E+01  0.42189075441E+02  0.00000000000E+00 0.  1.
         11    1    3    3    0    0 -0.14157762307E+03  0.13936622482E+03 -0.64144444964E+02  0.20876225184E+03  0.00000000000E+00 0. -1.
          1    1    1    2  501    0  0.36665066726E+02 -0.89234333845E+02  0.61859384846E+02  0.11460225542E+03  0.00000000000E+00 0. -1.
<scales pt_clust_5="13000.00000" pt_clust_6="13000.00000" pt_clust_7="13000.00000" pt_clust_8="13000.00000" pt_clust_9="96.47328"></scales>
<clustering>
<clus scale="   79.964">  5  6 -1 -1</clus>
<clus scale="   89.360">  7  8 -1 -1</clus>
<clus scale="   96.473">  1  9  2 -1</clus>
<clus scale="  207.474">  1  5  2 -1</clus>
<clus scale="   96.473">  1  5  2 -1</clus>
</clustering>
</event>
<event>
 9    2  0.1033155E-004  0.1177549E+03  0.7546771E-02  0.1247953E+00
         21   -1    0    0  501  502  0.00000000000E+00  0.00000000000E+00  0.27069581227E+03  0.27069581227E+03  0.00000000000E+00 0. -1.
          4   -1    0    0  502    0 -0.00000000000E+00 -0.00000000000E+00 -0.18084376545E+03  0.18084376545E+03  0.00000000000E+00 0. -1.
         24    2    1    2    0    0  0.19161215537E+02  0.72401613373E+02 -0.81362777086E+02  0.13750598469E+03  0.81724222419E+02 0.  0.
         23    2    1    2    0    0 -0.98689516175E+01 -0.94147621107E+02 -0.13186091117E+02  0.12812250545E+03  0.85324865300E+02 0.  0.
        -13    1    3    3    0    0  0.30309927592E+02  0.18605093829E+01 -0.15508239999E+01  0.30406549638E+02  0.00000000000E+00 0.  1.
         14    1    3    3    0    0 -0.11148712055E+02  0.70541103990E+02 -0.79811953086E+02  0.10709943505E+03  0.00000000000E+00 0. -1.
        -11    1    4    4    0    0  0.57627078360E+01 -0.56446945345E+02 -0.48122146999E+02  0.74398974940E+02  0.00000000000E+00 0. -1.
         11    1    4    4    0    0 -0.15631659453E+02 -0.37700675762E+02  0.34936055882E+02  0.53723530513E+02  0.00000000000E+00 0.  1.
          3    1    1    2  501    0 -0.92922639193E+01  0.21746007734E+02  0.18440091502E+03  0.18591108757E+03  0.00000000000E+00 0. -1.
<scales pt_clust_5="13000.00000" pt_clust_6="13000.00000" pt_clust_7="13000.00000" pt_clust_8="13000.00000" pt_clust_9="23.64815"></scales>
<clustering>
<clus scale="   23.648">  1  9  2 -1</clus>
<clus scale="   81.724">  5  6 -1 -1</clus>
<clus scale="   85.325">  7  8 -1 -1</clus>
<clus scale="  115.173">  2  5  1 -1</clus>
<clus scale="   23.648">  1  5  2 -1</clus>
</clustering>
</event>
<event>
 9    2  0.1033155E-004  0.9533365E+02  0.7546771E-02  0.1298054E+00
         -1   -1    0    0    0  501 -0.00000000000E+00  0.00000000000E+00  0.37488428800E+03  0.37488428800E+03  0.00000000000E+00 0.  1.
         21   -1    0    0  501  502  0.00000000000E+00 -0.00000000000E+00 -0.37188769667E+02  0.37188769667E+02  0.00000000000E+00 0.  1.
         24    2    1    2    0    0 -0.48417950012E+02 -0.54859922050E+01  0.16519852095E+03  0.18898609899E+03  0.77786890260E+02 0.  0.
         23    2    1    2    0    0 -0.68989605651E+00 -0.45296415657E+01  0.10641099906E+03  0.14014569849E+03  0.91085248399E+02 0.  0.
        -11    1    3    3    0    0 -0.36826717852E+02  0.33392390619E+02  0.10766201549E+03  0.11858485771E+03  0.00000000000E+00 0.  1.
         12    1    3    3    0    0 -0.11591232160E+02 -0.38878382824E+02  0.57536505455E+02  0.70401241282E+02  0.00000000000E+00 0. -1.
        -13    1    4    4    0    0 -0.21275216418E+02 -0.42707008171E+02  0.52236555195E+02  0.70747304395E+02  0.00000000000E+00 0.  1.
         13    1    4    4    0    0  0.20585320362E+02  0.38177366605E+02  0.54174443863E+02  0.69398394096E+02  0.00000000000E+00 0. -1.
         -2    1    1    2    0  502  0.49107846068E+02  0.10015633771E+02  0.66085998331E+02  0.82941260182E+02  0.00000000000E+00 0.  1.
<scales pt_clust_5="13000.00000" pt_clust_6="13000.00000" pt_clust_7="13000.00000" pt_clust_8="13000.00000" pt_clust_9="50.11879"></scales>
<clustering>
<clus scale="   50.119">  2  9  1 -1</clus>
<clus scale="   77.787">  5  6 -1 -1</clus>
<clus scale="   82.721">  1  5  2 -1</clus>
<clus scale="   91.085">  7  8 -1 -1</clus>
<clus scale="   50.119">  2  5  1 -1</clus>
</clustering>
</event>
<event>
 9    2  0.1033155E-004  0.1173251E+03  0.7546771E-02  0.1251719E+00
         21   -1    0    0  501  502  0.00000000000E+00  0.00000000000E+00  0.31517101624E+03  0.31517101624E+03  0.00000000000E+00 0. -1.
          2   -1    0    0  502    0 -0.00000000000E+00 -0.00000000000E+00 -0.73776686448E+02  0.73776686448E+02  0.00000000000E+00 0. -1.
         24    2    1    2    0    0  0.97812925083E+02 -0.38214810699E+02  0.72064815247E+02  0.15008653387E+03  0.79403337351E+02 0.  0.
         23    2    1    2    0    0 -0.30860790602E+02  0.21629689669E+02  0.10752957864E+03  0.14624968665E+03  0.91684942558E+02 0.  0.
        -13    1    3    3    0    0  0.65551637705E+02 -0.31561832732E+02  0.87427762253E+02  0.11373996705E+03  0.00000000000E+00 0.  1.
         14    1    3    3    0    0  0.32261287378E+02 -0.66529779665E+01 -0.15362947006E+02  0.36346566823E+02  0.00000000000E+00 0. -1.
        -11    1    4    4    0    0 -0.21662338803E+02  0.52199228388E+02  0.33666986777E+02  0.65783602557E+02  0.00000000000E+00 0. -1.
         11    1    4    4    0    0 -0.91984517996E+01 -0.30569538720E+02  0.73862591863E+02  0.80466084096E+02  0.00000000000E+00 0.  1.
          1    1    1    2  501    0 -0.66952134481E+02  0.16585121030E+02  0.61799935909E+02  0.92611482169E+02  0.00000000000E+00 0. -1.
<scales pt_clust_5="13000.00000" pt_clust_6="13000.00000" pt_clust_7="13000.00000" pt_clust_8="13000.00000" pt_clust_9="68.97575"></scales>
<clustering>
<clus scale="   68.976">  1  9  2 -1</clus>
<clus scale="   79.403">  5  6 -1 -1</clus>
<clus scale="   91.685">  7  8 -1 -1</clus>
<clus scale="  108.000">  2  5  1 -1</clus>
<clus scale="   68.976">  1  5  2 -1</clus>
</clustering>
</event>
<event>
 9    2  0.1033155E-004  0.1751085E+03  0.7546771E-02  0.1174002E+00
         -1   -1    0    0    0  501 -0.00000000000E+00  0.00000000000E+00  0.52871395629E+03  0.52871395629E+03  0.00000000000E+00 0.  1.
         21   -1    0    0  501  502  0.00000000000E+00 -0.00000000000E+00 -0.12143650059E+03  0.12143650059E+03  0.00000000000E+00 0. -1.
         23    2    1    2    0    0  0.10156327073E+02  0.15397110226E+03  0.31071568013E+03  0.35867565490E+03  0.91069974365E+02 0.  0.
         24    2    1    2    0    0 -0.33404535373E+02 -0.12840489471E+03 -0.32048886320E+02  0.15830268586E+03  0.80180604051E+02 0.  0.
        -11    1    4    4    0    0 -0.37897464305E+02 -0.17735934536E+02  0.34720033281E+01  0.41986140352E+02  0.00000000000E+00 0.  1.
         12    1    4    4    0    0  0.44929289313E+01 -0.11066896018E+03 -0.35520889648E+02  0.11631654551E+03  0.00000000000E+00 0. -1.
        -13    1    3    3    0    0 -0.40175926447E+02  0.58101269326E+02  0.13217085421E+03  0.14986326190E+03  0.00000000000E+00 0. -1.
         13    1    3    3    0    0  0.50332253520E+02  0.95869832933E+02  0.17854482592E+03  0.20881239301E+03  0.00000000000E+00 0.  1.
         -2    1    1    2    0  502  0.23248208300E+02 -0.25566207545E+02  0.12861066189E+03  0.13317211611E+03  0.00000000000E+00 0.  1.
<scales pt_clust_5="13000.00000" pt_clust_6="13000.00000" pt_clust_7="13000.00000" pt_clust_8="13000.00000" pt_clust_9="34.55592"></scales>
<clustering>
<clus scale="   34.556">  2  9  1 -1</clus>
<clus scale="   80.181">  5  6 -1 -1</clus>
<clus scale="   91.070">  7  8 -1 -1</clus>
<clus scale="  169.700">  2  5  1 -1</clus>
<clus scale="   34.556">  2  5  1 -1</clus>
</clustering>
</event>
<event>
 9    2  0.1033155E-004  0.2113988E+03  0.7546771E-02  0.1140463E+00
         21   -1    0    0  501  502  0.00000000000E+00  0.00000000000E+00  0.46266030048E+02  0.46266030048E+02  0.00000000000E+00 0.  1.
          2   -1    0    0  502    0 -0.00000000000E+00 -0.00000000000E+00 -0.62124031889E+03  0.62124031889E+03  0.00000000000E+00 0. -1.
         24    2    1    2    0    0  0.19266569400E+02  0.60811254341E+02 -0.23360773564E+03  0.25516483374E+03  0.80419580193E+02 0.  0.
         23    2    1    2    0    0  0.12636223828E+02  0.57077845913E+02 -0.18631076512E+03  0.21496389338E+03  0.89890041778E+02 0.  0.
        -11    1    3    3    0    0  0.47054577682E+02  0.52854963970E+02 -0.19090934731E+03  0.20360294543E+03  0.00000000000E+00 0.  1.
         12    1    3    3    0    0 -0.27788008282E+02  0.79562903710E+01 -0.42698388330E+02  0.51561888316E+02  0.00000000000E+00 0. -1.
        -11    1    4    4    0    0  0.27870982159E+02  0.72699593472E+02 -0.10463967935E+03  0.13042808376E+03  0.00000000000E+00 0.  1.
         11    1    4    4    0    0 -0.15234758331E+02 -0.15621747559E+02 -0.81671085772E+02  0.84535809627E+02  0.00000000000E+00 0. -1.
          1    1    1    2  501    0 -0.31902793228E+02 -0.11788910025E+03 -0.15505578808E+03  0.19737762181E+03  0.00000000000E+00 0. -1.
<scales pt_clust_5="13000.00000" pt_clust_6="13000.00000" pt_clust_7="13000.00000" pt_clust_8="13000.00000" pt_clust_9="122.12955"></scales>
<clustering>
<clus scale="   80.420">  5  6 -1 -1</clus>
<clus scale="   89.890">  7  8 -1 -1</clus>
<clus scale="   92.712">  5  7 -1 -1</clus>
<clus scale="  122.130">  1  9  2 -1</clus>
<clus scale="  122.130">  1  5  2 -1</clus>
</clustering>
</event>
<event>
 9    2  0.1033155E-004  0.1025170E+03  0.7546771E-02  0.1278969E+00
         21   -1    0    0  501  502  0.00000000000E+00  0.00000000000E+00  0.16361785150E+03  0.16361785150E+03  0.00000000000E+00 0. -1.
          2   -1    0    0  502    0 -0.00000000000E+00 -0.00000000000E+00 -0.51429983154E+03  0.51429983154E+03  0.00000000000E+00 0. -1.
         24    2    1    2    0    0  0.40932190782E+02 -0.26058845158E+02 -0.46159393222E+03  0.47131121759E+03  0.81919459908E+02 0.  0.
         23    2    1    2    0    0 -0.66978856194E+02 -0.19302809963E+02  0.45462007621E+02  0.12282219618E+03  0.90331235395E+02 0.  0.
        -11    1    3    3    0    0  0.39191928410E+02 -0.12975060955E+02 -0.85092543799E+02  0.94578541274E+02  0.00000000000E+00 0.  1.
         12    1    3    3    0    0  0.17402623715E+01 -0.13083784202E+02 -0.37650138842E+03  0.37673267632E+03  0.00000000000E+00 0. -1.
        -11    1    4    4    0    0 -0.73059711609E+02  0.12361958311E+02  0.51207694040E+02  0.90070902086E+02  0.00000000000E+00 0. -1.
         11    1    4    4    0    0  0.60808554152E+01 -0.31664768274E+02 -0.57456864188E+01  0.32751294094E+02  0.00000000000E+00 0.  1.
          1    1    1    2  501    0  0.26046665412E+02  0.45361655121E+02  0.65449944563E+02  0.83784269273E+02  0.00000000000E+00 0. -1.
<scales pt_clust_5="13000.00000" pt_clust_6="13000.00000" pt_clust_7="13000.00000" pt_clust_8="13000.00000" pt_clust_9="52.30782"></scales>
<clustering>
<clus scale="   52.308">  1  9  2 -1</clus>
<clus scale="   81.919">  5  6 -1 -1</clus>
<clus scale="   90.331">  7  8 -1 -1</clus>
<clus scale="   95.188">  2  5  1 -1</clus>
<clus scale="   52.308">  1  5  2 -1</clus>
</clustering>
</event>
<event>
 9    2  0.1033155E-004  0.1165678E+03  0.7546771E-02  0.1252202E+00
         21   -1    0    0  501  502  0.00000000000E+00  0.00000000000E+00  0.75601222912E+03  0.75601222912E+03  0.00000000000E+00 0. -1.
         -3   -1    0    0    0  501 -0.00000000000E+00 -0.00000000000E+00 -0.33524202650E+02  0.33524202650E+02  0.00000000000E+00 0.  1.
         24    2    1    2    0    0 -0.59335922232E+02  0.27040574928E+02  0.13399189264E+03  0.16989124770E+03  0.81592060838E+02 0.  0.
         23    2    1    2    0    0  0.92866065631E+02  0.42263792897E+01  0.29401289057E+03  0.32161452541E+03  0.91380275253E+02 0.  0.
        -11    1    3    3    0    0 -0.26097986312E+02  0.33963732301E+02  0.13807204555E+02  0.45003098771E+02  0.00000000000E+00 0.  1.
         12    1    3    3    0    0 -0.33237935920E+02 -0.69231573731E+01  0.12018468809E+03  0.12488814893E+03  0.00000000000E+00 0. -1.
        -13    1    4    4    0    0  0.60212468828E+02  0.47019338260E+02  0.16535590335E+03  0.18215085601E+03  0.00000000000E+00 0. -1.
         13    1    4    4    0    0  0.32653596803E+02 -0.42792958970E+02  0.12865698722E+03  0.13946366940E+03  0.00000000000E+00 0.  1.
         -4    1    1    2    0  502 -0.33530143399E+02 -0.31266954217E+02  0.29448324326E+03  0.29803065866E+03  0.00000000000E+00 0.  1.
<scales pt_clust_5="13000.00000" pt_clust_6="13000.00000" pt_clust_7="13000.00000" pt_clust_8="13000.00000" pt_clust_9="45.84641"></scales>
<clustering>
<clus scale="   45.846">  1  9  2 -1</clus>
<clus scale="   81.592">  5  6 -1 -1</clus>
<clus scale="   91.380">  7  8 -1 -1</clus>
<clus scale="  109.064">  2  5  1 -1</clus>
<clus scale="   45.846">  1  5  2 -1</clus>
</clustering>
</event>
<event>
 9    2  0.1033155E-004  0.9185900E+02  0.7546771E-02  0.1304457E+00
          2   -1    0    0  502    0 -0.00000000000E+00  0.00000000000E+00  0.49458718153E+03  0.49458718153E+03  0.00000000000E+00 0. -1.
         21   -1    0    0  501  502  0.00000000000E+00 -0.00000000000E+00 -0.36465578079E+02  0.36465578079E+02  0.00000000000E+00 0. -1.
         24    2    1    2    0    0 -0.31504093090E+01  0.12476082804E+02  0.36701777475E+03  0.37594761127E+03  0.80429980180E+02 0.  0.
         23    2    1    2    0    0  0.20272945376E+01 -0.38998987949E+02  0.77767318704E+02  0.12539675924E+03  0.90285992189E+02 0.  0.
        -11    1    3    3    0    0  0.20552786682E+02  0.82789200864E+01  0.26339123300E+02  0.34419572548E+02  0.00000000000E+00 0.  1.
         12    1    3    3    0    0 -0.23703195991E+02  0.41971627181E+01  0.34067865145E+03  0.34152803872E+03  0.00000000000E+00 0. -1.
        -11    1    4    4    0    0 -0.18189010607E+02 -0.63811948498E+02  0.53299627807E+02  0.85109665740E+02  0.00000000000E+00 0. -1.
         11    1    4    4    0    0  0.20216305144E+02  0.24812960549E+02  0.24467690897E+02  0.40287093501E+02  0.00000000000E+00 0.  1.
          1    1    1    2  501    0  0.11231147714E+01  0.26522905145E+02  0.13336509992E+02  0.29708389099E+02  0.00000000000E+00 0. -1.
<scales pt_clust_5="13000.00000" pt_clust_6="13000.00000" pt_clust_7="13000.00000" pt_clust_8="13000.00000" pt_clust_9="26.54667"></scales>
<clustering>
<clus scale="   26.547">  2  9  1 -1</clus>
<clus scale="   80.430">  5  6 -1 -1</clus>
<clus scale="   82.192">  1  5  2 -1</clus>
<clus scale="   90.286">  7  8 -1 -1</clus>
<clus scale="   26.547">  2  5  1 -1</clus>
</clustering>
</event>
<event>
 9    2  0.1033155E-004  0.4560964E+03  0.7546771E-02  0.1088515E+00
         21   -1    0    0  501  502  0.00000000000E+00  0.00000000000E+00  0.15038649677E+03  0.15038649677E+03  0.00000000000E+00 0. -1.
          2   -1    0    0  502    0 -0.00000000000E+00 -0.00000000000E+00 -0.17719233439E+04  0.17719233439E+04  0.00000000000E+00 0. -1.
         24    2    1    2    0    0  0.38602596065E+01 -0.34213679512E+01 -0.37588533794E+03  0.38394462156E+03  0.78083786936E+02 0.  0.
         23    2    1    2    0    0  0.38493949041E+03 -0.22074452279E+03 -0.64890530243E+03  0.79169151027E+03  0.93759267818E+02 0.  0.
        -13    1    3    3    0    0  0.40155920717E+02 -0.24228807983E+01 -0.23707757241E+03  0.24046651255E+03  0.00000000000E+00 0.  1.
         14    1    3    3    0    0 -0.36295661110E+02 -0.99848715283E+00 -0.13880776553E+03  0.14347810901E+03  0.00000000000E+00 0. -1.
        -13    1    4    4    0    0  0.89554132638E+02 -0.92580476655E+01 -0.13886011541E+03  0.16549255503E+03  0.00000000000E+00 0.  1.
         13    1    4    4    0    0  0.29538535778E+03 -0.21148647513E+03 -0.51004518701E+03  0.62619895524E+03  0.00000000000E+00 0. -1.
          1    1    1    2  501    0 -0.38879975002E+03  0.22416589074E+03 -0.59674620679E+03  0.74667370886E+03  0.00000000000E+00 0. -1.
<scales pt_clust_5="13000.00000" pt_clust_6="13000.00000" pt_clust_7="13000.00000" pt_clust_8="13000.00000" pt_clust_9="446.35538"></scales>
<clustering>
<clus scale="   78.084">  5  6 -1 -1</clus>
<clus scale="   78.254">  2  5  1 -1</clus>
<clus scale="   93.759">  7  8 -1 -1</clus>
<clus scale="  446.355">  1  9  2 -1</clus>
<clus scale="  446.355">  1  5  2 -1</clus>
</clustering>
</event>
<event>
 9    2  0.1033155E-004  0.1757234E+03  0.7546771E-02  0.1192312E+00
         21   -1    0    0  501  502  0.00000000000E+00  0.00000000000E+00  0.67684572609E+03  0.67684572609E+03  0.00000000000E+00 0. -1.
          2   -1    0    0  502    0 -0.00000000000E+00 -0.00000000000E+00 -0.14376145173E+03  0.14376145173E+03  0.00000000000E+00 0. -1.
         23    2    1    2    0    0 -0.50426771404E+02 -0.36363523638E+02 -0.65777699851E+02  0.12946972387E+03  0.92577202790E+02 0.  0.
         24    2    1    2    0    0 -0.51434333868E+02  0.15866890548E+03  0.37280454216E+03  0.41466638173E+03  0.71719378198E+02 0.  0.
        -13    1    4    4    0    0  0.29276367497E+01  0.61045917416E+02  0.19784737010E+03  0.20707186420E+03  0.00000000000E+00 0.  1.
         14    1    4    4    0    0 -0.54361970618E+02  0.97622988065E+02  0.17495717206E+03  0.20759451752E+03  0.00000000000E+00 0. -1.
        -11    1    3    3    0    0  0.18956521591E+02  0.15275520209E+02 -0.20597300571E+02  0.31889497007E+02  0.00000000000E+00 0.  1.
         11    1    3    3    0    0 -0.69383292995E+02 -0.51639043847E+02 -0.45180399280E+02  0.97580226867E+02  0.00000000000E+00 0. -1.
          1    1    1    2  501    0  0.10186110527E+03 -0.12230538184E+03  0.22605743204E+03  0.27647107223E+03  0.00000000000E+00 0. -1.
<scales pt_clust_5="13000.00000" pt_clust_6="13000.00000" pt_clust_7="13000.00000" pt_clust_8="13000.00000" pt_clust_9="160.42157"></scales>
<clustering>
<clus scale="   71.719">  5  6 -1 -1</clus>
<clus scale="   92.577">  7  8 -1 -1</clus>
<clus scale="  111.515">  2  7  1 -1</clus>
<clus scale="  160.422">  1  9  2 -1</clus>
<clus scale="  160.422">  1  5  2 -1</clus>
</clustering>
</event>
<event>
 9    2  0.1033155E-004  0.1230083E+03  0.7546771E-02  0.1247005E+00
         -1   -1    0    0    0  501 -0.00000000000E+00  0.00000000000E+00  0.86250263096E+02  0.86250263096E+02  0.00000000000E+00 0.  1.
         21   -1    0    0  501  502  0.00000000000E+00 -0.00000000000E+00 -0.34316619929E+03  0.34316619929E+03  0.00000000000E+00 0.  1.
         24    2    1    2    0    0 -0.73939205299E+02  0.43253176800E+02  0.10758865609E+02  0.10729388673E+03  0.63705427997E+02 0.  0.
         23    2    1    2    0    0  0.24504016297E+02 -0.73841204446E+02 -0.17628980643E+03  0.21381429930E+03  0.92657910875E+02 0.  0.
        -11    1    3    3    0    0 -0.80968703363E+02  0.39794967779E+02  0.22682216978E+02  0.93027164591E+02  0.00000000000E+00 0.  1.
         12    1    3    3    0    0  0.70294980638E+01  0.34582090207E+01 -0.11923351368E+02  0.14266722136E+02  0.00000000000E+00 0. -1.
        -13    1    4    4    0    0  0.27272862784E+02 -0.99565944344E+01 -0.13409683498E+03  0.13720387738E+03  0.00000000000E+00 0.  1.
         13    1    4    4    0    0 -0.27688464868E+01 -0.63884610011E+02 -0.42192971445E+02  0.76610421919E+02  0.00000000000E+00 0. -1.
         -2    1    1    2    0  502  0.49435189002E+02  0.30588027646E+02 -0.91384995374E+02  0.10830827635E+03  0.00000000000E+00 0.  1.
<scales pt_clust_5="13000.00000" pt_clust_6="13000.00000" pt_clust_7="13000.00000" pt_clust_8="13000.00000" pt_clust_9="58.13317"></scales>
<clustering>
<clus scale="   58.133">  2  9  1 -1</clus>
<clus scale="   63.705">  5  6 -1 -1</clus>
<clus scale="   92.658">  7  8 -1 -1</clus>
<clus scale="  102.975">  1  5  2 -1</clus>
<clus scale="   58.133">  2  5  1 -1</clus>
</clustering>
</event>
<event>
 9    2  0.1033155E-004  0.1363550E+03  0.7546771E-02  0.1237205E+00
         21   -1    0    0  501  502  0.00000000000E+00  0.00000000000E+00  0.12894637223E+03  0.12894637223E+03  0.00000000000E+00 0. -1.
          2   -1    0    0  502    0 -0.00000000000E+00 -0.00000000000E+00 -0.28325245172E+03  0.28325245172E+03  0.00000000000E+00 0. -1.
         23    2    1    2    0    0  0.56706920384E+01 -0.11367506268E+02 -0.11241286451E+03  0.14537879996E+03  0.91306990008E+02 0.  0.
         24    2    1    2    0    0 -0.60295409000E+02 -0.86660842107E+02 -0.71654145296E+02  0.15072036954E+03  0.80228893521E+02 0.  0.
        -13    1    4    4    0    0 -0.17464638406E+01 -0.67252645271E+02 -0.19773601599E+02  0.70121064967E+02  0.00000000000E+00 0.  1.
         14    1    4    4    0    0 -0.58548945160E+02 -0.19408196836E+02 -0.51880543697E+02  0.80599304575E+02  0.00000000000E+00 0. -1.
        -11    1    3    3    0    0  0.22012941374E+00  0.36873906488E+02 -0.22502067680E+02  0.43198107441E+02  0.00000000000E+00 0. -1.
         11    1    3    3    0    0  0.54505626246E+01 -0.48241412756E+02 -0.89910796828E+02  0.10218069252E+03  0.00000000000E+00 0.  1.
          1    1    1    2  501    0  0.54624716962E+02  0.98028348375E+02  0.29760930312E+02  0.11609965444E+03  0.00000000000E+00 0. -1.
<scales pt_clust_5="13000.00000" pt_clust_6="13000.00000" pt_clust_7="13000.00000" pt_clust_8="13000.00000" pt_clust_9="110.25426"></scales>
<clustering>
<clus scale="   80.229">  5  6 -1 -1</clus>
<clus scale="   91.307">  7  8 -1 -1</clus>
<clus scale="   92.186">  2  7  1 -1</clus>
<clus scale="  110.254">  1  9  2 -1</clus>
<clus scale="  110.254">  1  5  2 -1</clus>
</clustering>
</event>
<event>
 9    2  0.1644326E-004  0.2420555E+03  0.7546771E-02  0.1146519E+00
         21   -1    0    0  501  502  0.00000000000E+00  0.00000000000E+00  0.22571891756E+03  0.22571891756E+03  0.00000000000E+00 0. -1.
         -3   -1    0    0    0  501 -0.00000000000E+00 -0.00000000000E+00 -0.76546860577E+03  0.76546860577E+03  0.00000000000E+00 0.  1.
         24    2    1    2    0    0  0.82709335009E+02  0.43131276346E+02 -0.14343055346E+02  0.12263381304E+03  0.78308286710E+02 0.  0.
         23    2    1    2    0    0 -0.69543699213E+02  0.21072485895E+03  0.45154578182E+02  0.24392872924E+03  0.90669712349E+02 0.  0.
        -11    1    3    3    0    0  0.45642938005E+02  0.59601143528E+02 -0.27566769177E+02  0.79971875446E+02  0.00000000000E+00 0.  1.
         12    1    3    3    0    0  0.37066397004E+02 -0.16469867182E+02  0.13223713831E+02  0.42661937594E+02  0.00000000000E+00 0. -1.
        -13    1    4    4    0    0  0.18807300847E+02  0.39061824209E+02  0.24407793993E+02  0.49752196768E+02  0.00000000000E+00 0.  1.
         13    1    4    4    0    0 -0.88351000059E+02  0.17166303474E+03  0.20746784189E+02  0.19417653247E+03  0.00000000000E+00 0. -1.
         -4    1    1    2    0  502 -0.13165635796E+02 -0.25385613530E+03 -0.57056121104E+03  0.62462498104E+03  0.00000000000E+00 0.  1.
<scales pt_clust_5="13000.00000" pt_clust_6="13000.00000" pt_clust_7="13000.00000" pt_clust_8="13000.00000" pt_clust_9="224.43248"></scales>
<clustering>
<clus scale="   78.308">  5  6 -1 -1</clus>
<clus scale="   90.670">  7  8 -1 -1</clus>
<clus scale="  121.792">  2  5  1 -1</clus>
<clus scale="  224.432">  1  9  2 -1</clus>
<clus scale="  224.432">  1  5  2 -1</clus>
</clustering>
</event>
<event>
 9    2  0.1033155E-004  0.1119103E+03  0.7546771E-02  0.1264006E+00
          2   -1    0    0  502    0 -0.00000000000E+00  0.00000000000E+00  0.29030530456E+03  0.29030530456E+03  0.00000000000E+00 0. -1.
         21   -1    0    0  501  502  0.00000000000E+00 -0.00000000000E+00 -0.13956878166E+03  0.13956878166E+03  0.00000000000E+00 0.  1.
         23    2    1    2    0    0  0.60159703176E+02 -0.23803219118E+02  0.24645956880E+03  0.27195751871E+03  0.95040990135E+02 0.  0.
         24    2    1    2    0    0 -0.19573170449E+02  0.21734679792E+02 -0.50996404459E+02  0.97484639297E+02  0.77763206750E+02 0.  0.
        -13    1    4    4    0    0 -0.17435411354E+02 -0.12625751223E+02 -0.58425691678E+02  0.62265276127E+02  0.00000000000E+00 0.  1.
         14    1    4    4    0    0 -0.21377590947E+01  0.34360431015E+02  0.74292872195E+01  0.35219363170E+02  0.00000000000E+00 0. -1.
        -11    1    3    3    0    0  0.62601984024E+02 -0.45638307739E+02  0.11491361710E+03  0.13858933196E+03  0.00000000000E+00 0.  1.
         11    1    3    3    0    0 -0.24422808473E+01  0.21835088621E+02  0.13154595170E+03  0.13336818676E+03  0.00000000000E+00 0. -1.
          1    1    1    2  501    0 -0.40586532727E+02  0.20685393261E+01 -0.44726641438E+02  0.60431928218E+02  0.00000000000E+00 0. -1.
<scales pt_clust_5="13000.00000" pt_clust_6="13000.00000" pt_clust_7="13000.00000" pt_clust_8="13000.00000" pt_clust_9="40.63921"></scales>
<clustering>
<clus scale="   40.639">  2  9  1 -1</clus>
<clus scale="   77.763">  5  6 -1 -1</clus>
<clus scale="   95.041">  7  8 -1 -1</clus>
<clus scale="   97.664">  2  5  1 -1</clus>
<clus scale="   40.639">  2  5  1 -1</clus>
</clustering>
</event>
<event>
 9    2  0.1033155E-004  0.1313402E+03  0.7546771E-02  0.1227634E+00
         21   -1    0    0  501  502  0.00000000000E+00  0.00000000000E+00  0.27260173309E+03  0.27260173309E+03  0.00000000000E+00 0. -1.
          2   -1    0    0  502    0 -0.00000000000E+00 -0.00000000000E+00 -0.28519288803E+03  0.28519288803E+03  0.00000000000E+00 0. -1.
         23    2    1    2    0    0 -0.15781358494E+02 -0.61769721780E+02  0.62095864243E+02  0.12779235214E+03  0.91708446205E+02 0.  0.
         24    2    1    2    0    0  0.11852504126E+03  0.10361414911E+03  0.11375764203E+03  0.21132760015E+03  0.83273502168E+02 0.  0.
        -13    1    4    4    0    0  0.13388639300E+02  0.17665057256E+02  0.62269601472E+02  0.66096998250E+02  0.00000000000E+00 0.  1.
         14    1    4    4    0    0  0.10513640196E+03  0.85949091855E+02  0.51488040559E+02  0.14523060190E+03  0.00000000000E+00 0. -1.
        -13    1    3    3    0    0  0.79085434815E+01 -0.80437338475E+02  0.51431538988E+02  0.95801428401E+02  0.00000000000E+00 0. -1.
         13    1    3    3    0    0 -0.23689901975E+02  0.18667616695E+02  0.10664325255E+02  0.31990923741E+02  0.00000000000E+00 0.  1.
          1    1    1    2  501    0 -0.10274368277E+03 -0.41844427332E+02 -0.18844466122E+03  0.21867466883E+03  0.00000000000E+00 0. -1.
<scales pt_clust_5="13000.00000" pt_clust_6="13000.00000" pt_clust_7="13000.00000" pt_clust_8="13000.00000" pt_clust_9="110.93797"></scales>
<clustering>
<clus scale="   83.274">  5  6 -1 -1</clus>
<clus scale="   91.708">  7  8 -1 -1</clus>
<clus scale="  110.938">  1  9  2 -1</clus>
<clus scale="  125.596">  1  5  2 -1</clus>
<clus scale="  110.938">  1  5  2 -1</clus>
</clustering>
</event>
<event>
 9    2  0.1033155E-004  0.1056514E+03  0.7546771E-02  0.1277167E+00
         21   -1    0    0  501  502  0.00000000000E+00  0.00000000000E+00  0.12831680256E+03  0.12831680256E+03  0.00000000000E+00 0.  1.
          2   -1    0    0  502    0 -0.00000000000E+00 -0.00000000000E+00 -0.13867735211E+03  0.13867735211E+03  0.00000000000E+00 0. -1.
         23    2    1    2    0    0 -0.65090157358E+02 -0.12074827865E+02 -0.36634610402E+02  0.12283742142E+03  0.96769868086E+02 0.  0.
         24    2    1    2    0    0  0.17062297329E+02  0.19060304924E+02 -0.93703297316E+01  0.83940499481E+02  0.79396392613E+02 0.  0.
        -11    1    4    4    0    0 -0.90147346637E+01 -0.27871993764E+02 -0.74010810846E+01  0.30214060943E+02  0.00000000000E+00 0.  1.
         12    1    4    4    0    0  0.26077031993E+02  0.46932298688E+02 -0.19692486470E+01  0.53726438538E+02  0.00000000000E+00 0. -1.
        -11    1    3    3    0    0 -0.30056851933E+02  0.30536227755E+02  0.16813282792E+02  0.46027839748E+02  0.00000000000E+00 0.  1.
         11    1    3    3    0    0 -0.35033305425E+02 -0.42611055620E+02 -0.53447893194E+02  0.76809581673E+02  0.00000000000E+00 0. -1.
          1    1    1    2  501    0  0.48027860029E+02 -0.69854770592E+01  0.35644390584E+02  0.60216233764E+02  0.00000000000E+00 0. -1.
<scales pt_clust_5="13000.00000" pt_clust_6="13000.00000" pt_clust_7="13000.00000" pt_clust_8="13000.00000" pt_clust_9="48.53321"></scales>
<clustering>
<clus scale="   48.533">  1  9  2 -1</clus>
<clus scale="   79.396">  5  6 -1 -1</clus>
<clus scale="   90.009">  1  5  2 -1</clus>
<clus scale="   96.770">  7  8 -1 -1</clus>
<clus scale="   48.533">  1  5  2 -1</clus>
</clustering>
</event>
<event>
 9    2  0.1033155E-004  0.9286420E+02  0.7546771E-02  0.1301518E+00
          2   -1    0    0  502    0 -0.00000000000E+00  0.00000000000E+00  0.10490170687E+04  0.10490170687E+04  0.00000000000E+00 0. -1.
         21   -1    0    0  501  502  0.00000000000E+00 -0.00000000000E+00 -0.28236982658E+02  0.28236982658E+02  0.00000000000E+00 0. -1.
         24    2    1    2    0    0 -0.26293142319E+02  0.93638276981E+01  0.86370081702E+03  0.86781228931E+03  0.79624478417E+02 0.  0.
         23    2    1    2    0    0  0.37538502465E+01 -0.34965446458E+02  0.14406520230E+03  0.17293383819E+03  0.88964352639E+02 0.  0.
        -13    1    3    3    0    0 -0.53192576847E+01 -0.23801469408E+02  0.94016029830E+02  0.97127845200E+02  0.00000000000E+00 0.  1.
         14    1    3    3    0    0 -0.20973884634E+02  0.33165297106E+02  0.76968478719E+03  0.77068444411E+03  0.00000000000E+00 0. -1.
        -11    1    4    4    0    0 -0.14364981503E+02 -0.58032587784E+02  0.63592392460E+02  0.87281878516E+02  0.00000000000E+00 0. -1.
         11    1    4    4    0    0  0.18118831750E+02  0.23067141326E+02  0.80472809841E+02  0.85651959677E+02  0.00000000000E+00 0.  1.
          1    1    1    2  501    0  0.22539292072E+02  0.25601618760E+02  0.13014066703E+02  0.36507923830E+02  0.00000000000E+00 0. -1.
<scales pt_clust_5="13000.00000" pt_clust_6="13000.00000" pt_clust_7="13000.00000" pt_clust_8="13000.00000" pt_clust_9="34.10957"></scales>
<clustering>
<clus scale="   34.110">  2  9  1 -1</clus>
<clus scale="   79.624">  5  6 -1 -1</clus>
<clus scale="   83.959">  1  5  2 -1</clus>
<clus scale="   88.964">  7  8 -1 -1</clus>
<clus scale="   34.110">  2  5  1 -1</clus>
</clustering>
</event>
<event>
 9    2  0.1033155E-004  0.2143607E+03  0.7546771E-02  0.1138261E+00
          2   -1    0    0  502    0 -0.00000000000E+00  0.00000000000E+00  0.61351364595E+03  0.61351364595E+03  0.00000000000E+00 0. -1.
         21   -1    0    0  501  502  0.00000000000E+00 -0.00000000000E+00 -0.10947612832E+03  0.10947612832E+03  0.00000000000E+00 0. -1.
         23    2    1    2    0    0  0.15608043063E+03 -0.13542940913E+03  0.30278008490E+03  0.37805568523E+03  0.92455911864E+02 0.  0.
         24    2    1    2    0    0 -0.10321324004E+03  0.13618027302E+03  0.76339435163E+02  0.20928745344E+03  0.93677580705E+02 0.  0.
        -13    1    4    4    0    0  0.47533909392E+01  0.36468968784E+02 -0.10924948594E+02  0.38365803932E+02  0.00000000000E+00 0.  1.
         14    1    4    4    0    0 -0.10796663098E+03  0.99711304238E+02  0.87264383757E+02  0.17092164951E+03  0.00000000000E+00 0. -1.
        -13    1    3    3    0    0 -0.87975680049E+01 -0.27097794891E+02  0.48078565635E+02  0.55885920985E+02  0.00000000000E+00 0.  1.
         13    1    3    3    0    0  0.16487799863E+03 -0.10833161423E+03  0.25470151927E+03  0.32216976424E+03  0.00000000000E+00 0. -1.
          1    1    1    2  501    0 -0.52867190580E+02 -0.75086389672E+00  0.12491799756E+03  0.13564663561E+03  0.00000000000E+00 0. -1.
<scales pt_clust_5="13000.00000" pt_clust_6="13000.00000" pt_clust_7="13000.00000" pt_clust_8="13000.00000" pt_clust_9="52.87255"></scales>
<clustering>
<clus scale="   52.873">  2  9  1 -1</clus>
<clus scale="   92.456">  7  8 -1 -1</clus>
<clus scale="   93.678">  5  6 -1 -1</clus>
<clus scale="  213.830">  1  7  2 -1</clus>
<clus scale="   52.873">  2  5  1 -1</clus>
</clustering>
</event>
<event>
 9    2  0.1033155E-004  0.1364601E+03  0.7546771E-02  0.1241852E+00
          2   -1    0    0  502    0 -0.00000000000E+00  0.00000000000E+00  0.28037991472E+03  0.28037991472E+03  0.00000000000E+00 0. -1.
         21   -1    0    0  501  502  0.00000000000E+00 -0.00000000000E+00 -0.16299169107E+03  0.16299169107E+03  0.00000000000E+00 0. -1.
         24    2    1    2    0    0  0.27224796180E+02 -0.14894072318E+02 -0.92131748391E+01  0.84189491914E+02  0.77717211999E+02 0.  0.
         23    2    1    2    0    0  0.72825399281E+02 -0.13961217695E+02  0.19963382748E+03  0.23199561672E+03  0.92031770173E+02 0.  0.
        -11    1    3    3    0    0 -0.79746845757E+01 -0.39771348584E+02 -0.36011305705E+01  0.40722523297E+02  0.00000000000E+00 0.  1.
         12    1    3    3    0    0  0.35199480756E+02  0.24877276266E+02 -0.56120442686E+01  0.43466968617E+02  0.00000000000E+00 0. -1.
        -13    1    4    4    0    0 -0.18838201548E+02  0.12648517864E+02  0.35759102376E+02  0.42350634522E+02  0.00000000000E+00 0.  1.
         13    1    4    4    0    0  0.91663600829E+02 -0.26609735560E+02  0.16387472511E+03  0.18964498220E+03  0.00000000000E+00 0. -1.
          1    1    1    2  501    0 -0.10005019546E+03  0.28855290013E+02 -0.73032429002E+02  0.12718649716E+03  0.00000000000E+00 0. -1.
<scales pt_clust_5="13000.00000" pt_clust_6="13000.00000" pt_clust_7="13000.00000" pt_clust_8="13000.00000" pt_clust_9="100.75475"></scales>
<clustering>
<clus scale="   77.717">  5  6 -1 -1</clus>
<clus scale="   83.684">  1  5  2 -1</clus>
<clus scale="   92.032">  7  8 -1 -1</clus>
<clus scale="  100.755">  2  9  1 -1</clus>
<clus scale="  100.755">  2  5  1 -1</clus>
</clustering>
</event>
<event>
 9    2  0.1033155E-004  0.1001037E+03  0.7546771E-02  0.1286766E+00
         -1   -1    0    0    0  501 -0.00000000000E+00  0.00000000000E+00  0.20558770051E+03  0.20558770051E+03  0.00000000000E+00 0.  1.
         21   -1    0    0  501  502  0.00000000000E+00 -0.00000000000E+00 -0.66105972230E+02  0.66105972230E+02  0.00000000000E+00 0.  1.
         24    2    1    2    0    0  0.80903357405E+01  0.50039058137E+02  0.77072215578E+02  0.12148614934E+03  0.79053128942E+02 0.  0.
         23    2    1    2    0    0 -0.24459466168E+02 -0.15190823509E+02  0.33965873949E+02  0.10233907374E+03  0.92144336865E+02 0.  0.
        -11    1    3    3    0    0 -0.34354336355E+02  0.17026074356E+02  0.20668018828E+02  0.43557716155E+02  0.00000000000E+00 0.  1.
         12    1    3    3    0    0  0.42444672096E+02  0.33012983782E+02  0.56404196751E+02  0.77928433185E+02  0.00000000000E+00 0. -1.
        -11    1    4    4    0    0  0.10361343309E+02  0.28563301061E+02  0.35079800162E+02  0.46409179933E+02  0.00000000000E+00 0.  1.
         11    1    4    4    0    0 -0.34820809477E+02 -0.43754124570E+02 -0.11139262131E+01  0.55929893805E+02  0.00000000000E+00 0. -1.
         -2    1    1    2    0  502  0.16369130427E+02 -0.34848234628E+02  0.28443638757E+02  0.47868449666E+02  0.00000000000E+00 0.  1.
<scales pt_clust_5="13000.00000" pt_clust_6="13000.00000" pt_clust_7="13000.00000" pt_clust_8="13000.00000" pt_clust_9="38.50129"></scales>
<clustering>
<clus scale="   38.501">  2  9  1 -1</clus>
<clus scale="   79.053">  5  6 -1 -1</clus>
<clus scale="   88.202">  1  5  2 -1</clus>
<clus scale="   92.144">  7  8 -1 -1</clus>
<clus scale="   38.501">  2  5  1 -1</clus>
</clustering>
</event>
<event>
 9    2  0.1033155E-004  0.1071912E+03  0.7546771E-02  0.1271132E+00
         21   -1    0    0  501  502  0.00000000000E+00  0.00000000000E+00  0.73171340062E+02  0.73171340062E+02  0.00000000000E+00 0. -1.
          2   -1    0    0  502    0 -0.00000000000E+00 -0.00000000000E+00 -0.55134372162E+03  0.55134372162E+03  0.00000000000E+00 0. -1.
         24    2    1    2    0    0  0.40984946702E+02 -0.24732542728E+02 -0.11933748980E+03  0.15102463861E+03  0.79218308940E+02 0.  0.
         23    2    1    2    0    0 -0.83354584290E+02  0.19681851471E+02 -0.14216929877E+02  0.12624089416E+03  0.91647587336E+02 0.  0.
        -13    1    3    3    0    0  0.23825767526E+02 -0.45231959710E+02 -0.11228700691E+03  0.12337734516E+03  0.00000000000E+00 0.  1.
         14    1    3    3    0    0  0.17159179176E+02  0.20499416982E+02 -0.70504828908E+01  0.27647293459E+02  0.00000000000E+00 0. -1.
        -11    1    4    4    0    0 -0.23892763313E+02  0.50985554766E+02  0.44964043889E+01  0.56485472344E+02  0.00000000000E+00 0.  1.
         11    1    4    4    0    0 -0.59461820977E+02 -0.31303703295E+02 -0.18713334265E+02  0.69755421819E+02  0.00000000000E+00 0. -1.
          1    1    1    2  501    0  0.42369637588E+02  0.50506912566E+01 -0.34461796188E+03  0.34724952890E+03  0.00000000000E+00 0. -1.
<scales pt_clust_5="13000.00000" pt_clust_6="13000.00000" pt_clust_7="13000.00000" pt_clust_8="13000.00000" pt_clust_9="42.66963"></scales>
<clustering>
<clus scale="   42.670">  1  9  2 -1</clus>
<clus scale="   79.218">  5  6 -1 -1</clus>
<clus scale="   91.648">  7  8 -1 -1</clus>
<clus scale="   96.779">  2  5  1 -1</clus>
<clus scale="   42.670">  1  5  2 -1</clus>
</clustering>
</event>
<event>
 9    2  0.1033155E-004  0.9862504E+02  0.7546771E-02  0.1289490E+00
         -3   -1    0    0    0  501 -0.00000000000E+00  0.00000000000E+00  0.20384241481E+03  0.20384241481E+03  0.00000000000E+00 0.  1.
         21   -1    0    0  501  502  0.00000000000E+00 -0.00000000000E+00 -0.84519316244E+02  0.84519316244E+02  0.00000000000E+00 0.  1.
         23    2    1    2    0    0 -0.41223004711E+02  0.42807125111E+02  0.99571279285E+02  0.14813863997E+03  0.92189104114E+02 0.  0.
         24    2    1    2    0    0  0.47367698961E+00 -0.93199683429E+00  0.13674486805E+02  0.81478150461E+02  0.80315654920E+02 0.  0.
        -11    1    4    4    0    0  0.47442460764E+01 -0.30015329441E+02 -0.20305665299E+02  0.36547885240E+02  0.00000000000E+00 0.  1.
         12    1    4    4    0    0 -0.42705690868E+01  0.29083332607E+02  0.33980152104E+02  0.44930265221E+02  0.00000000000E+00 0. -1.
        -11    1    3    3    0    0 -0.65353369526E+02  0.19123706739E+02  0.90267925017E+02  0.11307111636E+03  0.00000000000E+00 0.  1.
         11    1    3    3    0    0  0.24130364815E+02  0.23683418372E+02  0.93033542682E+01  0.35067523615E+02  0.00000000000E+00 0. -1.
         -4    1    1    2    0  502  0.40749327722E+02 -0.41875128277E+02  0.60773324748E+01  0.58744940616E+02  0.00000000000E+00 0.  1.
<scales pt_clust_5="13000.00000" pt_clust_6="13000.00000" pt_clust_7="13000.00000" pt_clust_8="13000.00000" pt_clust_9="58.42974"></scales>
<clustering>
<clus scale="   58.430">  2  9  1 -1</clus>
<clus scale="   80.316">  5  6 -1 -1</clus>
<clus scale="   87.628">  2  5  1 -1</clus>
<clus scale="   92.189">  7  8 -1 -1</clus>
<clus scale="   58.430">  2  5  1 -1</clus>
</clustering>
</event>
<event>
 9    2  0.1033155E-004  0.9080597E+02  0.7546771E-02  0.1306985E+00
          4   -1    0    0  502    0 -0.00000000000E+00  0.00000000000E+00  0.27984375133E+03  0.27984375133E+03  0.00000000000E+00 0. -1.
         21   -1    0    0  501  502  0.00000000000E+00 -0.00000000000E+00 -0.13529135934E+03  0.13529135934E+03  0.00000000000E+00 0.  1.
         24    2    1    2    0    0  0.20597683288E+02  0.93324674100E+01  0.21504749400E+03  0.23023261184E+03  0.79058657807E+02 0.  0.
         23    2    1    2    0    0  0.42876165055E+01  0.53173700842E+02 -0.41389514664E+02  0.11159878521E+03  0.88855899180E+02 0.  0.
        -11    1    3    3    0    0  0.33717701720E+02  0.37306789853E+02  0.15033146886E+03  0.15851886484E+03  0.00000000000E+00 0.  1.
         12    1    3    3    0    0 -0.13120018432E+02 -0.27974322443E+02  0.64716025139E+02  0.71713747006E+02  0.00000000000E+00 0. -1.
        -13    1    4    4    0    0 -0.41174581402E+02  0.15377433945E+02 -0.11922782043E+02  0.45540798852E+02  0.00000000000E+00 0. -1.
         13    1    4    4    0    0  0.45462197908E+02  0.37796266897E+02 -0.29466732621E+02  0.66057986355E+02  0.00000000000E+00 0.  1.
          3    1    1    2  501    0 -0.24885299794E+02 -0.62506168252E+02 -0.29105587352E+02  0.73303713620E+02  0.00000000000E+00 0. -1.
<scales pt_clust_5="13000.00000" pt_clust_6="13000.00000" pt_clust_7="13000.00000" pt_clust_8="13000.00000" pt_clust_9="67.27778"></scales>
<clustering>
<clus scale="   67.278">  2  9  1 -1</clus>
<clus scale="   79.059">  5  6 -1 -1</clus>
<clus scale="   81.244">  1  5  2 -1</clus>
<clus scale="   88.856">  7  8 -1 -1</clus>
<clus scale="   67.278">  2  5  1 -1</clus>
</clustering>
</event>
<event>
 9    2  0.1033155E-004  0.1318090E+03  0.7546771E-02  0.1227504E+00
         21   -1    0    0  501  502  0.00000000000E+00  0.00000000000E+00  0.79429944860E+02  0.79429944860E+02  0.00000000000E+00 0. -1.
          2   -1    0    0  502    0 -0.00000000000E+00 -0.00000000000E+00 -0.67590534176E+03  0.67590534176E+03  0.00000000000E+00 0. -1.
         24    2    1    2    0    0 -0.55315867084E+02  0.10071277645E+03 -0.51140666630E+03  0.53036141415E+03  0.80892167645E+02 0.  0.
         23    2    1    2    0    0 -0.20900367358E+02 -0.51778106631E+02 -0.80781547468E+02  0.13429919992E+03  0.91612329982E+02 0.  0.
        -11    1    3    3    0    0 -0.18622534296E+02  0.55314157625E+02 -0.10807717973E+03  0.12282968532E+03  0.00000000000E+00 0.  1.
         12    1    3    3    0    0 -0.36693332788E+02  0.45398618826E+02 -0.40332948657E+03  0.40753172883E+03  0.00000000000E+00 0. -1.
        -11    1    4    4    0    0 -0.52819804301E+02 -0.52550583124E+02 -0.64038642422E+02  0.98246848480E+02  0.00000000000E+00 0. -1.
         11    1    4    4    0    0  0.31919436943E+02  0.77247649296E+00 -0.16742905046E+02  0.36052351436E+02  0.00000000000E+00 0.  1.
          1    1    1    2  501    0  0.76216234442E+02 -0.48934669821E+02 -0.42871831245E+01  0.90674672551E+02  0.00000000000E+00 0. -1.
<scales pt_clust_5="13000.00000" pt_clust_6="13000.00000" pt_clust_7="13000.00000" pt_clust_8="13000.00000" pt_clust_9="90.57326"></scales>
<clustering>
<clus scale="   80.892">  5  6 -1 -1</clus>
<clus scale="   90.573">  1  9  2 -1</clus>
<clus scale="   91.612">  7  8 -1 -1</clus>
<clus scale="  124.597">  2  5  1 -1</clus>
<clus scale="   90.573">  1  5  2 -1</clus>
</clustering>
</event>
<event>
 9    2  0.1033155E-004  0.1003125E+03  0.7546771E-02  0.1283949E+00
          2   -1    0    0  502    0 -0.00000000000E+00  0.00000000000E+00  0.98340137957E+02  0.98340137957E+02  0.00000000000E+00 0. -1.
         21   -1    0    0  501  502  0.00000000000E+00 -0.00000000000E+00 -0.30670296794E+03  0.30670296794E+03  0.00000000000E+00 0.  1.
         24    2    1    2    0    0  0.44867014220E+02 -0.16405339545E+02  0.50524106713E+02  0.10810336806E+03  0.82773599028E+02 0.  0.
         23    2    1    2    0    0 -0.11293427576E+02  0.47171951216E+01 -0.10869271806E+03  0.14259563606E+03  0.91485600118E+02 0.  0.
        -11    1    3    3    0    0  0.27759229497E+02 -0.50226949494E+01 -0.20043062737E+02  0.34605298015E+02  0.00000000000E+00 0.  1.
         12    1    3    3    0    0  0.17107784723E+02 -0.11382644596E+02  0.70567169450E+02  0.73498070045E+02  0.00000000000E+00 0. -1.
        -13    1    4    4    0    0 -0.46345395256E+02 -0.14385764314E+02 -0.38902950865E+02  0.62195542143E+02  0.00000000000E+00 0. -1.
         13    1    4    4    0    0  0.35051967680E+02  0.19102959436E+02 -0.69789767195E+02  0.80400093922E+02  0.00000000000E+00 0.  1.
          1    1    1    2  501    0 -0.33573586644E+02  0.11688144424E+02 -0.15019421864E+03  0.15434410178E+03  0.00000000000E+00 0. -1.
<scales pt_clust_5="13000.00000" pt_clust_6="13000.00000" pt_clust_7="13000.00000" pt_clust_8="13000.00000" pt_clust_9="35.54994"></scales>
<clustering>
<clus scale="   35.550">  2  9  1 -1</clus>
<clus scale="   82.774">  5  6 -1 -1</clus>
<clus scale="   91.486">  7  8 -1 -1</clus>
<clus scale="   92.436">  1  5  2 -1</clus>
<clus scale="   35.550">  2  5  1 -1</clus>
</clustering>
</event>
<event>
 9    2  0.1033155E-004  0.1079359E+03  0.7546771E-02  0.1269116E+00
         -1   -1    0    0    0  501 -0.00000000000E+00  0.00000000000E+00  0.90291357371E+02  0.90291357371E+02  0.00000000000E+00 0.  1.
         21   -1    0    0  501  502  0.00000000000E+00 -0.00000000000E+00 -0.23692640123E+03  0.23692640123E+03  0.00000000000E+00 0. -1.
         23    2    1    2    0    0  0.27282889659E+02  0.61807807611E+02  0.10745318575E+02  0.11433821581E+03  0.91614434303E+02 0.  0.
         24    2    1    2    0    0 -0.59349385083E+01 -0.41566734339E+02 -0.54291499352E+02  0.10567529961E+03  0.80353501148E+02 0.  0.
        -13    1    4    4    0    0 -0.29808809269E+02 -0.27117642128E+02 -0.64421864705E+02  0.75987553433E+02  0.00000000000E+00 0.  1.
         14    1    4    4    0    0  0.23873870761E+02 -0.14449092211E+02  0.10130365352E+02  0.29687746176E+02  0.00000000000E+00 0. -1.
        -13    1    3    3    0    0 -0.47089046612E+01  0.39031376081E+02 -0.35985560292E+02  0.53297116727E+02  0.00000000000E+00 0. -1.
         13    1    3    3    0    0  0.31991794320E+02  0.22776431530E+02  0.46730878867E+02  0.61041099079E+02  0.00000000000E+00 0.  1.
         -2    1    1    2    0  502 -0.21347951150E+02 -0.20241073272E+02 -0.10308886308E+03  0.10720424318E+03  0.00000000000E+00 0.  1.
<scales pt_clust_5="13000.00000" pt_clust_6="13000.00000" pt_clust_7="13000.00000" pt_clust_8="13000.00000" pt_clust_9="29.41829"></scales>
<clustering>
<clus scale="   29.418">  2  9  1 -1</clus>
<clus scale="   80.354">  5  6 -1 -1</clus>
<clus scale="   91.614">  7  8 -1 -1</clus>
<clus scale="   98.558">  2  5  1 -1</clus>
<clus scale="   29.418">  2  5  1 -1</clus>
</clustering>
</event>
<event>
 9    2  0.1033155E-004  0.1018353E+03  0.7546771E-02  0.1281944E+00
         21   -1    0    0  501  502  0.00000000000E+00  0.00000000000E+00  0.64956448799E+02  0.64956448799E+02  0.00000000000E+00 0. -1.
         -1   -1    0    0    0  501 -0.00000000000E+00 -0.00000000000E+00 -0.41505501051E+03  0.41505501051E+03  0.00000000000E+00 0.  1.
         24    2    1    2    0    0  0.23391177976E+02  0.45654234161E+02 -0.23375741640E+03  0.25219748437E+03  0.79558689642E+02 0.  0.
         23    2    1    2    0    0  0.53542208757E+02 -0.41677199208E+02 -0.42764428192E+02  0.12128653198E+03  0.90982797653E+02 0.  0.
        -13    1    3    3    0    0  0.37069156248E+02  0.36460923564E+02 -0.22930510447E+03  0.23512624743E+03  0.00000000000E+00 0.  1.
         14    1    3    3    0    0 -0.13677978272E+02  0.91933105969E+01 -0.44523119283E+01  0.17071236945E+02  0.00000000000E+00 0. -1.
        -13    1    4    4    0    0  0.58621126822E+02 -0.20348195555E+02  0.11184733160E+02  0.63052230953E+02  0.00000000000E+00 0. -1.
         13    1    4    4    0    0 -0.50789180653E+01 -0.21329003652E+02 -0.53949161353E+02  0.58234301027E+02  0.00000000000E+00 0.  1.
         -2    1    1    2    0  502 -0.76933386733E+02 -0.39770349531E+01 -0.73576717121E+02  0.10652744296E+03  0.00000000000E+00 0.  1.
<scales pt_clust_5="13000.00000" pt_clust_6="13000.00000" pt_clust_7="13000.00000" pt_clust_8="13000.00000" pt_clust_9="77.03611"></scales>
<clustering>
<clus scale="   77.036">  1  9  2 -1</clus>
<clus scale="   79.559">  5  6 -1 -1</clus>
<clus scale="   90.983">  7  8 -1 -1</clus>
<clus scale="   91.772">  2  5  1 -1</clus>
<clus scale="   77.036">  1  5  2 -1</clus>
</clustering>
</event>
<event>
 9    2  0.1033155E-004  0.1284527E+03  0.7546771E-02  0.1233617E+00
         21   -1    0    0  501  502  0.00000000000E+00  0.00000000000E+00  0.13643963880E+04  0.13643963880E+04  0.00000000000E+00 0.  1.
          2   -1    0    0  502    0 -0.00000000000E+00 -0.00000000000E+00 -0.36144554937E+02  0.36144554937E+02  0.00000000000E+00 0. -1.
         24    2    1    2    0    0  0.53337555531E+02 -0.57688741386E+02  0.11944262120E+03  0.16247571657E+03  0.77194125440E+02 0.  0.
         23    2    1    2    0    0 -0.12858665062E+03  0.94067267274E+02  0.80635850824E+03  0.82702703799E+03  0.91523222578E+02 0.  0.
        -11    1    3    3    0    0 -0.11175655961E+02 -0.39878771934E+02  0.31874659534E+02  0.52260938161E+02  0.00000000000E+00 0.  1.
         12    1    3    3    0    0  0.64513211491E+02 -0.17809969453E+02  0.87567961668E+02  0.11021477841E+03  0.00000000000E+00 0. -1.
        -11    1    4    4    0    0 -0.13367457792E+03  0.55523245264E+02  0.62351680228E+03  0.64009759121E+03  0.00000000000E+00 0. -1.
         11    1    4    4    0    0  0.50879272958E+01  0.38544022010E+02  0.18284170596E+03  0.18692944678E+03  0.00000000000E+00 0.  1.
          1    1    1    2  501    0  0.75249095092E+02 -0.36378525888E+02  0.40245070366E+03  0.41103818842E+03  0.00000000000E+00 0. -1.
<scales pt_clust_5="13000.00000" pt_clust_6="13000.00000" pt_clust_7="13000.00000" pt_clust_8="13000.00000" pt_clust_9="83.58124"></scales>
<clustering>
<clus scale="   77.194">  5  6 -1 -1</clus>
<clus scale="   83.581">  1  9  2 -1</clus>
<clus scale="   91.523">  7  8 -1 -1</clus>
<clus scale="  118.670">  2  5  1 -1</clus>
<clus scale="   83.581">  1  5  2 -1</clus>
</clustering>
</event>
<event>
 9    2  0.1033155E-004  0.9356273E+02  0.7546771E-02  0.1302240E+00
         21   -1    0    0  501  502  0.00000000000E+00  0.00000000000E+00  0.17927708328E+03  0.17927708328E+03  0.00000000000E+00 0. -1.
          2   -1    0    0  502    0 -0.00000000000E+00 -0.00000000000E+00 -0.24814692107E+03  0.24814692107E+03  0.00000000000E+00 0. -1.
         24    2    1    2    0    0  0.23306553553E+02 -0.16249187528E+02 -0.19071844207E+03  0.20763271650E+03  0.77010319317E+02 0.  0.
         23    2    1    2    0    0 -0.20113173853E+02 -0.23083673577E+02  0.37279671720E+01  0.95253114789E+02  0.90121375875E+02 0.  0.
        -13    1    3    3    0    0 -0.23829759184E+02  0.87400453868E+01 -0.36588377235E+02  0.44530384737E+02  0.00000000000E+00 0.  1.
         14    1    3    3    0    0  0.47136312737E+02 -0.24989232915E+02 -0.15413006484E+03  0.16310233176E+03  0.00000000000E+00 0. -1.
        -13    1    4    4    0    0  0.35853257287E+02 -0.93493624895E+01 -0.33011985334E+01  0.37198985857E+02  0.00000000000E+00 0. -1.
         13    1    4    4    0    0 -0.55966431140E+02 -0.13734311087E+02  0.70291657054E+01  0.58054128932E+02  0.00000000000E+00 0.  1.
          1    1    1    2  501    0 -0.31933796996E+01  0.39332861105E+02  0.11812063711E+03  0.12453817306E+03  0.00000000000E+00 0. -1.
<scales pt_clust_5="13000.00000" pt_clust_6="13000.00000" pt_clust_7="13000.00000" pt_clust_8="13000.00000" pt_clust_9="39.46228"></scales>
<clustering>
<clus scale="   39.462">  1  9  2 -1</clus>
<clus scale="   77.010">  5  6 -1 -1</clus>
<clus scale="   81.011">  2  5  1 -1</clus>
<clus scale="   90.121">  7  8 -1 -1</clus>
<clus scale="   39.462">  1  5  2 -1</clus>
</clustering>
</event>
<event>
 9    2  0.1033155E-004  0.2010462E+03  0.7546771E-02  0.1149342E+00
         21   -1    0    0  501  502  0.00000000000E+00  0.00000000000E+00  0.25670293915E+03  0.25670293915E+03  0.00000000000E+00 0. -1.
          2   -1    0    0  502    0 -0.00000000000E+00 -0.00000000000E+00 -0.19997669745E+03  0.19997669745E+03  0.00000000000E+00 0. -1.
         24    2    1    2    0    0  0.80000744911E+02  0.17893902428E+03  0.29693605091E+02  0.21427788323E+03  0.81326548318E+02 0.  0.
         23    2    1    2    0    0 -0.88393174323E+02 -0.14193269407E+03  0.53861178674E+02  0.19592948190E+03  0.86770342835E+02 0.  0.
        -11    1    3    3    0    0  0.55159220747E+02  0.97870111935E+02  0.55964880737E+02  0.12551161827E+03  0.00000000000E+00 0.  1.
         12    1    3    3    0    0  0.24841524164E+02  0.81068912345E+02 -0.26271275646E+02  0.88766264964E+02  0.00000000000E+00 0. -1.
        -13    1    4    4    0    0 -0.68241711222E+02 -0.43964947729E+02  0.51001697913E+02  0.95869812606E+02  0.00000000000E+00 0.  1.
         13    1    4    4    0    0 -0.20151463101E+02 -0.97967746342E+02  0.28594807609E+01  0.10005966929E+03  0.00000000000E+00 0. -1.
          1    1    1    2  501    0  0.83924294118E+01 -0.37006330210E+02 -0.26828542067E+02  0.46472271480E+02  0.00000000000E+00 0. -1.
<scales pt_clust_5="13000.00000" pt_clust_6="13000.00000" pt_clust_7="13000.00000" pt_clust_8="13000.00000" pt_clust_9="37.94605"></scales>
<clustering>
<clus scale="   37.946">  1  9  2 -1</clus>
<clus scale="   81.327">  5  6 -1 -1</clus>
<clus scale="   86.770">  7  8 -1 -1</clus>
<clus scale="  198.757">  2  5  1 -1</clus>
<clus scale="   37.946">  1  5  2 -1</clus>
</clustering>
</event>
<event>
 9    2  0.1033155E-004  0.3746018E+03  0.7546771E-02  0.1053041E+00
         21   -1    0    0  501  502  0.00000000000E+00  0.00000000000E+00  0.11904313780E+03  0.11904313780E+03  0.00000000000E+00 0.  1.
          2   -1    0    0  502    0 -0.00000000000E+00 -0.00000000000E+00 -0.23691848425E+04  0.23691848425E+04  0.00000000000E+00 0. -1.
         23    2    1    2    0    0  0.19605187562E+02 -0.36013933038E+03 -0.18291341940E+04  0.18663227695E+04  0.85697607375E+02 0.  0.
         24    2    1    2    0    0 -0.11595068274E+02  0.38029796333E+03 -0.44397109091E+03  0.59031631232E+03  0.81252892238E+02 0.  0.
        -13    1    4    4    0    0 -0.35437447202E+02  0.14665194403E+03 -0.13689342583E+03  0.20372141612E+03  0.00000000000E+00 0.  1.
         14    1    4    4    0    0  0.23842378928E+02  0.23364601930E+03 -0.30707766509E+03  0.38659489619E+03  0.00000000000E+00 0. -1.
        -11    1    3    3    0    0  0.24560276553E+02 -0.29440596748E+03 -0.16301515677E+04  0.16567052286E+04  0.00000000000E+00 0. -1.
         11    1    3    3    0    0 -0.49550889901E+01 -0.65733362900E+02 -0.19898262625E+03  0.20961754090E+03  0.00000000000E+00 0.  1.
          1    1    1    2  501    0 -0.80101192885E+01 -0.20158632952E+02  0.22963580152E+02  0.31588898476E+02  0.00000000000E+00 0. -1.
<scales pt_clust_5="13000.00000" pt_clust_6="13000.00000" pt_clust_7="13000.00000" pt_clust_8="13000.00000" pt_clust_9="21.69176"></scales>
<clustering>
<clus scale="   21.692">  1  9  2 -1</clus>
<clus scale="   81.253">  5  6 -1 -1</clus>
<clus scale="   85.698">  7  8 -1 -1</clus>
<clus scale="  373.610">  1  5  2 -1</clus>
<clus scale="   21.692">  1  5  2 -1</clus>
</clustering>
</event>
<event>
 9    2  0.1033155E-004  0.1516064E+03  0.7546771E-02  0.1209543E+00
         21   -1    0    0  501  502  0.00000000000E+00  0.00000000000E+00  0.50489717427E+02  0.50489717427E+02  0.00000000000E+00 0. -1.
          2   -1    0    0  502    0 -0.00000000000E+00 -0.00000000000E+00 -0.69509088063E+03  0.69509088063E+03  0.00000000000E+00 0. -1.
         23    2    1    2    0    0 -0.22180970427E+02 -0.10518798913E+03 -0.49432451937E+03  0.51970085509E+03  0.11906191592E+03 0.  0.
         24    2    1    2    0    0 -0.23024107318E+02  0.75776762612E+02 -0.12750403876E+03  0.16733821206E+03  0.73976820994E+02 0.  0.
        -11    1    4    4    0    0  0.15322255920E+02  0.66565111843E+02 -0.89320856506E+02  0.11244510237E+03  0.00000000000E+00 0.  1.
         12    1    4    4    0    0 -0.38346363238E+02  0.92116507693E+01 -0.38183182258E+02  0.54893109685E+02  0.00000000000E+00 0. -1.
        -13    1    3    3    0    0 -0.46582763592E+02 -0.10906639482E+03 -0.47107252826E+03  0.48577233271E+03  0.00000000000E+00 0. -1.
         13    1    3    3    0    0  0.24401793165E+02  0.38784056875E+01 -0.23251991108E+02  0.33928522379E+02  0.00000000000E+00 0.  1.
          1    1    1    2  501    0  0.45205077745E+02  0.29411226521E+02 -0.22772605066E+02  0.58541530907E+02  0.00000000000E+00 0. -1.
<scales pt_clust_5="13000.00000" pt_clust_6="13000.00000" pt_clust_7="13000.00000" pt_clust_8="13000.00000" pt_clust_9="53.93069"></scales>
<clustering>
<clus scale="   53.931">  1  9  2 -1</clus>
<clus scale="   73.977">  5  6 -1 -1</clus>
<clus scale="  119.062">  7  8 -1 -1</clus>
<clus scale="  119.505">  1  5  2 -1</clus>
<clus scale="   53.931">  1  5  2 -1</clus>
</clustering>
</event>
<event>
 9    2  0.1033155E-004  0.1056920E+03  0.7546771E-02  0.1273713E+00
         21   -1    0    0  501  502  0.00000000000E+00  0.00000000000E+00  0.30510404580E+02  0.30510404580E+02  0.00000000000E+00 0.  1.
         -1   -1    0    0    0  501 -0.00000000000E+00 -0.00000000000E+00 -0.60242501726E+03  0.60242501726E+03  0.00000000000E+00 0.  1.
         23    2    1    2    0    0 -0.42779590205E+02  0.53043172265E+02 -0.38949122061E+03  0.40558597951E+03  0.90293434875E+02 0.  0.
         24    2    1    2    0    0  0.38836704804E+02 -0.11300209549E+02 -0.15058083531E+03  0.17469994373E+03  0.78800368024E+02 0.  0.
        -13    1    4    4    0    0  0.53181081483E+02  0.11644453285E+02 -0.64175051157E+02  0.84156151950E+02  0.00000000000E+00 0.  1.
         14    1    4    4    0    0 -0.14344376679E+02 -0.22944662833E+02 -0.86405784150E+02  0.90543791778E+02  0.00000000000E+00 0. -1.
        -11    1    3    3    0    0 -0.65873843838E+02  0.37915700151E+02 -0.34461828121E+03  0.35290044398E+03  0.00000000000E+00 0.  1.
         11    1    3    3    0    0  0.23094253633E+02  0.15127472113E+02 -0.44872939404E+02  0.52685535531E+02  0.00000000000E+00 0. -1.
         -2    1    1    2    0  502  0.39428854010E+01 -0.41742962716E+02 -0.31842556755E+02  0.52649498595E+02  0.00000000000E+00 0.  1.
<scales pt_clust_5="13000.00000" pt_clust_6="13000.00000" pt_clust_7="13000.00000" pt_clust_8="13000.00000" pt_clust_9="41.92876"></scales>
<clustering>
<clus scale="   41.929">  1  9  2 -1</clus>
<clus scale="   78.800">  5  6 -1 -1</clus>
<clus scale="   90.293">  7  8 -1 -1</clus>
<clus scale="   96.059">  1  5  2 -1</clus>
<clus scale="   41.929">  1  5  2 -1</clus>
</clustering>
</event>
<event>
 9    2  0.1033155E-004  0.1276110E+03  0.7546771E-02  0.1233796E+00
          2   -1    0    0  502    0 -0.00000000000E+00  0.00000000000E+00  0.67883628808E+03  0.67883628808E+03  0.00000000000E+00 0. -1.
         21   -1    0    0  501  502  0.00000000000E+00 -0.00000000000E+00 -0.41020789193E+02  0.41020789193E+02  0.00000000000E+00 0. -1.
         24    2    1    2    0    0  0.81773791088E+01 -0.11294682651E+03  0.38052855496E+03  0.40523901131E+03  0.81196182168E+02 0.  0.
         23    2    1    2    0    0 -0.38712367050E+02  0.50017267699E+02  0.16178682700E+03  0.19624244688E+03  0.91300307425E+02 0.  0.
        -13    1    3    3    0    0  0.30747599131E+02 -0.91484580211E+01  0.68859335458E+02  0.75965236893E+02  0.00000000000E+00 0.  1.
         14    1    3    3    0    0 -0.22570220023E+02 -0.10379836849E+03  0.31166921950E+03  0.32927377442E+03  0.00000000000E+00 0. -1.
        -11    1    4    4    0    0 -0.43915309862E+02  0.28149121439E+02  0.16544040342E+03  0.17346888644E+03  0.00000000000E+00 0.  1.
         11    1    4    4    0    0  0.52029428126E+01  0.21868146259E+02 -0.36535764159E+01  0.22773560445E+02  0.00000000000E+00 0. -1.
          1    1    1    2  501    0  0.30534987941E+02  0.62929558812E+02  0.95500116926E+02  0.11837561908E+03  0.00000000000E+00 0. -1.
<scales pt_clust_5="13000.00000" pt_clust_6="13000.00000" pt_clust_7="13000.00000" pt_clust_8="13000.00000" pt_clust_9="69.94651"></scales>
<clustering>
<clus scale="   69.947">  2  9  1 -1</clus>
<clus scale="   81.196">  5  6 -1 -1</clus>
<clus scale="   91.300">  7  8 -1 -1</clus>
<clus scale="  120.589">  1  5  2 -1</clus>
<clus scale="   69.947">  2  5  1 -1</clus>
</clustering>
</event>
<event>
 9    2  0.1033155E-004  0.1323482E+03  0.7546771E-02  0.1242749E+00
          2   -1    0    0  502    0 -0.00000000000E+00  0.00000000000E+00  0.67756545955E+03  0.67756545955E+03  0.00000000000E+00 0. -1.
         21   -1    0    0  501  502  0.00000000000E+00 -0.00000000000E+00 -0.61966419259E+02  0.61966419259E+02  0.00000000000E+00 0. -1.
         24    2    1    2    0    0 -0.13086261898E+02 -0.36029117725E+02  0.54705285148E+02  0.10538962312E+03  0.81516604833E+02 0.  0.
         23    2    1    2    0    0 -0.28164649140E+02 -0.82841265301E+02  0.11381268116E+03  0.16969280490E+03  0.90478720952E+02 0.  0.
        -13    1    3    3    0    0 -0.24885557486E+02  0.14142632795E+02 -0.20836748646E+01  0.28699246239E+02  0.00000000000E+00 0.  1.
         14    1    3    3    0    0  0.11799295587E+02 -0.50171750521E+02  0.56788960013E+02  0.76690376880E+02  0.00000000000E+00 0. -1.
        -13    1    4    4    0    0 -0.25591345796E+02 -0.18202923550E+02 -0.74300360330E+01  0.32271796368E+02  0.00000000000E+00 0. -1.
         13    1    4    4    0    0 -0.25733033442E+01 -0.64638341751E+02  0.12124271719E+03  0.13742100853E+03  0.00000000000E+00 0.  1.
          1    1    1    2  501    0  0.41250911038E+02  0.11887038303E+03  0.44708107398E+03  0.46444945079E+03  0.00000000000E+00 0. -1.
<scales pt_clust_5="13000.00000" pt_clust_6="13000.00000" pt_clust_7="13000.00000" pt_clust_8="13000.00000" pt_clust_9="96.59016"></scales>
<clustering>
<clus scale="   81.517">  5  6 -1 -1</clus>
<clus scale="   90.079">  1  5  2 -1</clus>
<clus scale="   90.479">  7  8 -1 -1</clus>
<clus scale="   96.590">  2  9  1 -1</clus>
<clus scale="   96.590">  2  5  1 -1</clus>
</clustering>
</event>
<event>
 9    2  0.1033155E-004  0.1001732E+03  0.7546771E-02  0.1286956E+00
         21   -1    0    0  501  502  0.00000000000E+00  0.00000000000E+00  0.27513936818E+02  0.27513936818E+02  0.00000000000E+00 0.  1.
          2   -1    0    0  502    0 -0.00000000000E+00 -0.00000000000E+00 -0.92620354055E+03  0.92620354055E+03  0.00000000000E+00 0. -1.
         24    2    1    2    0    0 -0.27839866615E+02  0.39724213307E+02 -0.63172400559E+03  0.63845642906E+03  0.78729418076E+02 0.  0.
         23    2    1    2    0    0 -0.23039582119E+02 -0.23392217608E+02 -0.23069467336E+03  0.25067751812E+03  0.92418437481E+02 0.  0.
        -11    1    3    3    0    0 -0.29281577277E+01 -0.21234621630E+02 -0.80211446861E+02  0.83026257720E+02  0.00000000000E+00 0.  1.
         12    1    3    3    0    0 -0.24911708887E+02  0.60958834937E+02 -0.55151255873E+03  0.55543017134E+03  0.00000000000E+00 0. -1.
        -13    1    4    4    0    0 -0.39592098976E+02  0.15145410599E+02 -0.17979058062E+03  0.18472024969E+03  0.00000000000E+00 0.  1.
         13    1    4    4    0    0  0.16552516858E+02 -0.38537628207E+02 -0.50904092738E+02  0.65957268436E+02  0.00000000000E+00 0. -1.
          1    1    1    2  501    0  0.50879448734E+02 -0.16331995699E+02 -0.36270924780E+02  0.64583530187E+02  0.00000000000E+00 0. -1.
<scales pt_clust_5="13000.00000" pt_clust_6="13000.00000" pt_clust_7="13000.00000" pt_clust_8="13000.00000" pt_clust_9="53.43643"></scales>
<clustering>
<clus scale="   53.436">  1  9  2 -1</clus>
<clus scale="   78.729">  5  6 -1 -1</clus>
<clus scale="   87.703">  2  5  1 -1</clus>
<clus scale="   92.418">  7  8 -1 -1</clus>
<clus scale="   53.436">  1  5  2 -1</clus>
</clustering>
</event>
<event>
 9    2  0.1033155E-004  0.1100475E+03  0.7546771E-02  0.1273215E+00
          2   -1    0    0  502    0 -0.00000000000E+00  0.00000000000E+00  0.37955849068E+03  0.37955849068E+03  0.00000000000E+00 0. -1.
         21   -1    0    0  501  502  0.00000000000E+00 -0.00000000000E+00 -0.10880319524E+03  0.10880319524E+03  0.00000000000E+00 0.  1.
         24    2    1    2    0    0  0.19059081783E+02 -0.25682352338E+02  0.29792299639E+03  0.30993777405E+03  0.79249480673E+02 0.  0.
         23    2    1    2    0    0 -0.99177444882E+01  0.44314602597E+02  0.29502180096E+02  0.11807326800E+03  0.10492269691E+03 0.  0.
        -11    1    3    3    0    0  0.33012517948E+02 -0.98381028777E+01  0.47766163591E+02  0.58891603763E+02  0.00000000000E+00 0.  1.
         12    1    3    3    0    0 -0.13953436165E+02 -0.15844249460E+02  0.25015683279E+03  0.25104617029E+03  0.00000000000E+00 0. -1.
        -13    1    4    4    0    0  0.18180704099E+02 -0.26736551443E+02 -0.74828834037E+01  0.33186966246E+02  0.00000000000E+00 0. -1.
         13    1    4    4    0    0 -0.28098448587E+02  0.71051154040E+02  0.36985063500E+02  0.84886301754E+02  0.00000000000E+00 0.  1.
          1    1    1    2  501    0 -0.91413372947E+01 -0.18632250259E+02 -0.56669881043E+02  0.60350643863E+02  0.00000000000E+00 0. -1.
<scales pt_clust_5="13000.00000" pt_clust_6="13000.00000" pt_clust_7="13000.00000" pt_clust_8="13000.00000" pt_clust_9="20.75391"></scales>
<clustering>
<clus scale="   20.754">  2  9  1 -1</clus>
<clus scale="   79.249">  5  6 -1 -1</clus>
<clus scale="   85.919">  1  5  2 -1</clus>
<clus scale="  104.923">  7  8 -1 -1</clus>
<clus scale="   20.754">  2  5  1 -1</clus>
</clustering>
</event>
<event>
 9    2  0.1033155E-004  0.1700130E+03  0.7546771E-02  0.1178378E+00
         21   -1    0    0  501  502  0.00000000000E+00  0.00000000000E+00  0.45003919025E+02  0.45003919025E+02  0.00000000000E+00 0. -1.
          2   -1    0    0  502    0 -0.00000000000E+00 -0.00000000000E+00 -0.79724551118E+03  0.79724551118E+03  0.00000000000E+00 0. -1.
         24    2    1    2    0    0 -0.13290641975E+03  0.78713296251E+02 -0.34678068458E+03  0.38870240234E+03  0.83503383002E+02 0.  0.
         23    2    1    2    0    0  0.13079556947E+03 -0.44726747141E+02 -0.28797923214E+03  0.33122987750E+03  0.87596978835E+02 0.  0.
        -11    1    3    3    0    0 -0.31742136517E+02 -0.14023587039E+02 -0.42234418841E+02  0.54662330347E+02  0.00000000000E+00 0.  1.
         12    1    3    3    0    0 -0.10116428324E+03  0.92736883290E+02 -0.30454626574E+03  0.33404007199E+03  0.00000000000E+00 0. -1.
        -11    1    4    4    0    0  0.36917054887E+02 -0.55852177828E+02 -0.93580015768E+02  0.11506326113E+03  0.00000000000E+00 0.  1.
         11    1    4    4    0    0  0.93878514584E+02  0.11125430686E+02 -0.19439921638E+03  0.21616661638E+03  0.00000000000E+00 0. -1.
          1    1    1    2  501    0  0.21108502822E+01 -0.33986549109E+02 -0.11748167543E+03  0.12231715036E+03  0.00000000000E+00 0. -1.
<scales pt_clust_5="13000.00000" pt_clust_6="13000.00000" pt_clust_7="13000.00000" pt_clust_8="13000.00000" pt_clust_9="34.05205"></scales>
<clustering>
<clus scale="   34.052">  1  9  2 -1</clus>
<clus scale="   83.503">  5  6 -1 -1</clus>
<clus scale="   87.597">  7  8 -1 -1</clus>
<clus scale="  167.940">  2  5  1 -1</clus>
<clus scale="   34.052">  1  5  2 -1</clus>
</clustering>
</event>
<event>
 9    2  0.1033155E-004  0.1050715E+03  0.7546771E-02  0.1272985E+00
         21   -1    0    0  501  502  0.00000000000E+00  0.00000000000E+00  0.49896325095E+02  0.49896325095E+02  0.00000000000E+00 0.  1.
          2   -1    0    0  502    0 -0.00000000000E+00 -0.00000000000E+00 -0.74617667508E+03  0.74617667508E+03  0.00000000000E+00 0. -1.
         24    2    1    2    0    0 -0.43149421077E+02 -0.31918522824E+02 -0.56161367398E+03  0.57015194709E+03  0.82356902170E+02 0.  0.
         23    2    1    2    0    0  0.23009225352E+02  0.80138498093E+02 -0.63857024839E+02  0.13791650663E+03  0.89395972229E+02 0.  0.
        -11    1    3    3    0    0  0.16847932830E+02 -0.30364448852E+02 -0.13771629366E+03  0.14202686412E+03  0.00000000000E+00 0.  1.
         12    1    3    3    0    0 -0.59997353907E+02 -0.15540739717E+01 -0.42389738032E+03  0.42812508297E+03  0.00000000000E+00 0. -1.
        -11    1    4    4    0    0  0.39785872759E+02  0.47400769682E+02  0.26197081900E+01  0.61940386733E+02  0.00000000000E+00 0.  1.
         11    1    4    4    0    0 -0.16776647407E+02  0.32737728411E+02 -0.66476733029E+02  0.75976119893E+02  0.00000000000E+00 0. -1.
          1    1    1    2  501    0  0.20140195725E+02 -0.48219975270E+02 -0.70809651172E+02  0.88004546462E+02  0.00000000000E+00 0. -1.
<scales pt_clust_5="13000.00000" pt_clust_6="13000.00000" pt_clust_7="13000.00000" pt_clust_8="13000.00000" pt_clust_9="52.25699"></scales>
<clustering>
<clus scale="   52.257">  1  9  2 -1</clus>
<clus scale="   82.357">  5  6 -1 -1</clus>
<clus scale="   89.396">  7  8 -1 -1</clus>
<clus scale="   99.152">  2  5  1 -1</clus>
<clus scale="   52.257">  1  5  2 -1</clus>
</clustering>
</event>
<event>
 9    2  0.1033155E-004  0.1044048E+03  0.7546771E-02  0.1277866E+00
         21   -1    0    0  501  502  0.00000000000E+00  0.00000000000E+00  0.33416018751E+02  0.33416018751E+02  0.00000000000E+00 0.  1.
          2   -1    0    0  502    0 -0.00000000000E+00 -0.00000000000E+00 -0.64524454340E+03  0.64524454340E+03  0.00000000000E+00 0. -1.
         24    2    1    2    0    0 -0.28535317292E+02 -0.10426467078E+02 -0.22418408645E+03  0.24907848930E+03  0.10420467198E+03 0.  0.
         23    2    1    2    0    0 -0.44490391334E+02 -0.17168499123E+02 -0.17808551448E+03  0.20595475165E+03  0.91808262031E+02 0.  0.
        -13    1    3    3    0    0  0.37929205266E+02 -0.10765100242E+02 -0.11134239644E+03  0.11811706583E+03  0.00000000000E+00 0.  1.
         14    1    3    3    0    0 -0.66464522558E+02  0.33863316431E+00 -0.11284169002E+03  0.13096142347E+03  0.00000000000E+00 0. -1.
        -11    1    4    4    0    0  0.24831280142E+02  0.12405188487E+02 -0.55503761787E+02  0.62057624410E+02  0.00000000000E+00 0. -1.
         11    1    4    4    0    0 -0.69321671476E+02 -0.29573687610E+02 -0.12258175269E+03  0.14389712724E+03  0.00000000000E+00 0.  1.
          1    1    1    2  501    0  0.73025708626E+02  0.27594966201E+02 -0.20955892371E+03  0.22362732120E+03  0.00000000000E+00 0. -1.
<scales pt_clust_5="13000.00000" pt_clust_6="13000.00000" pt_clust_7="13000.00000" pt_clust_8="13000.00000" pt_clust_9="78.06563"></scales>
<clustering>
<clus scale="   78.066">  1  9  2 -1</clus>
<clus scale="   91.808">  7  8 -1 -1</clus>
<clus scale="   92.035">  1  7  2 -1</clus>
<clus scale="  104.205">  5  6 -1 -1</clus>
<clus scale="   78.066">  1  5  2 -1</clus>
</clustering>
</event>
<event>
 9    2  0.1033155E-004  0.1548378E+03  0.7546771E-02  0.1197334E+00
         21   -1    0    0  501  502  0.00000000000E+00  0.00000000000E+00  0.32845362751E+03  0.32845362751E+03  0.00000000000E+00 0.  1.
          4   -1    0    0  502    0 -0.00000000000E+00 -0.00000000000E+00 -0.86595376238E+02  0.86595376238E+02  0.00000000000E+00 0. -1.
         24    2    1    2    0    0 -0.10160007381E+03  0.67231542079E+02  0.79528211554E+02  0.16580607242E+03  0.79525228509E+02 0.  0.
         23    2    1    2    0    0  0.84962494420E+02 -0.92469127122E+02  0.14719115670E+03  0.21543567580E+03  0.94752988717E+02 0.  0.
        -11    1    3    3    0    0 -0.67957954556E+02  0.25230520335E+01  0.59024289453E+02  0.90047299374E+02  0.00000000000E+00 0.  1.
         12    1    3    3    0    0 -0.33642119257E+02  0.64708490045E+02  0.20503922101E+02  0.75758773047E+02  0.00000000000E+00 0. -1.
        -13    1    4    4    0    0  0.34847187273E+02 -0.96314196966E+02  0.72818144758E+02  0.12567113115E+03  0.00000000000E+00 0. -1.
         13    1    4    4    0    0  0.50115307147E+02  0.38450698439E+01  0.74373011938E+02  0.89764544655E+02  0.00000000000E+00 0.  1.
          3    1    1    2  501    0  0.16637579393E+02  0.25237585043E+02  0.15138883023E+02  0.33807255524E+02  0.00000000000E+00 0. -1.
<scales pt_clust_5="13000.00000" pt_clust_6="13000.00000" pt_clust_7="13000.00000" pt_clust_8="13000.00000" pt_clust_9="30.22823"></scales>
<clustering>
<clus scale="   30.228">  1  9  2 -1</clus>
<clus scale="   79.525">  5  6 -1 -1</clus>
<clus scale="   94.753">  7  8 -1 -1</clus>
<clus scale="  146.017">  2  5  1 -1</clus>
<clus scale="   30.228">  1  5  2 -1</clus>
</clustering>
</event>
<event>
 9    2  0.1033155E-004  0.1472179E+03  0.7546771E-02  0.1213401E+00
         21   -1    0    0  501  502  0.00000000000E+00  0.00000000000E+00  0.49466513672E+02  0.49466513672E+02  0.00000000000E+00 0.  1.
          2   -1    0    0  502    0 -0.00000000000E+00 -0.00000000000E+00 -0.13102014232E+04  0.13102014232E+04  0.00000000000E+00 0. -1.
         24    2    1    2    0    0  0.86968634536E+02 -0.52432179624E+00 -0.93018931019E+02  0.15200300855E+03  0.82997438348E+02 0.  0.
         23    2    1    2    0    0  0.88838796410E+02  0.16781845279E+01 -0.37300374077E+03  0.39373795065E+03  0.89457448570E+02 0.  0.
        -13    1    3    3    0    0  0.87510251288E+02  0.58623139174E+01 -0.10596712498E+03  0.13755523393E+03  0.00000000000E+00 0.  1.
         14    1    3    3    0    0 -0.54161675148E+00 -0.63866357136E+01  0.12948193962E+02  0.14447774615E+02  0.00000000000E+00 0. -1.
        -11    1    4    4    0    0  0.45118037388E+02  0.44646386268E+02 -0.16136245789E+03  0.17339775063E+03  0.00000000000E+00 0.  1.
         11    1    4    4    0    0  0.43720759023E+02 -0.42968201741E+02 -0.21164128288E+03  0.22034020003E+03  0.00000000000E+00 0. -1.
          1    1    1    2  501    0 -0.17580743095E+03 -0.11538627317E+01 -0.79471223774E+03  0.81392697768E+03  0.00000000000E+00 0. -1.
<scales pt_clust_5="13000.00000" pt_clust_6="13000.00000" pt_clust_7="13000.00000" pt_clust_8="13000.00000" pt_clust_9="116.92092"></scales>
<clustering>
<clus scale="   82.997">  5  6 -1 -1</clus>
<clus scale="   89.457">  7  8 -1 -1</clus>
<clus scale="  120.218">  2  5  1 -1</clus>
<clus scale="  116.921">  1  9  2 -1</clus>
<clus scale="  116.921">  1  5  2 -1</clus>
</clustering>
</event>
<event>
 9    2  0.1033155E-004  0.9400563E+02  0.7546771E-02  0.1306301E+00
         21   -1    0    0  501  502  0.00000000000E+00  0.00000000000E+00  0.16243953148E+03  0.16243953148E+03  0.00000000000E+00 0.  1.
          2   -1    0    0  502    0 -0.00000000000E+00 -0.00000000000E+00 -0.11933713917E+03  0.11933713917E+03  0.00000000000E+00 0. -1.
         24    2    1    2    0    0  0.80302420593E+01 -0.12075369189E+02 -0.57681907810E+02  0.94489910520E+02  0.73422349274E+02 0.  0.
         23    2    1    2    0    0 -0.71330104832E+01 -0.30318254538E+02  0.10584761672E+03  0.14458240986E+03  0.93435961380E+02 0.  0.
        -11    1    3    3    0    0 -0.27715198375E+02 -0.22215551960E+02 -0.39507504710E+02  0.53127261348E+02  0.00000000000E+00 0.  1.
         12    1    3    3    0    0  0.35745440435E+02  0.10140182771E+02 -0.18174403100E+02  0.41362649172E+02  0.00000000000E+00 0. -1.
        -13    1    4    4    0    0  0.29987395671E+02 -0.39463666980E+02  0.90898098620E+02  0.10353303455E+03  0.00000000000E+00 0.  1.
         13    1    4    4    0    0 -0.37120406154E+02  0.91454124419E+01  0.14949518096E+02  0.41049375307E+02  0.00000000000E+00 0. -1.
          1    1    1    2  501    0 -0.89723157607E+00  0.42393623727E+02 -0.50633166011E+01  0.42704350272E+02  0.00000000000E+00 0. -1.
<scales pt_clust_5="13000.00000" pt_clust_6="13000.00000" pt_clust_7="13000.00000" pt_clust_8="13000.00000" pt_clust_9="42.40314"></scales>
<clustering>
<clus scale="   42.403">  1  9  2 -1</clus>
<clus scale="   73.422">  5  6 -1 -1</clus>
<clus scale="   74.146">  2  5  1 -1</clus>
<clus scale="   93.436">  7  8 -1 -1</clus>
<clus scale="   42.403">  1  5  2 -1</clus>
</clustering>
</event>
<event>
 9    2  0.1033155E-004  0.1041604E+03  0.7546771E-02  0.1271860E+00
         21   -1    0    0  501  502  0.00000000000E+00  0.00000000000E+00  0.33815440043E+02  0.33815440043E+02  0.00000000000E+00 0.  1.
          2   -1    0    0  502    0 -0.00000000000E+00 -0.00000000000E+00 -0.54024428573E+03  0.54024428573E+03  0.00000000000E+00 0. -1.
         24    2    1    2    0    0  0.38722128329E+02 -0.47189952018E+02 -0.21162428734E+03  0.23238471127E+03  0.74104792329E+02 0.  0.
         23    2    1    2    0    0 -0.83491894525E+02  0.38995163407E+02 -0.25528003401E+03  0.28139504644E+03  0.74321983136E+02 0.  0.
        -11    1    3    3    0    0  0.17390707637E+02 -0.39757015328E+02 -0.39172526600E+02  0.58459762402E+02  0.00000000000E+00 0.  1.
         12    1    3    3    0    0  0.21331420693E+02 -0.74329366900E+01 -0.17245176074E+03  0.17392494886E+03  0.00000000000E+00 0. -1.
        -13    1    4    4    0    0 -0.65906797205E+02  0.19911688039E+01 -0.92868584321E+02  0.11389576210E+03  0.00000000000E+00 0.  1.
         13    1    4    4    0    0 -0.17585097320E+02  0.37003994603E+02 -0.16241144969E+03  0.16749928434E+03  0.00000000000E+00 0. -1.
          1    1    1    2  501    0  0.44769766196E+02  0.81947886112E+01 -0.39524524346E+02  0.60279968068E+02  0.00000000000E+00 0. -1.
<scales pt_clust_5="13000.00000" pt_clust_6="13000.00000" pt_clust_7="13000.00000" pt_clust_8="13000.00000" pt_clust_9="45.51359"></scales>
<clustering>
<clus scale="   45.514">  1  9  2 -1</clus>
<clus scale="   74.105">  5  6 -1 -1</clus>
<clus scale="   74.322">  7  8 -1 -1</clus>
<clus scale="  104.006">  2  5  1 -1</clus>
<clus scale="   45.514">  1  5  2 -1</clus>
</clustering>
</event>
<event>
 9    2  0.1033155E-004  0.9849265E+02  0.7546771E-02  0.1292059E+00
         21   -1    0    0  501  502  0.00000000000E+00  0.00000000000E+00  0.23144619297E+02  0.23144619297E+02  0.00000000000E+00 0.  1.
          2   -1    0    0  502    0 -0.00000000000E+00 -0.00000000000E+00 -0.61560141380E+03  0.61560141380E+03  0.00000000000E+00 0. -1.
         24    2    1    2    0    0 -0.48078588185E+01  0.11877185106E+02 -0.26740591533E+03  0.28002931104E+03  0.82135914509E+02 0.  0.
         23    2    1    2    0    0  0.40596867818E+02  0.99119655700E+01 -0.19103552294E+03  0.21830398775E+03  0.97034567564E+02 0.  0.
        -11    1    3    3    0    0  0.16576850881E+02  0.21229591342E+02 -0.25797394500E+02  0.37296019850E+02  0.00000000000E+00 0.  1.
         12    1    3    3    0    0 -0.21384709699E+02 -0.93524062356E+01 -0.24160852083E+03  0.24273329119E+03  0.00000000000E+00 0. -1.
        -13    1    4    4    0    0  0.38570837135E+02  0.41275935612E+02 -0.17317011291E+03  0.18215186066E+03  0.00000000000E+00 0. -1.
         13    1    4    4    0    0  0.20260306831E+01 -0.31363970042E+02 -0.17865410035E+02  0.36152127086E+02  0.00000000000E+00 0.  1.
          1    1    1    2  501    0 -0.35789009000E+02 -0.21789150676E+02 -0.13401535623E+03  0.14041273431E+03  0.00000000000E+00 0. -1.
<scales pt_clust_5="13000.00000" pt_clust_6="13000.00000" pt_clust_7="13000.00000" pt_clust_8="13000.00000" pt_clust_9="41.90014"></scales>
<clustering>
<clus scale="   41.900">  1  9  2 -1</clus>
<clus scale="   82.136">  5  6 -1 -1</clus>
<clus scale="   83.853">  2  5  1 -1</clus>
<clus scale="   97.035">  7  8 -1 -1</clus>
<clus scale="   41.900">  1  5  2 -1</clus>
</clustering>
</event>
<event>
 9    2  0.1033155E-004  0.2400514E+03  0.7546771E-02  0.1119759E+00
         21   -1    0    0  501  502  0.00000000000E+00  0.00000000000E+00  0.15122425360E+03  0.15122425360E+03  0.00000000000E+00 0.  1.
          2   -1    0    0  502    0 -0.00000000000E+00 -0.00000000000E+00 -0.27996563190E+03  0.27996563190E+03  0.00000000000E+00 0. -1.
         24    2    1    2    0    0  0.15157653626E+02 -0.71528857813E+02 -0.34544547390E+02  0.11429052872E+03  0.80764269564E+02 0.  0.
         23    2    1    2    0    0 -0.13149425218E+02 -0.89915058150E+02  0.45813278859E+01  0.12762364350E+03  0.89494026328E+02 0.  0.
        -11    1    3    3    0    0 -0.17438626753E+02 -0.73868572963E+02 -0.19806796746E+02  0.78440939387E+02  0.00000000000E+00 0.  1.
         12    1    3    3    0    0  0.32596280379E+02  0.23397151504E+01 -0.14737750644E+02  0.35849589336E+02  0.00000000000E+00 0. -1.
        -13    1    4    4    0    0  0.28689330770E+02 -0.43529102631E+02  0.30039143374E+02  0.60168186034E+02  0.00000000000E+00 0.  1.
         13    1    4    4    0    0 -0.41838755988E+02 -0.46385955519E+02 -0.25457815488E+02  0.67455457463E+02  0.00000000000E+00 0. -1.
          1    1    1    2  501    0 -0.20082284078E+01  0.16144391596E+03 -0.98778158799E+02  0.18927571328E+03  0.00000000000E+00 0. -1.
<scales pt_clust_5="13000.00000" pt_clust_6="13000.00000" pt_clust_7="13000.00000" pt_clust_8="13000.00000" pt_clust_9="161.45649"></scales>
<clustering>
<clus scale="   80.764">  5  6 -1 -1</clus>
<clus scale="   89.494">  7  8 -1 -1</clus>
<clus scale="   99.645">  5  7 -1 -1</clus>
<clus scale="  161.456">  1  9  2 -1</clus>
<clus scale="  161.456">  1  5  2 -1</clus>
</clustering>
</event>
<event>
 9    2  0.1033155E-004  0.1834590E+03  0.7546771E-02  0.1176202E+00
          2   -1    0    0  502    0 -0.00000000000E+00  0.00000000000E+00  0.15543796480E+04  0.15543796480E+04  0.00000000000E+00 0. -1.
         21   -1    0    0  501  502  0.00000000000E+00 -0.00000000000E+00 -0.45733329404E+02  0.45733329404E+02  0.00000000000E+00 0.  1.
         24    2    1    2    0    0 -0.11412343992E+03 -0.82790497577E+01  0.22430176952E+03  0.26461294474E+03  0.81338948287E+02 0.  0.
         23    2    1    2    0    0 -0.57276991020E+02  0.12001226548E+03  0.57556768293E+03  0.59778256289E+03  0.91554559115E+02 0.  0.
        -11    1    3    3    0    0 -0.12033889204E+03  0.57358169792E+01  0.21561884890E+03  0.24699359614E+03  0.00000000000E+00 0.  1.
         12    1    3    3    0    0  0.62154521146E+01 -0.14014866737E+02  0.86829206290E+01  0.17619348606E+02  0.00000000000E+00 0. -1.
        -13    1    4    4    0    0 -0.65449223573E+02  0.53030069684E+02  0.21419295127E+03  0.23016170301E+03  0.00000000000E+00 0. -1.
         13    1    4    4    0    0  0.81722325532E+01  0.66982195799E+02  0.36137473166E+03  0.36762085988E+03  0.00000000000E+00 0.  1.
          1    1    1    2  501    0  0.17140043094E+03 -0.11173321573E+03  0.70877686610E+03  0.73771746973E+03  0.00000000000E+00 0. -1.
<scales pt_clust_5="13000.00000" pt_clust_6="13000.00000" pt_clust_7="13000.00000" pt_clust_8="13000.00000" pt_clust_9="158.98113"></scales>
<clustering>
<clus scale="   81.339">  5  6 -1 -1</clus>
<clus scale="   91.555">  7  8 -1 -1</clus>
<clus scale="  140.388">  1  5  2 -1</clus>
<clus scale="  158.981">  2  9  1 -1</clus>
<clus scale="  158.981">  2  5  1 -1</clus>
</clustering>
</event>
<event>
 9    2  0.1033155E-004  0.1049116E+03  0.7546771E-02  0.1271360E+00
          2   -1    0    0  502    0 -0.00000000000E+00  0.00000000000E+00  0.20595668430E+03  0.20595668430E+03  0.00000000000E+00 0. -1.
         21   -1    0    0  501  502  0.00000000000E+00 -0.00000000000E+00 -0.16685151241E+03  0.16685151241E+03  0.00000000000E+00 0.  1.
         24    2    1    2    0    0 -0.42059460994E+02 -0.18548732202E+02  0.10510915719E+03  0.14487802173E+03  0.88479672987E+02 0.  0.
         23    2    1    2    0    0  0.10223273082E+03  0.53398195185E+02 -0.66338822578E+02  0.15839299364E+03  0.85933710228E+02 0.  0.
        -13    1    3    3    0    0  0.76021135240E+01  0.22248762186E+02  0.22883177198E+01  0.23622784485E+02  0.00000000000E+00 0.  1.
         14    1    3    3    0    0 -0.49661574518E+02 -0.40797494388E+02  0.10282083947E+03  0.12125523725E+03  0.00000000000E+00 0. -1.
        -11    1    4    4    0    0  0.73580934066E+02  0.70153846893E+02 -0.72192148229E+02  0.12468930330E+03  0.00000000000E+00 0.  1.
         11    1    4    4    0    0  0.28651796750E+02 -0.16755651708E+02  0.58533256509E+01  0.33703690337E+02  0.00000000000E+00 0. -1.
          1    1    1    2  501    0 -0.60173269822E+02 -0.34849462983E+02  0.33483727855E+00  0.69537181330E+02  0.00000000000E+00 0. -1.
<scales pt_clust_5="13000.00000" pt_clust_6="13000.00000" pt_clust_7="13000.00000" pt_clust_8="13000.00000" pt_clust_9="69.53638"></scales>
<clustering>
<clus scale="   69.536">  2  9  1 -1</clus>
<clus scale="   85.934">  7  8 -1 -1</clus>
<clus scale="   88.480">  5  6 -1 -1</clus>
<clus scale="  102.774">  2  7  1 -1</clus>
<clus scale="   69.536">  2  5  1 -1</clus>
</clustering>
</event>
<event>
 9    2  0.1033155E-004  0.2371699E+03  0.7546771E-02  0.1123231E+00
          4   -1    0    0  502    0 -0.00000000000E+00  0.00000000000E+00  0.10567907202E+04  0.10567907202E+04  0.00000000000E+00 0. -1.
         21   -1    0    0  501  502  0.00000000000E+00 -0.00000000000E+00 -0.38377227147E+03  0.38377227147E+03  0.00000000000E+00 0. -1.
         24    2    1    2    0    0  0.19467703419E+03 -0.10953188455E+03  0.68180572997E+03  0.72189893861E+03  0.79891443647E+02 0.  0.
         23    2    1    2    0    0 -0.19051005859E+03  0.59849969187E+02  0.31735054087E+03  0.38873749236E+03  0.10261272311E+03 0.  0.
        -13    1    3    3    0    0  0.68049034413E+02 -0.21058847390E+02  0.12302594046E+03  0.14216022005E+03  0.00000000000E+00 0.  1.
         14    1    3    3    0    0  0.12662799977E+03 -0.88473037158E+02  0.55877978951E+03  0.57973871856E+03  0.00000000000E+00 0. -1.
        -11    1    4    4    0    0 -0.11516398960E+03  0.79679627266E+02  0.15648765345E+03  0.20999993615E+03  0.00000000000E+00 0. -1.
         11    1    4    4    0    0 -0.75346068986E+02 -0.19829658079E+02  0.16086288742E+03  0.17873755621E+03  0.00000000000E+00 0.  1.
          3    1    1    2  501    0 -0.41669755991E+01  0.49681915361E+02 -0.32613782215E+03  0.32992656067E+03  0.00000000000E+00 0. -1.
<scales pt_clust_5="13000.00000" pt_clust_6="13000.00000" pt_clust_7="13000.00000" pt_clust_8="13000.00000" pt_clust_9="49.85636"></scales>
<clustering>
<clus scale="   49.856">  2  9  1 -1</clus>
<clus scale="   79.891">  5  6 -1 -1</clus>
<clus scale="  102.613">  7  8 -1 -1</clus>
<clus scale="  228.260">  1  5  2 -1</clus>
<clus scale="   49.856">  2  5  1 -1</clus>
</clustering>
</event>
<event>
 9    2  0.1033155E-004  0.1621392E+03  0.7546771E-02  0.1199975E+00
         21   -1    0    0  501  502  0.00000000000E+00  0.00000000000E+00  0.14988829898E+03  0.14988829898E+03  0.00000000000E+00 0. -1.
          2   -1    0    0  502    0 -0.00000000000E+00 -0.00000000000E+00 -0.63580115224E+03  0.63580115224E+03  0.00000000000E+00 0. -1.
         23    2    1    2    0    0  0.59514330381E+02  0.53212843801E+02 -0.45829577540E+02  0.12850983086E+03  0.89670865860E+02 0.  0.
         24    2    1    2    0    0  0.10213094031E+03 -0.96152823434E+02  0.24936490863E+02  0.16299704407E+03  0.79184047491E+02 0.  0.
        -13    1    4    4    0    0 -0.37206694128E+01 -0.41487157069E+02  0.10772093164E+02  0.43024011595E+02  0.00000000000E+00 0.  1.
         14    1    4    4    0    0  0.10585160972E+03 -0.54665666364E+02  0.14164397698E+02  0.11997303248E+03  0.00000000000E+00 0. -1.
        -11    1    3    3    0    0 -0.13865069488E+02  0.16514801619E+02  0.15092089177E+02  0.26320144000E+02  0.00000000000E+00 0. -1.
         11    1    3    3    0    0  0.73379399869E+02  0.36698042182E+02 -0.60921666717E+02  0.10218968686E+03  0.00000000000E+00 0.  1.
          1    1    1    2  501    0 -0.16164527069E+03  0.42939979633E+02 -0.46501976659E+03  0.49418257629E+03  0.00000000000E+00 0. -1.
<scales pt_clust_5="13000.00000" pt_clust_6="13000.00000" pt_clust_7="13000.00000" pt_clust_8="13000.00000" pt_clust_9="141.48859"></scales>
<clustering>
<clus scale="   79.184">  5  6 -1 -1</clus>
<clus scale="   89.671">  7  8 -1 -1</clus>
<clus scale="  120.060">  2  7  1 -1</clus>
<clus scale="  141.489">  1  9  2 -1</clus>
<clus scale="  141.489">  1  5  2 -1</clus>
</clustering>
</event>
<event>
 9    2  0.1033155E-004  0.1635434E+03  0.7546771E-02  0.1186118E+00
          2   -1    0    0  502    0 -0.00000000000E+00  0.00000000000E+00  0.11581995274E+04  0.11581995274E+04  0.00000000000E+00 0. -1.
         21   -1    0    0  501  502  0.00000000000E+00 -0.00000000000E+00 -0.15482960999E+03  0.15482960999E+03  0.00000000000E+00 0. -1.
         24    2    1    2    0    0  0.11328724461E+03 -0.76349112036E+02  0.91224229655E+03  0.92592657632E+03  0.80565690053E+02 0.  0.
         23    2    1    2    0    0 -0.13795422992E+03  0.41367326620E+02 -0.96093005224E+02  0.19505114007E+03  0.89824586409E+02 0.  0.
        -13    1    3    3    0    0 -0.15745780445E+01 -0.29796089781E+02  0.10250469690E+03  0.10675907057E+03  0.00000000000E+00 0.  1.
         14    1    3    3    0    0  0.11486182265E+03 -0.46553022255E+02  0.80973759965E+03  0.81916750575E+03  0.00000000000E+00 0. -1.
        -11    1    4    4    0    0 -0.33378087351E+02  0.35150626386E+02  0.59121956931E+01  0.48832543538E+02  0.00000000000E+00 0.  1.
         11    1    4    4    0    0 -0.10457614257E+03  0.62167002348E+01 -0.10200520092E+03  0.14621859653E+03  0.00000000000E+00 0. -1.
          1    1    1    2  501    0  0.24666985315E+02  0.34981785415E+02  0.18722062604E+03  0.19205142096E+03  0.00000000000E+00 0. -1.
<scales pt_clust_5="13000.00000" pt_clust_6="13000.00000" pt_clust_7="13000.00000" pt_clust_8="13000.00000" pt_clust_9="42.80406"></scales>
<clustering>
<clus scale="   42.804">  2  9  1 -1</clus>
<clus scale="   80.566">  5  6 -1 -1</clus>
<clus scale="   89.825">  7  8 -1 -1</clus>
<clus scale="  158.647">  1  5  2 -1</clus>
<clus scale="   42.804">  2  5  1 -1</clus>
</clustering>
</event>
<event>
 9    2  0.1033155E-004  0.9163927E+02  0.7546771E-02  0.1303881E+00
         21   -1    0    0  501  502  0.00000000000E+00  0.00000000000E+00  0.77890193527E+02  0.77890193527E+02  0.00000000000E+00 0.  1.
          4   -1    0    0  502    0 -0.00000000000E+00 -0.00000000000E+00 -0.31924791470E+03  0.31924791470E+03  0.00000000000E+00 0. -1.
         24    2    1    2    0    0 -0.12383169717E+02  0.88240871557E+01 -0.12825842607E+03  0.15228000730E+03  0.80670746599E+02 0.  0.
         23    2    1    2    0    0  0.65692957139E+02  0.43658976065E+02 -0.12534088781E+02  0.11951949522E+03  0.88916452621E+02 0.  0.
        -13    1    3    3    0    0  0.13947736595E+02 -0.24298561706E+02 -0.15891521794E+02  0.32210245606E+02  0.00000000000E+00 0.  1.
         14    1    3    3    0    0 -0.26330906312E+02  0.33122648862E+02 -0.11236690428E+03  0.12006976169E+03  0.00000000000E+00 0. -1.
        -11    1    4    4    0    0  0.28282605541E+02 -0.26357000030E+01  0.33756069800E+02  0.44117172836E+02  0.00000000000E+00 0.  1.
         11    1    4    4    0    0  0.37410351598E+02  0.46294676068E+02 -0.46290158582E+02  0.75402322381E+02  0.00000000000E+00 0. -1.
          3    1    1    2  501    0 -0.53309787422E+02 -0.52483063221E+02 -0.10056520631E+03  0.12533860571E+03  0.00000000000E+00 0. -1.
<scales pt_clust_5="13000.00000" pt_clust_6="13000.00000" pt_clust_7="13000.00000" pt_clust_8="13000.00000" pt_clust_9="74.80916"></scales>
<clustering>
<clus scale="   74.809">  1  9  2 -1</clus>
<clus scale="   80.671">  5  6 -1 -1</clus>
<clus scale="   83.662">  2  5  1 -1</clus>
<clus scale="   88.916">  7  8 -1 -1</clus>
<clus scale="   74.809">  1  5  2 -1</clus>
</clustering>
</event>
<event>
 9    2  0.1033155E-004  0.8946179E+02  0.7546771E-02  0.1309806E+00
         21   -1    0    0  501  502  0.00000000000E+00  0.00000000000E+00  0.33871879842E+02  0.33871879842E+02  0.00000000000E+00 0.  1.
          4   -1    0    0  502    0 -0.00000000000E+00 -0.00000000000E+00 -0.39837765179E+03  0.39837765179E+03  0.00000000000E+00 0. -1.
         24    2    1    2    0    0 -0.34848341002E+01 -0.25200577971E+00 -0.27311905044E+03  0.28473292775E+03  0.80415277508E+02 0.  0.
         23    2    1    2    0    0  0.96171807494E+01  0.21845941272E+02 -0.80808841428E+02  0.12270138128E+03  0.89195430379E+02 0.  0.
        -13    1    3    3    0    0  0.94319580072E+01 -0.38751370260E+02 -0.13538066234E+03  0.14113310832E+03  0.00000000000E+00 0.  1.
         14    1    3    3    0    0 -0.12916792107E+02  0.38499364480E+02 -0.13773838810E+03  0.14359981943E+03  0.00000000000E+00 0. -1.
        -11    1    4    4    0    0 -0.20362593003E+02  0.21071486671E+02  0.68174502561E+01  0.30085218502E+02  0.00000000000E+00 0.  1.
         11    1    4    4    0    0  0.29979773752E+02  0.77445460127E+00 -0.87626291684E+02  0.92616162782E+02  0.00000000000E+00 0. -1.
          3    1    1    2  501    0 -0.61323466491E+01 -0.21593935492E+02 -0.10577880077E+02  0.24815222594E+02  0.00000000000E+00 0. -1.
<scales pt_clust_5="13000.00000" pt_clust_6="13000.00000" pt_clust_7="13000.00000" pt_clust_8="13000.00000" pt_clust_9="22.44780"></scales>
<clustering>
<clus scale="   22.448">  1  9  2 -1</clus>
<clus scale="   80.415">  5  6 -1 -1</clus>
<clus scale="   80.711">  2  5  1 -1</clus>
<clus scale="   89.195">  7  8 -1 -1</clus>
<clus scale="   22.448">  1  5  2 -1</clus>
</clustering>
</event>
<event>
 9    2  0.1033155E-004  0.2311501E+03  0.7546771E-02  0.1127139E+00
          2   -1    0    0  502    0 -0.00000000000E+00  0.00000000000E+00  0.64340326026E+03  0.64340326026E+03  0.00000000000E+00 0. -1.
         21   -1    0    0  501  502  0.00000000000E+00 -0.00000000000E+00 -0.22937158532E+03  0.22937158532E+03  0.00000000000E+00 0. -1.
         24    2    1    2    0    0 -0.72057676781E+02 -0.20917267405E+03  0.45434154576E+03  0.51156055415E+03  0.79513797573E+02 0.  0.
         23    2    1    2    0    0  0.80192671262E+02  0.16292642030E+03  0.88090623835E+02  0.22449713395E+03  0.98301181014E+02 0.  0.
        -13    1    3    3    0    0 -0.80659109678E+02 -0.13672772883E+03  0.26857305308E+03  0.31198052607E+03  0.00000000000E+00 0.  1.
         14    1    3    3    0    0  0.86014328974E+01 -0.72444945221E+02  0.18576849268E+03  0.19958002808E+03  0.00000000000E+00 0. -1.
        -13    1    4    4    0    0  0.52717946018E+02  0.76414221779E+02  0.95798376075E+02  0.13340031477E+03  0.00000000000E+00 0. -1.
         13    1    4    4    0    0  0.27474725244E+02  0.86512198520E+02 -0.77077522397E+01  0.91096819179E+02  0.00000000000E+00 0.  1.
          1    1    1    2  501    0 -0.81349944809E+01  0.46246253752E+02 -0.12840049466E+03  0.13671715748E+03  0.00000000000E+00 0. -1.
<scales pt_clust_5="13000.00000" pt_clust_6="13000.00000" pt_clust_7="13000.00000" pt_clust_8="13000.00000" pt_clust_9="46.95630"></scales>
<clustering>
<clus scale="   46.956">  2  9  1 -1</clus>
<clus scale="   79.514">  5  6 -1 -1</clus>
<clus scale="   98.301">  7  8 -1 -1</clus>
<clus scale="  223.807">  1  5  2 -1</clus>
<clus scale="   46.956">  2  5  1 -1</clus>
</clustering>
</event>
<event>
 9    2  0.1033155E-004  0.1287572E+03  0.7546771E-02  0.1230417E+00
          2   -1    0    0  502    0 -0.00000000000E+00  0.00000000000E+00  0.22363750362E+04  0.22363750362E+04  0.00000000000E+00 0. -1.
         21   -1    0    0  501  502  0.00000000000E+00 -0.00000000000E+00 -0.18352416704E+02  0.18352416704E+02  0.00000000000E+00 0.  1.
         24    2    1    2    0    0  0.30863632402E+02  0.91843965926E+02  0.18954085751E+04  0.18997748251E+04  0.84751647245E+02 0.  0.
         23    2    1    2    0    0 -0.36915165177E+02 -0.60165863760E+02  0.22335959462E+03  0.25058994764E+03  0.89012093387E+02 0.  0.
        -13    1    3    3    0    0  0.10767705483E+02  0.34489949277E+02  0.19742835775E+03  0.20070739031E+03  0.00000000000E+00 0.  1.
         14    1    3    3    0    0  0.20095926919E+02  0.57354016649E+02  0.16979802174E+04  0.16990674348E+04  0.00000000000E+00 0. -1.
        -11    1    4    4    0    0 -0.23329899349E+01 -0.47820687791E+02  0.20306985421E+03  0.20863754866E+03  0.00000000000E+00 0. -1.
         11    1    4    4    0    0 -0.34582175243E+02 -0.12345175969E+02  0.20289740405E+02  0.41952398977E+02  0.00000000000E+00 0.  1.
          1    1    1    2  501    0  0.60515327749E+01 -0.31678102166E+02  0.99254449739E+02  0.10436268011E+03  0.00000000000E+00 0. -1.
<scales pt_clust_5="13000.00000" pt_clust_6="13000.00000" pt_clust_7="13000.00000" pt_clust_8="13000.00000" pt_clust_9="32.25094"></scales>
<clustering>
<clus scale="   32.251">  2  9  1 -1</clus>
<clus scale="   84.752">  5  6 -1 -1</clus>
<clus scale="   89.012">  7  8 -1 -1</clus>
<clus scale="  125.850">  1  5  2 -1</clus>
<clus scale="   32.251">  2  5  1 -1</clus>
</clustering>
</event>
<event>
 9    2  0.1033155E-004  0.1017250E+03  0.7546771E-02  0.1286574E+00
         21   -1    0    0  501  502  0.00000000000E+00  0.00000000000E+00  0.23288202344E+02  0.23288202344E+02  0.00000000000E+00 0. -1.
          2   -1    0    0  502    0 -0.00000000000E+00 -0.00000000000E+00 -0.90576525891E+03  0.90576525891E+03  0.00000000000E+00 0. -1.
         23    2    1    2    0    0  0.42749004382E+02  0.24313328875E+02 -0.34350206125E+03  0.36153208537E+03  0.10145524790E+03 0.  0.
         24    2    1    2    0    0  0.32642995332E+02  0.13525537284E+02 -0.20556681004E+03  0.22360750379E+03  0.80585960688E+02 0.  0.
        -13    1    4    4    0    0  0.51716502287E+02 -0.87341682972E+01 -0.16775965312E+03  0.17576741313E+03  0.00000000000E+00 0.  1.
         14    1    4    4    0    0 -0.19073506955E+02  0.22259705581E+02 -0.37807156921E+02  0.47840090662E+02  0.00000000000E+00 0. -1.
        -13    1    3    3    0    0  0.65475987874E+02  0.46958771183E+02 -0.25204259043E+03  0.26460857615E+03  0.00000000000E+00 0. -1.
         13    1    3    3    0    0 -0.22726983492E+02 -0.22645442309E+02 -0.91459470824E+02  0.96923509220E+02  0.00000000000E+00 0.  1.
          1    1    1    2  501    0 -0.75391999714E+02 -0.37838866158E+02 -0.33340818528E+03  0.34391387210E+03  0.00000000000E+00 0. -1.
<scales pt_clust_5="13000.00000" pt_clust_6="13000.00000" pt_clust_7="13000.00000" pt_clust_8="13000.00000" pt_clust_9="84.35485"></scales>
<clustering>
<clus scale="   80.586">  5  6 -1 -1</clus>
<clus scale="   84.355">  1  9  2 -1</clus>
<clus scale="   84.355">  1  5  2 -1</clus>
<clus scale="  101.455">  7  8 -1 -1</clus>
<clus scale="   84.355">  1  5  2 -1</clus>
</clustering>
</event>
<event>
 9    2  0.1033155E-004  0.9588905E+02  0.7546771E-02  0.1294934E+00
         21   -1    0    0  501  502  0.00000000000E+00  0.00000000000E+00  0.75899015961E+02  0.75899015961E+02  0.00000000000E+00 0.  1.
          4   -1    0    0  502    0 -0.00000000000E+00 -0.00000000000E+00 -0.18455010875E+03  0.18455010875E+03  0.00000000000E+00 0. -1.
         23    2    1    2    0    0 -0.33485109878E+02  0.14499652998E+01 -0.11842777902E+03  0.15296323076E+03  0.90825415699E+02 0.  0.
         24    2    1    2    0    0  0.22412676128E+02  0.17148586787E+02  0.99420311693E+01  0.85840287750E+02  0.80456876258E+02 0.  0.
        -11    1    4    4    0    0  0.11189089131E+02 -0.26282289085E+02  0.25570554129E+02  0.38338070812E+02  0.00000000000E+00 0.  1.
         12    1    4    4    0    0  0.11223586997E+02  0.43430875872E+02 -0.15628522960E+02  0.47502216938E+02  0.00000000000E+00 0. -1.
        -13    1    3    3    0    0  0.37176288973E+00  0.30888145423E+02 -0.54029373975E+01  0.31359328243E+02  0.00000000000E+00 0.  1.
         13    1    3    3    0    0 -0.33856872767E+02 -0.29438180123E+02 -0.11302484162E+03  0.12160390251E+03  0.00000000000E+00 0. -1.
          3    1    1    2  501    0  0.11072433750E+02 -0.18598552087E+02 -0.16534493321E+00  0.21645606201E+02  0.00000000000E+00 0. -1.
<scales pt_clust_5="13000.00000" pt_clust_6="13000.00000" pt_clust_7="13000.00000" pt_clust_8="13000.00000" pt_clust_9="21.64497"></scales>
<clustering>
<clus scale="   21.645">  1  9  2 -1</clus>
<clus scale="   80.457">  5  6 -1 -1</clus>
<clus scale="   86.132">  1  5  2 -1</clus>
<clus scale="   90.825">  7  8 -1 -1</clus>
<clus scale="   21.645">  1  5  2 -1</clus>
</clustering>
</event>
<event>
 9    2  0.1033155E-004  0.9697187E+02  0.7546771E-02  0.1292249E+00
         21   -1    0    0  501  502  0.00000000000E+00  0.00000000000E+00  0.76578794217E+03  0.76578794217E+03  0.00000000000E+00 0. -1.
          2   -1    0    0  502    0 -0.00000000000E+00 -0.00000000000E+00 -0.56745673026E+03  0.56745673026E+03  0.00000000000E+00 0. -1.
         24    2    1    2    0    0 -0.25069222645E+02 -0.16536401487E+02 -0.55127633144E+03  0.55820250589E+03  0.82356089469E+02 0.  0.
         23    2    1    2    0    0  0.33797531520E+02 -0.56769795313E+02  0.32971681782E+03  0.34871107074E+03  0.92310065056E+02 0.  0.
        -11    1    3    3    0    0 -0.45704681686E+02 -0.35857371133E+01 -0.16770947049E+03  0.17386271001E+03  0.00000000000E+00 0.  1.
         12    1    3    3    0    0  0.20635459041E+02 -0.12950664374E+02 -0.38356686095E+03  0.38433979588E+03  0.00000000000E+00 0. -1.
        -13    1    4    4    0    0 -0.12168065907E+02  0.18775362430E+02  0.10203848441E+03  0.10446256920E+03  0.00000000000E+00 0.  1.
         13    1    4    4    0    0  0.45965597426E+02 -0.75545157742E+02  0.22767833341E+03  0.24424850155E+03  0.00000000000E+00 0. -1.
          1    1    1    2  501    0 -0.87283088747E+01  0.73306196800E+02  0.41989072553E+03  0.42633109581E+03  0.00000000000E+00 0. -1.
<scales pt_clust_5="13000.00000" pt_clust_6="13000.00000" pt_clust_7="13000.00000" pt_clust_8="13000.00000" pt_clust_9="73.82399"></scales>
<clustering>
<clus scale="   73.824">  1  9  2 -1</clus>
<clus scale="   82.356">  5  6 -1 -1</clus>
<clus scale="   87.550">  2  5  1 -1</clus>
<clus scale="   92.310">  7  8 -1 -1</clus>
<clus scale="   73.824">  1  5  2 -1</clus>
</clustering>
</event>
<event>
 9    2  0.1033155E-004  0.9779035E+02  0.7546771E-02  0.1291452E+00
         21   -1    0    0  501  502  0.00000000000E+00  0.00000000000E+00  0.69227282085E+02  0.69227282085E+02  0.00000000000E+00 0.  1.
         -1   -1    0    0    0  501 -0.00000000000E+00 -0.00000000000E+00 -0.30777027533E+03  0.30777027533E+03  0.00000000000E+00 0.  1.
         24    2    1    2    0    0 -0.31819447422E+02  0.12687161443E+02 -0.20458274479E+03  0.22313126827E+03  0.82219353644E+02 0.  0.
         23    2    1    2    0    0  0.36478793487E+01  0.29139094669E+02 -0.12893577379E+02  0.99213955452E+02  0.93887010587E+02 0.  0.
        -11    1    3    3    0    0 -0.31353687246E+02  0.39561720429E+02 -0.17915505265E+03  0.18613091178E+03  0.00000000000E+00 0.  1.
         12    1    3    3    0    0 -0.46576017645E+00 -0.26874558986E+02 -0.25427692138E+02  0.37000356494E+02  0.00000000000E+00 0. -1.
        -11    1    4    4    0    0  0.18087007389E+02 -0.31107100145E+02 -0.92576054597E+01  0.37155010087E+02  0.00000000000E+00 0. -1.
         11    1    4    4    0    0 -0.14439128040E+02  0.60246194813E+02 -0.36359719192E+01  0.62058945365E+02  0.00000000000E+00 0.  1.
         -2    1    1    2    0  502  0.28171568073E+02 -0.41826256111E+02 -0.21066671074E+02  0.54652333694E+02  0.00000000000E+00 0.  1.
<scales pt_clust_5="13000.00000" pt_clust_6="13000.00000" pt_clust_7="13000.00000" pt_clust_8="13000.00000" pt_clust_9="50.42889"></scales>
<clustering>
<clus scale="   50.429">  1  9  2 -1</clus>
<clus scale="   82.219">  5  6 -1 -1</clus>
<clus scale="   86.650">  2  5  1 -1</clus>
<clus scale="   93.887">  7  8 -1 -1</clus>
<clus scale="   50.429">  1  5  2 -1</clus>
</clustering>
</event>
<event>
 9    2  0.1033155E-004  0.1747028E+03  0.7546771E-02  0.1198318E+00
         21   -1    0    0  501  502  0.00000000000E+00  0.00000000000E+00  0.41490088805E+03  0.41490088805E+03  0.00000000000E+00 0.  1.
         -3   -1    0    0    0  501 -0.00000000000E+00 -0.00000000000E+00 -0.15952528749E+03  0.15952528749E+03  0.00000000000E+00 0.  1.
         23    2    1    2    0    0 -0.13218966115E+02  0.43881389721E+02 -0.50876292427E+02  0.11175132215E+03  0.88315590028E+02 0.  0.
         24    2    1    2    0    0  0.89329457033E+02 -0.16186982117E+03  0.14215544512E+03  0.24670790919E+03  0.80467577201E+02 0.  0.
        -11    1    4    4    0    0  0.64593382381E+02 -0.14490394576E+03  0.79965912488E+02  0.17766261763E+03  0.00000000000E+00 0.  1.
         12    1    4    4    0    0  0.24736074652E+02 -0.16965875417E+02  0.62189532635E+02  0.69045291565E+02  0.00000000000E+00 0. -1.
        -13    1    3    3    0    0 -0.22904322799E+02  0.63800901726E+02 -0.14747208374E+02  0.69373216869E+02  0.00000000000E+00 0.  1.
         13    1    3    3    0    0  0.96853566835E+01 -0.19919512005E+02 -0.36129084053E+02  0.42378105280E+02  0.00000000000E+00 0. -1.
         -4    1    1    2    0  502 -0.76110490918E+02  0.11798843145E+03  0.16409644787E+03  0.21596694420E+03  0.00000000000E+00 0.  1.
<scales pt_clust_5="13000.00000" pt_clust_6="13000.00000" pt_clust_7="13000.00000" pt_clust_8="13000.00000" pt_clust_9="155.06787"></scales>
<clustering>
<clus scale="   80.468">  5  6 -1 -1</clus>
<clus scale="   88.316">  7  8 -1 -1</clus>
<clus scale="   99.499">  2  7  1 -1</clus>
<clus scale="  155.068">  1  9  2 -1</clus>
<clus scale="  155.068">  1  5  2 -1</clus>
</clustering>
</event>
<event>
 9    2  0.1033155E-004  0.9555387E+02  0.7546771E-02  0.1295462E+00
         21   -1    0    0  501  502  0.00000000000E+00  0.00000000000E+00  0.17322075281E+03  0.17322075281E+03  0.00000000000E+00 0.  1.
          2   -1    0    0  502    0 -0.00000000000E+00 -0.00000000000E+00 -0.12428615946E+03  0.12428615946E+03  0.00000000000E+00 0. -1.
         23    2    1    2    0    0  0.20345010401E+02  0.49649142842E+01 -0.62128073594E+02  0.11187212045E+03  0.90647139964E+02 0.  0.
         24    2    1    2    0    0 -0.61833051390E+02 -0.15681598664E+02  0.60480324151E+02  0.11934242218E+03  0.80718680252E+02 0.  0.
        -13    1    4    4    0    0 -0.70905243960E+02 -0.28636062128E+02  0.67537555665E+02  0.10202401237E+03  0.00000000000E+00 0.  1.
         14    1    4    4    0    0  0.90721925700E+01  0.12954463463E+02 -0.70572315141E+01  0.17318409809E+02  0.00000000000E+00 0. -1.
        -11    1    3    3    0    0 -0.14516599721E+02 -0.35400744412E+02 -0.35773645332E+02  0.52380321426E+02  0.00000000000E+00 0.  1.
         11    1    3    3    0    0  0.34861610122E+02  0.40365658696E+02 -0.26354428262E+02  0.59491799025E+02  0.00000000000E+00 0. -1.
          1    1    1    2  501    0  0.41488040989E+02  0.10716684380E+02  0.50582342798E+02  0.66292369638E+02  0.00000000000E+00 0. -1.
<scales pt_clust_5="13000.00000" pt_clust_6="13000.00000" pt_clust_7="13000.00000" pt_clust_8="13000.00000" pt_clust_9="42.84979"></scales>
<clustering>
<clus scale="   42.850">  1  9  2 -1</clus>
<clus scale="   80.719">  5  6 -1 -1</clus>
<clus scale="   86.192">  1  5  2 -1</clus>
<clus scale="   90.647">  7  8 -1 -1</clus>
<clus scale="   42.850">  1  5  2 -1</clus>
</clustering>
</event>
<event>
 9    2  0.1033155E-004  0.1207180E+03  0.7546771E-02  0.1262144E+00
         -1   -1    0    0    0  501 -0.00000000000E+00  0.00000000000E+00  0.60970271769E+03  0.60970271769E+03  0.00000000000E+00 0.  1.
         21   -1    0    0  501  502  0.00000000000E+00 -0.00000000000E+00 -0.66058531970E+02  0.66058531970E+02  0.00000000000E+00 0. -1.
         24    2    1    2    0    0  0.12929024760E+02  0.48845948610E+01  0.33001485469E+03  0.33973736386E+03  0.79502535423E+02 0.  0.
         23    2    1    2    0    0  0.77764306709E+02 -0.11857963478E+02  0.17684615798E+02  0.11999555509E+03  0.88872318014E+02 0.  0.
        -11    1    3    3    0    0  0.79400888609E+01 -0.18628354079E+02  0.18913579334E+02  0.27708916797E+02  0.00000000000E+00 0.  1.
         12    1    3    3    0    0  0.49889358993E+01  0.23512948940E+02  0.31110127536E+03  0.31202844706E+03  0.00000000000E+00 0. -1.
        -11    1    4    4    0    0  0.83342374784E+02  0.18055549712E+02  0.24674729955E+02  0.88773850927E+02  0.00000000000E+00 0. -1.
         11    1    4    4    0    0 -0.55780680746E+01 -0.29913513190E+02 -0.69901141562E+01  0.31221704162E+02  0.00000000000E+00 0.  1.
         -2    1    1    2    0  502 -0.90693331469E+02  0.69733686173E+01  0.19594471523E+03  0.21602833071E+03  0.00000000000E+00 0.  1.
<scales pt_clust_5="13000.00000" pt_clust_6="13000.00000" pt_clust_7="13000.00000" pt_clust_8="13000.00000" pt_clust_9="81.69797"></scales>
<clustering>
<clus scale="   79.503">  5  6 -1 -1</clus>
<clus scale="   80.695">  1  5  2 -1</clus>
<clus scale="   81.698">  2  9  1 -1</clus>
<clus scale="   88.872">  7  8 -1 -1</clus>
<clus scale="   81.698">  2  5  1 -1</clus>
</clustering>
</event>
<event>
 9    2  0.1033155E-004  0.1053182E+03  0.7546771E-02  0.1276123E+00
         21   -1    0    0  501  502  0.00000000000E+00  0.00000000000E+00  0.71327344984E+02  0.71327344984E+02  0.00000000000E+00 0.  1.
         -1   -1    0    0    0  501 -0.00000000000E+00 -0.00000000000E+00 -0.34248051247E+03  0.34248051247E+03  0.00000000000E+00 0.  1.
         23    2    1    2    0    0 -0.12605206445E+02 -0.59850500187E+02 -0.11812670926E+03  0.16451884653E+03  0.96806806683E+02 0.  0.
         24    2    1    2    0    0  0.49668105835E+02 -0.12699423888E+02 -0.30470525864E+02  0.10212547417E+03  0.82903337829E+02 0.  0.
        -11    1    4    4    0    0  0.59779653708E+02 -0.66642118084E+01 -0.50733902809E+02  0.78688929404E+02  0.00000000000E+00 0.  1.
         12    1    4    4    0    0 -0.10111547874E+02 -0.60352120795E+01  0.20263376945E+02  0.23436544764E+02  0.00000000000E+00 0. -1.
        -11    1    3    3    0    0 -0.18021337439E+02 -0.39202062555E+02 -0.13212513351E+03  0.13899144296E+03  0.00000000000E+00 0.  1.
         11    1    3    3    0    0  0.54161309937E+01 -0.20648437632E+02  0.13998424247E+02  0.25527403569E+02  0.00000000000E+00 0. -1.
         -2    1    1    2    0  502 -0.37062899390E+02  0.72549924075E+02 -0.12255593236E+03  0.14716353676E+03  0.00000000000E+00 0.  1.
<scales pt_clust_5="13000.00000" pt_clust_6="13000.00000" pt_clust_7="13000.00000" pt_clust_8="13000.00000" pt_clust_9="81.46875"></scales>
<clustering>
<clus scale="   81.469">  1  9  2 -1</clus>
<clus scale="   82.903">  5  6 -1 -1</clus>
<clus scale="   92.700">  1  5  2 -1</clus>
<clus scale="   96.807">  7  8 -1 -1</clus>
<clus scale="   81.469">  1  5  2 -1</clus>
</clustering>
</event>
<event>
 9    2  0.1033155E-004  0.1297726E+03  0.7546771E-02  0.1228513E+00
         21   -1    0    0  501  502  0.00000000000E+00  0.00000000000E+00  0.47291696708E+02  0.47291696708E+02  0.00000000000E+00 0.  1.
          2   -1    0    0  502    0 -0.00000000000E+00 -0.00000000000E+00 -0.69229332098E+03  0.69229332098E+03  0.00000000000E+00 0. -1.
         23    2    1    2    0    0  0.22046661288E+02  0.88433645906E+02 -0.34388057880E+03  0.36723440299E+03  0.91108118542E+02 0.  0.
         24    2    1    2    0    0  0.71450045670E+01 -0.88647355361E+02 -0.85967748145E+02  0.15522590312E+03  0.93782847976E+02 0.  0.
        -11    1    4    4    0    0  0.34956493362E+02 -0.56743680925E+02 -0.90792176875E+02  0.11262779912E+03  0.00000000000E+00 0.  1.
         12    1    4    4    0    0 -0.27811488794E+02 -0.31903674436E+02  0.48244287297E+01  0.42598103996E+02  0.00000000000E+00 0. -1.
        -11    1    3    3    0    0  0.41683594751E+02  0.50538540813E+01 -0.13793126160E+03  0.14418077694E+03  0.00000000000E+00 0. -1.
         11    1    3    3    0    0 -0.19636933464E+02  0.83379791825E+02 -0.20594931720E+03  0.22305362606E+03  0.00000000000E+00 0.  1.
          1    1    1    2  501    0 -0.29191665855E+02  0.21370945480E+00 -0.21515329733E+03  0.21712471158E+03  0.00000000000E+00 0. -1.
<scales pt_clust_5="13000.00000" pt_clust_6="13000.00000" pt_clust_7="13000.00000" pt_clust_8="13000.00000" pt_clust_9="29.19246"></scales>
<clustering>
<clus scale="   29.192">  1  9  2 -1</clus>
<clus scale="   91.108">  7  8 -1 -1</clus>
<clus scale="   93.783">  5  6 -1 -1</clus>
<clus scale="  127.853">  2  7  1 -1</clus>
<clus scale="   29.192">  1  5  2 -1</clus>
</clustering>
</event>
<event>
 9    2  0.1391984E-004  0.1158433E+03  0.7546771E-02  0.1267291E+00
         -1   -1    0    0    0  501 -0.00000000000E+00  0.00000000000E+00  0.54289636233E+03  0.54289636233E+03  0.00000000000E+00 0.  1.
         21   -1    0    0  501  502  0.00000000000E+00 -0.00000000000E+00 -0.21083404113E+03  0.21083404113E+03  0.00000000000E+00 0.  1.
         24    2    1    2    0    0 -0.82807232681E+01  0.22077475490E+02 -0.15539212914E+03  0.17597846745E+03  0.79156313117E+02 0.  0.
         23    2    1    2    0    0  0.30987805417E+02  0.61679589984E+02  0.38758914557E+02  0.12074149693E+03  0.91168194664E+02 0.  0.
        -13    1    3    3    0    0 -0.41884666504E+02  0.24186911667E+02 -0.10146576686E+03  0.11240388707E+03  0.00000000000E+00 0.  1.
         14    1    3    3    0    0  0.33603943235E+02 -0.21094361765E+01 -0.53926362284E+02  0.63574580385E+02  0.00000000000E+00 0. -1.
        -13    1    4    4    0    0 -0.22391555397E+02 -0.30880181899E+01  0.28214312140E+02  0.36151971163E+02  0.00000000000E+00 0.  1.
         13    1    4    4    0    0  0.53379360814E+02  0.64767608174E+02  0.10544602416E+02  0.84589525768E+02  0.00000000000E+00 0. -1.
         -2    1    1    2    0  502 -0.22707082149E+02 -0.83757065475E+02  0.44869553578E+03  0.45701043908E+03  0.00000000000E+00 0.  1.
<scales pt_clust_5="13000.00000" pt_clust_6="13000.00000" pt_clust_7="13000.00000" pt_clust_8="13000.00000" pt_clust_9="71.47058"></scales>
<clustering>
<clus scale="   79.156">  5  6 -1 -1</clus>
<clus scale="   82.594">  1  5  2 -1</clus>
<clus scale="   71.471">  2  9  1 -1</clus>
<clus scale="   91.168">  7  8 -1 -1</clus>
<clus scale="   71.471">  2  5  1 -1</clus>
</clustering>
</event>
<event>
 9    2  0.1033155E-004  0.1009464E+03  0.7546771E-02  0.1282258E+00
         -1   -1    0    0    0  501 -0.00000000000E+00  0.00000000000E+00  0.17223758627E+03  0.17223758627E+03  0.00000000000E+00 0.  1.
         21   -1    0    0  501  502  0.00000000000E+00 -0.00000000000E+00 -0.11058821473E+03  0.11058821473E+03  0.00000000000E+00 0. -1.
         24    2    1    2    0    0  0.51156497678E+02  0.14267685640E+02  0.58893806373E+02  0.11542155926E+03  0.83863590458E+02 0.  0.
         23    2    1    2    0    0 -0.53449048181E+01 -0.22285150214E+02 -0.41287650332E+02  0.10335124329E+03  0.91932657371E+02 0.  0.
        -13    1    3    3    0    0  0.47237463885E+02 -0.15273524092E+02  0.68060932866E+02  0.84243392116E+02  0.00000000000E+00 0.  1.
         14    1    3    3    0    0  0.39190337924E+01  0.29541209732E+02 -0.91671264929E+01  0.31178167143E+02  0.00000000000E+00 0. -1.
        -13    1    4    4    0    0  0.29486944557E+02 -0.17909979963E+01  0.15726434131E+02  0.33466525120E+02  0.00000000000E+00 0.  1.
         13    1    4    4    0    0 -0.34831849375E+02 -0.20494152217E+02 -0.57014084462E+02  0.69884718166E+02  0.00000000000E+00 0. -1.
         -2    1    1    2    0  502 -0.45811592860E+02  0.80174645739E+01  0.44043215501E+02  0.64052998448E+02  0.00000000000E+00 0.  1.
<scales pt_clust_5="13000.00000" pt_clust_6="13000.00000" pt_clust_7="13000.00000" pt_clust_8="13000.00000" pt_clust_9="46.50789"></scales>
<clustering>
<clus scale="   46.508">  2  9  1 -1</clus>
<clus scale="   83.864">  5  6 -1 -1</clus>
<clus scale="   91.933">  7  8 -1 -1</clus>
<clus scale="   93.657">  1  5  2 -1</clus>
<clus scale="   46.508">  2  5  1 -1</clus>
</clustering>
</event>
<event>
 9    2  0.1033155E-004  0.1281583E+03  0.7546771E-02  0.1233924E+00
          2   -1    0    0  502    0 -0.00000000000E+00  0.00000000000E+00  0.27567241821E+03  0.27567241821E+03  0.00000000000E+00 0. -1.
         21   -1    0    0  501  502  0.00000000000E+00 -0.00000000000E+00 -0.27121769883E+03  0.27121769883E+03  0.00000000000E+00 0.  1.
         24    2    1    2    0    0  0.76564244104E+02  0.17169111262E+02  0.15893846324E+03  0.19434436287E+03  0.79695887130E+02 0.  0.
         23    2    1    2    0    0 -0.17841753679E+03 -0.50859229261E+02 -0.12038388392E+03  0.23997614135E+03  0.93149290252E+02 0.  0.
        -13    1    3    3    0    0  0.21769727644E+01  0.28011233761E+02  0.14739851027E+02  0.31727458700E+02  0.00000000000E+00 0.  1.
         14    1    3    3    0    0  0.74387271340E+02 -0.10842122499E+02  0.14419861221E+03  0.16261690417E+03  0.00000000000E+00 0. -1.
        -11    1    4    4    0    0 -0.16441927551E+03 -0.30610104296E+02 -0.13170826622E+03  0.21287964683E+03  0.00000000000E+00 0.  1.
         11    1    4    4    0    0 -0.13998261282E+02 -0.20249124964E+02  0.11324382302E+02  0.27096494520E+02  0.00000000000E+00 0. -1.
          1    1    1    2  501    0  0.10185329269E+03  0.33690117998E+02 -0.34099859947E+02  0.11256961282E+03  0.00000000000E+00 0. -1.
<scales pt_clust_5="13000.00000" pt_clust_6="13000.00000" pt_clust_7="13000.00000" pt_clust_8="13000.00000" pt_clust_9="107.28055"></scales>
<clustering>
<clus scale="   79.696">  5  6 -1 -1</clus>
<clus scale="   93.149">  7  8 -1 -1</clus>
<clus scale="  107.281">  2  9  1 -1</clus>
<clus scale="  118.740">  1  5  2 -1</clus>
<clus scale="  107.281">  2  5  1 -1</clus>
</clustering>
</event>
<event>
 9    2  0.1033155E-004  0.9071290E+02  0.7546771E-02  0.1308093E+00
          2   -1    0    0  502    0 -0.00000000000E+00  0.00000000000E+00  0.57852265840E+03  0.57852265840E+03  0.00000000000E+00 0. -1.
         21   -1    0    0  501  502  0.00000000000E+00 -0.00000000000E+00 -0.38540679107E+02  0.38540679107E+02  0.00000000000E+00 0.  1.
         24    2    1    2    0    0 -0.45391971246E+01  0.12685643636E+01  0.39568320209E+03  0.40363746560E+03  0.79597698802E+02 0.  0.
         23    2    1    2    0    0 -0.39047186096E+02 -0.28432415521E+02  0.11580514739E+03  0.15469313358E+03  0.90476783868E+02 0.  0.
        -13    1    3    3    0    0 -0.16782912690E+02 -0.19643300203E+02  0.43302364909E+02  0.50424400918E+02  0.00000000000E+00 0.  1.
         14    1    3    3    0    0  0.12243715565E+02  0.20911864567E+02  0.35238083718E+03  0.35321306469E+03  0.00000000000E+00 0. -1.
        -13    1    4    4    0    0 -0.62256949353E+02 -0.15924632716E+01  0.94898743074E+02  0.11350874468E+03  0.00000000000E+00 0.  1.
         13    1    4    4    0    0  0.23209763257E+02 -0.26839952249E+02  0.20906404316E+02  0.41184388894E+02  0.00000000000E+00 0. -1.
          1    1    1    2  501    0  0.43586383221E+02  0.27163851157E+02  0.28493629814E+02  0.58732738332E+02  0.00000000000E+00 0. -1.
<scales pt_clust_5="13000.00000" pt_clust_6="13000.00000" pt_clust_7="13000.00000" pt_clust_8="13000.00000" pt_clust_9="51.35803"></scales>
<clustering>
<clus scale="   51.358">  2  9  1 -1</clus>
<clus scale="   79.598">  5  6 -1 -1</clus>
<clus scale="   79.866">  1  5  2 -1</clus>
<clus scale="   90.477">  7  8 -1 -1</clus>
<clus scale="   51.358">  2  5  1 -1</clus>
</clustering>
</event>
<event>
 9    2  0.1033155E-004  0.2900033E+03  0.7546771E-02  0.1090347E+00
          2   -1    0    0  502    0 -0.00000000000E+00  0.00000000000E+00  0.17465660608E+04  0.17465660608E+04  0.00000000000E+00 0. -1.
         21   -1    0    0  501  502  0.00000000000E+00 -0.00000000000E+00 -0.42504847872E+02  0.42504847872E+02  0.00000000000E+00 0. -1.
         24    2    1    2    0    0 -0.90870508965E+01 -0.17395612390E+03  0.37854618179E+03  0.42422632948E+03  0.79545328801E+02 0.  0.
         23    2    1    2    0    0  0.27540079421E+01 -0.34451930506E+02  0.23282749202E+03  0.25244173728E+03  0.91234147134E+02 0.  0.
        -11    1    3    3    0    0 -0.36002540356E+02 -0.11850304388E+03  0.29867672776E+03  0.32333719555E+03  0.00000000000E+00 0.  1.
         12    1    3    3    0    0  0.26915489460E+02 -0.55453080022E+02  0.79869454030E+02  0.10088913392E+03  0.00000000000E+00 0. -1.
        -11    1    4    4    0    0  0.16029465765E+01  0.23082831457E+02  0.16060035220E+02  0.28165782024E+02  0.00000000000E+00 0.  1.
         11    1    4    4    0    0  0.11510613656E+01 -0.57534761963E+02  0.21676745680E+03  0.22427595525E+03  0.00000000000E+00 0. -1.
          1    1    1    2  501    0  0.63330429544E+01  0.20840805441E+03  0.10926875391E+04  0.11124028419E+04  0.00000000000E+00 0. -1.
<scales pt_clust_5="13000.00000" pt_clust_6="13000.00000" pt_clust_7="13000.00000" pt_clust_8="13000.00000" pt_clust_9="208.50436"></scales>
<clustering>
<clus scale="   79.545">  5  6 -1 -1</clus>
<clus scale="   91.234">  7  8 -1 -1</clus>
<clus scale="   91.631">  5  7 -1 -1</clus>
<clus scale="  208.504">  2  9  1 -1</clus>
<clus scale="  208.504">  2  5  1 -1</clus>
</clustering>
</event>
<event>
 9    2  0.1033155E-004  0.1091130E+03  0.7546771E-02  0.1267567E+00
          2   -1    0    0  502    0 -0.00000000000E+00  0.00000000000E+00  0.32940412826E+03  0.32940412826E+03  0.00000000000E+00 0. -1.
         21   -1    0    0  501  502  0.00000000000E+00 -0.00000000000E+00 -0.90033921425E+02  0.90033921425E+02  0.00000000000E+00 0.  1.
         23    2    1    2    0    0 -0.57336208139E+02 -0.53921292752E+02  0.64735545450E+02  0.13747216095E+03  0.92265690354E+02 0.  0.
         24    2    1    2    0    0  0.41332976011E+01  0.36851200807E+02 -0.10967958811E+02  0.88135369071E+02  0.79198813190E+02 0.  0.
        -13    1    4    4    0    0  0.19551219447E+02  0.43238089711E+02 -0.34938411440E+02  0.58927711459E+02  0.00000000000E+00 0.  1.
         14    1    4    4    0    0 -0.15417921846E+02 -0.63868889045E+01  0.23970452629E+02  0.29207657612E+02  0.00000000000E+00 0. -1.
        -11    1    3    3    0    0 -0.28736127060E+02  0.23297665162E+02  0.91087451227E+01  0.38098759010E+02  0.00000000000E+00 0. -1.
         11    1    3    3    0    0 -0.28600081078E+02 -0.77218957913E+02  0.55626800328E+02  0.99373401942E+02  0.00000000000E+00 0.  1.
          1    1    1    2  501    0  0.53202910537E+02  0.17070091945E+02  0.18560262020E+03  0.19383051966E+03  0.00000000000E+00 0. -1.
<scales pt_clust_5="13000.00000" pt_clust_6="13000.00000" pt_clust_7="13000.00000" pt_clust_8="13000.00000" pt_clust_9="55.87433"></scales>
<clustering>
<clus scale="   55.874">  2  9  1 -1</clus>
<clus scale="   79.199">  5  6 -1 -1</clus>
<clus scale="   92.266">  7  8 -1 -1</clus>
<clus scale="   98.311">  2  5  1 -1</clus>
<clus scale="   55.874">  2  5  1 -1</clus>
</clustering>
</event>
<event>
 9    2  0.1033155E-004  0.9870704E+02  0.7546771E-02  0.1286401E+00
         21   -1    0    0  501  502  0.00000000000E+00  0.00000000000E+00  0.39566929817E+02  0.39566929817E+02  0.00000000000E+00 0. -1.
          2   -1    0    0  502    0 -0.00000000000E+00 -0.00000000000E+00 -0.90874185796E+03  0.90874185796E+03  0.00000000000E+00 0. -1.
         24    2    1    2    0    0  0.17532509387E+02 -0.33260783030E+02 -0.72442399641E+03  0.73012472932E+03  0.82935669192E+02 0.  0.
         23    2    1    2    0    0 -0.16626103670E+02  0.64358147039E+02 -0.14964759340E+03  0.18669048902E+03  0.89669047435E+02 0.  0.
        -11    1    3    3    0    0 -0.30892838572E+02 -0.45001230641E+01 -0.16960228182E+03  0.17245159489E+03  0.00000000000E+00 0.  1.
         12    1    3    3    0    0  0.48425347959E+02 -0.28760659966E+02 -0.55482171459E+03  0.55767313443E+03  0.00000000000E+00 0. -1.
        -13    1    4    4    0    0  0.89019771086E+00  0.47096546245E+02 -0.15458915862E+03  0.16160657500E+03  0.00000000000E+00 0. -1.
         13    1    4    4    0    0 -0.17516301381E+02  0.17261600794E+02  0.49415652183E+01  0.25083914026E+02  0.00000000000E+00 0.  1.
          1    1    1    2  501    0 -0.90640571713E+00 -0.31097364009E+02  0.48966616697E+01  0.31493569425E+02  0.00000000000E+00 0. -1.
<scales pt_clust_5="13000.00000" pt_clust_6="13000.00000" pt_clust_7="13000.00000" pt_clust_8="13000.00000" pt_clust_9="31.11057"></scales>
<clustering>
<clus scale="   31.111">  1  9  2 -1</clus>
<clus scale="   82.936">  5  6 -1 -1</clus>
<clus scale="   89.669">  7  8 -1 -1</clus>
<clus scale="   92.633">  2  5  1 -1</clus>
<clus scale="   31.111">  1  5  2 -1</clus>
</clustering>
</event>
<event>
 9    2  0.1033155E-004  0.1024160E+03  0.7546771E-02  0.1286002E+00
         21   -1    0    0  501  502  0.00000000000E+00  0.00000000000E+00  0.83112253286E+02  0.83112253286E+02  0.00000000000E+00 0.  1.
          2   -1    0    0  502    0 -0.00000000000E+00 -0.00000000000E+00 -0.20794380124E+03  0.20794380124E+03  0.00000000000E+00 0. -1.
         24    2    1    2    0    0 -0.34983033449E+02 -0.30056268198E+01 -0.70872824782E+02  0.11186431393E+03  0.79106390493E+02 0.  0.
         23    2    1    2    0    0 -0.70801950173E+01  0.43003268123E+02 -0.14423877619E+02  0.10896261194E+03  0.98819999614E+02 0.  0.
        -13    1    3    3    0    0 -0.14335352119E+01 -0.37369474086E+02 -0.22215562322E+02  0.43497860016E+02  0.00000000000E+00 0.  1.
         14    1    3    3    0    0 -0.33549498238E+02  0.34363847266E+02 -0.48657262460E+02  0.68366453916E+02  0.00000000000E+00 0. -1.
        -11    1    4    4    0    0 -0.32570293375E+02  0.61830059901E+02  0.77113655588E+01  0.70308217704E+02  0.00000000000E+00 0.  1.
         11    1    4    4    0    0  0.25490098358E+02 -0.18826791778E+02 -0.22135243177E+02  0.38654394232E+02  0.00000000000E+00 0. -1.
          1    1    1    2  501    0  0.42063228467E+02 -0.39997641303E+02 -0.39534845550E+02  0.70229128654E+02  0.00000000000E+00 0. -1.
<scales pt_clust_5="13000.00000" pt_clust_6="13000.00000" pt_clust_7="13000.00000" pt_clust_8="13000.00000" pt_clust_9="58.04421"></scales>
<clustering>
<clus scale="   58.044">  1  9  2 -1</clus>
<clus scale="   79.106">  5  6 -1 -1</clus>
<clus scale="   83.555">  2  5  1 -1</clus>
<clus scale="   98.820">  7  8 -1 -1</clus>
<clus scale="   58.044">  1  5  2 -1</clus>
</clustering>
</event>
<event>
 9    2  0.1033155E-004  0.9309400E+02  0.7546771E-02  0.1299233E+00
          2   -1    0    0  502    0 -0.00000000000E+00  0.00000000000E+00  0.12015937297E+03  0.12015937297E+03  0.00000000000E+00 0. -1.
         21   -1    0    0  501  502  0.00000000000E+00 -0.00000000000E+00 -0.20131012310E+03  0.20131012310E+03  0.00000000000E+00 0.  1.
         23    2    1    2    0    0 -0.56597883142E+01 -0.36315874792E+02  0.78590959196E+02  0.12296510303E+03  0.87137831800E+02 0.  0.
         24    2    1    2    0    0 -0.11780010401E+02  0.16148962880E+02 -0.83358586615E+02  0.11760178276E+03  0.80510668228E+02 0.  0.
        -11    1    4    4    0    0 -0.98695764351E+01 -0.22142181009E+02 -0.74372834811E+02  0.78224058171E+02  0.00000000000E+00 0.  1.
         12    1    4    4    0    0 -0.19104339659E+01  0.38291143889E+02 -0.89857518038E+01  0.39377724588E+02  0.00000000000E+00 0. -1.
        -13    1    3    3    0    0 -0.13947395561E+02  0.24306566132E+02  0.45409544522E+02  0.53360713392E+02  0.00000000000E+00 0.  1.
         13    1    3    3    0    0  0.82876072465E+01 -0.60622440924E+02  0.33181414674E+02  0.69604389641E+02  0.00000000000E+00 0. -1.
          1    1    1    2  501    0  0.17439798715E+02  0.20166911912E+02 -0.76383122708E+02  0.80902610278E+02  0.00000000000E+00 0. -1.
<scales pt_clust_5="13000.00000" pt_clust_6="13000.00000" pt_clust_7="13000.00000" pt_clust_8="13000.00000" pt_clust_9="26.66179"></scales>
<clustering>
<clus scale="   26.662">  2  9  1 -1</clus>
<clus scale="   80.511">  5  6 -1 -1</clus>
<clus scale="   86.922">  2  5  1 -1</clus>
<clus scale="   87.138">  7  8 -1 -1</clus>
<clus scale="   26.662">  2  5  1 -1</clus>
</clustering>
</event>
<event>
 9    2  0.1033155E-004  0.9517077E+02  0.7546771E-02  0.1295878E+00
         21   -1    0    0  501  502  0.00000000000E+00  0.00000000000E+00  0.13062727151E+03  0.13062727151E+03  0.00000000000E+00 0.  1.
         -1   -1    0    0    0  501 -0.00000000000E+00 -0.00000000000E+00 -0.27001908542E+03  0.27001908542E+03  0.00000000000E+00 0.  1.
         23    2    1    2    0    0  0.10489423741E+02 -0.24460691896E+02 -0.16713953436E+03  0.19195972717E+03  0.90579023230E+02 0.  0.
         24    2    1    2    0    0 -0.82682068180E+02  0.48618083842E+01  0.55668489625E+02  0.12884013017E+03  0.81491329756E+02 0.  0.
        -13    1    4    4    0    0 -0.88067213398E+02 -0.20277120099E+02  0.40957094192E+02  0.99219349121E+02  0.00000000000E+00 0.  1.
         14    1    4    4    0    0  0.53851452180E+01  0.25138928484E+02  0.14711395433E+02  0.29620781048E+02  0.00000000000E+00 0. -1.
        -13    1    3    3    0    0 -0.29930554990E+02 -0.40193770380E+02 -0.10281420870E+03  0.11437717784E+03  0.00000000000E+00 0.  1.
         13    1    3    3    0    0  0.40419978732E+02  0.15733078483E+02 -0.64325325662E+02  0.77582549332E+02  0.00000000000E+00 0. -1.
         -2    1    1    2    0  502  0.72192644439E+02  0.19598883512E+02 -0.27920769170E+02  0.79846499592E+02  0.00000000000E+00 0.  1.
<scales pt_clust_5="13000.00000" pt_clust_6="13000.00000" pt_clust_7="13000.00000" pt_clust_8="13000.00000" pt_clust_9="74.80575"></scales>
<clustering>
<clus scale="   74.806">  1  9  2 -1</clus>
<clus scale="   81.491">  5  6 -1 -1</clus>
<clus scale="   86.566">  1  5  2 -1</clus>
<clus scale="   90.579">  7  8 -1 -1</clus>
<clus scale="   74.806">  1  5  2 -1</clus>
</clustering>
</event>
<event>
 9    2  0.1033155E-004  0.9216359E+02  0.7546771E-02  0.1304458E+00
         21   -1    0    0  501  502  0.00000000000E+00  0.00000000000E+00  0.21585593594E+03  0.21585593594E+03  0.00000000000E+00 0. -1.
         -1   -1    0    0    0  501 -0.00000000000E+00 -0.00000000000E+00 -0.95540161253E+02  0.95540161253E+02  0.00000000000E+00 0.  1.
         23    2    1    2    0    0 -0.92218494226E+01 -0.55237639466E+01  0.21213344278E+02  0.94008094453E+02  0.90950323651E+02 0.  0.
         24    2    1    2    0    0 -0.44393785205E+02  0.31922778111E+02  0.11985313680E+03  0.15412556491E+03  0.80000271428E+02 0.  0.
        -11    1    4    4    0    0 -0.82580189157E+01  0.42253336851E+02  0.10540884265E+03  0.11386203696E+03  0.00000000000E+00 0.  1.
         12    1    4    4    0    0 -0.36135766290E+02 -0.10330558740E+02  0.14444294155E+02  0.40263527949E+02  0.00000000000E+00 0. -1.
        -13    1    3    3    0    0 -0.31226161975E+02 -0.35377477031E+02 -0.66054252385E+01  0.47647357905E+02  0.00000000000E+00 0.  1.
         13    1    3    3    0    0  0.22004312553E+02  0.29853713084E+02  0.27818769516E+02  0.46360736548E+02  0.00000000000E+00 0. -1.
         -2    1    1    2    0  502  0.53615634628E+02 -0.26399014164E+02 -0.20750706392E+02  0.63262437838E+02  0.00000000000E+00 0.  1.
<scales pt_clust_5="13000.00000" pt_clust_6="13000.00000" pt_clust_7="13000.00000" pt_clust_8="13000.00000" pt_clust_9="59.76243"></scales>
<clustering>
<clus scale="   59.762">  1  9  2 -1</clus>
<clus scale="   80.000">  5  6 -1 -1</clus>
<clus scale="   81.377">  1  5  2 -1</clus>
<clus scale="   90.950">  7  8 -1 -1</clus>
<clus scale="   59.762">  1  5  2 -1</clus>
</clustering>
</event>
<event>
 9    2  0.1033155E-004  0.1603917E+03  0.7546771E-02  0.1190631E+00
         -1   -1    0    0    0  501 -0.00000000000E+00  0.00000000000E+00  0.37350432604E+03  0.37350432604E+03  0.00000000000E+00 0.  1.
         21   -1    0    0  501  502  0.00000000000E+00 -0.00000000000E+00 -0.11624620319E+03  0.11624620319E+03  0.00000000000E+00 0.  1.
         24    2    1    2    0    0  0.23509180928E+02  0.13297576326E+03  0.26459135773E+03  0.30764308445E+03  0.80002785078E+02 0.  0.
         23    2    1    2    0    0 -0.39696906826E+02 -0.10550103851E+03  0.64698685324E+01  0.14735937097E+03  0.94692193317E+02 0.  0.
        -11    1    3    3    0    0  0.38297062563E+02  0.72057026415E+02  0.20705047674E+03  0.22255062340E+03  0.00000000000E+00 0.  1.
         12    1    3    3    0    0 -0.14787881635E+02  0.60918736847E+02  0.57540880987E+02  0.85092461047E+02  0.00000000000E+00 0. -1.
        -13    1    4    4    0    0 -0.58059858389E+02 -0.90969577838E+02 -0.22366969933E+02  0.11021203470E+03  0.00000000000E+00 0.  1.
         13    1    4    4    0    0  0.18362951563E+02 -0.14531460674E+02  0.28836838466E+02  0.37147336272E+02  0.00000000000E+00 0. -1.
         -2    1    1    2    0  502  0.16187725898E+02 -0.27474724749E+02 -0.13803103414E+02  0.34748073812E+02  0.00000000000E+00 0.  1.
<scales pt_clust_5="13000.00000" pt_clust_6="13000.00000" pt_clust_7="13000.00000" pt_clust_8="13000.00000" pt_clust_9="31.88892"></scales>
<clustering>
<clus scale="   31.889">  2  9  1 -1</clus>
<clus scale="   80.003">  5  6 -1 -1</clus>
<clus scale="   94.692">  7  8 -1 -1</clus>
<clus scale="  152.182">  1  5  2 -1</clus>
<clus scale="   31.889">  2  5  1 -1</clus>
</clustering>
</event>
<event>
 9    2  0.1033155E-004  0.1426108E+03  0.7546771E-02  0.1230004E+00
         21   -1    0    0  501  502  0.00000000000E+00  0.00000000000E+00  0.41837147462E+02  0.41837147462E+02  0.00000000000E+00 0. -1.
          2   -1    0    0  502    0 -0.00000000000E+00 -0.00000000000E+00 -0.75392314201E+03  0.75392314201E+03  0.00000000000E+00 0. -1.
         23    2    1    2    0    0  0.20562506400E+02 -0.12838116131E+02 -0.20220450089E+03  0.22273993320E+03  0.90215208066E+02 0.  0.
         24    2    1    2    0    0  0.73011466184E+02  0.89283852481E+02 -0.27617773236E+03  0.30992819182E+03  0.80492631494E+02 0.  0.
        -11    1    4    4    0    0  0.55584079683E+02  0.34473548634E+02 -0.69670775392E+02  0.95561668117E+02  0.00000000000E+00 0.  1.
         12    1    4    4    0    0  0.17427386501E+02  0.54810303847E+02 -0.20650695697E+03  0.21436652370E+03  0.00000000000E+00 0. -1.
        -13    1    3    3    0    0  0.23336371573E+02 -0.49399294923E+02 -0.14323280944E+03  0.15329877455E+03  0.00000000000E+00 0. -1.
         13    1    3    3    0    0 -0.27738651733E+01  0.36561178793E+02 -0.58971691446E+02  0.69441158651E+02  0.00000000000E+00 0.  1.
          1    1    1    2  501    0 -0.93573972584E+02 -0.76445736351E+02 -0.23370376130E+03  0.26309216445E+03  0.00000000000E+00 0. -1.
<scales pt_clust_5="13000.00000" pt_clust_6="13000.00000" pt_clust_7="13000.00000" pt_clust_8="13000.00000" pt_clust_9="117.72332"></scales>
<clustering>
<clus scale="   80.493">  5  6 -1 -1</clus>
<clus scale="   90.215">  7  8 -1 -1</clus>
<clus scale="   93.415">  2  7  1 -1</clus>
<clus scale="  117.723">  1  9  2 -1</clus>
<clus scale="  117.723">  1  5  2 -1</clus>
</clustering>
</event>
<event>
 9    2  0.1033155E-004  0.1516487E+03  0.7546771E-02  0.1210602E+00
         21   -1    0    0  501  502  0.00000000000E+00  0.00000000000E+00  0.90055761456E+02  0.90055761456E+02  0.00000000000E+00 0.  1.
         -1   -1    0    0    0  501 -0.00000000000E+00 -0.00000000000E+00 -0.57922527832E+03  0.57922527832E+03  0.00000000000E+00 0.  1.
         24    2    1    2    0    0 -0.80174247650E+02  0.28341950443E+02 -0.33110795907E+03  0.35108325864E+03  0.79973731904E+02 0.  0.
         23    2    1    2    0    0 -0.24141944810E+02 -0.96730652373E+02 -0.11853110293E+03  0.18734848071E+03  0.10540483033E+03 0.  0.
        -13    1    3    3    0    0 -0.69408070864E+02  0.20872855981E+02 -0.33007545345E+03  0.33793928654E+03  0.00000000000E+00 0.  1.
         14    1    3    3    0    0 -0.10766176786E+02  0.74690944619E+01 -0.10325056229E+01  0.13143972099E+02  0.00000000000E+00 0. -1.
        -13    1    4    4    0    0 -0.53935995131E+02 -0.24827038803E+02 -0.82335960107E+02  0.10151198822E+03  0.00000000000E+00 0.  1.
         13    1    4    4    0    0  0.29794050320E+02 -0.71903613571E+02 -0.36195142824E+02  0.85836492490E+02  0.00000000000E+00 0. -1.
         -2    1    1    2    0  502  0.10431619246E+03  0.68388701930E+02 -0.39530454869E+02  0.13084930043E+03  0.00000000000E+00 0.  1.
<scales pt_clust_5="13000.00000" pt_clust_6="13000.00000" pt_clust_7="13000.00000" pt_clust_8="13000.00000" pt_clust_9="109.02828"></scales>
<clustering>
<clus scale="   79.974">  5  6 -1 -1</clus>
<clus scale="  105.405">  7  8 -1 -1</clus>
<clus scale="  116.735">  2  5  1 -1</clus>
<clus scale="  109.028">  1  9  2 -1</clus>
<clus scale="  109.028">  1  5  2 -1</clus>
</clustering>
</event>
<event>
 9    2  0.1033155E-004  0.1656509E+03  0.7546771E-02  0.1186922E+00
          2   -1    0    0  502    0 -0.00000000000E+00  0.00000000000E+00  0.50707931062E+03  0.50707931062E+03  0.00000000000E+00 0. -1.
         21   -1    0    0  501  502  0.00000000000E+00 -0.00000000000E+00 -0.59809375584E+02  0.59809375584E+02  0.00000000000E+00 0.  1.
         24    2    1    2    0    0 -0.11966188962E+03  0.62881647327E+02  0.28555868551E+03  0.32585519368E+03  0.79779539864E+02 0.  0.
         23    2    1    2    0    0  0.96717920102E+02 -0.58952769447E+02  0.14289251752E+03  0.21110012497E+03  0.10637295759E+03 0.  0.
        -11    1    3    3    0    0 -0.16942745929E+02 -0.18772746904E+02  0.37535407196E+02  0.45259026274E+02  0.00000000000E+00 0.  1.
         12    1    3    3    0    0 -0.10271914369E+03  0.81654394231E+02  0.24802327832E+03  0.28059616741E+03  0.00000000000E+00 0. -1.
        -13    1    4    4    0    0  0.11970771504E+03 -0.54899316705E+02  0.11610875673E+03  0.17557082731E+03  0.00000000000E+00 0.  1.
         13    1    4    4    0    0 -0.22989794933E+02 -0.40534527426E+01  0.26783760792E+02  0.35529297662E+02  0.00000000000E+00 0. -1.
          1    1    1    2  501    0  0.22943969517E+02 -0.39288778793E+01  0.18818732006E+02  0.29933367550E+02  0.00000000000E+00 0. -1.
<scales pt_clust_5="13000.00000" pt_clust_6="13000.00000" pt_clust_7="13000.00000" pt_clust_8="13000.00000" pt_clust_9="23.27793"></scales>
<clustering>
<clus scale="   23.278">  2  9  1 -1</clus>
<clus scale="   79.780">  5  6 -1 -1</clus>
<clus scale="  106.373">  7  8 -1 -1</clus>
<clus scale="  149.966">  1  5  2 -1</clus>
<clus scale="   23.278">  2  5  1 -1</clus>
</clustering>
</event>
<event>
 9    2  0.1033155E-004  0.2008337E+03  0.7546771E-02  0.1186967E+00
         -1   -1    0    0    0  501 -0.00000000000E+00  0.00000000000E+00  0.99462347959E+03  0.99462347959E+03  0.00000000000E+00 0.  1.
         21   -1    0    0  501  502  0.00000000000E+00 -0.00000000000E+00 -0.12106892921E+03  0.12106892921E+03  0.00000000000E+00 0.  1.
         24    2    1    2    0    0  0.20054548107E+02 -0.45709188897E+01  0.20188492028E+03  0.21868886096E+03  0.81512076848E+02 0.  0.
         23    2    1    2    0    0 -0.37307127649E+02 -0.17547038514E+03 -0.64732739696E+00  0.20078331402E+03  0.90176728267E+02 0.  0.
        -13    1    3    3    0    0 -0.26667951905E+02 -0.16956299467E+02  0.11500532062E+03  0.11926826704E+03  0.00000000000E+00 0.  1.
         14    1    3    3    0    0  0.46722500012E+02  0.12385380577E+02  0.86879599662E+02  0.99420593928E+02  0.00000000000E+00 0. -1.
        -11    1    4    4    0    0 -0.56350554573E+02 -0.56907387610E+02 -0.79424411914E+01  0.80479302540E+02  0.00000000000E+00 0.  1.
         11    1    4    4    0    0  0.19043426925E+02 -0.11856299753E+03  0.72951137945E+01  0.12030401148E+03  0.00000000000E+00 0. -1.
         -2    1    1    2    0  502  0.17252579542E+02  0.18004130403E+03  0.67231695749E+03  0.69622023382E+03  0.00000000000E+00 0.  1.
<scales pt_clust_5="13000.00000" pt_clust_6="13000.00000" pt_clust_7="13000.00000" pt_clust_8="13000.00000" pt_clust_9="179.45012"></scales>
<clustering>
<clus scale="   81.512">  5  6 -1 -1</clus>
<clus scale="   84.067">  1  5  2 -1</clus>
<clus scale="   90.177">  7  8 -1 -1</clus>
<clus scale="  179.450">  2  9  1 -1</clus>
<clus scale="  179.450">  2  5  1 -1</clus>
</clustering>
</event>
<event>
 9    2  0.1033155E-004  0.1495737E+03  0.7546771E-02  0.1217039E+00
         -3   -1    0    0    0  501 -0.00000000000E+00  0.00000000000E+00  0.77641181245E+02  0.77641181245E+02  0.00000000000E+00 0.  1.
         21   -1    0    0  501  502  0.00000000000E+00 -0.00000000000E+00 -0.77535291494E+03  0.77535291494E+03  0.00000000000E+00 0.  1.
         23    2    1    2    0    0 -0.39211600143E+02  0.38738604625E+02 -0.29147812721E+03  0.31019876350E+03  0.90694791247E+02 0.  0.
         24    2    1    2    0    0 -0.39553955097E+02  0.70697670776E+02  0.73305582646E+00  0.11407377351E+03  0.80309478993E+02 0.  0.
        -11    1    4    4    0    0 -0.61412005879E+02  0.37339781642E+02  0.11446358762E+02  0.72778519414E+02  0.00000000000E+00 0.  1.
         12    1    4    4    0    0  0.21858050782E+02  0.33357889134E+02 -0.10713302935E+02  0.41295254101E+02  0.00000000000E+00 0. -1.
        -13    1    3    3    0    0 -0.49120180480E+02  0.60103959274E+02 -0.17621058317E+03  0.19254985763E+03  0.00000000000E+00 0.  1.
         13    1    3    3    0    0  0.99085803373E+01 -0.21365354649E+02 -0.11526754404E+03  0.11764890587E+03  0.00000000000E+00 0. -1.
         -4    1    1    2    0  502  0.78765555240E+02 -0.10943627540E+03 -0.40696666231E+03  0.42872155917E+03  0.00000000000E+00 0.  1.
<scales pt_clust_5="13000.00000" pt_clust_6="13000.00000" pt_clust_7="13000.00000" pt_clust_8="13000.00000" pt_clust_9="126.18506"></scales>
<clustering>
<clus scale="   80.309">  5  6 -1 -1</clus>
<clus scale="   90.695">  7  8 -1 -1</clus>
<clus scale="  106.131">  1  7  2 -1</clus>
<clus scale="  126.185">  2  9  1 -1</clus>
<clus scale="  126.185">  2  5  1 -1</clus>
</clustering>
</event>
<event>
 9    2  0.1033155E-004  0.1102584E+03  0.7546771E-02  0.1263410E+00
         21   -1    0    0  501  502  0.00000000000E+00  0.00000000000E+00  0.96624277130E+02  0.96624277130E+02  0.00000000000E+00 0. -1.
          2   -1    0    0  502    0 -0.00000000000E+00 -0.00000000000E+00 -0.34533884975E+03  0.34533884975E+03  0.00000000000E+00 0. -1.
         24    2    1    2    0    0 -0.39644731890E+02 -0.67528495011E+02 -0.25805997677E+03  0.28165815472E+03  0.81268457031E+02 0.  0.
         23    2    1    2    0    0  0.14811098661E+02  0.79321275515E+01 -0.12080486146E+02  0.92279204033E+02  0.89929005668E+02 0.  0.
        -11    1    3    3    0    0 -0.13825794311E+02  0.18071387606E+02 -0.40715633185E+02  0.46642152866E+02  0.00000000000E+00 0.  1.
         12    1    3    3    0    0 -0.25818937579E+02 -0.85599882617E+02 -0.21734434358E+03  0.23501600186E+03  0.00000000000E+00 0. -1.
        -11    1    4    4    0    0  0.44652672870E+02  0.17277495679E+01  0.19171367413E+02  0.48624969321E+02  0.00000000000E+00 0. -1.
         11    1    4    4    0    0 -0.29841574209E+02  0.62043779836E+01 -0.31251853558E+02  0.43654234712E+02  0.00000000000E+00 0.  1.
          1    1    1    2  501    0  0.24833633229E+02  0.59596367459E+02  0.21425890295E+02  0.68025768122E+02  0.00000000000E+00 0. -1.
<scales pt_clust_5="13000.00000" pt_clust_6="13000.00000" pt_clust_7="13000.00000" pt_clust_8="13000.00000" pt_clust_9="64.56343"></scales>
<clustering>
<clus scale="   64.563">  1  9  2 -1</clus>
<clus scale="   81.268">  5  6 -1 -1</clus>
<clus scale="   89.929">  7  8 -1 -1</clus>
<clus scale="  103.316">  2  5  1 -1</clus>
<clus scale="   64.563">  1  5  2 -1</clus>
</clustering>
</event>
<event>
 9    2  0.1033155E-004  0.9664438E+02  0.7546771E-02  0.1293485E+00
         21   -1    0    0  501  502  0.00000000000E+00  0.00000000000E+00  0.88731063924E+02  0.88731063924E+02  0.00000000000E+00 0. -1.
          2   -1    0    0  502    0 -0.00000000000E+00 -0.00000000000E+00 -0.40891575919E+03  0.40891575919E+03  0.00000000000E+00 0. -1.
         24    2    1    2    0    0  0.12548720034E+02 -0.25377470458E+02 -0.27987703602E+03  0.29239295461E+03  0.79755866447E+02 0.  0.
         23    2    1    2    0    0  0.10927939732E+02  0.61714428362E+02 -0.87841650854E+02  0.14098094714E+03  0.90726960136E+02 0.  0.
        -13    1    3    3    0    0  0.45334566467E+02 -0.12214129648E+02 -0.12472777267E+03  0.13327199689E+03  0.00000000000E+00 0.  1.
         14    1    3    3    0    0 -0.32785846433E+02 -0.13163340810E+02 -0.15514926335E+03  0.15912095772E+03  0.00000000000E+00 0. -1.
        -11    1    4    4    0    0  0.34074936384E+02  0.43334388223E+01 -0.67692859670E+02  0.75909177521E+02  0.00000000000E+00 0.  1.
         11    1    4    4    0    0 -0.23146996652E+02  0.57380989540E+02 -0.20148791184E+02  0.65071769614E+02  0.00000000000E+00 0. -1.
          1    1    1    2  501    0 -0.23476659765E+02 -0.36336957904E+02  0.47533991606E+02  0.64272921371E+02  0.00000000000E+00 0. -1.
<scales pt_clust_5="13000.00000" pt_clust_6="13000.00000" pt_clust_7="13000.00000" pt_clust_8="13000.00000" pt_clust_9="43.26116"></scales>
<clustering>
<clus scale="   43.261">  1  9  2 -1</clus>
<clus scale="   79.756">  5  6 -1 -1</clus>
<clus scale="   86.428">  2  5  1 -1</clus>
<clus scale="   90.727">  7  8 -1 -1</clus>
<clus scale="   43.261">  1  5  2 -1</clus>
</clustering>
</event>
<event>
 9    2  0.1033155E-004  0.9556380E+02  0.7546771E-02  0.1290978E+00
         21   -1    0    0  501  502  0.00000000000E+00  0.00000000000E+00  0.41153838924E+03  0.41153838924E+03  0.00000000000E+00 0. -1.
         -1   -1    0    0    0  501 -0.00000000000E+00 -0.00000000000E+00 -0.31821015935E+02  0.31821015935E+02  0.00000000000E+00 0.  1.
         24    2    1    2    0    0  0.20917453898E+02 -0.77046958078E+01  0.11255582324E+03  0.14535251536E+03  0.89228012199E+02 0.  0.
         23    2    1    2    0    0 -0.23607197044E+02  0.37311748362E+02  0.22063960474E+03  0.24279725591E+03  0.91209681393E+02 0.  0.
        -11    1    3    3    0    0  0.19016309551E+02 -0.47346340350E+02  0.51218780068E+02  0.72295638908E+02  0.00000000000E+00 0.  1.
         12    1    3    3    0    0  0.19011443474E+01  0.39641644542E+02  0.61337043168E+02  0.73056876449E+02  0.00000000000E+00 0. -1.
        -13    1    4    4    0    0 -0.42302295101E+02  0.59061204275E+02  0.15942706695E+03  0.17519902881E+03  0.00000000000E+00 0. -1.
         13    1    4    4    0    0  0.18695098057E+02 -0.21749455913E+02  0.61212537796E+02  0.67598227102E+02  0.00000000000E+00 0.  1.
         -2    1    1    2    0  502  0.26897431453E+01 -0.29607052554E+02  0.46521945329E+02  0.55209633909E+02  0.00000000000E+00 0.  1.
<scales pt_clust_5="13000.00000" pt_clust_6="13000.00000" pt_clust_7="13000.00000" pt_clust_8="13000.00000" pt_clust_9="29.72900"></scales>
<clustering>
<clus scale="   29.729">  1  9  2 -1</clus>
<clus scale="   89.228">  5  6 -1 -1</clus>
<clus scale="   91.210">  7  8 -1 -1</clus>
<clus scale="   93.674">  2  5  1 -1</clus>
<clus scale="   29.729">  1  5  2 -1</clus>
</clustering>
</event>
<event>
 9    2  0.1033155E-004  0.9538523E+02  0.7546771E-02  0.1295845E+00
         21   -1    0    0  501  502  0.00000000000E+00  0.00000000000E+00  0.35284998010E+02  0.35284998010E+02  0.00000000000E+00 0. -1.
          2   -1    0    0  502    0 -0.00000000000E+00 -0.00000000000E+00 -0.82313031434E+03  0.82313031434E+03  0.00000000000E+00 0. -1.
         24    2    1    2    0    0 -0.34192742822E+02  0.12678739914E+02 -0.53427467583E+03  0.54171679824E+03  0.81717599982E+02 0.  0.
         23    2    1    2    0    0 -0.15471709475E+02 -0.30955702581E+02 -0.24404848497E+03  0.26292792148E+03  0.91508467152E+02 0.  0.
        -11    1    3    3    0    0  0.92045863270E+01  0.36632493942E+02 -0.17432601381E+03  0.17837102655E+03  0.00000000000E+00 0.  1.
         12    1    3    3    0    0 -0.43397329149E+02 -0.23953754028E+02 -0.35994866203E+03  0.36334577169E+03  0.00000000000E+00 0. -1.
        -11    1    4    4    0    0  0.13539064273E+02  0.28431784306E+02 -0.87727726617E+02  0.93208511615E+02  0.00000000000E+00 0.  1.
         11    1    4    4    0    0 -0.29010773748E+02 -0.59387486887E+02 -0.15632075836E+03  0.16971940987E+03  0.00000000000E+00 0. -1.
          1    1    1    2  501    0  0.49664452298E+02  0.18276962667E+02 -0.95221555251E+01  0.53770592634E+02  0.00000000000E+00 0. -1.
<scales pt_clust_5="13000.00000" pt_clust_6="13000.00000" pt_clust_7="13000.00000" pt_clust_8="13000.00000" pt_clust_9="52.92074"></scales>
<clustering>
<clus scale="   52.921">  1  9  2 -1</clus>
<clus scale="   81.718">  5  6 -1 -1</clus>
<clus scale="   86.037">  2  5  1 -1</clus>
<clus scale="   91.508">  7  8 -1 -1</clus>
<clus scale="   52.921">  1  5  2 -1</clus>
</clustering>
</event>
<event>
 9    2  0.1033155E-004  0.1835224E+03  0.7546771E-02  0.1187372E+00
         21   -1    0    0  501  502  0.00000000000E+00  0.00000000000E+00  0.12987235082E+04  0.12987235082E+04  0.00000000000E+00 0. -1.
          2   -1    0    0  502    0 -0.00000000000E+00 -0.00000000000E+00 -0.46267127800E+02  0.46267127800E+02  0.00000000000E+00 0. -1.
         24    2    1    2    0    0  0.52446339295E+01  0.63550146660E+02  0.25532767563E+03  0.27769403018E+03  0.88631964480E+02 0.  0.
         23    2    1    2    0    0  0.14265406528E+03 -0.74870457902E+02  0.79111201821E+03  0.81343630996E+03  0.99320879982E+02 0.  0.
        -11    1    3    3    0    0 -0.26879779729E+02  0.13214247556E+02  0.17531701362E+03  0.17785722971E+03  0.00000000000E+00 0.  1.
         12    1    3    3    0    0  0.32124413658E+02  0.50335899104E+02  0.80010662011E+02  0.99836800464E+02  0.00000000000E+00 0. -1.
        -13    1    4    4    0    0  0.28949000065E+02 -0.40894839835E+02  0.96219781800E+02  0.10848354225E+03  0.00000000000E+00 0.  1.
         13    1    4    4    0    0  0.11370506522E+03 -0.33975618067E+02  0.69489223641E+03  0.70495276771E+03  0.00000000000E+00 0. -1.
          1    1    1    2  501    0 -0.14789869921E+03  0.11320311242E+02  0.20601668658E+03  0.25386029588E+03  0.00000000000E+00 0. -1.
<scales pt_clust_5="13000.00000" pt_clust_6="13000.00000" pt_clust_7="13000.00000" pt_clust_8="13000.00000" pt_clust_9="154.32388"></scales>
<clustering>
<clus scale="   88.632">  5  6 -1 -1</clus>
<clus scale="   99.321">  7  8 -1 -1</clus>
<clus scale="  109.187">  2  5  1 -1</clus>
<clus scale="  154.324">  1  9  2 -1</clus>
<clus scale="  154.324">  1  5  2 -1</clus>
</clustering>
</event>
<event>
 9    2  0.1033155E-004  0.1932779E+03  0.7546771E-02  0.1156470E+00
          2   -1    0    0  502    0 -0.00000000000E+00  0.00000000000E+00  0.22073264119E+03  0.22073264119E+03  0.00000000000E+00 0. -1.
         21   -1    0    0  501  502  0.00000000000E+00 -0.00000000000E+00 -0.20531186706E+03  0.20531186706E+03  0.00000000000E+00 0.  1.
         23    2    1    2    0    0 -0.15901071104E+03  0.61915714643E+02  0.58360595460E+02  0.20213949799E+03  0.91304192670E+02 0.  0.
         24    2    1    2    0    0  0.16809279873E+03 -0.33833098214E+02 -0.39792695648E+02  0.19422299445E+03  0.82092907289E+02 0.  0.
        -11    1    4    4    0    0  0.15615490668E+02  0.16171649302E+02 -0.24151794533E+02  0.32995074922E+02  0.00000000000E+00 0.  1.
         12    1    4    4    0    0  0.15247730806E+03 -0.50004747516E+02 -0.15640901115E+02  0.16122791953E+03  0.00000000000E+00 0. -1.
        -11    1    3    3    0    0 -0.94186649219E+02  0.16079261476E+02 -0.11689234837E+02  0.96261652550E+02  0.00000000000E+00 0.  1.
         11    1    3    3    0    0 -0.64824061825E+02  0.45836453167E+02  0.70049830297E+02  0.10587784544E+03  0.00000000000E+00 0. -1.
          1    1    1    2  501    0 -0.90820876873E+01 -0.28082616430E+02 -0.31471256797E+01  0.29682015807E+02  0.00000000000E+00 0. -1.
<scales pt_clust_5="13000.00000" pt_clust_6="13000.00000" pt_clust_7="13000.00000" pt_clust_8="13000.00000" pt_clust_9="29.51470"></scales>
<clustering>
<clus scale="   29.515">  2  9  1 -1</clus>
<clus scale="   82.093">  5  6 -1 -1</clus>
<clus scale="   91.304">  7  8 -1 -1</clus>
<clus scale="  189.101">  2  5  1 -1</clus>
<clus scale="   29.515">  2  5  1 -1</clus>
</clustering>
</event>
<event>
 9    2  0.1033155E-004  0.9851560E+02  0.7546771E-02  0.1289359E+00
         21   -1    0    0  501  502  0.00000000000E+00  0.00000000000E+00  0.13045796077E+03  0.13045796077E+03  0.00000000000E+00 0.  1.
         -1   -1    0    0    0  501 -0.00000000000E+00 -0.00000000000E+00 -0.43022032061E+03  0.43022032061E+03  0.00000000000E+00 0.  1.
         24    2    1    2    0    0 -0.24014290326E+01  0.37239398838E+02 -0.38439096202E+03  0.39449620900E+03  0.80487934142E+02 0.  0.
         23    2    1    2    0    0  0.25179719630E+02 -0.47651136874E+01  0.83232473631E+02  0.12649102939E+03  0.91736640768E+02 0.  0.
        -11    1    3    3    0    0 -0.21421659957E+02  0.51687032618E+02 -0.17449437656E+03  0.18324498440E+03  0.00000000000E+00 0.  1.
         12    1    3    3    0    0  0.19020230924E+02 -0.14447633780E+02 -0.20989658546E+03  0.21125122460E+03  0.00000000000E+00 0. -1.
        -11    1    4    4    0    0  0.57120701575E+02 -0.16444486959E+02  0.64307148427E+02  0.87570571761E+02  0.00000000000E+00 0.  1.
         11    1    4    4    0    0 -0.31940981946E+02  0.11679373272E+02  0.18925325204E+02  0.38920457625E+02  0.00000000000E+00 0. -1.
         -2    1    1    2    0  502 -0.22778290597E+02 -0.32474285151E+02  0.13961285512E+01  0.39691042988E+02  0.00000000000E+00 0.  1.
<scales pt_clust_5="13000.00000" pt_clust_6="13000.00000" pt_clust_7="13000.00000" pt_clust_8="13000.00000" pt_clust_9="39.66648"></scales>
<clustering>
<clus scale="   39.666">  1  9  2 -1</clus>
<clus scale="   80.488">  5  6 -1 -1</clus>
<clus scale="   88.136">  2  5  1 -1</clus>
<clus scale="   91.737">  7  8 -1 -1</clus>
<clus scale="   39.666">  1  5  2 -1</clus>
</clustering>
</event>
<event>
 9    2  0.1033155E-004  0.1135602E+03  0.7546771E-02  0.1257578E+00
          2   -1    0    0  502    0 -0.00000000000E+00  0.00000000000E+00  0.33650087006E+03  0.33650087006E+03  0.00000000000E+00 0. -1.
         21   -1    0    0  501  502  0.00000000000E+00 -0.00000000000E+00 -0.68723191312E+02  0.68723191312E+02  0.00000000000E+00 0.  1.
         23    2    1    2    0    0  0.57999496988E+02 -0.35497147396E+02  0.12476506239E+03  0.16841004447E+03  0.90397086010E+02 0.  0.
         24    2    1    2    0    0 -0.12511856755E+02  0.86663144048E+02  0.77833170172E+02  0.14228653502E+03  0.80749046882E+02 0.  0.
        -11    1    4    4    0    0 -0.53897992235E+01  0.10137423472E+03  0.73636916294E+02  0.12541204424E+03  0.00000000000E+00 0.  1.
         12    1    4    4    0    0 -0.71220575319E+01 -0.14711090670E+02  0.41962538779E+01  0.16874490772E+02  0.00000000000E+00 0. -1.
        -13    1    3    3    0    0  0.65920355709E+02 -0.56916469456E+02  0.80479689245E+02  0.11858312769E+03  0.00000000000E+00 0.  1.
         13    1    3    3    0    0 -0.79208587208E+01  0.21419322061E+02  0.44285373148E+02  0.49826916775E+02  0.00000000000E+00 0. -1.
          1    1    1    2  501    0 -0.45487640233E+02 -0.51165996652E+02  0.65179446181E+02  0.94527481887E+02  0.00000000000E+00 0. -1.
<scales pt_clust_5="13000.00000" pt_clust_6="13000.00000" pt_clust_7="13000.00000" pt_clust_8="13000.00000" pt_clust_9="68.46232"></scales>
<clustering>
<clus scale="   68.462">  2  9  1 -1</clus>
<clus scale="   80.749">  5  6 -1 -1</clus>
<clus scale="   90.397">  7  8 -1 -1</clus>
<clus scale="  106.041">  2  5  1 -1</clus>
<clus scale="   68.462">  2  5  1 -1</clus>
</clustering>
</event>
<event>
 9    2  0.1033155E-004  0.2401497E+03  0.7546771E-02  0.1119873E+00
         21   -1    0    0  501  502  0.00000000000E+00  0.00000000000E+00  0.38086701176E+03  0.38086701176E+03  0.00000000000E+00 0. -1.
          2   -1    0    0  502    0 -0.00000000000E+00 -0.00000000000E+00 -0.63107364345E+03  0.63107364345E+03  0.00000000000E+00 0. -1.
         24    2    1    2    0    0 -0.19524787017E+03  0.10837926669E+03 -0.56320517565E+03  0.61240966844E+03  0.89318172112E+02 0.  0.
         23    2    1    2    0    0  0.17944898037E+03 -0.94583710864E+02  0.25926721387E+03  0.34185102393E+03  0.92166259861E+02 0.  0.
        -11    1    3    3    0    0 -0.48234490618E+02  0.35173923427E+02 -0.67023872312E+02  0.89755057987E+02  0.00000000000E+00 0.  1.
         12    1    3    3    0    0 -0.14701337956E+03  0.73205343259E+02 -0.49618130334E+03  0.52265461046E+03  0.00000000000E+00 0. -1.
        -13    1    4    4    0    0  0.13647681288E+03 -0.51631784703E+02  0.23460032336E+03  0.27627716765E+03  0.00000000000E+00 0. -1.
         13    1    4    4    0    0  0.42972167494E+02 -0.42951926161E+02  0.24666890515E+02  0.65573856282E+02  0.00000000000E+00 0.  1.
          1    1    1    2  501    0  0.15798889804E+02 -0.13795555822E+02  0.53731330092E+02  0.57679962838E+02  0.00000000000E+00 0. -1.
<scales pt_clust_5="13000.00000" pt_clust_6="13000.00000" pt_clust_7="13000.00000" pt_clust_8="13000.00000" pt_clust_9="20.97432"></scales>
<clustering>
<clus scale="   20.974">  1  9  2 -1</clus>
<clus scale="   89.318">  5  6 -1 -1</clus>
<clus scale="   92.166">  7  8 -1 -1</clus>
<clus scale="  239.071">  2  5  1 -1</clus>
<clus scale="   20.974">  1  5  2 -1</clus>
</clustering>
</event>
<event>
 9    2  0.1033155E-004  0.1031189E+03  0.7546771E-02  0.1282573E+00
          2   -1    0    0  502    0 -0.00000000000E+00  0.00000000000E+00  0.10339169033E+03  0.10339169033E+03  0.00000000000E+00 0. -1.
         21   -1    0    0  501  502  0.00000000000E+00 -0.00000000000E+00 -0.28094439232E+03  0.28094439232E+03  0.00000000000E+00 0.  1.
         23    2    1    2    0    0  0.43401950712E+02 -0.11820452319E+02  0.60072203051E+02  0.11901008194E+03  0.92364915452E+02 0.  0.
         24    2    1    2    0    0 -0.43142232914E+02  0.32364998813E+02 -0.15482670371E+03  0.18001663435E+03  0.74336633311E+02 0.  0.
        -13    1    4    4    0    0 -0.30426960567E+02  0.53389152160E+02 -0.77653899775E+02  0.99026913755E+02  0.00000000000E+00 0.  1.
         14    1    4    4    0    0 -0.12715272348E+02 -0.21024153347E+02 -0.77172803933E+02  0.80989720593E+02  0.00000000000E+00 0. -1.
        -11    1    3    3    0    0  0.16276945825E+02  0.38764882989E+02  0.40469418391E+02  0.58356053186E+02  0.00000000000E+00 0.  1.
         11    1    3    3    0    0  0.27125004887E+02 -0.50585335307E+02  0.19602784660E+02  0.60654028759E+02  0.00000000000E+00 0. -1.
          1    1    1    2  501    0 -0.25971779797E+00 -0.20544546495E+02 -0.82798201330E+02  0.85309366353E+02  0.00000000000E+00 0. -1.
<scales pt_clust_5="13000.00000" pt_clust_6="13000.00000" pt_clust_7="13000.00000" pt_clust_8="13000.00000" pt_clust_9="20.54619"></scales>
<clustering>
<clus scale="   20.546">  2  9  1 -1</clus>
<clus scale="   74.337">  5  6 -1 -1</clus>
<clus scale="   87.339">  2  5  1 -1</clus>
<clus scale="   92.365">  7  8 -1 -1</clus>
<clus scale="   20.546">  2  5  1 -1</clus>
</clustering>
</event>
<event>
 9    2  0.1033155E-004  0.2771181E+03  0.7546771E-02  0.1133887E+00
          2   -1    0    0  502    0 -0.00000000000E+00  0.00000000000E+00  0.38552725281E+03  0.38552725281E+03  0.00000000000E+00 0. -1.
         21   -1    0    0  501  502  0.00000000000E+00 -0.00000000000E+00 -0.31515177006E+03  0.31515177006E+03  0.00000000000E+00 0. -1.
         24    2    1    2    0    0 -0.53145378257E+02  0.53017174575E+02 -0.23021821434E+02  0.11244785141E+03  0.80493869304E+02 0.  0.
         23    2    1    2    0    0  0.26123415980E+03 -0.16619689626E+03  0.12679453686E+03  0.34901167903E+03  0.99335808975E+02 0.  0.
        -11    1    3    3    0    0 -0.30062150545E+02  0.73022616099E+02 -0.21597611100E+02  0.81868749609E+02  0.00000000000E+00 0.  1.
         12    1    3    3    0    0 -0.23083227711E+02 -0.20005441524E+02 -0.14242103340E+01  0.30579101805E+02  0.00000000000E+00 0. -1.
        -11    1    4    4    0    0  0.11862077325E+03 -0.64909823212E+02  0.10805341520E+03  0.17308874467E+03  0.00000000000E+00 0.  1.
         11    1    4    4    0    0  0.14261338655E+03 -0.10128707305E+03  0.18741121662E+02  0.17592293435E+03  0.00000000000E+00 0. -1.
          1    1    1    2  501    0 -0.20808878155E+03  0.11317972168E+03 -0.33397232680E+02  0.23921949243E+03  0.00000000000E+00 0. -1.
<scales pt_clust_5="13000.00000" pt_clust_6="13000.00000" pt_clust_7="13000.00000" pt_clust_8="13000.00000" pt_clust_9="258.70217"></scales>
<clustering>
<clus scale="   80.494">  5  6 -1 -1</clus>
<clus scale="   99.336">  7  8 -1 -1</clus>
<clus scale="  110.066">  1  5  2 -1</clus>
<clus scale="  258.702">  2  9  1 -1</clus>
<clus scale="  258.702">  2  5  1 -1</clus>
</clustering>
</event>
<event>
 9    2  0.1033155E-004  0.1030894E+03  0.7546771E-02  0.1279082E+00
          2   -1    0    0  502    0 -0.00000000000E+00  0.00000000000E+00  0.66936854401E+02  0.66936854401E+02  0.00000000000E+00 0. -1.
         21   -1    0    0  501  502  0.00000000000E+00 -0.00000000000E+00 -0.27364328573E+03  0.27364328573E+03  0.00000000000E+00 0. -1.
         23    2    1    2    0    0  0.62028418460E+02  0.32509930614E+01 -0.22911333337E+02  0.11289595821E+03  0.91446566540E+02 0.  0.
         24    2    1    2    0    0 -0.19620493287E+02 -0.22962393596E+02 -0.10074124020E+03  0.13236936291E+03  0.80377953972E+02 0.  0.
        -13    1    4    4    0    0 -0.15497667774E+02  0.20097388287E+02 -0.30899564114E+01  0.25566199424E+02  0.00000000000E+00 0.  1.
         14    1    4    4    0    0 -0.41228255129E+01 -0.43059781882E+02 -0.97651283785E+02  0.10680316349E+03  0.00000000000E+00 0. -1.
        -13    1    3    3    0    0 -0.22197417705E+02  0.33939847206E+01  0.69925354275E+01  0.23518929329E+02  0.00000000000E+00 0.  1.
         13    1    3    3    0    0  0.84225836165E+02 -0.14299165921E+00 -0.29903868764E+02  0.89377028880E+02  0.00000000000E+00 0. -1.
          1    1    1    2  501    0 -0.42407925173E+02  0.19711400534E+02 -0.83053857800E+02  0.95314819015E+02  0.00000000000E+00 0. -1.
<scales pt_clust_5="13000.00000" pt_clust_6="13000.00000" pt_clust_7="13000.00000" pt_clust_8="13000.00000" pt_clust_9="46.76507"></scales>
<clustering>
<clus scale="   46.765">  2  9  1 -1</clus>
<clus scale="   80.378">  5  6 -1 -1</clus>
<clus scale="   91.447">  7  8 -1 -1</clus>
<clus scale="   93.411">  2  5  1 -1</clus>
<clus scale="   46.765">  2  5  1 -1</clus>
</clustering>
</event>
<event>
 9    2  0.1033155E-004  0.1346755E+03  0.7546771E-02  0.1242404E+00
         21   -1    0    0  501  502  0.00000000000E+00  0.00000000000E+00  0.61776590663E+03  0.61776590663E+03  0.00000000000E+00 0. -1.
         -1   -1    0    0    0  501 -0.00000000000E+00 -0.00000000000E+00 -0.45171009977E+02  0.45171009977E+02  0.00000000000E+00 0.  1.
         24    2    1    2    0    0 -0.77216224567E+01  0.21247043312E+02  0.81539464532E+02  0.11857438851E+03  0.83067087541E+02 0.  0.
         23    2    1    2    0    0  0.90825202243E+02 -0.60772432434E+02  0.29283222574E+03  0.32581985284E+03  0.92007381046E+02 0.  0.
        -11    1    3    3    0    0 -0.29843837358E+02  0.44736152344E+02  0.49102445072E+02  0.72821892772E+02  0.00000000000E+00 0.  1.
         12    1    3    3    0    0  0.22122214901E+02 -0.23489109032E+02  0.32437019460E+02  0.45752495743E+02  0.00000000000E+00 0. -1.
        -13    1    4    4    0    0  0.17536455084E+02 -0.44615924806E+02  0.41121185111E+02  0.63159004648E+02  0.00000000000E+00 0.  1.
         13    1    4    4    0    0  0.73288747158E+02 -0.16156507629E+02  0.25171104063E+03  0.26266084819E+03  0.00000000000E+00 0. -1.
         -2    1    1    2    0  502 -0.83103579786E+02  0.39525389122E+02  0.19822320638E+03  0.21854267525E+03  0.00000000000E+00 0.  1.
<scales pt_clust_5="13000.00000" pt_clust_6="13000.00000" pt_clust_7="13000.00000" pt_clust_8="13000.00000" pt_clust_9="98.34704"></scales>
<clustering>
<clus scale="   83.067">  5  6 -1 -1</clus>
<clus scale="   86.088">  2  5  1 -1</clus>
<clus scale="   92.007">  7  8 -1 -1</clus>
<clus scale="   98.347">  1  9  2 -1</clus>
<clus scale="   98.347">  1  5  2 -1</clus>
</clustering>
</event>
<event>
 9    2  0.1033155E-004  0.9554040E+02  0.7546771E-02  0.1292876E+00
         21   -1    0    0  501  502  0.00000000000E+00  0.00000000000E+00  0.58335854024E+02  0.58335854024E+02  0.00000000000E+00 0. -1.
         -3   -1    0    0    0  501 -0.00000000000E+00 -0.00000000000E+00 -0.39321378181E+03  0.39321378181E+03  0.00000000000E+00 0.  1.
         24    2    1    2    0    0  0.15970767985E+02 -0.10342256823E+01 -0.64745779764E+02  0.10923546582E+03  0.86511478679E+02 0.  0.
         23    2    1    2    0    0 -0.23779830174E+02 -0.47492661005E+02 -0.50887776913E+02  0.11762786770E+03  0.91791700321E+02 0.  0.
        -13    1    3    3    0    0  0.25628227264E+02 -0.11237481569E+02 -0.82198173629E+02  0.86831024252E+02  0.00000000000E+00 0.  1.
         14    1    3    3    0    0 -0.96574592789E+01  0.10203255886E+02  0.17452393865E+02  0.22404441570E+02  0.00000000000E+00 0. -1.
        -13    1    4    4    0    0 -0.47857291837E+02 -0.16839498594E+01 -0.44701212102E+02  0.65508430240E+02  0.00000000000E+00 0.  1.
         13    1    4    4    0    0  0.24077461663E+02 -0.45808711146E+02 -0.61865648115E+01  0.52119437460E+02  0.00000000000E+00 0. -1.
         -4    1    1    2    0  502  0.78090621893E+01  0.48526886687E+02 -0.21924437111E+03  0.22468630231E+03  0.00000000000E+00 0.  1.
<scales pt_clust_5="13000.00000" pt_clust_6="13000.00000" pt_clust_7="13000.00000" pt_clust_8="13000.00000" pt_clust_9="49.15122"></scales>
<clustering>
<clus scale="   49.151">  1  9  2 -1</clus>
<clus scale="   86.511">  5  6 -1 -1</clus>
<clus scale="   90.479">  2  5  1 -1</clus>
<clus scale="   91.792">  7  8 -1 -1</clus>
<clus scale="   49.151">  1  5  2 -1</clus>
</clustering>
</event>
<event>
 9    2  0.1033155E-004  0.9681495E+02  0.7546771E-02  0.1294419E+00
          2   -1    0    0  502    0 -0.00000000000E+00  0.00000000000E+00  0.25250774135E+03  0.25250774135E+03  0.00000000000E+00 0. -1.
         21   -1    0    0  501  502  0.00000000000E+00 -0.00000000000E+00 -0.10526449640E+03  0.10526449640E+03  0.00000000000E+00 0. -1.
         24    2    1    2    0    0  0.38879061771E+01  0.29853799299E+02  0.18084997843E+03  0.20030393629E+03  0.80675814509E+02 0.  0.
         23    2    1    2    0    0 -0.18319842100E+02 -0.10823035277E+01  0.17682943840E+02  0.96914930421E+02  0.93504166967E+02 0.  0.
        -11    1    3    3    0    0 -0.31492822459E+02  0.18262844229E+01  0.32722531692E+02  0.45452142541E+02  0.00000000000E+00 0.  1.
         12    1    3    3    0    0  0.35380728636E+02  0.28027514876E+02  0.14812744674E+03  0.15485179375E+03  0.00000000000E+00 0. -1.
        -13    1    4    4    0    0 -0.33976080254E+02 -0.34672493879E+02  0.30927985793E+02  0.57559501096E+02  0.00000000000E+00 0.  1.
         13    1    4    4    0    0  0.15656238154E+02  0.33590190351E+02 -0.13245041953E+02  0.39355429325E+02  0.00000000000E+00 0. -1.
          1    1    1    2  501    0  0.14431935923E+02 -0.28771495771E+02 -0.51289677327E+02  0.60553371035E+02  0.00000000000E+00 0. -1.
<scales pt_clust_5="13000.00000" pt_clust_6="13000.00000" pt_clust_7="13000.00000" pt_clust_8="13000.00000" pt_clust_9="32.18819"></scales>
<clustering>
<clus scale="   32.188">  2  9  1 -1</clus>
<clus scale="   80.676">  5  6 -1 -1</clus>
<clus scale="   84.491">  1  5  2 -1</clus>
<clus scale="   93.504">  7  8 -1 -1</clus>
<clus scale="   32.188">  2  5  1 -1</clus>
</clustering>
</event>
<event>
 9    2  0.1033155E-004  0.1067304E+03  0.7546771E-02  0.1269331E+00
          4   -1    0    0  502    0 -0.00000000000E+00  0.00000000000E+00  0.31060475587E+03  0.31060475587E+03  0.00000000000E+00 0. -1.
         21   -1    0    0  501  502  0.00000000000E+00 -0.00000000000E+00 -0.27464684595E+03  0.27464684595E+03  0.00000000000E+00 0.  1.
         24    2    1    2    0    0  0.64033173704E+02 -0.60609776719E+01  0.10783523682E+03  0.14873120157E+03  0.79721698656E+02 0.  0.
         23    2    1    2    0    0 -0.30238877571E+02  0.10081996358E+03 -0.21926711164E+03  0.25806853417E+03  0.86268460687E+02 0.  0.
        -11    1    3    3    0    0  0.51074933937E+02  0.22395158535E+02  0.10294890162E+03  0.11708402259E+03  0.00000000000E+00 0.  1.
         12    1    3    3    0    0  0.12958239767E+02 -0.28456136207E+02  0.48863352025E+01  0.31647178980E+02  0.00000000000E+00 0. -1.
        -11    1    4    4    0    0  0.16221996353E+02  0.69327229731E+02 -0.16627038123E+03  0.18087359570E+03  0.00000000000E+00 0.  1.
         11    1    4    4    0    0 -0.46460873924E+02  0.31492733846E+02 -0.52996730407E+02  0.77194938466E+02  0.00000000000E+00 0. -1.
          3    1    1    2  501    0 -0.33794296134E+02 -0.94758985904E+02  0.14738978474E+03  0.17845186607E+03  0.00000000000E+00 0. -1.
<scales pt_clust_5="13000.00000" pt_clust_6="13000.00000" pt_clust_7="13000.00000" pt_clust_8="13000.00000" pt_clust_9="100.60482"></scales>
<clustering>
<clus scale="   79.722">  5  6 -1 -1</clus>
<clus scale="   86.268">  7  8 -1 -1</clus>
<clus scale="  100.605">  2  9  1 -1</clus>
<clus scale="  101.512">  1  5  2 -1</clus>
<clus scale="  100.605">  2  5  1 -1</clus>
</clustering>
</event>
<event>
 9    2  0.1033155E-004  0.1054189E+03  0.7546771E-02  0.1274456E+00
         -3   -1    0    0    0  501 -0.00000000000E+00  0.00000000000E+00  0.66515146948E+03  0.66515146948E+03  0.00000000000E+00 0.  1.
         21   -1    0    0  501  502  0.00000000000E+00 -0.00000000000E+00 -0.38696150380E+02  0.38696150380E+02  0.00000000000E+00 0. -1.
         23    2    1    2    0    0  0.48965659482E+02 -0.15439832104E+02  0.53131289798E+03  0.54149508818E+03  0.91035766232E+02 0.  0.
         24    2    1    2    0    0 -0.51758653635E+02  0.35787022992E+02  0.98865199161E+02  0.14147986847E+03  0.79262578412E+02 0.  0.
        -13    1    4    4    0    0  0.49903256706E+01  0.38940319455E+02  0.63134113530E+02  0.74344926665E+02  0.00000000000E+00 0.  1.
         14    1    4    4    0    0 -0.56748979306E+02 -0.31532964631E+01  0.35731085631E+02  0.67134941805E+02  0.00000000000E+00 0. -1.
        -11    1    3    3    0    0 -0.10642732149E+02  0.28175466343E+02  0.13016782950E+03  0.13360684297E+03  0.00000000000E+00 0. -1.
         11    1    3    3    0    0  0.59608391631E+02 -0.43615298448E+02  0.40114506848E+03  0.40788824521E+03  0.00000000000E+00 0.  1.
         -4    1    1    2    0  502  0.27929941530E+01 -0.20347190888E+02 -0.37227780407E+01  0.20872663215E+02  0.00000000000E+00 0.  1.
<scales pt_clust_5="13000.00000" pt_clust_6="13000.00000" pt_clust_7="13000.00000" pt_clust_8="13000.00000" pt_clust_9="20.53799"></scales>
<clustering>
<clus scale="   20.538">  2  9  1 -1</clus>
<clus scale="   79.263">  5  6 -1 -1</clus>
<clus scale="   91.036">  7  8 -1 -1</clus>
<clus scale="   95.437">  2  5  1 -1</clus>
<clus scale="   20.538">  2  5  1 -1</clus>
</clustering>
</event>
<event>
 9    2  0.1033155E-004  0.1316584E+03  0.7546771E-02  0.1227242E+00
         21   -1    0    0  501  502  0.00000000000E+00  0.00000000000E+00  0.77071720950E+02  0.77071720950E+02  0.00000000000E+00 0.  1.
          2   -1    0    0  502    0 -0.00000000000E+00 -0.00000000000E+00 -0.64432845240E+03  0.64432845240E+03  0.00000000000E+00 0. -1.
         24    2    1    2    0    0 -0.59213757744E+02 -0.11684460955E+03 -0.20759378727E+03  0.25812826060E+03  0.79850400875E+02 0.  0.
         23    2    1    2    0    0  0.64341980201E+01  0.36967875035E+02 -0.58096904644E+01  0.96695727208E+02  0.88928558226E+02 0.  0.
        -13    1    3    3    0    0 -0.27531620090E+02 -0.10840271400E+03 -0.11734420574E+03  0.16210737530E+03  0.00000000000E+00 0.  1.
         14    1    3    3    0    0 -0.31682137654E+02 -0.84418955551E+01 -0.90249581534E+02  0.96020885301E+02  0.00000000000E+00 0. -1.
        -13    1    4    4    0    0  0.37497086048E+01 -0.28821202051E+02 -0.99545494446E+01  0.30721573152E+02  0.00000000000E+00 0. -1.
         13    1    4    4    0    0  0.26844894153E+01  0.65789077087E+02  0.41448589802E+01  0.65974154055E+02  0.00000000000E+00 0.  1.
          1    1    1    2  501    0  0.52779559724E+02  0.79876734517E+02 -0.35385325372E+03  0.36657618554E+03  0.00000000000E+00 0. -1.
<scales pt_clust_5="13000.00000" pt_clust_6="13000.00000" pt_clust_7="13000.00000" pt_clust_8="13000.00000" pt_clust_9="95.73914"></scales>
<clustering>
<clus scale="   79.850">  5  6 -1 -1</clus>
<clus scale="   88.929">  7  8 -1 -1</clus>
<clus scale="   95.739">  1  9  2 -1</clus>
<clus scale="  125.705">  2  5  1 -1</clus>
<clus scale="   95.739">  1  5  2 -1</clus>
</clustering>
</event>
<event>
 9    2  0.1033155E-004  0.1097941E+03  0.7546771E-02  0.1277594E+00
          4   -1    0    0  502    0 -0.00000000000E+00  0.00000000000E+00  0.15034561094E+03  0.15034561094E+03  0.00000000000E+00 0. -1.
         21   -1    0    0  501  502  0.00000000000E+00 -0.00000000000E+00 -0.61294181797E+03  0.61294181797E+03  0.00000000000E+00 0.  1.
         24    2    1    2    0    0 -0.11439252675E+02 -0.33284761955E+02 -0.59740091270E+02  0.99482698059E+02  0.71338606855E+02 0.  0.
         23    2    1    2    0    0 -0.33760118765E+02 -0.49789768526E+02 -0.50964231921E+03  0.52115952749E+03  0.90847085224E+02 0.  0.
        -13    1    3    3    0    0  0.29811405108E+02 -0.20215778275E+02 -0.31137836312E+02  0.47612628744E+02  0.00000000000E+00 0.  1.
         14    1    3    3    0    0 -0.41250657784E+02 -0.13068983680E+02 -0.28602254959E+02  0.51870069315E+02  0.00000000000E+00 0. -1.
        -13    1    4    4    0    0 -0.62246515089E+02 -0.22456915431E+02 -0.37712250959E+03  0.38288422393E+03  0.00000000000E+00 0.  1.
         13    1    4    4    0    0  0.28486396324E+02 -0.27332853094E+02 -0.13251980962E+03  0.13827530356E+03  0.00000000000E+00 0. -1.
          3    1    1    2  501    0  0.45199371440E+02  0.83074530481E+02  0.10678620345E+03  0.14264520336E+03  0.00000000000E+00 0. -1.
<scales pt_clust_5="13000.00000" pt_clust_6="13000.00000" pt_clust_7="13000.00000" pt_clust_8="13000.00000" pt_clust_9="61.65680"></scales>
<clustering>
<clus scale="   71.339">  5  6 -1 -1</clus>
<clus scale="   79.548">  1  5  2 -1</clus>
<clus scale="   61.657">  2  9  1 -1</clus>
<clus scale="   90.847">  7  8 -1 -1</clus>
<clus scale="   61.657">  2  5  1 -1</clus>
</clustering>
</event>
<event>
 9    2  0.1033155E-004  0.9088567E+02  0.7546771E-02  0.1307149E+00
         21   -1    0    0  501  502  0.00000000000E+00  0.00000000000E+00  0.54558158695E+02  0.54558158695E+02  0.00000000000E+00 0. -1.
          2   -1    0    0  502    0 -0.00000000000E+00 -0.00000000000E+00 -0.21626575956E+03  0.21626575956E+03  0.00000000000E+00 0. -1.
         24    2    1    2    0    0 -0.30646864780E+02  0.23759339015E+00 -0.92487861390E+02  0.12467403176E+03  0.77783821707E+02 0.  0.
         23    2    1    2    0    0  0.44143710756E+01  0.21901308105E+02 -0.64390993626E+02  0.11148590703E+03  0.88225582676E+02 0.  0.
        -11    1    3    3    0    0 -0.30670226339E+02  0.33343285201E+02 -0.31173159382E+02  0.54992756955E+02  0.00000000000E+00 0.  1.
         12    1    3    3    0    0  0.23361559056E-01 -0.33105691811E+02 -0.61314702008E+02  0.69681274804E+02  0.00000000000E+00 0. -1.
        -11    1    4    4    0    0 -0.99727527766E+01  0.43685428082E+02 -0.31584820365E+01  0.44920467868E+02  0.00000000000E+00 0. -1.
         11    1    4    4    0    0  0.14387123852E+02 -0.21784119977E+02 -0.61232511590E+02  0.66565439167E+02  0.00000000000E+00 0.  1.
          1    1    1    2  501    0  0.26232493705E+02 -0.22138901495E+02 -0.48287458456E+01  0.34663979457E+02  0.00000000000E+00 0. -1.
<scales pt_clust_5="13000.00000" pt_clust_6="13000.00000" pt_clust_7="13000.00000" pt_clust_8="13000.00000" pt_clust_9="34.32601"></scales>
<clustering>
<clus scale="   34.326">  1  9  2 -1</clus>
<clus scale="   77.784">  5  6 -1 -1</clus>
<clus scale="   80.788">  2  5  1 -1</clus>
<clus scale="   88.226">  7  8 -1 -1</clus>
<clus scale="   34.326">  1  5  2 -1</clus>
</clustering>
</event>
<event>
 9    2  0.1033155E-004  0.4948337E+03  0.7546771E-02  0.1015136E+00
         21   -1    0    0  501  502  0.00000000000E+00  0.00000000000E+00  0.14000800576E+03  0.14000800576E+03  0.00000000000E+00 0. -1.
          2   -1    0    0  502    0 -0.00000000000E+00 -0.00000000000E+00 -0.20270327563E+04  0.20270327563E+04  0.00000000000E+00 0. -1.
         24    2    1    2    0    0 -0.68996716768E+02  0.14976840610E+03 -0.64421938101E+03  0.66990302513E+03  0.80995863007E+02 0.  0.
         23    2    1    2    0    0  0.18810357084E+02  0.28677802171E+03 -0.86251888159E+03  0.91601015435E+03  0.11198356356E+03 0.  0.
        -11    1    3    3    0    0 -0.12714326925E+02  0.29710142486E+02 -0.40598146150E+02  0.51889846276E+02  0.00000000000E+00 0.  1.
         12    1    3    3    0    0 -0.56282389843E+02  0.12005826361E+03 -0.60362123486E+03  0.61801317886E+03  0.00000000000E+00 0. -1.
        -11    1    4    4    0    0  0.54719277396E+02  0.72535887960E+02 -0.23488263986E+03  0.25184421547E+03  0.00000000000E+00 0.  1.
         11    1    4    4    0    0 -0.35908920312E+02  0.21424213375E+03 -0.62763624173E+03  0.66416593887E+03  0.00000000000E+00 0. -1.
          1    1    1    2  501    0  0.50186359684E+02 -0.43654642780E+03 -0.38028648794E+03  0.58112758258E+03  0.00000000000E+00 0. -1.
<scales pt_clust_5="13000.00000" pt_clust_6="13000.00000" pt_clust_7="13000.00000" pt_clust_8="13000.00000" pt_clust_9="439.42173"></scales>
<clustering>
<clus scale="   80.996">  5  6 -1 -1</clus>
<clus scale="  111.984">  7  8 -1 -1</clus>
<clus scale="  144.315">  5  7 -1 -1</clus>
<clus scale="  439.422">  1  9  2 -1</clus>
<clus scale="  439.422">  1  5  2 -1</clus>
</clustering>
</event>
<event>
 9    2  0.1033155E-004  0.1025656E+03  0.7546771E-02  0.1277868E+00
         21   -1    0    0  501  502  0.00000000000E+00  0.00000000000E+00  0.74195854686E+02  0.74195854686E+02  0.00000000000E+00 0. -1.
          2   -1    0    0  502    0 -0.00000000000E+00 -0.00000000000E+00 -0.42260168002E+03  0.42260168002E+03  0.00000000000E+00 0. -1.
         23    2    1    2    0    0  0.51121169258E+02 -0.27275237254E+02 -0.12556582329E+03  0.16574030591E+03  0.91355134015E+02 0.  0.
         24    2    1    2    0    0  0.50796624777E+02  0.54253275143E+02 -0.35444163762E+02  0.11604036556E+03  0.81764067553E+02 0.  0.
        -13    1    4    4    0    0  0.46545214975E+02  0.55027992357E+02 -0.58348921225E+02  0.92731513457E+02  0.00000000000E+00 0.  1.
         14    1    4    4    0    0  0.42514098028E+01 -0.77471721452E+00  0.22904757463E+02  0.23308852106E+02  0.00000000000E+00 0. -1.
        -13    1    3    3    0    0  0.69988899728E+01  0.26303640073E+02 -0.66002419221E+01  0.28007662083E+02  0.00000000000E+00 0.  1.
         13    1    3    3    0    0  0.44122279285E+02 -0.53578877327E+02 -0.11896558137E+03  0.13773264383E+03  0.00000000000E+00 0. -1.
          1    1    1    2  501    0 -0.10191779404E+03 -0.26978037888E+02 -0.18739583828E+03  0.21501686323E+03  0.00000000000E+00 0. -1.
<scales pt_clust_5="13000.00000" pt_clust_6="13000.00000" pt_clust_7="13000.00000" pt_clust_8="13000.00000" pt_clust_9="105.42800"></scales>
<clustering>
<clus scale="   81.764">  5  6 -1 -1</clus>
<clus scale="   91.355">  7  8 -1 -1</clus>
<clus scale="  105.428">  1  9  2 -1</clus>
<clus scale="  105.428">  1  5  2 -1</clus>
<clus scale="  102.566">  1  5  2 -1</clus>
</clustering>
</event>
<event>
 9    2  0.1033155E-004  0.1304182E+03  0.7546771E-02  0.1230216E+00
          2   -1    0    0  502    0 -0.00000000000E+00  0.00000000000E+00  0.42390350497E+03  0.42390350497E+03  0.00000000000E+00 0. -1.
         21   -1    0    0  501  502  0.00000000000E+00 -0.00000000000E+00 -0.55939474931E+02  0.55939474931E+02  0.00000000000E+00 0. -1.
         24    2    1    2    0    0  0.85311127301E+02 -0.48483215395E+02  0.16035957040E+03  0.20449918567E+03  0.80474309581E+02 0.  0.
         23    2    1    2    0    0 -0.82279412708E+02  0.16359072325E+02  0.92641466822E+02  0.15593842761E+03  0.93256800439E+02 0.  0.
        -11    1    3    3    0    0  0.94975628015E+01  0.17624448423E+02  0.56376032751E+02  0.59825428959E+02  0.00000000000E+00 0.  1.
         12    1    3    3    0    0  0.75813564500E+02 -0.66107663817E+02  0.10398353765E+03  0.14467375671E+03  0.00000000000E+00 0. -1.
        -11    1    4    4    0    0  0.13063052467E+01  0.38611132829E+02  0.23654342789E+02  0.45299602035E+02  0.00000000000E+00 0.  1.
         11    1    4    4    0    0 -0.83585717955E+02 -0.22252060504E+02  0.68987124033E+02  0.11063882558E+03  0.00000000000E+00 0. -1.
          1    1    1    2  501    0 -0.30317145932E+01  0.32124143070E+02  0.11496299281E+03  0.11940536662E+03  0.00000000000E+00 0. -1.
<scales pt_clust_5="13000.00000" pt_clust_6="13000.00000" pt_clust_7="13000.00000" pt_clust_8="13000.00000" pt_clust_9="32.26690"></scales>
<clustering>
<clus scale="   32.267">  2  9  1 -1</clus>
<clus scale="   80.474">  5  6 -1 -1</clus>
<clus scale="   93.257">  7  8 -1 -1</clus>
<clus scale="  121.607">  1  5  2 -1</clus>
<clus scale="   32.267">  2  5  1 -1</clus>
</clustering>
</event>
<event>
 9    2  0.1033155E-004  0.9596533E+02  0.7546771E-02  0.1296410E+00
          2   -1    0    0  502    0 -0.00000000000E+00  0.00000000000E+00  0.57336086470E+03  0.57336086470E+03  0.00000000000E+00 0. -1.
         21   -1    0    0  501  502  0.00000000000E+00 -0.00000000000E+00 -0.22749735791E+02  0.22749735791E+02  0.00000000000E+00 0.  1.
         24    2    1    2    0    0  0.96829795629E+01 -0.31063142079E+02  0.29116438636E+03  0.30402621346E+03  0.81219207681E+02 0.  0.
         23    2    1    2    0    0 -0.86058271541E+00 -0.60083142885E+01  0.16039944246E+03  0.18595948318E+03  0.93894130801E+02 0.  0.
        -11    1    3    3    0    0  0.84449894819E+01  0.22505946316E+02  0.35941837738E+02  0.43239463074E+02  0.00000000000E+00 0.  1.
         12    1    3    3    0    0  0.12379900810E+01 -0.53569088395E+02  0.25522254862E+03  0.26078675038E+03  0.00000000000E+00 0. -1.
        -13    1    4    4    0    0  0.21781550945E+02 -0.28563097901E+02  0.14696568870E+03  0.15129177168E+03  0.00000000000E+00 0.  1.
         13    1    4    4    0    0 -0.22642133661E+02  0.22554783613E+02  0.13433753766E+02  0.34667711502E+02  0.00000000000E+00 0. -1.
          1    1    1    2  501    0 -0.88223968475E+01  0.37071456367E+02  0.99047300092E+02  0.10612490386E+03  0.00000000000E+00 0. -1.
<scales pt_clust_5="13000.00000" pt_clust_6="13000.00000" pt_clust_7="13000.00000" pt_clust_8="13000.00000" pt_clust_9="38.10681"></scales>
<clustering>
<clus scale="   38.107">  2  9  1 -1</clus>
<clus scale="   81.219">  5  6 -1 -1</clus>
<clus scale="   83.605">  1  5  2 -1</clus>
<clus scale="   93.894">  7  8 -1 -1</clus>
<clus scale="   38.107">  2  5  1 -1</clus>
</clustering>
</event>
<event>
 9    2  0.1033155E-004  0.1318887E+03  0.7546771E-02  0.1227345E+00
          2   -1    0    0  502    0 -0.00000000000E+00  0.00000000000E+00  0.61159009828E+03  0.61159009828E+03  0.00000000000E+00 0. -1.
         21   -1    0    0  501  502  0.00000000000E+00 -0.00000000000E+00 -0.37873154664E+02  0.37873154664E+02  0.00000000000E+00 0.  1.
         23    2    1    2    0    0 -0.30752577335E+02 -0.76144834015E+02  0.27493001854E+03  0.30136486015E+03  0.92143947578E+02 0.  0.
         24    2    1    2    0    0  0.16525936436E+02  0.11107172233E+03  0.25468680062E+03  0.29007162470E+03  0.81646475541E+02 0.  0.
        -13    1    4    4    0    0 -0.87904336529E+01  0.11163680728E+03  0.22274596583E+03  0.24931067718E+03  0.00000000000E+00 0.  1.
         14    1    4    4    0    0  0.25316370089E+02 -0.56508494465E+00  0.31940834795E+02  0.40760947522E+02  0.00000000000E+00 0. -1.
        -13    1    3    3    0    0 -0.95209947516E+01  0.20300068922E+02  0.31490215147E+02  0.38657157026E+02  0.00000000000E+00 0.  1.
         13    1    3    3    0    0 -0.21231582584E+02 -0.96444902938E+02  0.24343980339E+03  0.26270770312E+03  0.00000000000E+00 0. -1.
          1    1    1    2  501    0  0.14226640899E+02 -0.34926888319E+02  0.44100124451E+02  0.58026768094E+02  0.00000000000E+00 0. -1.
<scales pt_clust_5="13000.00000" pt_clust_6="13000.00000" pt_clust_7="13000.00000" pt_clust_8="13000.00000" pt_clust_9="37.71319"></scales>
<clustering>
<clus scale="   37.713">  2  9  1 -1</clus>
<clus scale="   81.646">  5  6 -1 -1</clus>
<clus scale="   92.144">  7  8 -1 -1</clus>
<clus scale="  124.781">  2  5  1 -1</clus>
<clus scale="   37.713">  2  5  1 -1</clus>
</clustering>
</event>
<event>
 9    2  0.1033155E-004  0.9645880E+02  0.7546771E-02  0.1293055E+00
         -1   -1    0    0    0  501 -0.00000000000E+00  0.00000000000E+00  0.76668575329E+02  0.76668575329E+02  0.00000000000E+00 0.  1.
         21   -1    0    0  501  502  0.00000000000E+00 -0.00000000000E+00 -0.33610169202E+03  0.33610169202E+03  0.00000000000E+00 0.  1.
         23    2    1    2    0    0 -0.20282446764E+02  0.24785338386E+02  0.26671210575E+02  0.10049619106E+03  0.91446379363E+02 0.  0.
         24    2    1    2    0    0 -0.74474492952E+01 -0.34673012108E+02 -0.16527368610E+03  0.18790865878E+03  0.82076735184E+02 0.  0.
        -13    1    4    4    0    0 -0.37493097006E+02 -0.33253372471E+02 -0.58756554451E+02  0.77225978756E+02  0.00000000000E+00 0.  1.
         14    1    4    4    0    0  0.30045647711E+02 -0.14196396369E+01 -0.10651713165E+03  0.11068268003E+03  0.00000000000E+00 0. -1.
        -13    1    3    3    0    0  0.19469296138E+02 -0.25659842843E+02  0.43497355046E+01  0.32502326468E+02  0.00000000000E+00 0. -1.
         13    1    3    3    0    0 -0.39751742902E+02  0.50445181229E+02  0.22321475070E+02  0.67993864593E+02  0.00000000000E+00 0.  1.
         -2    1    1    2    0  502  0.27729896059E+02  0.98876737216E+01 -0.12083064116E+03  0.12436541750E+03  0.00000000000E+00 0.  1.
<scales pt_clust_5="13000.00000" pt_clust_6="13000.00000" pt_clust_7="13000.00000" pt_clust_8="13000.00000" pt_clust_9="29.43999"></scales>
<clustering>
<clus scale="   29.440">  2  9  1 -1</clus>
<clus scale="   82.077">  5  6 -1 -1</clus>
<clus scale="   87.627">  2  5  1 -1</clus>
<clus scale="   91.446">  7  8 -1 -1</clus>
<clus scale="   29.440">  2  5  1 -1</clus>
</clustering>
</event>
<event>
 9    2  0.1033155E-004  0.9268122E+02  0.7546771E-02  0.1303006E+00
         21   -1    0    0  501  502  0.00000000000E+00  0.00000000000E+00  0.24973112562E+03  0.24973112562E+03  0.00000000000E+00 0.  1.
          2   -1    0    0  502    0 -0.00000000000E+00 -0.00000000000E+00 -0.47556623271E+03  0.47556623271E+03  0.00000000000E+00 0. -1.
         24    2    1    2    0    0 -0.43575749546E+01  0.17326543713E+02 -0.45152475677E+03  0.45897573401E+03  0.80404731516E+02 0.  0.
         23    2    1    2    0    0 -0.49218402700E+01  0.82680814206E+01  0.91815679819E+02  0.12970745159E+03  0.91111570372E+02 0.  0.
        -13    1    3    3    0    0  0.21903570624E+02  0.24559339384E+02 -0.80697054251E+02  0.87148965122E+02  0.00000000000E+00 0.  1.
         14    1    3    3    0    0 -0.26261145579E+02 -0.72327956710E+01 -0.37082770252E+03  0.37182676888E+03  0.00000000000E+00 0. -1.
        -11    1    4    4    0    0 -0.30248512106E+02 -0.20910473837E+02  0.81962730294E+02  0.89833788509E+02  0.00000000000E+00 0.  1.
         11    1    4    4    0    0  0.25326671836E+02  0.29178555258E+02  0.98529495248E+01  0.39873663081E+02  0.00000000000E+00 0. -1.
          1    1    1    2  501    0  0.92794152245E+01 -0.25594625133E+02  0.13387396986E+03  0.13661417273E+03  0.00000000000E+00 0. -1.
<scales pt_clust_5="13000.00000" pt_clust_6="13000.00000" pt_clust_7="13000.00000" pt_clust_8="13000.00000" pt_clust_9="27.22485"></scales>
<clustering>
<clus scale="   27.225">  1  9  2 -1</clus>
<clus scale="   80.405">  5  6 -1 -1</clus>
<clus scale="   82.179">  2  5  1 -1</clus>
<clus scale="   91.112">  7  8 -1 -1</clus>
<clus scale="   27.225">  1  5  2 -1</clus>
</clustering>
</event>
<event>
 9    2  0.1033155E-004  0.9113735E+02  0.7546771E-02  0.1306371E+00
         21   -1    0    0  501  502  0.00000000000E+00  0.00000000000E+00  0.62363856715E+03  0.62363856715E+03  0.00000000000E+00 0. -1.
         -3   -1    0    0    0  501 -0.00000000000E+00 -0.00000000000E+00 -0.16909005338E+02  0.16909005338E+02  0.00000000000E+00 0.  1.
         23    2    1    2    0    0 -0.34931095758E+01  0.57437112249E+01  0.24033811864E+03  0.25676718348E+03  0.90120936572E+02 0.  0.
         24    2    1    2    0    0  0.23027762677E+02  0.16067351815E+02  0.26848606526E+03  0.28159042782E+03  0.80124678805E+02 0.  0.
        -11    1    4    4    0    0  0.45143678448E+01 -0.31803786129E+02  0.79131191312E+02  0.85402609841E+02  0.00000000000E+00 0.  1.
         12    1    4    4    0    0  0.18513394833E+02  0.47871137943E+02  0.18935487395E+03  0.19618781798E+03  0.00000000000E+00 0. -1.
        -11    1    3    3    0    0  0.23719864886E+02 -0.33578823459E+02  0.88633141128E+02  0.97703649273E+02  0.00000000000E+00 0.  1.
         11    1    3    3    0    0 -0.27212974462E+02  0.39322534684E+02  0.15170497751E+03  0.15906353421E+03  0.00000000000E+00 0. -1.
         -4    1    1    2    0  502 -0.19534653102E+02 -0.21811063039E+02  0.97905377910E+02  0.10218996118E+03  0.00000000000E+00 0.  1.
<scales pt_clust_5="13000.00000" pt_clust_6="13000.00000" pt_clust_7="13000.00000" pt_clust_8="13000.00000" pt_clust_9="29.28012"></scales>
<clustering>
<clus scale="   29.280">  1  9  2 -1</clus>
<clus scale="   80.125">  5  6 -1 -1</clus>
<clus scale="   81.266">  1  5  2 -1</clus>
<clus scale="   90.121">  7  8 -1 -1</clus>
<clus scale="   29.280">  1  5  2 -1</clus>
</clustering>
</event>
<event>
 9    2  0.1033155E-004  0.2743589E+03  0.7546771E-02  0.1098810E+00
         21   -1    0    0  501  502  0.00000000000E+00  0.00000000000E+00  0.42138911647E+03  0.42138911647E+03  0.00000000000E+00 0. -1.
          2   -1    0    0  502    0 -0.00000000000E+00 -0.00000000000E+00 -0.13131608077E+03  0.13131608077E+03  0.00000000000E+00 0. -1.
         24    2    1    2    0    0  0.11914772912E+03  0.40334420754E+02  0.46929403930E+02  0.15574742018E+03  0.78942023578E+02 0.  0.
         23    2    1    2    0    0  0.73553722910E+02 -0.10361392925E+02  0.10396873086E+03  0.15737087205E+03  0.91861775273E+02 0.  0.
        -11    1    3    3    0    0  0.91833371021E+02  0.50739190665E+02  0.55225218664E+01  0.10506346534E+03  0.00000000000E+00 0.  1.
         12    1    3    3    0    0  0.27314358100E+02 -0.10404769911E+02  0.41406882064E+02  0.50683954834E+02  0.00000000000E+00 0. -1.
        -11    1    4    4    0    0  0.27756560188E+02 -0.12713486193E+02  0.10713901277E+03  0.11140389321E+03  0.00000000000E+00 0.  1.
         11    1    4    4    0    0  0.45797162723E+02  0.23520932681E+01 -0.31702819146E+01  0.45966978839E+02  0.00000000000E+00 0. -1.
          1    1    1    2  501    0 -0.19270145203E+03 -0.29973027829E+02  0.13917490091E+03  0.23958690502E+03  0.00000000000E+00 0. -1.
<scales pt_clust_5="13000.00000" pt_clust_6="13000.00000" pt_clust_7="13000.00000" pt_clust_8="13000.00000" pt_clust_9="195.01854"></scales>
<clustering>
<clus scale="   78.942">  5  6 -1 -1</clus>
<clus scale="   91.862">  7  8 -1 -1</clus>
<clus scale="  109.744">  5  7 -1 -1</clus>
<clus scale="  195.019">  1  9  2 -1</clus>
<clus scale="  195.019">  1  5  2 -1</clus>
</clustering>
</event>
<event>
 9    2  0.1033155E-004  0.1001699E+03  0.7546771E-02  0.1285713E+00
         21   -1    0    0  501  502  0.00000000000E+00  0.00000000000E+00  0.16700512038E+03  0.16700512038E+03  0.00000000000E+00 0.  1.
          2   -1    0    0  502    0 -0.00000000000E+00 -0.00000000000E+00 -0.10075626359E+03  0.10075626359E+03  0.00000000000E+00 0. -1.
         24    2    1    2    0    0 -0.36784354699E+02 -0.15102502220E+01 -0.19059478935E+02  0.89816768138E+02  0.79676963390E+02 0.  0.
         23    2    1    2    0    0  0.55840102077E+02 -0.24886291196E+02  0.93670740663E+02  0.14433169089E+03  0.91213950958E+02 0.  0.
        -11    1    3    3    0    0  0.47408449412E+01  0.32432852146E+02 -0.14952456323E+02  0.36026954620E+02  0.00000000000E+00 0.  1.
         12    1    3    3    0    0 -0.41525199641E+02 -0.33943102368E+02 -0.41070226122E+01  0.53789813518E+02  0.00000000000E+00 0. -1.
        -11    1    4    4    0    0  0.17306918514E+02 -0.20738855121E+02  0.10129367236E+03  0.10483338018E+03  0.00000000000E+00 0.  1.
         11    1    4    4    0    0  0.38533183563E+02 -0.41474360744E+01 -0.76229316925E+01  0.39498310712E+02  0.00000000000E+00 0. -1.
          1    1    1    2  501    0 -0.19055747378E+02  0.26396541418E+02 -0.83624049401E+01  0.33612924945E+02  0.00000000000E+00 0. -1.
<scales pt_clust_5="13000.00000" pt_clust_6="13000.00000" pt_clust_7="13000.00000" pt_clust_8="13000.00000" pt_clust_9="32.55610"></scales>
<clustering>
<clus scale="   32.556">  1  9  2 -1</clus>
<clus scale="   79.677">  5  6 -1 -1</clus>
<clus scale="   89.791">  2  5  1 -1</clus>
<clus scale="   91.214">  7  8 -1 -1</clus>
<clus scale="   32.556">  1  5  2 -1</clus>
</clustering>
</event>
<event>
 9    2  0.1033155E-004  0.1035635E+03  0.7546771E-02  0.1277369E+00
         -1   -1    0    0    0  501 -0.00000000000E+00  0.00000000000E+00  0.24332934963E+03  0.24332934963E+03  0.00000000000E+00 0.  1.
         21   -1    0    0  501  502  0.00000000000E+00 -0.00000000000E+00 -0.16311994262E+03  0.16311994262E+03  0.00000000000E+00 0.  1.
         23    2    1    2    0    0  0.45901869326E+02  0.44446147019E+01  0.15659789187E+03  0.18672445135E+03  0.90644276086E+02 0.  0.
         24    2    1    2    0    0 -0.74715303844E+02 -0.58982729832E+02 -0.93091549678E+02  0.15582169243E+03  0.80950751459E+02 0.  0.
        -11    1    4    4    0    0  0.50975099430E+01 -0.35473237229E+02 -0.51659875929E+02  0.62873507523E+02  0.00000000000E+00 0.  1.
         12    1    4    4    0    0 -0.79812813787E+02 -0.23509492602E+02 -0.41431673749E+02  0.92948184903E+02  0.00000000000E+00 0. -1.
        -11    1    3    3    0    0  0.17094328756E+02  0.45136125984E+02  0.52566825956E+02  0.71363556074E+02  0.00000000000E+00 0. -1.
         11    1    3    3    0    0  0.28807540569E+02 -0.40691511282E+02  0.10403106592E+03  0.11536089528E+03  0.00000000000E+00 0.  1.
         -2    1    1    2    0  502  0.28813434519E+02  0.54538115130E+02  0.16703064810E+02  0.63903148473E+02  0.00000000000E+00 0.  1.
<scales pt_clust_5="13000.00000" pt_clust_6="13000.00000" pt_clust_7="13000.00000" pt_clust_8="13000.00000" pt_clust_9="61.68163"></scales>
<clustering>
<clus scale="   61.682">  2  9  1 -1</clus>
<clus scale="   80.951">  5  6 -1 -1</clus>
<clus scale="   90.644">  7  8 -1 -1</clus>
<clus scale="   95.195">  2  5  1 -1</clus>
<clus scale="   61.682">  2  5  1 -1</clus>
</clustering>
</event>
<event>
 9    2  0.1033155E-004  0.2138238E+03  0.7546771E-02  0.1141040E+00
          2   -1    0    0  502    0 -0.00000000000E+00  0.00000000000E+00  0.88891558669E+02  0.88891558669E+02  0.00000000000E+00 0. -1.
         21   -1    0    0  501  502  0.00000000000E+00 -0.00000000000E+00 -0.90384982541E+03  0.90384982541E+03  0.00000000000E+00 0. -1.
         24    2    1    2    0    0 -0.21494823752E+03 -0.38274559794E+02 -0.23223018161E+03  0.32630022675E+03  0.69808982122E+02 0.  0.
         23    2    1    2    0    0  0.15012963734E+03 -0.70793635428E+02 -0.39326836367E+03  0.43842293833E+03  0.10002009882E+03 0.  0.
        -13    1    3    3    0    0 -0.82796050993E+02 -0.49526587008E+02 -0.10278990302E+03  0.14097458297E+03  0.00000000000E+00 0.  1.
         14    1    3    3    0    0 -0.13215218653E+03  0.11252027214E+02 -0.12944027859E+03  0.18532564378E+03  0.00000000000E+00 0. -1.
        -13    1    4    4    0    0  0.66677290112E+02 -0.25800581425E+02 -0.64612714728E+02  0.96365626253E+02  0.00000000000E+00 0.  1.
         13    1    4    4    0    0  0.83452347231E+02 -0.44993054003E+02 -0.32865564894E+03  0.34205731208E+03  0.00000000000E+00 0. -1.
          1    1    1    2  501    0  0.64818600179E+02  0.10906819522E+03 -0.18945972147E+03  0.22801821900E+03  0.00000000000E+00 0. -1.
<scales pt_clust_5="13000.00000" pt_clust_6="13000.00000" pt_clust_7="13000.00000" pt_clust_8="13000.00000" pt_clust_9="126.87522"></scales>
<clustering>
<clus scale="   69.809">  5  6 -1 -1</clus>
<clus scale="  100.020">  7  8 -1 -1</clus>
<clus scale="  126.875">  2  9  1 -1</clus>
<clus scale="  201.469">  1  5  2 -1</clus>
<clus scale="  126.875">  2  5  1 -1</clus>
</clustering>
</event>
<event>
 9    2  0.1033155E-004  0.2648934E+03  0.7546771E-02  0.1104873E+00
         21   -1    0    0  501  502  0.00000000000E+00  0.00000000000E+00  0.24535727392E+03  0.24535727392E+03  0.00000000000E+00 0.  1.
         -3   -1    0    0    0  501 -0.00000000000E+00 -0.00000000000E+00 -0.61144380030E+03  0.61144380030E+03  0.00000000000E+00 0.  1.
         23    2    1    2    0    0  0.15718896647E+03  0.19472196776E+03 -0.48584753950E+03  0.55430856855E+03  0.92656039316E+02 0.  0.
         24    2    1    2    0    0 -0.13230226666E+03 -0.19755769351E+03  0.97618257568E+02  0.26906062282E+03  0.79569859346E+02 0.  0.
        -11    1    4    4    0    0 -0.70536789582E+02 -0.15796844431E+03  0.90795892497E+02  0.19538004549E+03  0.00000000000E+00 0.  1.
         12    1    4    4    0    0 -0.61765477079E+02 -0.39589249198E+02  0.68223650709E+01  0.73680577332E+02  0.00000000000E+00 0. -1.
        -13    1    3    3    0    0  0.61694672114E+02  0.77300161724E+02 -0.29249699102E+03  0.30876534346E+03  0.00000000000E+00 0.  1.
         13    1    3    3    0    0  0.95494294354E+02  0.11742180604E+03 -0.19335054848E+03  0.24554322508E+03  0.00000000000E+00 0. -1.
         -4    1    1    2    0  502 -0.24886699808E+02  0.28357257478E+01  0.22142755551E+02  0.33431882855E+02  0.00000000000E+00 0.  1.
<scales pt_clust_5="13000.00000" pt_clust_6="13000.00000" pt_clust_7="13000.00000" pt_clust_8="13000.00000" pt_clust_9="25.04774"></scales>
<clustering>
<clus scale="   25.048">  1  9  2 -1</clus>
<clus scale="   79.570">  5  6 -1 -1</clus>
<clus scale="   92.656">  7  8 -1 -1</clus>
<clus scale="  260.605">  1  5  2 -1</clus>
<clus scale="   25.048">  1  5  2 -1</clus>
</clustering>
</event>
<event>
 9    2  0.1033155E-004  0.1081412E+03  0.7546771E-02  0.1268601E+00
         -1   -1    0    0    0  501 -0.00000000000E+00  0.00000000000E+00  0.40477104270E+02  0.40477104270E+02  0.00000000000E+00 0.  1.
         21   -1    0    0  501  502  0.00000000000E+00 -0.00000000000E+00 -0.60368002724E+03  0.60368002724E+03  0.00000000000E+00 0.  1.
         24    2    1    2    0    0  0.49668259856E+01 -0.44022528563E+02 -0.10268638126E+03  0.13714952712E+03  0.79390474938E+02 0.  0.
         23    2    1    2    0    0  0.21378204813E+02  0.80455671625E+02 -0.15344004892E+03  0.19665714607E+03  0.90554081892E+02 0.  0.
        -11    1    3    3    0    0 -0.39652236291E+01 -0.65989515077E+02 -0.84374720526E+02  0.10718877069E+03  0.00000000000E+00 0.  1.
         12    1    3    3    0    0  0.89320496147E+01  0.21966986514E+02 -0.18311660738E+02  0.29960756429E+02  0.00000000000E+00 0. -1.
        -11    1    4    4    0    0 -0.14836349751E+02  0.33237302459E+02 -0.50081222940E+01  0.36741214427E+02  0.00000000000E+00 0. -1.
         11    1    4    4    0    0  0.36214554564E+02  0.47218369167E+02 -0.14843192663E+03  0.15991593164E+03  0.00000000000E+00 0.  1.
         -2    1    1    2    0  502 -0.26345030799E+02 -0.36433143062E+02 -0.30707649278E+03  0.31035045832E+03  0.00000000000E+00 0.  1.
<scales pt_clust_5="13000.00000" pt_clust_6="13000.00000" pt_clust_7="13000.00000" pt_clust_8="13000.00000" pt_clust_9="44.96037"></scales>
<clustering>
<clus scale="   44.960">  2  9  1 -1</clus>
<clus scale="   79.390">  5  6 -1 -1</clus>
<clus scale="   90.554">  7  8 -1 -1</clus>
<clus scale="   98.981">  1  5  2 -1</clus>
<clus scale="   44.960">  2  5  1 -1</clus>
</clustering>
</event>
<event>
 9    2  0.1033155E-004  0.9434671E+02  0.7546771E-02  0.1299219E+00
          2   -1    0    0  502    0 -0.00000000000E+00  0.00000000000E+00  0.26107500930E+03  0.26107500930E+03  0.00000000000E+00 0. -1.
         21   -1    0    0  501  502  0.00000000000E+00 -0.00000000000E+00 -0.73913072145E+02  0.73913072145E+02  0.00000000000E+00 0. -1.
         23    2    1    2    0    0 -0.10764334709E+02  0.32796842209E+02  0.12973390968E+03  0.16232432356E+03  0.91251273627E+02 0.  0.
         24    2    1    2    0    0 -0.56095643338E+01 -0.15676025177E+02  0.96816155529E+02  0.12670016819E+03  0.80014746574E+02 0.  0.
        -13    1    4    4    0    0 -0.31977917206E+02  0.21684887152E+01  0.88011942478E+02  0.93666384317E+02  0.00000000000E+00 0.  1.
         14    1    4    4    0    0  0.26368352872E+02 -0.17844513892E+02  0.88042130508E+01  0.33033783869E+02  0.00000000000E+00 0. -1.
        -13    1    3    3    0    0  0.21905955788E+02  0.26042735241E+02  0.12386006036E+03  0.12845002729E+03  0.00000000000E+00 0. -1.
         13    1    3    3    0    0 -0.32670290497E+02  0.67541069676E+01  0.58738493159E+01  0.33874296271E+02  0.00000000000E+00 0.  1.
          1    1    1    2  501    0  0.16373899043E+02 -0.17120817032E+02 -0.39388128058E+02  0.45963589695E+02  0.00000000000E+00 0. -1.
<scales pt_clust_5="13000.00000" pt_clust_6="13000.00000" pt_clust_7="13000.00000" pt_clust_8="13000.00000" pt_clust_9="23.69023"></scales>
<clustering>
<clus scale="   23.690">  2  9  1 -1</clus>
<clus scale="   80.015">  5  6 -1 -1</clus>
<clus scale="   83.528">  2  5  1 -1</clus>
<clus scale="   91.251">  7  8 -1 -1</clus>
<clus scale="   23.690">  2  5  1 -1</clus>
</clustering>
</event>
<event>
 9    2  0.1033155E-004  0.9272020E+02  0.7546771E-02  0.1302898E+00
         21   -1    0    0  501  502  0.00000000000E+00  0.00000000000E+00  0.71155296410E+02  0.71155296410E+02  0.00000000000E+00 0. -1.
          2   -1    0    0  502    0 -0.00000000000E+00 -0.00000000000E+00 -0.35774740514E+03  0.35774740514E+03  0.00000000000E+00 0. -1.
         24    2    1    2    0    0  0.24031220064E+02  0.10180707933E+02 -0.26646907569E+03  0.27949350795E+03  0.80185449647E+02 0.  0.
         23    2    1    2    0    0  0.17932204211E+02  0.14732340991E+02 -0.32101494463E+02  0.99159093874E+02  0.90903322999E+02 0.  0.
        -13    1    3    3    0    0 -0.97364146655E+01 -0.19989460853E+02 -0.23542167674E+02  0.32382247830E+02  0.00000000000E+00 0.  1.
         14    1    3    3    0    0  0.33767634730E+02  0.30170168786E+02 -0.24292690802E+03  0.24711126012E+03  0.00000000000E+00 0. -1.
        -11    1    4    4    0    0 -0.25818386011E+02  0.22657005996E+02  0.12143324021E+02  0.36433354158E+02  0.00000000000E+00 0.  1.
         11    1    4    4    0    0  0.43750590222E+02 -0.79246650046E+01 -0.44244818484E+02  0.62725739716E+02  0.00000000000E+00 0. -1.
          1    1    1    2  501    0 -0.41963424275E+02 -0.24913048924E+02  0.11978461431E+02  0.50250099720E+02  0.00000000000E+00 0. -1.
<scales pt_clust_5="13000.00000" pt_clust_6="13000.00000" pt_clust_7="13000.00000" pt_clust_8="13000.00000" pt_clust_9="48.80153"></scales>
<clustering>
<clus scale="   48.802">  1  9  2 -1</clus>
<clus scale="   80.185">  5  6 -1 -1</clus>
<clus scale="   82.239">  2  5  1 -1</clus>
<clus scale="   90.903">  7  8 -1 -1</clus>
<clus scale="   48.802">  1  5  2 -1</clus>
</clustering>
</event>
<event>
 9    2  0.1033155E-004  0.1349576E+03  0.7546771E-02  0.1222714E+00
          2   -1    0    0  502    0 -0.00000000000E+00  0.00000000000E+00  0.11473117141E+04  0.11473117141E+04  0.00000000000E+00 0. -1.
         21   -1    0    0  501  502  0.00000000000E+00 -0.00000000000E+00 -0.37448449185E+02  0.37448449185E+02  0.00000000000E+00 0. -1.
         24    2    1    2    0    0 -0.80396554276E+02  0.75793852778E+01  0.43469220378E+03  0.44955019464E+03  0.81345021027E+02 0.  0.
         23    2    1    2    0    0  0.11049762873E+03 -0.10360421740E+03  0.52838850123E+03  0.55724378377E+03  0.91556903111E+02 0.  0.
        -13    1    3    3    0    0 -0.66511884795E+02  0.40814590386E+02  0.27586563562E+03  0.28669061812E+03  0.00000000000E+00 0.  1.
         14    1    3    3    0    0 -0.13884669482E+02 -0.33235205108E+02  0.15882656817E+03  0.16285957651E+03  0.00000000000E+00 0. -1.
        -11    1    4    4    0    0  0.53724954953E+02 -0.10683458715E+03  0.37795613257E+03  0.39642254974E+03  0.00000000000E+00 0. -1.
         11    1    4    4    0    0  0.56772673774E+02  0.32303697434E+01  0.15043236865E+03  0.16082123403E+03  0.00000000000E+00 0.  1.
          1    1    1    2  501    0 -0.30101074451E+02  0.96024832126E+02  0.14678255992E+03  0.17796618489E+03  0.00000000000E+00 0. -1.
<scales pt_clust_5="13000.00000" pt_clust_6="13000.00000" pt_clust_7="13000.00000" pt_clust_8="13000.00000" pt_clust_9="100.63222"></scales>
<clustering>
<clus scale="   81.345">  5  6 -1 -1</clus>
<clus scale="   91.557">  7  8 -1 -1</clus>
<clus scale="  100.632">  2  9  1 -1</clus>
<clus scale="  128.249">  1  5  2 -1</clus>
<clus scale="  100.632">  2  5  1 -1</clus>
</clustering>
</event>
<event>
 9    2  0.1033155E-004  0.1328783E+03  0.7546771E-02  0.1223400E+00
          2   -1    0    0  502    0 -0.00000000000E+00  0.00000000000E+00  0.11140742050E+04  0.11140742050E+04  0.00000000000E+00 0. -1.
         21   -1    0    0  501  502  0.00000000000E+00 -0.00000000000E+00 -0.18123924699E+03  0.18123924699E+03  0.00000000000E+00 0.  1.
         24    2    1    2    0    0  0.83872693797E+02  0.48514693829E+02  0.10377926378E+04  0.10464598027E+04  0.93146418834E+02 0.  0.
         23    2    1    2    0    0 -0.62423006053E+02 -0.20753157884E+02  0.22446655735E+02  0.11670730352E+03  0.93751891145E+02 0.  0.
        -13    1    3    3    0    0  0.52361930139E+02 -0.14294917432E+01  0.20536411703E+03  0.21193922652E+03  0.00000000000E+00 0.  1.
         14    1    3    3    0    0  0.31510763659E+02  0.49944185572E+02  0.83242852078E+03  0.83452057620E+03  0.00000000000E+00 0. -1.
        -13    1    4    4    0    0 -0.15532187949E+02  0.16705639985E+02  0.46702210733E+02  0.51975222531E+02  0.00000000000E+00 0. -1.
         13    1    4    4    0    0 -0.46890818104E+02 -0.37458797869E+02 -0.24255554998E+02  0.64732080984E+02  0.00000000000E+00 0.  1.
          1    1    1    2  501    0 -0.21449687744E+02 -0.27761535945E+02 -0.12740433554E+03  0.13214634575E+03  0.00000000000E+00 0. -1.
<scales pt_clust_5="13000.00000" pt_clust_6="13000.00000" pt_clust_7="13000.00000" pt_clust_8="13000.00000" pt_clust_9="35.08265"></scales>
<clustering>
<clus scale="   35.083">  2  9  1 -1</clus>
<clus scale="   93.146">  5  6 -1 -1</clus>
<clus scale="   93.752">  7  8 -1 -1</clus>
<clus scale="  132.452">  1  5  2 -1</clus>
<clus scale="   35.083">  2  5  1 -1</clus>
</clustering>
</event>
<event>
 9    2  0.1033155E-004  0.9144617E+02  0.7546771E-02  0.1303380E+00
         21   -1    0    0  501  502  0.00000000000E+00  0.00000000000E+00  0.27938358639E+03  0.27938358639E+03  0.00000000000E+00 0. -1.
          2   -1    0    0  502    0 -0.00000000000E+00 -0.00000000000E+00 -0.65848525794E+02  0.65848525794E+02  0.00000000000E+00 0. -1.
         24    2    1    2    0    0 -0.10304372843E+02  0.33383138745E+02  0.10563653398E+02  0.90709079459E+02  0.83041750169E+02 0.  0.
         23    2    1    2    0    0 -0.14278327545E+02  0.19815314963E+02  0.10369449134E+03  0.13923950980E+03  0.89658107335E+02 0.  0.
        -13    1    3    3    0    0  0.25628896247E+02  0.21709828909E+01  0.29806811958E+02  0.39370033384E+02  0.00000000000E+00 0.  1.
         14    1    3    3    0    0 -0.35933269090E+02  0.31212155854E+02 -0.19243158560E+02  0.51339046075E+02  0.00000000000E+00 0. -1.
        -13    1    4    4    0    0  0.44648478894E+01  0.53431870807E+02  0.69310839807E+02  0.87629288479E+02  0.00000000000E+00 0. -1.
         13    1    4    4    0    0 -0.18743175434E+02 -0.33616555844E+02  0.34383651536E+02  0.51610221324E+02  0.00000000000E+00 0.  1.
          1    1    1    2  501    0  0.24582700388E+02 -0.53198453708E+02  0.99276915855E+02  0.11528352292E+03  0.00000000000E+00 0. -1.
<scales pt_clust_5="13000.00000" pt_clust_6="13000.00000" pt_clust_7="13000.00000" pt_clust_8="13000.00000" pt_clust_9="58.60362"></scales>
<clustering>
<clus scale="   58.604">  1  9  2 -1</clus>
<clus scale="   83.042">  5  6 -1 -1</clus>
<clus scale="   84.969">  2  5  1 -1</clus>
<clus scale="   89.658">  7  8 -1 -1</clus>
<clus scale="   58.604">  1  5  2 -1</clus>
</clustering>
</event>
<event>
 9    2  0.1033155E-004  0.1509931E+03  0.7546771E-02  0.1213823E+00
         21   -1    0    0  501  502  0.00000000000E+00  0.00000000000E+00  0.87116830079E+02  0.87116830079E+02  0.00000000000E+00 0.  1.
          2   -1    0    0  502    0 -0.00000000000E+00 -0.00000000000E+00 -0.53900644152E+03  0.53900644152E+03  0.00000000000E+00 0. -1.
         23    2    1    2    0    0 -0.55802602666E+02 -0.19348450354E+02 -0.23591533498E+02  0.11292093046E+03  0.93307465340E+02 0.  0.
         24    2    1    2    0    0  0.37234890355E+02 -0.11479731713E+03 -0.23450023964E+03  0.27677592763E+03  0.83962435900E+02 0.  0.
        -11    1    4    4    0    0  0.26855459890E+02  0.17533820049E+01 -0.69224409359E+02  0.74271858234E+02  0.00000000000E+00 0.  1.
         12    1    4    4    0    0  0.10379430465E+02 -0.11655069914E+03 -0.16527583028E+03  0.20250406939E+03  0.00000000000E+00 0. -1.
        -13    1    3    3    0    0 -0.56074126676E+02 -0.46872564734E+02  0.49717460392E+01  0.73253418118E+02  0.00000000000E+00 0.  1.
         13    1    3    3    0    0  0.27152401030E+00  0.27524114380E+02 -0.28563279537E+02  0.39667512345E+02  0.00000000000E+00 0. -1.
          1    1    1    2  501    0  0.18567712311E+02  0.13414576748E+03 -0.19379783831E+03  0.23642641351E+03  0.00000000000E+00 0. -1.
<scales pt_clust_5="13000.00000" pt_clust_6="13000.00000" pt_clust_7="13000.00000" pt_clust_8="13000.00000" pt_clust_9="125.49602"></scales>
<clustering>
<clus scale="   83.962">  5  6 -1 -1</clus>
<clus scale="   93.307">  7  8 -1 -1</clus>
<clus scale="  110.429">  2  7  1 -1</clus>
<clus scale="  125.496">  1  9  2 -1</clus>
<clus scale="  125.496">  1  5  2 -1</clus>
</clustering>
</event>
<event>
 9    2  0.1033155E-004  0.2796616E+03  0.7546771E-02  0.1128224E+00
          2   -1    0    0  502    0 -0.00000000000E+00  0.00000000000E+00  0.96727686839E+03  0.96727686839E+03  0.00000000000E+00 0. -1.
         21   -1    0    0  501  502  0.00000000000E+00 -0.00000000000E+00 -0.16575581305E+03  0.16575581305E+03  0.00000000000E+00 0. -1.
         24    2    1    2    0    0 -0.59501235198E+02  0.59121089708E+02  0.44839753447E+03  0.46497138912E+03  0.90013018743E+02 0.  0.
         23    2    1    2    0    0 -0.48409245380E+02  0.20891226978E+03  0.28733276244E+03  0.37172537227E+03  0.98141961026E+02 0.  0.
        -13    1    3    3    0    0 -0.18061584550E+02 -0.90008008535E+01  0.17356316786E+02  0.26617230976E+02  0.00000000000E+00 0.  1.
         14    1    3    3    0    0 -0.41439650648E+02  0.68121890562E+02  0.43104121768E+03  0.43835415814E+03  0.00000000000E+00 0. -1.
        -13    1    4    4    0    0  0.25027289211E+01  0.69621640019E+02  0.32486942288E+02  0.76868965326E+02  0.00000000000E+00 0. -1.
         13    1    4    4    0    0 -0.50911974301E+02  0.13929062976E+03  0.25484582015E+03  0.29485640694E+03  0.00000000000E+00 0.  1.
          1    1    1    2  501    0  0.10791048058E+03 -0.26803335949E+03  0.65790758424E+02  0.29633592005E+03  0.00000000000E+00 0. -1.
<scales pt_clust_5="13000.00000" pt_clust_6="13000.00000" pt_clust_7="13000.00000" pt_clust_8="13000.00000" pt_clust_9="261.87544"></scales>
<clustering>
<clus scale="   90.013">  5  6 -1 -1</clus>
<clus scale="   98.142">  7  8 -1 -1</clus>
<clus scale="  123.037">  1  5  2 -1</clus>
<clus scale="  261.875">  2  9  1 -1</clus>
<clus scale="  261.875">  2  5  1 -1</clus>
</clustering>
</event>
<event>
 9    2  0.1033155E-004  0.1633624E+03  0.7546771E-02  0.1206688E+00
         21   -1    0    0  501  502  0.00000000000E+00  0.00000000000E+00  0.22346404460E+03  0.22346404460E+03  0.00000000000E+00 0. -1.
          2   -1    0    0  502    0 -0.00000000000E+00 -0.00000000000E+00 -0.33516120628E+03  0.33516120628E+03  0.00000000000E+00 0. -1.
         23    2    1    2    0    0  0.44344151078E+02  0.24494536527E+01  0.12148941578E+03  0.15833521681E+03  0.91312426193E+02 0.  0.
         24    2    1    2    0    0 -0.12751875452E+03 -0.88570442311E+02 -0.20624946174E+03  0.27756901897E+03  0.10198021287E+03 0.  0.
        -13    1    4    4    0    0  0.99792420350E+01 -0.37913514331E+02 -0.41899966067E+02  0.57381416826E+02  0.00000000000E+00 0.  1.
         14    1    4    4    0    0 -0.13749799655E+03 -0.50656927980E+02 -0.16434949567E+03  0.22018760214E+03  0.00000000000E+00 0. -1.
        -13    1    3    3    0    0  0.21655163348E+02 -0.21702141915E+02 -0.17600366247E+01  0.30708741300E+02  0.00000000000E+00 0.  1.
         13    1    3    3    0    0  0.22688987730E+02  0.24151595567E+02  0.12324945241E+03  0.12762647551E+03  0.00000000000E+00 0. -1.
          1    1    1    2  501    0  0.83174603440E+02  0.86120988658E+02 -0.26937115719E+02  0.12272101510E+03  0.00000000000E+00 0. -1.
<scales pt_clust_5="13000.00000" pt_clust_6="13000.00000" pt_clust_7="13000.00000" pt_clust_8="13000.00000" pt_clust_9="127.62177"></scales>
<clustering>
<clus scale="   91.312">  7  8 -1 -1</clus>
<clus scale="  101.540">  2  7  1 -1</clus>
<clus scale="  101.980">  5  6 -1 -1</clus>
<clus scale="  127.622">  1  9  2 -1</clus>
<clus scale="  127.622">  1  5  2 -1</clus>
</clustering>
</event>
<event>
 9    2  0.1033155E-004  0.1257960E+03  0.7546771E-02  0.1236347E+00
         21   -1    0    0  501  502  0.00000000000E+00  0.00000000000E+00  0.39015948961E+02  0.39015948961E+02  0.00000000000E+00 0.  1.
          2   -1    0    0  502    0 -0.00000000000E+00 -0.00000000000E+00 -0.18327479307E+04  0.18327479307E+04  0.00000000000E+00 0. -1.
         24    2    1    2    0    0  0.77978388268E+02  0.33617833289E+02 -0.13776003275E+04  0.13826172529E+04  0.81467895249E+02 0.  0.
         23    2    1    2    0    0 -0.59201158045E+02 -0.12215657635E+03 -0.30437662267E+03  0.34533814133E+03  0.90478158530E+02 0.  0.
        -11    1    3    3    0    0  0.16313717483E+02 -0.20067715447E+02 -0.14352146829E+03  0.14583299504E+03  0.00000000000E+00 0.  1.
         12    1    3    3    0    0  0.61664670786E+02  0.53685548736E+02 -0.12340788592E+04  0.12367842578E+04  0.00000000000E+00 0. -1.
        -13    1    4    4    0    0 -0.37049319535E+02 -0.42694455741E+02 -0.42349249435E+02  0.70632340728E+02  0.00000000000E+00 0.  1.
         13    1    4    4    0    0 -0.22151838510E+02 -0.79462120610E+02 -0.26202737323E+03  0.27470580060E+03  0.00000000000E+00 0. -1.
          1    1    1    2  501    0 -0.18777230224E+02  0.88538743062E+02 -0.11175503156E+03  0.14380848541E+03  0.00000000000E+00 0. -1.
<scales pt_clust_5="13000.00000" pt_clust_6="13000.00000" pt_clust_7="13000.00000" pt_clust_8="13000.00000" pt_clust_9="90.50797"></scales>
<clustering>
<clus scale="   81.468">  5  6 -1 -1</clus>
<clus scale="   90.478">  7  8 -1 -1</clus>
<clus scale="   90.508">  1  9  2 -1</clus>
<clus scale="  119.480">  2  5  1 -1</clus>
<clus scale="   90.508">  1  5  2 -1</clus>
</clustering>
</event>
<event>
 9    2  0.1033155E-004  0.9418580E+02  0.7546771E-02  0.1298529E+00
         21   -1    0    0  501  502  0.00000000000E+00  0.00000000000E+00  0.91396102696E+02  0.91396102696E+02  0.00000000000E+00 0. -1.
          2   -1    0    0  502    0 -0.00000000000E+00 -0.00000000000E+00 -0.35071117217E+03  0.35071117217E+03  0.00000000000E+00 0. -1.
         24    2    1    2    0    0 -0.25020972554E+02 -0.32044856955E+02 -0.20320904018E+03  0.22220117392E+03  0.80165614548E+02 0.  0.
         23    2    1    2    0    0  0.13882163667E+02 -0.15488024820E+01 -0.11779360865E+03  0.14878673324E+03  0.89816727244E+02 0.  0.
        -13    1    3    3    0    0  0.24027492240E+02  0.61068576702E+01 -0.35076728481E+02  0.42953358132E+02  0.00000000000E+00 0.  1.
         14    1    3    3    0    0 -0.49048464794E+02 -0.38151714625E+02 -0.16813231170E+03  0.17924781578E+03  0.00000000000E+00 0. -1.
        -13    1    4    4    0    0  0.45611402228E+02 -0.23409660668E+02 -0.78461122712E+02  0.93725983606E+02  0.00000000000E+00 0. -1.
         13    1    4    4    0    0 -0.31729238561E+02  0.21860858186E+02 -0.39332485937E+02  0.55060749634E+02  0.00000000000E+00 0.  1.
          1    1    1    2  501    0  0.11138808888E+02  0.33593659437E+02  0.61687579348E+02  0.71119367711E+02  0.00000000000E+00 0. -1.
<scales pt_clust_5="13000.00000" pt_clust_6="13000.00000" pt_clust_7="13000.00000" pt_clust_8="13000.00000" pt_clust_9="35.39219"></scales>
<clustering>
<clus scale="   35.392">  1  9  2 -1</clus>
<clus scale="   80.166">  5  6 -1 -1</clus>
<clus scale="   85.032">  2  5  1 -1</clus>
<clus scale="   89.817">  7  8 -1 -1</clus>
<clus scale="   35.392">  1  5  2 -1</clus>
</clustering>
</event>
<event>
 9    2  0.1033155E-004  0.2060754E+03  0.7546771E-02  0.1166165E+00
          4   -1    0    0  502    0 -0.00000000000E+00  0.00000000000E+00  0.10560755225E+04  0.10560755225E+04  0.00000000000E+00 0. -1.
         21   -1    0    0  501  502  0.00000000000E+00 -0.00000000000E+00 -0.94069037317E+02  0.94069037317E+02  0.00000000000E+00 0. -1.
         23    2    1    2    0    0 -0.79197775511E+02 -0.27580709685E+02  0.22325459796E+02  0.12654364262E+03  0.92097145119E+02 0.  0.
         24    2    1    2    0    0 -0.94562007649E+02  0.13845647116E+03  0.56888896865E+03  0.59936908664E+03  0.86582190272E+02 0.  0.
        -13    1    4    4    0    0 -0.53409346907E+02  0.25837658765E+02  0.10894083207E+03  0.12404937662E+03  0.00000000000E+00 0.  1.
         14    1    4    4    0    0 -0.41152660742E+02  0.11261881239E+03  0.45994813659E+03  0.47531971003E+03  0.00000000000E+00 0. -1.
        -13    1    3    3    0    0 -0.37740906740E+02 -0.31552846971E+02 -0.31555201701E+02  0.58443895729E+02  0.00000000000E+00 0.  1.
         13    1    3    3    0    0 -0.41456868771E+02  0.39721372853E+01  0.53880661497E+02  0.68099746888E+02  0.00000000000E+00 0. -1.
          3    1    1    2  501    0  0.17375978316E+03 -0.11087576147E+03  0.37079205678E+03  0.42423183060E+03  0.00000000000E+00 0. -1.
<scales pt_clust_5="13000.00000" pt_clust_6="13000.00000" pt_clust_7="13000.00000" pt_clust_8="13000.00000" pt_clust_9="187.00429"></scales>
<clustering>
<clus scale="   86.582">  5  6 -1 -1</clus>
<clus scale="   92.097">  7  8 -1 -1</clus>
<clus scale="  124.559">  1  7  2 -1</clus>
<clus scale="  187.004">  2  9  1 -1</clus>
<clus scale="  187.004">  2  5  1 -1</clus>
</clustering>
</event>
<event>
 9    2  0.1033155E-004  0.1027786E+03  0.7546771E-02  0.1281343E+00
          4   -1    0    0  502    0 -0.00000000000E+00  0.00000000000E+00  0.32976860652E+02  0.32976860652E+02  0.00000000000E+00 0. -1.
         21   -1    0    0  501  502  0.00000000000E+00 -0.00000000000E+00 -0.69810648952E+03  0.69810648952E+03  0.00000000000E+00 0.  1.
         24    2    1    2    0    0 -0.31076863001E+02  0.26466426065E+02 -0.16148458262E+03  0.18392809200E+03  0.78013008393E+02 0.  0.
         23    2    1    2    0    0  0.66134305063E+02 -0.69006427729E+01 -0.49256298428E+03  0.50550605390E+03  0.92177610448E+02 0.  0.
        -13    1    3    3    0    0  0.22859690701E+02  0.68463973963E+00 -0.77744853373E+02  0.81038857448E+02  0.00000000000E+00 0.  1.
         14    1    3    3    0    0 -0.53936553702E+02  0.25781786325E+02 -0.83739729249E+02  0.10288923455E+03  0.00000000000E+00 0. -1.
        -11    1    4    4    0    0 -0.79492969993E+01 -0.33851219976E+02 -0.14378959497E+03  0.14793425580E+03  0.00000000000E+00 0.  1.
         11    1    4    4    0    0  0.74083602062E+02  0.26950577204E+02 -0.34877338931E+03  0.35757179810E+03  0.00000000000E+00 0. -1.
          3    1    1    2  501    0 -0.35057442062E+02 -0.19565783292E+02 -0.11082061972E+02  0.41649204282E+02  0.00000000000E+00 0. -1.
<scales pt_clust_5="13000.00000" pt_clust_6="13000.00000" pt_clust_7="13000.00000" pt_clust_8="13000.00000" pt_clust_9="40.14780"></scales>
<clustering>
<clus scale="   40.148">  2  9  1 -1</clus>
<clus scale="   78.013">  5  6 -1 -1</clus>
<clus scale="   90.293">  1  5  2 -1</clus>
<clus scale="   92.178">  7  8 -1 -1</clus>
<clus scale="   40.148">  2  5  1 -1</clus>
</clustering>
</event>
<event>
 9    2  0.1033155E-004  0.1242928E+03  0.7546771E-02  0.1254622E+00
         21   -1    0    0  501  502  0.00000000000E+00  0.00000000000E+00  0.14524665785E+03  0.14524665785E+03  0.00000000000E+00 0.  1.
         -1   -1    0    0    0  501 -0.00000000000E+00 -0.00000000000E+00 -0.35578847786E+03  0.35578847786E+03  0.00000000000E+00 0.  1.
         24    2    1    2    0    0 -0.20546926341E+02 -0.24411399949E+02 -0.24969045409E+03  0.26400255555E+03  0.79586015385E+02 0.  0.
         23    2    1    2    0    0  0.59427621601E+02 -0.53213777538E+02 -0.31363972916E+02  0.12518713149E+03  0.91240181749E+02 0.  0.
        -11    1    3    3    0    0 -0.49599430636E+02 -0.32691650539E+01 -0.15134988269E+03  0.15930341475E+03  0.00000000000E+00 0.  1.
         12    1    3    3    0    0  0.29052504295E+02 -0.21142234895E+02 -0.98340571396E+02  0.10469914080E+03  0.00000000000E+00 0. -1.
        -11    1    4    4    0    0  0.44697587877E+02 -0.77519143877E+02 -0.35884266131E+02  0.96409400917E+02  0.00000000000E+00 0.  1.
         11    1    4    4    0    0  0.14730033725E+02  0.24305366339E+02  0.45202932146E+01  0.28777730577E+02  0.00000000000E+00 0. -1.
         -2    1    1    2    0  502 -0.38880695261E+02  0.77625177486E+02  0.70512606993E+02  0.11184544867E+03  0.00000000000E+00 0.  1.
<scales pt_clust_5="13000.00000" pt_clust_6="13000.00000" pt_clust_7="13000.00000" pt_clust_8="13000.00000" pt_clust_9="84.40330"></scales>
<clustering>
<clus scale="   79.586">  5  6 -1 -1</clus>
<clus scale="   85.744">  2  5  1 -1</clus>
<clus scale="   84.403">  1  9  2 -1</clus>
<clus scale="   91.240">  7  8 -1 -1</clus>
<clus scale="   84.403">  1  5  2 -1</clus>
</clustering>
</event>
<event>
 9    2  0.1033155E-004  0.1430860E+03  0.7546771E-02  0.1211007E+00
          2   -1    0    0  502    0 -0.00000000000E+00  0.00000000000E+00  0.10224008275E+03  0.10224008275E+03  0.00000000000E+00 0. -1.
         21   -1    0    0  501  502  0.00000000000E+00 -0.00000000000E+00 -0.28268008735E+03  0.28268008735E+03  0.00000000000E+00 0. -1.
         23    2    1    2    0    0 -0.80176170890E+02 -0.28707011634E+02 -0.82135544543E+02  0.14890185288E+03  0.90405769821E+02 0.  0.
         24    2    1    2    0    0  0.12606041127E+03  0.56712846171E+02 -0.68910310974E+02  0.17475081944E+03  0.81741322017E+02 0.  0.
        -11    1    4    4    0    0  0.13788587940E+02  0.45535202632E+02 -0.16627745041E+02  0.50399025201E+02  0.00000000000E+00 0.  1.
         12    1    4    4    0    0  0.11227182333E+03  0.11177643539E+02 -0.52282565933E+02  0.12435179424E+03  0.00000000000E+00 0. -1.
        -11    1    3    3    0    0 -0.14550816803E+02 -0.47016357967E+02 -0.59259826249E+02  0.77032403527E+02  0.00000000000E+00 0.  1.
         11    1    3    3    0    0 -0.65625354087E+02  0.18309346333E+02 -0.22875718294E+02  0.71869449349E+02  0.00000000000E+00 0. -1.
          1    1    1    2  501    0 -0.45884240384E+02 -0.28005834537E+02 -0.29394149080E+02  0.61267497777E+02  0.00000000000E+00 0. -1.
<scales pt_clust_5="13000.00000" pt_clust_6="13000.00000" pt_clust_7="13000.00000" pt_clust_8="13000.00000" pt_clust_9="53.75584"></scales>
<clustering>
<clus scale="   53.756">  2  9  1 -1</clus>
<clus scale="   81.741">  5  6 -1 -1</clus>
<clus scale="   90.406">  7  8 -1 -1</clus>
<clus scale="  137.775">  2  5  1 -1</clus>
<clus scale="   53.756">  2  5  1 -1</clus>
</clustering>
</event>
<event>
 9    2  0.1033155E-004  0.1131458E+03  0.7546771E-02  0.1256702E+00
          2   -1    0    0  502    0 -0.00000000000E+00  0.00000000000E+00  0.10954058103E+03  0.10954058103E+03  0.00000000000E+00 0. -1.
         21   -1    0    0  501  502  0.00000000000E+00 -0.00000000000E+00 -0.31677293287E+03  0.31677293287E+03  0.00000000000E+00 0. -1.
         23    2    1    2    0    0 -0.68373091001E+02  0.41613171800E+02 -0.56844679222E+01  0.12107020843E+03  0.90659508895E+02 0.  0.
         24    2    1    2    0    0 -0.36043251435E+02 -0.66581529477E+02 -0.10659285155E+03  0.16191623327E+03  0.95512379062E+02 0.  0.
        -11    1    4    4    0    0  0.27447589816E+02 -0.48523008286E+02 -0.52440409255E+02  0.76536586302E+02  0.00000000000E+00 0.  1.
         12    1    4    4    0    0 -0.63490841251E+02 -0.18058521191E+02 -0.54152442298E+02  0.85379646973E+02  0.00000000000E+00 0. -1.
        -11    1    3    3    0    0 -0.26057917215E+02  0.66778981934E+02 -0.22696532134E+01  0.71718887355E+02  0.00000000000E+00 0.  1.
         11    1    3    3    0    0 -0.42315173786E+02 -0.25165810134E+02 -0.34148147087E+01  0.49351321074E+02  0.00000000000E+00 0. -1.
          1    1    1    2  501    0  0.10441634244E+03  0.24968357678E+02 -0.94955032367E+02  0.14332707220E+03  0.00000000000E+00 0. -1.
<scales pt_clust_5="13000.00000" pt_clust_6="13000.00000" pt_clust_7="13000.00000" pt_clust_8="13000.00000" pt_clust_9="107.36010"></scales>
<clustering>
<clus scale="   90.660">  7  8 -1 -1</clus>
<clus scale="   95.512">  5  6 -1 -1</clus>
<clus scale="  107.360">  2  9  1 -1</clus>
<clus scale="  109.080">  1  7  2 -1</clus>
<clus scale="  107.360">  2  5  1 -1</clus>
</clustering>
</event>
<event>
 9    2  0.1033155E-004  0.1590440E+03  0.7546771E-02  0.1191478E+00
         21   -1    0    0  501  502  0.00000000000E+00  0.00000000000E+00  0.36722599394E+03  0.36722599394E+03  0.00000000000E+00 0. -1.
          2   -1    0    0  502    0 -0.00000000000E+00 -0.00000000000E+00 -0.82624269952E+02  0.82624269952E+02  0.00000000000E+00 0. -1.
         24    2    1    2    0    0 -0.13000903589E+03 -0.21899303909E+02  0.10546901835E+03  0.18937511372E+03  0.85774652072E+02 0.  0.
         23    2    1    2    0    0  0.11301605073E+03  0.46170005807E+02  0.16827698047E+03  0.22892082743E+03  0.95829567026E+02 0.  0.
        -11    1    3    3    0    0 -0.12019502278E+03 -0.16918188453E+02  0.47455494626E+02  0.13032686819E+03  0.00000000000E+00 0.  1.
         12    1    3    3    0    0 -0.98140131064E+01 -0.49811154562E+01  0.58013523726E+02  0.59048245525E+02  0.00000000000E+00 0. -1.
        -13    1    4    4    0    0  0.19423376344E+02 -0.27910938124E+02  0.53064324434E+02  0.63024682016E+02  0.00000000000E+00 0. -1.
         13    1    4    4    0    0  0.93592674388E+02  0.74080943931E+02  0.11521265604E+03  0.16589614541E+03  0.00000000000E+00 0.  1.
          1    1    1    2  501    0  0.16992985157E+02 -0.24270701898E+02  0.10855725167E+02  0.31554322747E+02  0.00000000000E+00 0. -1.
<scales pt_clust_5="13000.00000" pt_clust_6="13000.00000" pt_clust_7="13000.00000" pt_clust_8="13000.00000" pt_clust_9="29.62819"></scales>
<clustering>
<clus scale="   29.628">  1  9  2 -1</clus>
<clus scale="   85.775">  5  6 -1 -1</clus>
<clus scale="   95.830">  7  8 -1 -1</clus>
<clus scale="  153.196">  2  5  1 -1</clus>
<clus scale="   29.628">  1  5  2 -1</clus>
</clustering>
</event>
<event>
 9    2  0.1033155E-004  0.9551370E+02  0.7546771E-02  0.1295024E+00
         21   -1    0    0  501  502  0.00000000000E+00  0.00000000000E+00  0.22124321478E+03  0.22124321478E+03  0.00000000000E+00 0.  1.
         -3   -1    0    0    0  501 -0.00000000000E+00 -0.00000000000E+00 -0.13113325387E+03  0.13113325387E+03  0.00000000000E+00 0.  1.
         24    2    1    2    0    0  0.51911944170E+02  0.44657284791E+02 -0.24229175573E+02  0.10714315884E+03  0.78762176864E+02 0.  0.
         23    2    1    2    0    0 -0.17798822167E+02  0.42043764780E+02  0.19128560686E+01  0.99218085889E+02  0.88068685250E+02 0.  0.
        -11    1    3    3    0    0  0.58631640737E+02  0.56422838016E+02 -0.36203236521E+02  0.89061104192E+02  0.00000000000E+00 0.  1.
         12    1    3    3    0    0 -0.67196965670E+01 -0.11765553225E+02  0.11974060948E+02  0.18082054646E+02  0.00000000000E+00 0. -1.
        -11    1    4    4    0    0  0.33340215956E+01  0.33952477103E+02  0.41437191962E+02  0.53674270178E+02  0.00000000000E+00 0.  1.
         11    1    4    4    0    0 -0.21132843763E+02  0.80912876774E+01 -0.39524335893E+02  0.45543815711E+02  0.00000000000E+00 0. -1.
         -4    1    1    2    0  502 -0.34113122003E+02 -0.86701049571E+02  0.11242628041E+03  0.14601522392E+03  0.00000000000E+00 0.  1.
<scales pt_clust_5="13000.00000" pt_clust_6="13000.00000" pt_clust_7="13000.00000" pt_clust_8="13000.00000" pt_clust_9="93.17069"></scales>
<clustering>
<clus scale="   78.762">  5  6 -1 -1</clus>
<clus scale="   88.069">  7  8 -1 -1</clus>
<clus scale="   93.171">  1  9  2 -1</clus>
<clus scale="   87.007">  2  5  1 -1</clus>
<clus scale="   93.171">  1  5  2 -1</clus>
</clustering>
</event>
<event>
 9    2  0.1033155E-004  0.9112287E+02  0.7546771E-02  0.1306627E+00
         21   -1    0    0  501  502  0.00000000000E+00  0.00000000000E+00  0.27315926956E+02  0.27315926956E+02  0.00000000000E+00 0. -1.
          2   -1    0    0  502    0 -0.00000000000E+00 -0.00000000000E+00 -0.70432440380E+03  0.70432440380E+03  0.00000000000E+00 0. -1.
         24    2    1    2    0    0  0.26985307143E+02  0.91797965270E+01 -0.36042862343E+03  0.37041438862E+03  0.80532920233E+02 0.  0.
         23    2    1    2    0    0  0.42808141520E+02  0.84189342284E+00 -0.21832570278E+03  0.24029026559E+03  0.90774740308E+02 0.  0.
        -11    1    3    3    0    0  0.32267972246E+02 -0.28246645864E+02 -0.12958327126E+03  0.13649512528E+03  0.00000000000E+00 0.  1.
         12    1    3    3    0    0 -0.52826651032E+01  0.37426442391E+02 -0.23084535217E+03  0.23391926334E+03  0.00000000000E+00 0. -1.
        -13    1    4    4    0    0  0.42456961276E+02  0.38726835212E+02 -0.92619013743E+02  0.10899836252E+03  0.00000000000E+00 0. -1.
         13    1    4    4    0    0  0.35118024324E+00 -0.37884941789E+02 -0.12570668903E+03  0.13129190306E+03  0.00000000000E+00 0.  1.
          1    1    1    2  501    0 -0.69793448662E+02 -0.10021689950E+02 -0.98254150639E+02  0.12093567655E+03  0.00000000000E+00 0. -1.
<scales pt_clust_5="13000.00000" pt_clust_6="13000.00000" pt_clust_7="13000.00000" pt_clust_8="13000.00000" pt_clust_9="70.50929"></scales>
<clustering>
<clus scale="   70.509">  1  9  2 -1</clus>
<clus scale="   80.533">  5  6 -1 -1</clus>
<clus scale="   80.925">  2  5  1 -1</clus>
<clus scale="   90.775">  7  8 -1 -1</clus>
<clus scale="   70.509">  1  5  2 -1</clus>
</clustering>
</event>
<event>
 9    2  0.1033155E-004  0.1018150E+03  0.7546771E-02  0.1278095E+00
         21   -1    0    0  501  502  0.00000000000E+00  0.00000000000E+00  0.35803338810E+03  0.35803338810E+03  0.00000000000E+00 0.  1.
          2   -1    0    0  502    0 -0.00000000000E+00 -0.00000000000E+00 -0.57013074540E+02  0.57013074540E+02  0.00000000000E+00 0. -1.
         24    2    1    2    0    0 -0.58590475119E+02 -0.10099210927E+02  0.34964841545E+02  0.10811412438E+03  0.83254344698E+02 0.  0.
         23    2    1    2    0    0  0.36963311770E+02 -0.34742378027E+02  0.20351885656E+03  0.22699905002E+03  0.86806246836E+02 0.  0.
        -11    1    3    3    0    0  0.94769876019E+01  0.21728622055E+02  0.21035361083E+02  0.31692786660E+02  0.00000000000E+00 0.  1.
         12    1    3    3    0    0 -0.68067462721E+02 -0.31827832982E+02  0.13929480462E+02  0.76421337724E+02  0.00000000000E+00 0. -1.
        -13    1    4    4    0    0 -0.28288747520E+02 -0.81847669078E+01  0.48824142438E+02  0.57017896580E+02  0.00000000000E+00 0. -1.
         13    1    4    4    0    0  0.65252059290E+02 -0.26557611119E+02  0.15469471412E+03  0.16998115344E+03  0.00000000000E+00 0.  1.
          1    1    1    2  501    0  0.21627163349E+02  0.44841588955E+02  0.62536615461E+02  0.79933288233E+02  0.00000000000E+00 0. -1.
<scales pt_clust_5="13000.00000" pt_clust_6="13000.00000" pt_clust_7="13000.00000" pt_clust_8="13000.00000" pt_clust_9="49.78456"></scales>
<clustering>
<clus scale="   49.785">  1  9  2 -1</clus>
<clus scale="   83.254">  5  6 -1 -1</clus>
<clus scale="   86.806">  7  8 -1 -1</clus>
<clus scale="   98.804">  2  5  1 -1</clus>
<clus scale="   49.785">  1  5  2 -1</clus>
</clustering>
</event>
<event>
 9    2  0.1033155E-004  0.9297678E+02  0.7546771E-02  0.1301795E+00
          2   -1    0    0  502    0 -0.00000000000E+00  0.00000000000E+00  0.10732876722E+04  0.10732876722E+04  0.00000000000E+00 0. -1.
         21   -1    0    0  501  502  0.00000000000E+00 -0.00000000000E+00 -0.92736794737E+02  0.92736794737E+02  0.00000000000E+00 0. -1.
         24    2    1    2    0    0  0.75373971346E+01  0.24772467492E+02  0.92434164300E+03  0.92819736465E+03  0.80451148240E+02 0.  0.
         23    2    1    2    0    0 -0.16816879807E+02  0.24912292771E+02  0.12201036256E+03  0.15485437997E+03  0.90498180345E+02 0.  0.
        -11    1    3    3    0    0 -0.26804064698E+02  0.24115675030E+02  0.21324878184E+03  0.21627544156E+03  0.00000000000E+00 0.  1.
         12    1    3    3    0    0  0.34341461832E+02  0.65679246181E+00  0.71109286116E+03  0.71192192309E+03  0.00000000000E+00 0. -1.
        -11    1    4    4    0    0 -0.56914551726E+01  0.58104062299E+02  0.90830526105E+02  0.10797527120E+03  0.00000000000E+00 0. -1.
         11    1    4    4    0    0 -0.11125424634E+02 -0.33191769529E+02  0.31179836452E+02  0.46879108768E+02  0.00000000000E+00 0.  1.
          1    1    1    2  501    0  0.92794826722E+01 -0.49684760263E+02 -0.65801128061E+02  0.82972722356E+02  0.00000000000E+00 0. -1.
<scales pt_clust_5="13000.00000" pt_clust_6="13000.00000" pt_clust_7="13000.00000" pt_clust_8="13000.00000" pt_clust_9="50.54388"></scales>
<clustering>
<clus scale="   50.544">  2  9  1 -1</clus>
<clus scale="   80.451">  5  6 -1 -1</clus>
<clus scale="   83.229">  1  5  2 -1</clus>
<clus scale="   90.498">  7  8 -1 -1</clus>
<clus scale="   50.544">  2  5  1 -1</clus>
</clustering>
</event>
<event>
 9    2  0.1033155E-004  0.1261943E+03  0.7546771E-02  0.1235405E+00
         21   -1    0    0  501  502  0.00000000000E+00  0.00000000000E+00  0.70571897739E+02  0.70571897739E+02  0.00000000000E+00 0. -1.
          2   -1    0    0  502    0 -0.00000000000E+00 -0.00000000000E+00 -0.48165705919E+03  0.48165705919E+03  0.00000000000E+00 0. -1.
         24    2    1    2    0    0 -0.68657315115E+02  0.11538803788E+02 -0.87903055147E+02  0.13928332643E+03  0.82619168504E+02 0.  0.
         23    2    1    2    0    0  0.99550268569E+02  0.80385888512E+02 -0.16639029644E+03  0.22858675421E+03  0.90520861725E+02 0.  0.
        -13    1    3    3    0    0 -0.40836466840E+01  0.36112379734E+02 -0.45442332888E+02  0.58187505176E+02  0.00000000000E+00 0.  1.
         14    1    3    3    0    0 -0.64573668431E+02 -0.24573575946E+02 -0.42460722259E+02  0.81095821250E+02  0.00000000000E+00 0. -1.
        -11    1    4    4    0    0  0.34555898190E+02 -0.36193083766E+01 -0.93557962717E+02  0.99801312018E+02  0.00000000000E+00 0. -1.
         11    1    4    4    0    0  0.64994370379E+02  0.84005196888E+02 -0.72832333722E+02  0.12878544219E+03  0.00000000000E+00 0.  1.
          1    1    1    2  501    0 -0.30892953454E+02 -0.91924692299E+02 -0.15679180986E+03  0.18435887629E+03  0.00000000000E+00 0. -1.
<scales pt_clust_5="13000.00000" pt_clust_6="13000.00000" pt_clust_7="13000.00000" pt_clust_8="13000.00000" pt_clust_9="96.97697"></scales>
<clustering>
<clus scale="   82.619">  5  6 -1 -1</clus>
<clus scale="   90.521">  7  8 -1 -1</clus>
<clus scale="   96.977">  1  9  2 -1</clus>
<clus scale="  120.652">  2  5  1 -1</clus>
<clus scale="   96.977">  1  5  2 -1</clus>
</clustering>
</event>
<event>
 9    2  0.1033155E-004  0.2089084E+03  0.7546771E-02  0.1164518E+00
          2   -1    0    0  502    0 -0.00000000000E+00  0.00000000000E+00  0.12232029953E+04  0.12232029953E+04  0.00000000000E+00 0. -1.
         21   -1    0    0  501  502  0.00000000000E+00 -0.00000000000E+00 -0.72209868162E+02  0.72209868162E+02  0.00000000000E+00 0.  1.
         23    2    1    2    0    0 -0.25070749353E+02 -0.76901187110E+02  0.27258681400E+03  0.29954327401E+03  0.94235167474E+02 0.  0.
         24    2    1    2    0    0 -0.65809765369E+02  0.23163950328E+03  0.69198885948E+03  0.73711356250E+03  0.80622811149E+02 0.  0.
        -11    1    4    4    0    0 -0.78894987649E+02  0.22609658266E+03  0.66038552596E+03  0.70246218878E+03  0.00000000000E+00 0.  1.
         12    1    4    4    0    0  0.13085222280E+02  0.55429206215E+01  0.31603333526E+02  0.34651373726E+02  0.00000000000E+00 0. -1.
        -11    1    3    3    0    0  0.12279369477E+02 -0.69214279741E+02  0.23764065181E+03  0.24781944804E+03  0.00000000000E+00 0. -1.
         11    1    3    3    0    0 -0.37350118830E+02 -0.76869073690E+01  0.34946162190E+02  0.51723825973E+02  0.00000000000E+00 0.  1.
          1    1    1    2  501    0  0.90880514722E+02 -0.15473831617E+03  0.18641745363E+03  0.25875602692E+03  0.00000000000E+00 0. -1.
<scales pt_clust_5="13000.00000" pt_clust_6="13000.00000" pt_clust_7="13000.00000" pt_clust_8="13000.00000" pt_clust_9="192.72433"></scales>
<clustering>
<clus scale="   80.623">  5  6 -1 -1</clus>
<clus scale="   94.235">  7  8 -1 -1</clus>
<clus scale="  124.188">  1  7  2 -1</clus>
<clus scale="  192.724">  2  9  1 -1</clus>
<clus scale="  192.724">  2  5  1 -1</clus>
</clustering>
</event>
<event>
 9    2  0.1033155E-004  0.1000525E+03  0.7546771E-02  0.1282541E+00
          4   -1    0    0  502    0 -0.00000000000E+00  0.00000000000E+00  0.47700267393E+03  0.47700267393E+03  0.00000000000E+00 0. -1.
         21   -1    0    0  501  502  0.00000000000E+00 -0.00000000000E+00 -0.13941019534E+03  0.13941019534E+03  0.00000000000E+00 0. -1.
         23    2    1    2    0    0  0.85431899311E+01  0.18852131324E+02  0.42222420383E+03  0.43279850552E+03  0.92805598605E+02 0.  0.
         24    2    1    2    0    0 -0.26200143077E+02 -0.56641512238E+02 -0.39515372446E+02  0.12217097035E+03  0.97311730691E+02 0.  0.
        -11    1    4    4    0    0  0.97228201385E+01 -0.69749526208E+02 -0.44950544032E+02  0.83546879334E+02  0.00000000000E+00 0.  1.
         12    1    4    4    0    0 -0.35922963216E+02  0.13108013970E+02  0.54351715859E+01  0.38624091013E+02  0.00000000000E+00 0. -1.
        -13    1    3    3    0    0  0.49372700258E+02 -0.15195050636E+01  0.22714932399E+03  0.23245814207E+03  0.00000000000E+00 0.  1.
         13    1    3    3    0    0 -0.40829510327E+02  0.20371636388E+02  0.19507487984E+03  0.20034036345E+03  0.00000000000E+00 0. -1.
          3    1    1    2  501    0  0.17656953146E+02  0.37789380914E+02 -0.45116352789E+02  0.61443393406E+02  0.00000000000E+00 0. -1.
<scales pt_clust_5="13000.00000" pt_clust_6="13000.00000" pt_clust_7="13000.00000" pt_clust_8="13000.00000" pt_clust_9="41.71097"></scales>
<clustering>
<clus scale="   41.711">  2  9  1 -1</clus>
<clus scale="   92.806">  7  8 -1 -1</clus>
<clus scale="   95.676">  1  7  2 -1</clus>
<clus scale="   97.312">  5  6 -1 -1</clus>
<clus scale="   41.711">  2  5  1 -1</clus>
</clustering>
</event>
<event>
 9    2  0.1033155E-004  0.1041265E+03  0.7546771E-02  0.1277981E+00
          2   -1    0    0  502    0 -0.00000000000E+00  0.00000000000E+00  0.67449511659E+03  0.67449511659E+03  0.00000000000E+00 0. -1.
         21   -1    0    0  501  502  0.00000000000E+00 -0.00000000000E+00 -0.19735154051E+02  0.19735154051E+02  0.00000000000E+00 0. -1.
         24    2    1    2    0    0  0.21096142854E+02 -0.29367677894E+02  0.22242627717E+03  0.23946041926E+03  0.80995900341E+02 0.  0.
         23    2    1    2    0    0 -0.13497796130E+02  0.55067432678E+02  0.29305583661E+03  0.31293709273E+03  0.93985573331E+02 0.  0.
        -13    1    3    3    0    0 -0.11843122355E+01  0.26761191756E+02  0.49353839965E+02  0.56154835045E+02  0.00000000000E+00 0.  1.
         14    1    3    3    0    0  0.22280455090E+02 -0.56128869650E+02  0.17307243720E+03  0.18330558422E+03  0.00000000000E+00 0. -1.
        -13    1    4    4    0    0  0.39335331973E+02  0.13791330539E+02  0.92135334147E+02  0.10112560970E+03  0.00000000000E+00 0.  1.
         13    1    4    4    0    0 -0.52833128103E+02  0.41276102139E+02  0.20092050246E+03  0.21181148303E+03  0.00000000000E+00 0. -1.
          1    1    1    2  501    0 -0.75983467247E+01 -0.25699754784E+02  0.13927784877E+03  0.14183275865E+03  0.00000000000E+00 0. -1.
<scales pt_clust_5="13000.00000" pt_clust_6="13000.00000" pt_clust_7="13000.00000" pt_clust_8="13000.00000" pt_clust_9="26.79950"></scales>
<clustering>
<clus scale="   26.799">  2  9  1 -1</clus>
<clus scale="   80.996">  5  6 -1 -1</clus>
<clus scale="   92.571">  1  5  2 -1</clus>
<clus scale="   93.986">  7  8 -1 -1</clus>
<clus scale="   26.799">  2  5  1 -1</clus>
</clustering>
</event>
<event>
 9    2  0.1033155E-004  0.1149513E+03  0.7546771E-02  0.1255609E+00
          2   -1    0    0  502    0 -0.00000000000E+00  0.00000000000E+00  0.50070521007E+03  0.50070521007E+03  0.00000000000E+00 0. -1.
         21   -1    0    0  501  502  0.00000000000E+00 -0.00000000000E+00 -0.93504176837E+02  0.93504176837E+02  0.00000000000E+00 0. -1.
         23    2    1    2    0    0  0.69666334427E+02  0.10294041801E+01  0.39526494703E+03  0.41158404218E+03  0.91173393050E+02 0.  0.
         24    2    1    2    0    0 -0.69523528487E+02  0.46937609302E+02  0.45036381767E+02  0.12434598008E+03  0.79981165900E+02 0.  0.
        -13    1    4    4    0    0 -0.29986303730E+02  0.38520808522E+02 -0.15795309844E+02  0.51308117424E+02  0.00000000000E+00 0.  1.
         14    1    4    4    0    0 -0.39537224757E+02  0.84168007801E+01  0.60831691611E+02  0.73037862654E+02  0.00000000000E+00 0. -1.
        -11    1    3    3    0    0  0.72582361991E+02 -0.27392741370E+02  0.34638414103E+03  0.35496554017E+03  0.00000000000E+00 0.  1.
         11    1    3    3    0    0 -0.29160275648E+01  0.28422145550E+02  0.48880806007E+02  0.56618502014E+02  0.00000000000E+00 0. -1.
          1    1    1    2  501    0 -0.14280593920E+00 -0.47967013482E+02 -0.33100295573E+02  0.58279364640E+02  0.00000000000E+00 0. -1.
<scales pt_clust_5="13000.00000" pt_clust_6="13000.00000" pt_clust_7="13000.00000" pt_clust_8="13000.00000" pt_clust_9="47.96723"></scales>
<clustering>
<clus scale="   47.967">  2  9  1 -1</clus>
<clus scale="   79.981">  5  6 -1 -1</clus>
<clus scale="   91.173">  7  8 -1 -1</clus>
<clus scale="  106.293">  2  5  1 -1</clus>
<clus scale="   47.967">  2  5  1 -1</clus>
</clustering>
</event>
<event>
 9    2  0.1033155E-004  0.1499140E+03  0.7546771E-02  0.1213003E+00
         21   -1    0    0  501  502  0.00000000000E+00  0.00000000000E+00  0.24662998079E+03  0.24662998079E+03  0.00000000000E+00 0. -1.
         -3   -1    0    0    0  501 -0.00000000000E+00 -0.00000000000E+00 -0.17584462057E+03  0.17584462057E+03  0.00000000000E+00 0.  1.
         24    2    1    2    0    0  0.32417555680E+01 -0.87427195531E+02 -0.38262059480E+02  0.12102107563E+03  0.74351140225E+02 0.  0.
         23    2    1    2    0    0 -0.85477781382E+02 -0.33448678121E+02  0.27036477700E+02  0.13382436545E+03  0.93555996510E+02 0.  0.
        -13    1    3    3    0    0 -0.27458630668E+02 -0.18298992248E+02  0.57719247585E+01  0.33498427289E+02  0.00000000000E+00 0.  1.
         14    1    3    3    0    0  0.30700386236E+02 -0.69128203283E+02 -0.44033984239E+02  0.87522648338E+02  0.00000000000E+00 0. -1.
        -11    1    4    4    0    0  0.14835744162E+01 -0.42688029399E+02  0.16294477677E+02  0.45716286483E+02  0.00000000000E+00 0.  1.
         11    1    4    4    0    0 -0.86961355798E+02  0.92393512786E+01  0.10742000023E+02  0.88108078964E+02  0.00000000000E+00 0. -1.
         -4    1    1    2    0  502  0.82236025814E+02  0.12087587365E+03  0.82010941995E+02  0.16762916029E+03  0.00000000000E+00 0.  1.
<scales pt_clust_5="13000.00000" pt_clust_6="13000.00000" pt_clust_7="13000.00000" pt_clust_8="13000.00000" pt_clust_9="117.13885"></scales>
<clustering>
<clus scale="   74.351">  5  6 -1 -1</clus>
<clus scale="   93.556">  7  8 -1 -1</clus>
<clus scale="  114.813">  2  5  1 -1</clus>
<clus scale="  117.139">  1  9  2 -1</clus>
<clus scale="  117.139">  1  5  2 -1</clus>
</clustering>
</event>
<event>
 9    2  0.1033155E-004  0.3277208E+03  0.7546771E-02  0.1072424E+00
         21   -1    0    0  501  502  0.00000000000E+00  0.00000000000E+00  0.43890059445E+03  0.43890059445E+03  0.00000000000E+00 0. -1.
          2   -1    0    0  502    0 -0.00000000000E+00 -0.00000000000E+00 -0.37105889001E+03  0.37105889001E+03  0.00000000000E+00 0. -1.
         23    2    1    2    0    0 -0.57659398927E+02  0.29825298163E+03 -0.66683748516E+02  0.32386749572E+03  0.90354773691E+02 0.  0.
         24    2    1    2    0    0 -0.93699287090E+00 -0.34463861507E+03  0.18147144159E+03  0.39783616758E+03  0.81025176176E+02 0.  0.
        -11    1    4    4    0    0 -0.20283748050E+02 -0.72375644687E+02  0.10842334091E+02  0.75942218741E+02  0.00000000000E+00 0.  1.
         12    1    4    4    0    0  0.19346755179E+02 -0.27226297038E+03  0.17062910749E+03  0.32189394884E+03  0.00000000000E+00 0. -1.
        -11    1    3    3    0    0  0.59681494549E+01  0.46406865663E+02  0.18769387793E+02  0.50413350481E+02  0.00000000000E+00 0.  1.
         11    1    3    3    0    0 -0.63627548382E+02  0.25184611597E+03 -0.85453136309E+02  0.27345414524E+03  0.00000000000E+00 0. -1.
          1    1    1    2  501    0  0.58596391798E+02  0.46385633432E+02 -0.46945988623E+02  0.88255821159E+02  0.00000000000E+00 0. -1.
<scales pt_clust_5="13000.00000" pt_clust_6="13000.00000" pt_clust_7="13000.00000" pt_clust_8="13000.00000" pt_clust_9="74.73399"></scales>
<clustering>
<clus scale="   74.734">  1  9  2 -1</clus>
<clus scale="   81.025">  5  6 -1 -1</clus>
<clus scale="   90.355">  7  8 -1 -1</clus>
<clus scale="  325.272">  1  5  2 -1</clus>
<clus scale="   74.734">  1  5  2 -1</clus>
</clustering>
</event>
<event>
 9    2  0.1033155E-004  0.1007847E+03  0.7546771E-02  0.1282950E+00
          4   -1    0    0  502    0 -0.00000000000E+00  0.00000000000E+00  0.79072391544E+02  0.79072391544E+02  0.00000000000E+00 0. -1.
         21   -1    0    0  501  502  0.00000000000E+00 -0.00000000000E+00 -0.18731802564E+03  0.18731802564E+03  0.00000000000E+00 0. -1.
         24    2    1    2    0    0 -0.32501530931E+02 -0.50670648397E+02 -0.47925590186E+02  0.11186204697E+03  0.81193541838E+02 0.  0.
         23    2    1    2    0    0  0.18609987329E+02  0.20060810706E+02 -0.72410425418E+02  0.11880562575E+03  0.90126240610E+02 0.  0.
        -11    1    3    3    0    0 -0.27125921099E+02 -0.44724544781E+02  0.10109735138E+02  0.53275766028E+02  0.00000000000E+00 0.  1.
         12    1    3    3    0    0 -0.53756098321E+01 -0.59461036155E+01 -0.58035325324E+02  0.58586280943E+02  0.00000000000E+00 0. -1.
        -13    1    4    4    0    0 -0.87593827460E+01  0.45786218383E+02 -0.12789660557E+02  0.48339218003E+02  0.00000000000E+00 0.  1.
         13    1    4    4    0    0  0.27369370075E+02 -0.25725407677E+02 -0.59620764861E+02  0.70466407749E+02  0.00000000000E+00 0. -1.
          3    1    1    2  501    0  0.13891543602E+02  0.30609837691E+02  0.12090381504E+02  0.35722744464E+02  0.00000000000E+00 0. -1.
<scales pt_clust_5="13000.00000" pt_clust_6="13000.00000" pt_clust_7="13000.00000" pt_clust_8="13000.00000" pt_clust_9="33.61455"></scales>
<clustering>
<clus scale="   33.615">  2  9  1 -1</clus>
<clus scale="   81.194">  5  6 -1 -1</clus>
<clus scale="   90.126">  7  8 -1 -1</clus>
<clus scale="   92.883">  1  5  2 -1</clus>
<clus scale="   33.615">  2  5  1 -1</clus>
</clustering>
</event>
<event>
 9    2  0.1033155E-004  0.9336256E+02  0.7546771E-02  0.1300513E+00
         21   -1    0    0  501  502  0.00000000000E+00  0.00000000000E+00  0.26371645892E+02  0.26371645892E+02  0.00000000000E+00 0. -1.
          4   -1    0    0  502    0 -0.00000000000E+00 -0.00000000000E+00 -0.48328140536E+03  0.48328140536E+03  0.00000000000E+00 0. -1.
         24    2    1    2    0    0 -0.13180774494E+02 -0.15377136575E+02 -0.28461707836E+03  0.29646121085E+03  0.80449854540E+02 0.  0.
         23    2    1    2    0    0  0.32771632539E+02  0.22456707460E+02 -0.11041269386E+03  0.14789976689E+03  0.90028298166E+02 0.  0.
        -11    1    3    3    0    0  0.32766318692E+02  0.89178888523E+00 -0.88421742315E+02  0.94301810385E+02  0.00000000000E+00 0.  1.
         12    1    3    3    0    0 -0.45947093186E+02 -0.16268925460E+02 -0.19619533605E+03  0.20215940046E+03  0.00000000000E+00 0. -1.
        -11    1    4    4    0    0 -0.31457618903E+02  0.54728703213E+01 -0.33950287483E+02  0.46606395664E+02  0.00000000000E+00 0.  1.
         11    1    4    4    0    0  0.64229251442E+02  0.16983837138E+02 -0.76462406380E+02  0.10129337123E+03  0.00000000000E+00 0. -1.
          3    1    1    2  501    0 -0.19590858045E+02 -0.70795708848E+01 -0.61879987239E+02  0.65292073513E+02  0.00000000000E+00 0. -1.
<scales pt_clust_5="13000.00000" pt_clust_6="13000.00000" pt_clust_7="13000.00000" pt_clust_8="13000.00000" pt_clust_9="20.83081"></scales>
<clustering>
<clus scale="   20.831">  1  9  2 -1</clus>
<clus scale="   80.450">  5  6 -1 -1</clus>
<clus scale="   84.164">  2  5  1 -1</clus>
<clus scale="   90.028">  7  8 -1 -1</clus>
<clus scale="   20.831">  1  5  2 -1</clus>
</clustering>
</event>
<event>
 9    2  0.1033155E-004  0.9635812E+02  0.7546771E-02  0.1298026E+00
         21   -1    0    0  501  502  0.00000000000E+00  0.00000000000E+00  0.12164704758E+02  0.12164704758E+02  0.00000000000E+00 0. -1.
          4   -1    0    0  502    0 -0.00000000000E+00 -0.00000000000E+00 -0.10432690504E+04  0.10432690504E+04  0.00000000000E+00 0. -1.
         24    2    1    2    0    0  0.16774507150E+02 -0.20232134621E+02 -0.51955631191E+03  0.52595329877E+03  0.77442803961E+02 0.  0.
         23    2    1    2    0    0 -0.20996811192E+02 -0.13812348253E+02 -0.30727588271E+03  0.32234772997E+03  0.94116650391E+02 0.  0.
        -13    1    3    3    0    0  0.30903745195E+02  0.14696745346E+02 -0.12491970970E+03  0.12952208176E+03  0.00000000000E+00 0.  1.
         14    1    3    3    0    0 -0.14129238045E+02 -0.34928879968E+02 -0.39463660220E+03  0.39643121701E+03  0.00000000000E+00 0. -1.
        -13    1    4    4    0    0 -0.71504132999E+01 -0.54041913352E+02 -0.18610303592E+03  0.19392265671E+03  0.00000000000E+00 0. -1.
         13    1    4    4    0    0 -0.13846397892E+02  0.40229565099E+02 -0.12117284679E+03  0.12842507326E+03  0.00000000000E+00 0.  1.
          3    1    1    2  501    0  0.42223040426E+01  0.34044482875E+02 -0.20427215104E+03  0.20713272643E+03  0.00000000000E+00 0. -1.
<scales pt_clust_5="13000.00000" pt_clust_6="13000.00000" pt_clust_7="13000.00000" pt_clust_8="13000.00000" pt_clust_9="34.30533"></scales>
<clustering>
<clus scale="   34.305">  1  9  2 -1</clus>
<clus scale="   77.443">  5  6 -1 -1</clus>
<clus scale="   80.152">  2  5  1 -1</clus>
<clus scale="   94.117">  7  8 -1 -1</clus>
<clus scale="   34.305">  1  5  2 -1</clus>
</clustering>
</event>
<event>
 9    2  0.1033155E-004  0.9430442E+02  0.7546771E-02  0.1296232E+00
         21   -1    0    0  501  502  0.00000000000E+00  0.00000000000E+00  0.35632506350E+02  0.35632506350E+02  0.00000000000E+00 0.  1.
         -1   -1    0    0    0  501 -0.00000000000E+00 -0.00000000000E+00 -0.52172989591E+03  0.52172989591E+03  0.00000000000E+00 0.  1.
         23    2    1    2    0    0  0.19840919546E+02  0.34949510336E+01 -0.38385777137E+03  0.39521755739E+03  0.91892612635E+02 0.  0.
         24    2    1    2    0    0 -0.27877234482E+02  0.14853658431E+02 -0.45832752545E+02  0.10228677675E+03  0.85814754681E+02 0.  0.
        -13    1    4    4    0    0 -0.34009295892E+02  0.35206040338E+02  0.29862596128E+01  0.49040954618E+02  0.00000000000E+00 0.  1.
         14    1    4    4    0    0  0.61320614106E+01 -0.20352381907E+02 -0.48819012158E+02  0.53245822132E+02  0.00000000000E+00 0. -1.
        -13    1    3    3    0    0 -0.11625346579E+02  0.38279956707E+02 -0.10349550051E+03  0.11095865173E+03  0.00000000000E+00 0. -1.
         13    1    3    3    0    0  0.31466266125E+02 -0.34785005673E+02 -0.28036227086E+03  0.28425890566E+03  0.00000000000E+00 0.  1.
         -2    1    1    2    0  502  0.80363149360E+01 -0.18348609465E+02 -0.56406865649E+02  0.59858068122E+02  0.00000000000E+00 0.  1.
<scales pt_clust_5="13000.00000" pt_clust_6="13000.00000" pt_clust_7="13000.00000" pt_clust_8="13000.00000" pt_clust_9="20.03133"></scales>
<clustering>
<clus scale="   20.031">  1  9  2 -1</clus>
<clus scale="   85.815">  5  6 -1 -1</clus>
<clus scale="   88.393">  1  5  2 -1</clus>
<clus scale="   91.893">  7  8 -1 -1</clus>
<clus scale="   20.031">  1  5  2 -1</clus>
</clustering>
</event>
<event>
 9    2  0.1033155E-004  0.1048145E+03  0.7546771E-02  0.1273029E+00
          4   -1    0    0  502    0 -0.00000000000E+00  0.00000000000E+00  0.11236640508E+03  0.11236640508E+03  0.00000000000E+00 0. -1.
         21   -1    0    0  501  502  0.00000000000E+00 -0.00000000000E+00 -0.23527207634E+03  0.23527207634E+03  0.00000000000E+00 0. -1.
         24    2    1    2    0    0  0.36787635244E+00  0.68171600578E+02  0.22754537069E+02  0.10750172162E+03  0.79945911311E+02 0.  0.
         23    2    1    2    0    0  0.39146538985E+02 -0.42166705234E+02 -0.19497269678E+02  0.10539726785E+03  0.86127568177E+02 0.  0.
        -13    1    3    3    0    0 -0.15094772104E+02  0.46967379341E+02  0.49602183818E+02  0.69958298339E+02  0.00000000000E+00 0.  1.
         14    1    3    3    0    0  0.15462648457E+02  0.21204221238E+02 -0.26847646749E+02  0.37543423279E+02  0.00000000000E+00 0. -1.
        -13    1    4    4    0    0  0.47818776423E+02 -0.62836514112E+02 -0.24010166776E+02  0.82532120977E+02  0.00000000000E+00 0.  1.
         13    1    4    4    0    0 -0.86722374378E+01  0.20669808878E+02  0.45128970975E+01  0.22865146871E+02  0.00000000000E+00 0. -1.
          3    1    1    2  501    0 -0.39514415338E+02 -0.26004895344E+02 -0.12616293866E+03  0.13473949195E+03  0.00000000000E+00 0. -1.
<scales pt_clust_5="13000.00000" pt_clust_6="13000.00000" pt_clust_7="13000.00000" pt_clust_8="13000.00000" pt_clust_9="47.30374"></scales>
<clustering>
<clus scale="   47.304">  2  9  1 -1</clus>
<clus scale="   79.946">  5  6 -1 -1</clus>
<clus scale="   86.128">  7  8 -1 -1</clus>
<clus scale="   99.797">  1  5  2 -1</clus>
<clus scale="   47.304">  2  5  1 -1</clus>
</clustering>
</event>
<event>
 9    2  0.1033155E-004  0.2864644E+03  0.7546771E-02  0.1123637E+00
          2   -1    0    0  502    0 -0.00000000000E+00  0.00000000000E+00  0.43712642305E+03  0.43712642305E+03  0.00000000000E+00 0. -1.
         21   -1    0    0  501  502  0.00000000000E+00 -0.00000000000E+00 -0.29432703450E+03  0.29432703450E+03  0.00000000000E+00 0. -1.
         23    2    1    2    0    0 -0.14399578172E+02  0.88407361333E+02 -0.39670509024E+02  0.13423255760E+03  0.91768299783E+02 0.  0.
         24    2    1    2    0    0 -0.21639849101E+03 -0.20507385240E+03  0.78376635544E+02  0.31844818593E+03  0.79892166554E+02 0.  0.
        -13    1    4    4    0    0 -0.12463994089E+03 -0.75066434835E+02  0.11873692045E+02  0.14598311226E+03  0.00000000000E+00 0.  1.
         14    1    4    4    0    0 -0.91758550120E+02 -0.13000741756E+03  0.66502943499E+02  0.17246507367E+03  0.00000000000E+00 0. -1.
        -11    1    3    3    0    0 -0.40155360089E+02  0.53319002501E+02  0.10766075980E+02  0.67611222172E+02  0.00000000000E+00 0. -1.
         11    1    3    3    0    0  0.25755781917E+02  0.35088358831E+02 -0.50436585004E+02  0.66621335430E+02  0.00000000000E+00 0.  1.
          1    1    1    2  501    0  0.23079806918E+03  0.11666649106E+03  0.10409326204E+03  0.27877271401E+03  0.00000000000E+00 0. -1.
<scales pt_clust_5="13000.00000" pt_clust_6="13000.00000" pt_clust_7="13000.00000" pt_clust_8="13000.00000" pt_clust_9="275.09843"></scales>
<clustering>
<clus scale="   79.892">  5  6 -1 -1</clus>
<clus scale="   91.768">  7  8 -1 -1</clus>
<clus scale="  128.237">  1  7  2 -1</clus>
<clus scale="  275.098">  2  9  1 -1</clus>
<clus scale="  275.098">  2  5  1 -1</clus>
</clustering>
</event>
<event>
 9    2  0.1033155E-004  0.1145588E+03  0.7546771E-02  0.1252726E+00
         21   -1    0    0  501  502  0.00000000000E+00  0.00000000000E+00  0.69704194894E+02  0.69704194894E+02  0.00000000000E+00 0. -1.
          2   -1    0    0  502    0 -0.00000000000E+00 -0.00000000000E+00 -0.33516478589E+03  0.33516478589E+03  0.00000000000E+00 0. -1.
         23    2    1    2    0    0 -0.13667353204E+02 -0.86211947162E+02 -0.22588291146E+03  0.25460322403E+03  0.78615619456E+02 0.  0.
         24    2    1    2    0    0  0.16195664769E+02  0.61767029255E+02  0.16781828307E+01  0.10224500550E+03  0.79835827745E+02 0.  0.
        -11    1    4    4    0    0 -0.26701725879E+02  0.16700153779E+02 -0.18877471893E+02  0.36718336649E+02  0.00000000000E+00 0.  1.
         12    1    4    4    0    0  0.42897390648E+02  0.45066875477E+02  0.20555654724E+02  0.65526668852E+02  0.00000000000E+00 0. -1.
        -11    1    3    3    0    0  0.25455729420E+02 -0.53459521032E+02 -0.16421717197E+03  0.17456573008E+03  0.00000000000E+00 0. -1.
         11    1    3    3    0    0 -0.39123082624E+02 -0.32752426130E+02 -0.61665739486E+02  0.80037493950E+02  0.00000000000E+00 0.  1.
          1    1    1    2  501    0 -0.25283115657E+01  0.24444917907E+02 -0.41255862364E+02  0.48020751246E+02  0.00000000000E+00 0. -1.
<scales pt_clust_5="13000.00000" pt_clust_6="13000.00000" pt_clust_7="13000.00000" pt_clust_8="13000.00000" pt_clust_9="24.57533"></scales>
<clustering>
<clus scale="   24.575">  1  9  2 -1</clus>
<clus scale="   78.616">  7  8 -1 -1</clus>
<clus scale="   79.836">  5  6 -1 -1</clus>
<clus scale="  113.712">  2  7  1 -1</clus>
<clus scale="   24.575">  1  5  2 -1</clus>
</clustering>
</event>
<event>
 9    2  0.1033155E-004  0.1717276E+03  0.7546771E-02  0.1193238E+00
          4   -1    0    0  502    0 -0.00000000000E+00  0.00000000000E+00  0.24438588123E+03  0.24438588123E+03  0.00000000000E+00 0. -1.
         21   -1    0    0  501  502  0.00000000000E+00 -0.00000000000E+00 -0.21773890904E+03  0.21773890904E+03  0.00000000000E+00 0. -1.
         23    2    1    2    0    0 -0.41237606642E+02 -0.51639040910E+02  0.44150136201E+02  0.12512157430E+03  0.96638724542E+02 0.  0.
         24    2    1    2    0    0 -0.13342945651E+03  0.67299667259E+01 -0.18279488012E+02  0.15665352627E+03  0.79733777633E+02 0.  0.
        -13    1    4    4    0    0 -0.17926449197E+02 -0.15223222889E+02  0.22168646907E+02  0.32319545196E+02  0.00000000000E+00 0.  1.
         14    1    4    4    0    0 -0.11550300731E+03  0.21953189615E+02 -0.40448134919E+02  0.12433398108E+03  0.00000000000E+00 0. -1.
        -11    1    3    3    0    0 -0.48768932125E+02 -0.10988734632E+02 -0.15683898570E+02  0.52394138067E+02  0.00000000000E+00 0.  1.
         11    1    3    3    0    0  0.75313254824E+01 -0.40650306278E+02  0.59834034771E+02  0.72727436233E+02  0.00000000000E+00 0. -1.
          3    1    1    2  501    0  0.17466706315E+03  0.44909074184E+02  0.77632400427E+00  0.18034968969E+03  0.00000000000E+00 0. -1.
<scales pt_clust_5="13000.00000" pt_clust_6="13000.00000" pt_clust_7="13000.00000" pt_clust_8="13000.00000" pt_clust_9="152.09508"></scales>
<clustering>
<clus scale="   79.734">  5  6 -1 -1</clus>
<clus scale="   96.639">  7  8 -1 -1</clus>
<clus scale="  117.073">  1  7  2 -1</clus>
<clus scale="  152.095">  2  9  1 -1</clus>
<clus scale="  152.095">  2  5  1 -1</clus>
</clustering>
</event>
<event>
 9    2  0.1033155E-004  0.1187511E+03  0.7546771E-02  0.1249906E+00
         21   -1    0    0  501  502  0.00000000000E+00  0.00000000000E+00  0.19261243028E+03  0.19261243028E+03  0.00000000000E+00 0. -1.
          2   -1    0    0  502    0 -0.00000000000E+00 -0.00000000000E+00 -0.23794872572E+03  0.23794872572E+03  0.00000000000E+00 0. -1.
         23    2    1    2    0    0 -0.41187522068E+02  0.61060855131E+02 -0.18695799339E+03  0.22161200237E+03  0.93454525299E+02 0.  0.
         24    2    1    2    0    0  0.65119132918E+02 -0.39387565151E+02  0.13803303008E+03  0.17646327926E+03  0.79336560129E+02 0.  0.
        -11    1    4    4    0    0  0.32272713499E+02 -0.34284372089E+02  0.15605204593E+02  0.49603110956E+02  0.00000000000E+00 0.  1.
         12    1    4    4    0    0  0.32846419419E+02 -0.51031930620E+01  0.12242782549E+03  0.12686016831E+03  0.00000000000E+00 0. -1.
        -11    1    3    3    0    0 -0.21804335962E+02  0.48371198550E+02 -0.19087800593E+03  0.19811515607E+03  0.00000000000E+00 0. -1.
         11    1    3    3    0    0 -0.19383186106E+02  0.12689656580E+02  0.39200125425E+01  0.23496846301E+02  0.00000000000E+00 0.  1.
          1    1    1    2  501    0 -0.23931610850E+02 -0.21673289980E+02  0.35886678593E+01  0.32485874367E+02  0.00000000000E+00 0. -1.
<scales pt_clust_5="13000.00000" pt_clust_6="13000.00000" pt_clust_7="13000.00000" pt_clust_8="13000.00000" pt_clust_9="32.28705"></scales>
<clustering>
<clus scale="   32.287">  1  9  2 -1</clus>
<clus scale="   79.337">  5  6 -1 -1</clus>
<clus scale="   93.455">  7  8 -1 -1</clus>
<clus scale="  107.992">  1  5  2 -1</clus>
<clus scale="   32.287">  1  5  2 -1</clus>
</clustering>
</event>
<event>
 9    2  0.1033155E-004  0.1225401E+03  0.7546771E-02  0.1242805E+00
         21   -1    0    0  501  502  0.00000000000E+00  0.00000000000E+00  0.33458143058E+03  0.33458143058E+03  0.00000000000E+00 0. -1.
         -3   -1    0    0    0  501 -0.00000000000E+00 -0.00000000000E+00 -0.63125584728E+02  0.63125584728E+02  0.00000000000E+00 0.  1.
         23    2    1    2    0    0  0.49781040017E+02 -0.71998333065E+02  0.64590300237E+02  0.14279114444E+03  0.92495903355E+02 0.  0.
         24    2    1    2    0    0 -0.29735886426E+02  0.65966659889E+02  0.10352269029E+03  0.14947425190E+03  0.79936108344E+02 0.  0.
        -13    1    4    4    0    0 -0.35772591695E+02  0.74537462308E+02  0.53758622468E+02  0.98617955229E+02  0.00000000000E+00 0.  1.
         14    1    4    4    0    0  0.60367052683E+01 -0.85708024197E+01  0.49764067824E+02  0.50856296670E+02  0.00000000000E+00 0. -1.
        -11    1    3    3    0    0  0.13136298503E+02  0.19744670991E+02 -0.17703493796E+01  0.23781263798E+02  0.00000000000E+00 0.  1.
         11    1    3    3    0    0  0.36644741514E+02 -0.91743004056E+02  0.66360649616E+02  0.11900988065E+03  0.00000000000E+00 0. -1.
         -4    1    1    2    0  502 -0.20045153590E+02  0.60316731762E+01  0.10334285532E+03  0.10544161896E+03  0.00000000000E+00 0.  1.
<scales pt_clust_5="13000.00000" pt_clust_6="13000.00000" pt_clust_7="13000.00000" pt_clust_8="13000.00000" pt_clust_9="20.93297"></scales>
<clustering>
<clus scale="   20.933">  1  9  2 -1</clus>
<clus scale="   79.936">  5  6 -1 -1</clus>
<clus scale="   92.496">  7  8 -1 -1</clus>
<clus scale="  113.359">  1  5  2 -1</clus>
<clus scale="   20.933">  1  5  2 -1</clus>
</clustering>
</event>
<event>
 9    2  0.1033155E-004  0.9215514E+02  0.7546771E-02  0.1304456E+00
          2   -1    0    0  502    0 -0.00000000000E+00  0.00000000000E+00  0.13517439356E+03  0.13517439356E+03  0.00000000000E+00 0. -1.
         21   -1    0    0  501  502  0.00000000000E+00 -0.00000000000E+00 -0.16209265034E+03  0.16209265034E+03  0.00000000000E+00 0. -1.
         23    2    1    2    0    0  0.24490708801E+02  0.13985423821E+01  0.88011334421E+02  0.12868603723E+03  0.90622019695E+02 0.  0.
         24    2    1    2    0    0  0.16624739764E+02 -0.27294479205E+01 -0.67237152269E+02  0.10559830942E+03  0.79663896778E+02 0.  0.
        -13    1    4    4    0    0 -0.16017311806E+02 -0.18345707177E+02 -0.64921372077E+02  0.69339049617E+02  0.00000000000E+00 0.  1.
         14    1    4    4    0    0  0.32642051570E+02  0.15616259257E+02 -0.23157801918E+01  0.36259259808E+02  0.00000000000E+00 0. -1.
        -13    1    3    3    0    0 -0.24558445085E+01 -0.37588526639E+02  0.12792331772E+02  0.39781556774E+02  0.00000000000E+00 0.  1.
         13    1    3    3    0    0  0.26946553310E+02  0.38987069022E+02  0.75219002648E+02  0.88904480458E+02  0.00000000000E+00 0. -1.
          1    1    1    2  501    0 -0.41115448565E+02  0.13309055384E+01 -0.47692438936E+02  0.62982697242E+02  0.00000000000E+00 0. -1.
<scales pt_clust_5="13000.00000" pt_clust_6="13000.00000" pt_clust_7="13000.00000" pt_clust_8="13000.00000" pt_clust_9="41.13698"></scales>
<clustering>
<clus scale="   41.137">  2  9  1 -1</clus>
<clus scale="   79.664">  5  6 -1 -1</clus>
<clus scale="   81.404">  2  5  1 -1</clus>
<clus scale="   90.622">  7  8 -1 -1</clus>
<clus scale="   41.137">  2  5  1 -1</clus>
</clustering>
</event>
<event>
 9    2  0.1033155E-004  0.1956764E+03  0.7546771E-02  0.1161328E+00
         21   -1    0    0  501  502  0.00000000000E+00  0.00000000000E+00  0.11915767033E+03  0.11915767033E+03  0.00000000000E+00 0. -1.
          4   -1    0    0  502    0 -0.00000000000E+00 -0.00000000000E+00 -0.75286105098E+03  0.75286105098E+03  0.00000000000E+00 0. -1.
         24    2    1    2    0    0  0.13084703092E+03  0.80109066984E+02 -0.12115121578E+03  0.20286009260E+03  0.54186640160E+02 0.  0.
         23    2    1    2    0    0  0.10946039529E+03 -0.10854910470E+03 -0.15194259795E+03  0.23488250158E+03  0.91207182896E+02 0.  0.
        -13    1    3    3    0    0  0.45584754768E+02  0.30770422147E+02 -0.12888530479E+02  0.56488078072E+02  0.00000000000E+00 0.  1.
         14    1    3    3    0    0  0.85262276152E+02  0.49338644836E+02 -0.10826268530E+03  0.14637201453E+03  0.00000000000E+00 0. -1.
        -13    1    4    4    0    0  0.16083091077E+02 -0.54318801705E+02 -0.10028589322E+03  0.11518011294E+03  0.00000000000E+00 0.  1.
         13    1    4    4    0    0  0.93377304210E+02 -0.54230302994E+02 -0.51656704728E+02  0.11970238865E+03  0.00000000000E+00 0. -1.
          3    1    1    2  501    0 -0.24030742621E+03  0.28440037715E+02 -0.36060956693E+03  0.43427612713E+03  0.00000000000E+00 0. -1.
<scales pt_clust_5="13000.00000" pt_clust_6="13000.00000" pt_clust_7="13000.00000" pt_clust_8="13000.00000" pt_clust_9="173.12000"></scales>
<clustering>
<clus scale="   54.187">  5  6 -1 -1</clus>
<clus scale="   91.207">  7  8 -1 -1</clus>
<clus scale="  162.710">  2  5  1 -1</clus>
<clus scale="  173.120">  1  9  2 -1</clus>
<clus scale="  173.120">  1  5  2 -1</clus>
</clustering>
</event>
<event>
 9    2  0.1033155E-004  0.9808442E+02  0.7546771E-02  0.1291190E+00
         21   -1    0    0  501  502  0.00000000000E+00  0.00000000000E+00  0.32660538987E+02  0.32660538987E+02  0.00000000000E+00 0.  1.
          2   -1    0    0  502    0 -0.00000000000E+00 -0.00000000000E+00 -0.49707002502E+03  0.49707002502E+03  0.00000000000E+00 0. -1.
         23    2    1    2    0    0 -0.15437540996E+02 -0.30952283197E+02 -0.16278689667E+03  0.18972329223E+03  0.91098805581E+02 0.  0.
         24    2    1    2    0    0 -0.44338004577E+02  0.34782529442E+02 -0.17138557633E+03  0.19665642177E+03  0.78262695107E+02 0.  0.
        -11    1    4    4    0    0 -0.51148237072E+02  0.38187835552E+02 -0.17636351073E+03  0.18755943286E+03  0.00000000000E+00 0.  1.
         12    1    4    4    0    0  0.68102324947E+01 -0.34053061093E+01  0.49779343975E+01  0.90969889082E+01  0.00000000000E+00 0. -1.
        -13    1    3    3    0    0 -0.25302680644E+02 -0.71582071311E+00 -0.15291120767E+01  0.25358947747E+02  0.00000000000E+00 0.  1.
         13    1    3    3    0    0  0.98651396482E+01 -0.30236462484E+02 -0.16125778460E+03  0.16436434448E+03  0.00000000000E+00 0. -1.
          1    1    1    2  501    0  0.59775545574E+02 -0.38302462453E+01 -0.13023701303E+03  0.14335085001E+03  0.00000000000E+00 0. -1.
<scales pt_clust_5="13000.00000" pt_clust_6="13000.00000" pt_clust_7="13000.00000" pt_clust_8="13000.00000" pt_clust_9="59.89817"></scales>
<clustering>
<clus scale="   59.898">  1  9  2 -1</clus>
<clus scale="   78.263">  5  6 -1 -1</clus>
<clus scale="   86.294">  1  5  2 -1</clus>
<clus scale="   91.099">  7  8 -1 -1</clus>
<clus scale="   59.898">  1  5  2 -1</clus>
</clustering>
</event>
<event>
 9    2  0.1033155E-004  0.1073846E+03  0.7546771E-02  0.1280709E+00
          2   -1    0    0  502    0 -0.00000000000E+00  0.00000000000E+00  0.47047655170E+03  0.47047655170E+03  0.00000000000E+00 0. -1.
         21   -1    0    0  501  502  0.00000000000E+00 -0.00000000000E+00 -0.11766692460E+03  0.11766692460E+03  0.00000000000E+00 0. -1.
         24    2    1    2    0    0 -0.67362066712E+01 -0.25748641904E+02  0.40126398010E+03  0.40921687894E+03  0.75744988254E+02 0.  0.
         23    2    1    2    0    0 -0.41628421876E+02  0.27342924864E+02 -0.77859015833E+01  0.11571582317E+03  0.10415839103E+03 0.  0.
        -13    1    3    3    0    0  0.52711856590E+01  0.24657094242E+02  0.82440216333E+02  0.86209900613E+02  0.00000000000E+00 0.  1.
         14    1    3    3    0    0 -0.12007392330E+02 -0.50405736146E+02  0.31882376376E+03  0.32300697833E+03  0.00000000000E+00 0. -1.
        -11    1    4    4    0    0  0.35205093084E+02  0.10759708771E+02 -0.10968269773E+01  0.36828968779E+02  0.00000000000E+00 0.  1.
         11    1    4    4    0    0 -0.76833514960E+02  0.16583216092E+02 -0.66890746060E+01  0.78886854394E+02  0.00000000000E+00 0. -1.
          1    1    1    2  501    0  0.48364628547E+02 -0.15942829595E+01 -0.40668451410E+02  0.63210774182E+02  0.00000000000E+00 0. -1.
<scales pt_clust_5="13000.00000" pt_clust_6="13000.00000" pt_clust_7="13000.00000" pt_clust_8="13000.00000" pt_clust_9="48.39090"></scales>
<clustering>
<clus scale="   48.391">  2  9  1 -1</clus>
<clus scale="   75.745">  5  6 -1 -1</clus>
<clus scale="   80.124">  1  5  2 -1</clus>
<clus scale="  104.158">  7  8 -1 -1</clus>
<clus scale="   48.391">  2  5  1 -1</clus>
</clustering>
</event>
<event>
 9    2  0.1033155E-004  0.1543804E+03  0.7546771E-02  0.1197351E+00
          2   -1    0    0  502    0 -0.00000000000E+00  0.00000000000E+00  0.26199511093E+03  0.26199511093E+03  0.00000000000E+00 0. -1.
         21   -1    0    0  501  502  0.00000000000E+00 -0.00000000000E+00 -0.17460374875E+03  0.17460374875E+03  0.00000000000E+00 0.  1.
         24    2    1    2    0    0  0.85513307645E+02 -0.73901833290E+02  0.11862490315E+03  0.18143117261E+03  0.77919163238E+02 0.  0.
         23    2    1    2    0    0 -0.10009357986E+03  0.13454883630E+03 -0.18701961644E+02  0.19154627721E+03  0.90653730568E+02 0.  0.
        -13    1    3    3    0    0  0.13478002223E+02 -0.56777555095E+02  0.28959063376E+02  0.65145795399E+02  0.00000000000E+00 0.  1.
         14    1    3    3    0    0  0.72035305423E+02 -0.17124278195E+02  0.89665839776E+02  0.11628537721E+03  0.00000000000E+00 0. -1.
        -11    1    4    4    0    0 -0.59183838301E+02  0.10182592989E+03  0.28339930609E+02  0.12113793122E+03  0.00000000000E+00 0.  1.
         11    1    4    4    0    0 -0.40909741557E+02  0.32722906410E+02 -0.47041892253E+02  0.70408345989E+02  0.00000000000E+00 0. -1.
          1    1    1    2  501    0  0.14580272213E+02 -0.60647003011E+02 -0.12531579323E+02  0.63621409858E+02  0.00000000000E+00 0. -1.
<scales pt_clust_5="13000.00000" pt_clust_6="13000.00000" pt_clust_7="13000.00000" pt_clust_8="13000.00000" pt_clust_9="62.37502"></scales>
<clustering>
<clus scale="   62.375">  2  9  1 -1</clus>
<clus scale="   77.919">  5  6 -1 -1</clus>
<clus scale="   90.654">  7  8 -1 -1</clus>
<clus scale="  147.264">  1  5  2 -1</clus>
<clus scale="   62.375">  2  5  1 -1</clus>
</clustering>
</event>
<event>
 9    2  0.1033155E-004  0.1281220E+03  0.7546771E-02  0.1250171E+00
          2   -1    0    0  502    0 -0.00000000000E+00  0.00000000000E+00  0.12033739251E+04  0.12033739251E+04  0.00000000000E+00 0. -1.
         21   -1    0    0  501  502  0.00000000000E+00 -0.00000000000E+00 -0.20035068999E+02  0.20035068999E+02  0.00000000000E+00 0. -1.
         24    2    1    2    0    0 -0.33208217538E+02 -0.45500176271E+01  0.28867890426E+03  0.30108379268E+03  0.78692134804E+02 0.  0.
         23    2    1    2    0    0 -0.73275586264E+02 -0.33844594595E+01  0.44283162476E+03  0.45805093597E+03  0.91269085407E+02 0.  0.
        -13    1    3    3    0    0 -0.74169065970E+01 -0.32791141418E+02  0.56264920866E+02  0.65543960660E+02  0.00000000000E+00 0.  1.
         14    1    3    3    0    0 -0.25791310941E+02  0.28241123791E+02  0.23241398339E+03  0.23553983202E+03  0.00000000000E+00 0. -1.
        -13    1    4    4    0    0  0.17354299748E+02  0.16881178326E+02  0.94543520070E+02  0.97594175485E+02  0.00000000000E+00 0.  1.
         13    1    4    4    0    0 -0.90629886013E+02 -0.20265637785E+02  0.34828810469E+03  0.36045676049E+03  0.00000000000E+00 0. -1.
          1    1    1    2  501    0  0.10648380380E+03  0.79344770865E+01  0.45182832713E+03  0.46427426549E+03  0.00000000000E+00 0. -1.
<scales pt_clust_5="13000.00000" pt_clust_6="13000.00000" pt_clust_7="13000.00000" pt_clust_8="13000.00000" pt_clust_9="89.91774"></scales>
<clustering>
<clus scale="   78.692">  5  6 -1 -1</clus>
<clus scale="   85.533">  1  5  2 -1</clus>
<clus scale="   89.918">  2  9  1 -1</clus>
<clus scale="   91.269">  7  8 -1 -1</clus>
<clus scale="   89.918">  2  5  1 -1</clus>
</clustering>
</event>
<event>
 9    2  0.1033155E-004  0.8765995E+02  0.7546771E-02  0.1312140E+00
         21   -1    0    0  501  502  0.00000000000E+00  0.00000000000E+00  0.12521621008E+03  0.12521621008E+03  0.00000000000E+00 0.  1.
          2   -1    0    0  502    0 -0.00000000000E+00 -0.00000000000E+00 -0.15667839241E+03  0.15667839241E+03  0.00000000000E+00 0. -1.
         24    2    1    2    0    0  0.21123242718E+02 -0.22828106429E+02 -0.33317688603E+02  0.93344861583E+02  0.81460916911E+02 0.  0.
         23    2    1    2    0    0  0.15124563485E+02 -0.41528624331E+02  0.40015237885E+02  0.10541215996E+03  0.86931726917E+02 0.  0.
        -13    1    3    3    0    0 -0.86458838722E+01  0.23194863228E+02  0.65048063542E+01  0.25594247279E+02  0.00000000000E+00 0.  1.
         14    1    3    3    0    0  0.29769126590E+02 -0.46022969656E+02 -0.39822494957E+02  0.67750614304E+02  0.00000000000E+00 0. -1.
        -11    1    4    4    0    0  0.50923597782E+02 -0.16468213881E+02  0.17888117072E+02  0.56430484774E+02  0.00000000000E+00 0.  1.
         11    1    4    4    0    0 -0.35799034296E+02 -0.25060410451E+02  0.22127120813E+02  0.48981675185E+02  0.00000000000E+00 0. -1.
          1    1    1    2  501    0 -0.36247806204E+02  0.64356730760E+02 -0.38159731617E+02  0.83137580947E+02  0.00000000000E+00 0. -1.
<scales pt_clust_5="13000.00000" pt_clust_6="13000.00000" pt_clust_7="13000.00000" pt_clust_8="13000.00000" pt_clust_9="73.86269"></scales>
<clustering>
<clus scale="   73.863">  1  9  2 -1</clus>
<clus scale="   81.461">  5  6 -1 -1</clus>
<clus scale="   82.238">  2  5  1 -1</clus>
<clus scale="   86.932">  7  8 -1 -1</clus>
<clus scale="   73.863">  1  5  2 -1</clus>
</clustering>
</event>
<event>
 9    2  0.1033155E-004  0.9429978E+02  0.7546771E-02  0.1296171E+00
          2   -1    0    0  502    0 -0.00000000000E+00  0.00000000000E+00  0.59162982206E+03  0.59162982206E+03  0.00000000000E+00 0. -1.
         21   -1    0    0  501  502  0.00000000000E+00 -0.00000000000E+00 -0.44931705561E+02  0.44931705561E+02  0.00000000000E+00 0. -1.
         24    2    1    2    0    0  0.13199156885E+02 -0.39428294054E+02  0.46783568075E+03  0.47654724658E+03  0.80611698454E+02 0.  0.
         23    2    1    2    0    0 -0.11595797629E+02  0.13059096215E+02  0.94279939920E+02  0.12942662355E+03  0.86934120440E+02 0.  0.
        -11    1    3    3    0    0  0.46823276118E+02 -0.18736384310E+02  0.23077781648E+03  0.23622419830E+03  0.00000000000E+00 0.  1.
         12    1    3    3    0    0 -0.33624119233E+02 -0.20691909743E+02  0.23705786427E+03  0.24032304829E+03  0.00000000000E+00 0. -1.
        -13    1    4    4    0    0 -0.31294085531E+02  0.31313949851E+02  0.16676368034E+02  0.47307340818E+02  0.00000000000E+00 0.  1.
         13    1    4    4    0    0  0.19698287902E+02 -0.18254853636E+02  0.77603571886E+02  0.82119282736E+02  0.00000000000E+00 0. -1.
          1    1    1    2  501    0 -0.16033592557E+01  0.26369197839E+02 -0.15417504171E+02  0.30587657485E+02  0.00000000000E+00 0. -1.
<scales pt_clust_5="13000.00000" pt_clust_6="13000.00000" pt_clust_7="13000.00000" pt_clust_8="13000.00000" pt_clust_9="26.41790"></scales>
<clustering>
<clus scale="   26.418">  2  9  1 -1</clus>
<clus scale="   80.612">  5  6 -1 -1</clus>
<clus scale="   86.934">  7  8 -1 -1</clus>
<clus scale="   88.505">  1  5  2 -1</clus>
<clus scale="   26.418">  2  5  1 -1</clus>
</clustering>
</event>
<event>
 9    2  0.1033155E-004  0.1046718E+03  0.7546771E-02  0.1281382E+00
          2   -1    0    0  502    0 -0.00000000000E+00  0.00000000000E+00  0.49951172292E+03  0.49951172292E+03  0.00000000000E+00 0. -1.
         21   -1    0    0  501  502  0.00000000000E+00 -0.00000000000E+00 -0.18404038025E+03  0.18404038025E+03  0.00000000000E+00 0. -1.
         24    2    1    2    0    0  0.62940476963E+01 -0.28694709291E+02  0.44524100325E+03  0.45350016111E+03  0.80992862457E+02 0.  0.
         23    2    1    2    0    0  0.33555134020E+02 -0.12808552870E+01 -0.18499099108E+02  0.10811905230E+03  0.10109364566E+03 0.  0.
        -11    1    3    3    0    0 -0.12142575007E+02 -0.33451070978E+02  0.77648863902E+02  0.85415234839E+02  0.00000000000E+00 0.  1.
         12    1    3    3    0    0  0.18436622703E+02  0.47563616868E+01  0.36759213935E+03  0.36808492627E+03  0.00000000000E+00 0. -1.
        -13    1    4    4    0    0  0.10164634510E+02  0.47823552246E+02 -0.22004560746E+02  0.53615414181E+02  0.00000000000E+00 0.  1.
         13    1    4    4    0    0  0.23390499509E+02 -0.49104407533E+02  0.35054616382E+01  0.54503638115E+02  0.00000000000E+00 0. -1.
          1    1    1    2  501    0 -0.39849181716E+02  0.29975564578E+02 -0.11127056148E+03  0.12193288977E+03  0.00000000000E+00 0. -1.
<scales pt_clust_5="13000.00000" pt_clust_6="13000.00000" pt_clust_7="13000.00000" pt_clust_8="13000.00000" pt_clust_9="49.86473"></scales>
<clustering>
<clus scale="   49.865">  2  9  1 -1</clus>
<clus scale="   80.993">  5  6 -1 -1</clus>
<clus scale="   85.417">  1  5  2 -1</clus>
<clus scale="  101.094">  7  8 -1 -1</clus>
<clus scale="   49.865">  2  5  1 -1</clus>
</clustering>
</event>
<event>
 9    2  0.1033155E-004  0.9477855E+02  0.7546771E-02  0.1298152E+00
         21   -1    0    0  501  502  0.00000000000E+00  0.00000000000E+00  0.45030569166E+03  0.45030569166E+03  0.00000000000E+00 0.  1.
          2   -1    0    0  502    0 -0.00000000000E+00 -0.00000000000E+00 -0.19893877183E+03  0.19893877183E+03  0.00000000000E+00 0. -1.
         23    2    1    2    0    0 -0.18789772019E+02 -0.99078915171E+01 -0.17780849213E+03  0.20164485955E+03  0.92701497621E+02 0.  0.
         24    2    1    2    0    0 -0.16900498077E+02 -0.11905745691E+02  0.31223139202E+03  0.32340003089E+03  0.81680868040E+02 0.  0.
        -11    1    4    4    0    0 -0.37123660014E+02 -0.29997652152E+02  0.26196368585E+03  0.26627616862E+03  0.00000000000E+00 0.  1.
         12    1    4    4    0    0  0.20223161937E+02  0.18091906461E+02  0.50267706163E+02  0.57123862273E+02  0.00000000000E+00 0. -1.
        -13    1    3    3    0    0 -0.50830231810E+02 -0.95764649803E+00 -0.57177330206E+02  0.76510630909E+02  0.00000000000E+00 0. -1.
         13    1    3    3    0    0  0.32040459791E+02 -0.89502450191E+01 -0.12063116192E+03  0.12513422864E+03  0.00000000000E+00 0.  1.
          1    1    1    2  501    0  0.35690270096E+02  0.21813637208E+02  0.11694401994E+03  0.12419957306E+03  0.00000000000E+00 0. -1.
<scales pt_clust_5="13000.00000" pt_clust_6="13000.00000" pt_clust_7="13000.00000" pt_clust_8="13000.00000" pt_clust_9="41.82858"></scales>
<clustering>
<clus scale="   41.829">  1  9  2 -1</clus>
<clus scale="   81.681">  5  6 -1 -1</clus>
<clus scale="   84.031">  1  5  2 -1</clus>
<clus scale="   92.701">  7  8 -1 -1</clus>
<clus scale="   41.829">  1  5  2 -1</clus>
</clustering>
</event>
<event>
 9    2  0.1033155E-004  0.9603936E+02  0.7546771E-02  0.1296008E+00
         21   -1    0    0  501  502  0.00000000000E+00  0.00000000000E+00  0.50248038494E+02  0.50248038494E+02  0.00000000000E+00 0.  1.
          4   -1    0    0  502    0 -0.00000000000E+00 -0.00000000000E+00 -0.68599379034E+03  0.68599379034E+03  0.00000000000E+00 0. -1.
         24    2    1    2    0    0 -0.13654070464E+02  0.13789025592E+02 -0.60642170846E+03  0.61225000371E+03  0.82013460383E+02 0.  0.
         23    2    1    2    0    0 -0.80695658841E+01 -0.11456763021E+02 -0.11907051398E+02  0.96050682790E+02  0.94273965012E+02 0.  0.
        -11    1    3    3    0    0  0.13166931009E+02  0.34417291151E+02 -0.14571014268E+03  0.15029758376E+03  0.00000000000E+00 0.  1.
         12    1    3    3    0    0 -0.26821001472E+02 -0.20628265559E+02 -0.46071156578E+03  0.46195241996E+03  0.00000000000E+00 0. -1.
        -13    1    4    4    0    0  0.17849108952E+02 -0.46821528512E+02 -0.14393274531E+02  0.52134562186E+02  0.00000000000E+00 0.  1.
         13    1    4    4    0    0 -0.25918674836E+02  0.35364765491E+02  0.24862231330E+01  0.43916120605E+02  0.00000000000E+00 0. -1.
          3    1    1    2  501    0  0.21723636348E+02 -0.23322625712E+01 -0.17416991978E+02  0.27941142325E+02  0.00000000000E+00 0. -1.
<scales pt_clust_5="13000.00000" pt_clust_6="13000.00000" pt_clust_7="13000.00000" pt_clust_8="13000.00000" pt_clust_9="21.84847"></scales>
<clustering>
<clus scale="   21.848">  1  9  2 -1</clus>
<clus scale="   82.013">  5  6 -1 -1</clus>
<clus scale="   84.037">  2  5  1 -1</clus>
<clus scale="   94.274">  7  8 -1 -1</clus>
<clus scale="   21.848">  1  5  2 -1</clus>
</clustering>
</event>
<event>
 9    2  0.1033155E-004  0.1165821E+03  0.7546771E-02  0.1252302E+00
          2   -1    0    0  502    0 -0.00000000000E+00  0.00000000000E+00  0.12776242065E+04  0.12776242065E+04  0.00000000000E+00 0. -1.
         21   -1    0    0  501  502  0.00000000000E+00 -0.00000000000E+00 -0.31478467601E+02  0.31478467601E+02  0.00000000000E+00 0. -1.
         24    2    1    2    0    0  0.68245313650E+02  0.14964602530E+02  0.82755294308E+03  0.83438118149E+03  0.80415920436E+02 0.  0.
         23    2    1    2    0    0 -0.10459512912E+03  0.26526567225E+02  0.17365549767E+03  0.22364957806E+03  0.90659263674E+02 0.  0.
        -11    1    3    3    0    0  0.37478256641E+02 -0.27256926399E+02  0.23473268913E+03  0.23926344289E+03  0.00000000000E+00 0.  1.
         12    1    3    3    0    0  0.30767057009E+02  0.42221528929E+02  0.59282025395E+03  0.59511773860E+03  0.00000000000E+00 0. -1.
        -13    1    4    4    0    0 -0.44363679535E+02  0.20871121506E+01  0.14670985214E+03  0.15328493995E+03  0.00000000000E+00 0.  1.
         13    1    4    4    0    0 -0.60231449587E+02  0.24439455074E+02  0.26945645528E+02  0.70364638112E+02  0.00000000000E+00 0. -1.
          1    1    1    2  501    0  0.36349815472E+02 -0.41491169755E+02  0.24493729814E+03  0.25107191454E+03  0.00000000000E+00 0. -1.
<scales pt_clust_5="13000.00000" pt_clust_6="13000.00000" pt_clust_7="13000.00000" pt_clust_8="13000.00000" pt_clust_9="55.16185"></scales>
<clustering>
<clus scale="   55.162">  2  9  1 -1</clus>
<clus scale="   80.416">  5  6 -1 -1</clus>
<clus scale="   90.659">  7  8 -1 -1</clus>
<clus scale="  108.807">  1  5  2 -1</clus>
<clus scale="   55.162">  2  5  1 -1</clus>
</clustering>
</event>
<event>
 9    2  0.1033155E-004  0.1657078E+03  0.7546771E-02  0.1183316E+00
         21   -1    0    0  501  502  0.00000000000E+00  0.00000000000E+00  0.16910957247E+03  0.16910957247E+03  0.00000000000E+00 0.  1.
          2   -1    0    0  502    0 -0.00000000000E+00 -0.00000000000E+00 -0.28905562504E+03  0.28905562504E+03  0.00000000000E+00 0. -1.
         24    2    1    2    0    0 -0.43658577955E+02 -0.14670100531E+03 -0.19228614756E+03  0.25884333954E+03  0.81232108777E+02 0.  0.
         23    2    1    2    0    0  0.48512236601E+02  0.11180745914E+03  0.32821716452E+02  0.14638019377E+03  0.74131983910E+02 0.  0.
        -11    1    3    3    0    0 -0.63816301091E+02 -0.98608743961E+02 -0.15617501887E+03  0.19541453679E+03  0.00000000000E+00 0.  1.
         12    1    3    3    0    0  0.20157723136E+02 -0.48092261344E+02 -0.36111128686E+02  0.63428802749E+02  0.00000000000E+00 0. -1.
        -11    1    4    4    0    0 -0.13481005773E+02  0.15006936767E+02  0.23620654501E+02  0.31062533490E+02  0.00000000000E+00 0.  1.
         11    1    4    4    0    0  0.61993242374E+02  0.96800522372E+02  0.92010619504E+01  0.11531766028E+03  0.00000000000E+00 0. -1.
          1    1    1    2  501    0 -0.48536586454E+01  0.34893546167E+02  0.39518378535E+02  0.52941664201E+02  0.00000000000E+00 0. -1.
<scales pt_clust_5="13000.00000" pt_clust_6="13000.00000" pt_clust_7="13000.00000" pt_clust_8="13000.00000" pt_clust_9="35.22950"></scales>
<clustering>
<clus scale="   35.229">  1  9  2 -1</clus>
<clus scale="   74.132">  7  8 -1 -1</clus>
<clus scale="   81.232">  5  6 -1 -1</clus>
<clus scale="  162.345">  1  7  2 -1</clus>
<clus scale="   35.229">  1  5  2 -1</clus>
</clustering>
</event>
<event>
 9    2  0.1033155E-004  0.1505681E+03  0.7546771E-02  0.1201842E+00
         21   -1    0    0  501  502  0.00000000000E+00  0.00000000000E+00  0.24464923973E+02  0.24464923973E+02  0.00000000000E+00 0.  1.
          2   -1    0    0  502    0 -0.00000000000E+00 -0.00000000000E+00 -0.12036846711E+04  0.12036846711E+04  0.00000000000E+00 0. -1.
         24    2    1    2    0    0 -0.56614164836E+01  0.11517061672E+03 -0.49312663103E+03  0.51273700184E+03  0.80181271123E+02 0.  0.
         23    2    1    2    0    0  0.49359014655E+02 -0.11894648185E+03 -0.50791433046E+03  0.53191486329E+03  0.91497960761E+02 0.  0.
        -11    1    3    3    0    0  0.27567360591E+02  0.94235572101E+02 -0.39553647002E+03  0.40754067470E+03  0.00000000000E+00 0.  1.
         12    1    3    3    0    0 -0.33228777074E+02  0.20935044622E+02 -0.97590161004E+02  0.10519632714E+03  0.00000000000E+00 0. -1.
        -11    1    4    4    0    0  0.74254879044E+02 -0.77184893992E+02 -0.38820872475E+03  0.40271243946E+03  0.00000000000E+00 0. -1.
         11    1    4    4    0    0 -0.24895864390E+02 -0.41761587854E+02 -0.11970560571E+03  0.12920242383E+03  0.00000000000E+00 0.  1.
          1    1    1    2  501    0 -0.43697598171E+02  0.37758651240E+01 -0.17817878562E+03  0.18349772992E+03  0.00000000000E+00 0. -1.
<scales pt_clust_5="13000.00000" pt_clust_6="13000.00000" pt_clust_7="13000.00000" pt_clust_8="13000.00000" pt_clust_9="43.86045"></scales>
<clustering>
<clus scale="   43.860">  1  9  2 -1</clus>
<clus scale="   80.181">  5  6 -1 -1</clus>
<clus scale="   91.498">  7  8 -1 -1</clus>
<clus scale="  143.972">  2  5  1 -1</clus>
<clus scale="   43.860">  1  5  2 -1</clus>
</clustering>
</event>
<event>
 9    2  0.1033155E-004  0.9995603E+02  0.7546771E-02  0.1285331E+00
          2   -1    0    0  502    0 -0.00000000000E+00  0.00000000000E+00  0.88496689014E+03  0.88496689014E+03  0.00000000000E+00 0. -1.
         21   -1    0    0  501  502  0.00000000000E+00 -0.00000000000E+00 -0.37549823551E+02  0.37549823551E+02  0.00000000000E+00 0.  1.
         24    2    1    2    0    0 -0.10245405028E+02  0.37198448299E+02  0.70599707954E+03  0.71180325473E+03  0.82117624395E+02 0.  0.
         23    2    1    2    0    0  0.37680974119E+02 -0.32850758127E+02  0.14886030105E+03  0.18195635317E+03  0.91922234029E+02 0.  0.
        -13    1    3    3    0    0  0.12216501162E+02 -0.22404721859E+02  0.14817164291E+03  0.15035308519E+03  0.00000000000E+00 0.  1.
         14    1    3    3    0    0 -0.22461906190E+02  0.59603170159E+02  0.55782543663E+03  0.56145016954E+03  0.00000000000E+00 0. -1.
        -13    1    4    4    0    0  0.26596580318E+02  0.24034590537E+02  0.99736203398E+02  0.10598278113E+03  0.00000000000E+00 0. -1.
         13    1    4    4    0    0  0.11084393802E+02 -0.56885348664E+02  0.49124097651E+02  0.75973572041E+02  0.00000000000E+00 0.  1.
          1    1    1    2  501    0 -0.27435569092E+02 -0.43476901727E+01 -0.74403140052E+01  0.28757105795E+02  0.00000000000E+00 0. -1.
<scales pt_clust_5="13000.00000" pt_clust_6="13000.00000" pt_clust_7="13000.00000" pt_clust_8="13000.00000" pt_clust_9="27.77792"></scales>
<clustering>
<clus scale="   27.778">  2  9  1 -1</clus>
<clus scale="   82.118">  5  6 -1 -1</clus>
<clus scale="   91.021">  1  5  2 -1</clus>
<clus scale="   91.922">  7  8 -1 -1</clus>
<clus scale="   27.778">  2  5  1 -1</clus>
</clustering>
</event>
<event>
 9    2  0.1033155E-004  0.2704078E+03  0.7546771E-02  0.1131283E+00
          2   -1    0    0  502    0 -0.00000000000E+00  0.00000000000E+00  0.12026762200E+04  0.12026762200E+04  0.00000000000E+00 0. -1.
         21   -1    0    0  501  502  0.00000000000E+00 -0.00000000000E+00 -0.13635805899E+03  0.13635805899E+03  0.00000000000E+00 0. -1.
         23    2    1    2    0    0  0.28081223629E+02  0.83754204389E+02 -0.18929106238E+02  0.12766264686E+03  0.90200434958E+02 0.  0.
         24    2    1    2    0    0 -0.22530382068E+03 -0.19735973236E+03  0.60608371482E+03  0.68089950397E+03  0.81080142886E+02 0.  0.
        -11    1    4    4    0    0 -0.65529856862E+02 -0.28457283533E+02  0.20759087326E+03  0.21954031472E+03  0.00000000000E+00 0.  1.
         12    1    4    4    0    0 -0.15977396382E+03 -0.16890244882E+03  0.39849284156E+03  0.46135918925E+03  0.00000000000E+00 0. -1.
        -11    1    3    3    0    0  0.51278495857E+02  0.14974600951E+02 -0.11960073168E+02  0.54742727016E+02  0.00000000000E+00 0.  1.
         11    1    3    3    0    0 -0.23197272228E+02  0.68779603438E+02 -0.69690330703E+01  0.72919919842E+02  0.00000000000E+00 0. -1.
          1    1    1    2  501    0  0.19722259705E+03  0.11360552797E+03  0.47916355247E+03  0.53047212819E+03  0.00000000000E+00 0. -1.
<scales pt_clust_5="13000.00000" pt_clust_6="13000.00000" pt_clust_7="13000.00000" pt_clust_8="13000.00000" pt_clust_9="257.96587"></scales>
<clustering>
<clus scale="   81.080">  5  6 -1 -1</clus>
<clus scale="   90.200">  7  8 -1 -1</clus>
<clus scale="  126.252">  1  7  2 -1</clus>
<clus scale="  257.966">  2  9  1 -1</clus>
<clus scale="  257.966">  2  5  1 -1</clus>
</clustering>
</event>
<event>
 9    2  0.1033155E-004  0.1362478E+03  0.7546771E-02  0.1234863E+00
         21   -1    0    0  501  502  0.00000000000E+00  0.00000000000E+00  0.31526537396E+02  0.31526537396E+02  0.00000000000E+00 0. -1.
          4   -1    0    0  502    0 -0.00000000000E+00 -0.00000000000E+00 -0.10745001184E+04  0.10745001184E+04  0.00000000000E+00 0. -1.
         24    2    1    2    0    0  0.43845349112E+02  0.30344126281E+02 -0.48406706487E+03  0.49367766332E+03  0.80953883950E+02 0.  0.
         23    2    1    2    0    0  0.84304969788E+02 -0.74432565418E+01 -0.28650284174E+03  0.31043722410E+03  0.84407711613E+02 0.  0.
        -11    1    3    3    0    0  0.67296720954E+02  0.29373744455E+02 -0.37258095485E+03  0.37974759174E+03  0.00000000000E+00 0.  1.
         12    1    3    3    0    0 -0.23451371842E+02  0.97038182576E+00 -0.11148611002E+03  0.11393007158E+03  0.00000000000E+00 0. -1.
        -11    1    4    4    0    0  0.17901397250E+02 -0.34322719919E+02 -0.16417219959E+03  0.16867430226E+03  0.00000000000E+00 0.  1.
         11    1    4    4    0    0  0.66403572538E+02  0.26879463377E+02 -0.12233064216E+03  0.14176292184E+03  0.00000000000E+00 0. -1.
          3    1    1    2  501    0 -0.12815031890E+03 -0.22900869739E+02 -0.27240367444E+03  0.30191176843E+03  0.00000000000E+00 0. -1.
<scales pt_clust_5="13000.00000" pt_clust_6="13000.00000" pt_clust_7="13000.00000" pt_clust_8="13000.00000" pt_clust_9="106.95243"></scales>
<clustering>
<clus scale="   80.954">  5  6 -1 -1</clus>
<clus scale="   84.408">  7  8 -1 -1</clus>
<clus scale="   96.937">  2  5  1 -1</clus>
<clus scale="  106.952">  1  9  2 -1</clus>
<clus scale="  106.952">  1  5  2 -1</clus>
</clustering>
</event>
<event>
 9    2  0.1033155E-004  0.9475529E+02  0.7546771E-02  0.1297327E+00
         21   -1    0    0  501  502  0.00000000000E+00  0.00000000000E+00  0.36290982905E+02  0.36290982905E+02  0.00000000000E+00 0. -1.
          2   -1    0    0  502    0 -0.00000000000E+00 -0.00000000000E+00 -0.10502648247E+04  0.10502648247E+04  0.00000000000E+00 0. -1.
         24    2    1    2    0    0 -0.21410791188E+02 -0.88267099981E+01 -0.84789734944E+03  0.85215720341E+03  0.81888041515E+02 0.  0.
         23    2    1    2    0    0  0.97904399333E+01  0.60533024446E+02 -0.93635120010E+02  0.14464155465E+03  0.91616286043E+02 0.  0.
        -13    1    3    3    0    0  0.25454213052E+02 -0.76005603073E+01 -0.12760374790E+03  0.13033956405E+03  0.00000000000E+00 0.  1.
         14    1    3    3    0    0 -0.46865004240E+02 -0.12261496908E+01 -0.72029360154E+03  0.72181763935E+03  0.00000000000E+00 0. -1.
        -13    1    4    4    0    0 -0.25578663962E+02  0.69228919674E+02 -0.61461585450E+02  0.96043937109E+02  0.00000000000E+00 0. -1.
         13    1    4    4    0    0  0.35369103895E+02 -0.86958952278E+01 -0.32173534560E+02  0.48597617537E+02  0.00000000000E+00 0.  1.
          1    1    1    2  501    0  0.11620351255E+02 -0.51706314448E+02 -0.72441372344E+02  0.89757049552E+02  0.00000000000E+00 0. -1.
<scales pt_clust_5="13000.00000" pt_clust_6="13000.00000" pt_clust_7="13000.00000" pt_clust_8="13000.00000" pt_clust_9="52.99600"></scales>
<clustering>
<clus scale="   52.996">  1  9  2 -1</clus>
<clus scale="   81.888">  5  6 -1 -1</clus>
<clus scale="   85.385">  2  5  1 -1</clus>
<clus scale="   91.616">  7  8 -1 -1</clus>
<clus scale="   52.996">  1  5  2 -1</clus>
</clustering>
</event>
<event>
 9    2  0.1033155E-004  0.1124712E+03  0.7546771E-02  0.1272209E+00
         21   -1    0    0  501  502  0.00000000000E+00  0.00000000000E+00  0.15634766680E+03  0.15634766680E+03  0.00000000000E+00 0.  1.
          2   -1    0    0  502    0 -0.00000000000E+00 -0.00000000000E+00 -0.13237278884E+03  0.13237278884E+03  0.00000000000E+00 0. -1.
         23    2    1    2    0    0 -0.29415474360E+02 -0.17849919233E+02  0.29670669425E+02  0.11935222945E+03  0.11036628245E+03 0.  0.
         24    2    1    2    0    0 -0.15383067662E+02  0.23173511966E+02  0.50023315433E+02  0.97675347333E+02  0.79148537334E+02 0.  0.
        -13    1    4    4    0    0  0.26588997698E+02 -0.11960814162E+02  0.17693392229E+02  0.34104134685E+02  0.00000000000E+00 0.  1.
         14    1    4    4    0    0 -0.41972065360E+02  0.35134326129E+02  0.32329923205E+02  0.63571212648E+02  0.00000000000E+00 0. -1.
        -13    1    3    3    0    0 -0.48238655579E+02 -0.28810440882E+02 -0.24250960178E+02  0.61197373028E+02  0.00000000000E+00 0. -1.
         13    1    3    3    0    0  0.18823181219E+02  0.10960521650E+02  0.53921629603E+02  0.58154856419E+02  0.00000000000E+00 0.  1.
          1    1    1    2  501    0  0.44798542022E+02 -0.53235927338E+01 -0.55719106892E+02  0.71692878863E+02  0.00000000000E+00 0. -1.
<scales pt_clust_5="13000.00000" pt_clust_6="13000.00000" pt_clust_7="13000.00000" pt_clust_8="13000.00000" pt_clust_9="45.11377"></scales>
<clustering>
<clus scale="   45.114">  1  9  2 -1</clus>
<clus scale="   79.149">  5  6 -1 -1</clus>
<clus scale="   82.058">  1  5  2 -1</clus>
<clus scale="  110.366">  7  8 -1 -1</clus>
<clus scale="   45.114">  1  5  2 -1</clus>
</clustering>
</event>
<event>
 9    2  0.1033155E-004  0.1072772E+03  0.7546771E-02  0.1279060E+00
          2   -1    0    0  502    0 -0.00000000000E+00  0.00000000000E+00  0.31334346396E+03  0.31334346396E+03  0.00000000000E+00 0. -1.
         21   -1    0    0  501  502  0.00000000000E+00 -0.00000000000E+00 -0.54854578655E+02  0.54854578655E+02  0.00000000000E+00 0. -1.
         24    2    1    2    0    0  0.32073808611E+01  0.36349641371E+01  0.79573429604E+02  0.11334899761E+03  0.80576450056E+02 0.  0.
         23    2    1    2    0    0 -0.48256060895E+02  0.22091640075E+02  0.78380075366E+02  0.14171812776E+03  0.10546991774E+03 0.  0.
        -13    1    3    3    0    0 -0.36859235748E+02  0.58252407153E+01  0.22478790651E+02  0.43564121918E+02  0.00000000000E+00 0.  1.
         14    1    3    3    0    0  0.40066616609E+02 -0.21902765782E+01  0.57094638953E+02  0.69784875691E+02  0.00000000000E+00 0. -1.
        -13    1    4    4    0    0  0.62713064956E+01 -0.19696603951E+02  0.69426678840E+02  0.72438589351E+02  0.00000000000E+00 0.  1.
         13    1    4    4    0    0 -0.54527367391E+02  0.41788244026E+02  0.89533965257E+01  0.69279538413E+02  0.00000000000E+00 0. -1.
          1    1    1    2  501    0  0.45048680034E+02 -0.25726604213E+02  0.10053538033E+03  0.11313091724E+03  0.00000000000E+00 0. -1.
<scales pt_clust_5="13000.00000" pt_clust_6="13000.00000" pt_clust_7="13000.00000" pt_clust_8="13000.00000" pt_clust_9="51.87721"></scales>
<clustering>
<clus scale="   51.877">  2  9  1 -1</clus>
<clus scale="   80.576">  5  6 -1 -1</clus>
<clus scale="   82.928">  1  5  2 -1</clus>
<clus scale="  105.470">  7  8 -1 -1</clus>
<clus scale="   51.877">  2  5  1 -1</clus>
</clustering>
</event>
<event>
 9    2  0.1033155E-004  0.9422853E+02  0.7546771E-02  0.1303901E+00
         21   -1    0    0  501  502  0.00000000000E+00  0.00000000000E+00  0.39470553795E+03  0.39470553795E+03  0.00000000000E+00 0.  1.
          2   -1    0    0  502    0 -0.00000000000E+00 -0.00000000000E+00 -0.44738531403E+03  0.44738531403E+03  0.00000000000E+00 0. -1.
         24    2    1    2    0    0  0.17619925625E+02 -0.20991602530E+02 -0.36548457247E+03  0.37398042357E+03  0.74372544299E+02 0.  0.
         23    2    1    2    0    0  0.36431873266E+02 -0.31487699506E+02 -0.36938028351E+02  0.11034553694E+03  0.92157273039E+02 0.  0.
        -11    1    3    3    0    0  0.38389547032E+02  0.11203078024E+02 -0.15758876121E+03  0.16258377513E+03  0.00000000000E+00 0.  1.
         12    1    3    3    0    0 -0.20769621407E+02 -0.32194680555E+02 -0.20789581127E+03  0.21139664844E+03  0.00000000000E+00 0. -1.
        -11    1    4    4    0    0  0.38954653839E+02 -0.10660361303E+02 -0.64260204676E+02  0.75897840969E+02  0.00000000000E+00 0. -1.
         11    1    4    4    0    0 -0.25227805726E+01 -0.20827338203E+02  0.27322176325E+02  0.34447695969E+02  0.00000000000E+00 0.  1.
          1    1    1    2  501    0 -0.54051798891E+02  0.52479302036E+02  0.34974282474E+03  0.35776489147E+03  0.00000000000E+00 0. -1.
<scales pt_clust_5="13000.00000" pt_clust_6="13000.00000" pt_clust_7="13000.00000" pt_clust_8="13000.00000" pt_clust_9="75.33707"></scales>
<clustering>
<clus scale="   74.373">  5  6 -1 -1</clus>
<clus scale="   75.337">  1  9  2 -1</clus>
<clus scale="   76.924">  2  5  1 -1</clus>
<clus scale="   92.157">  7  8 -1 -1</clus>
<clus scale="   75.337">  1  5  2 -1</clus>
</clustering>
</event>
<event>
 9    2  0.1033155E-004  0.8599632E+02  0.7546771E-02  0.1314716E+00
          2   -1    0    0  502    0 -0.00000000000E+00  0.00000000000E+00  0.47744245793E+02  0.47744245793E+02  0.00000000000E+00 0. -1.
         21   -1    0    0  501  502  0.00000000000E+00 -0.00000000000E+00 -0.24835397237E+03  0.24835397237E+03  0.00000000000E+00 0.  1.
         23    2    1    2    0    0 -0.21990018325E+02  0.34821305619E+02 -0.83547957143E+02  0.12479243863E+03  0.83047019012E+02 0.  0.
         24    2    1    2    0    0  0.90774094482E+01  0.41418176828E+01 -0.95168708714E+02  0.12478517599E+03  0.80091841115E+02 0.  0.
        -13    1    4    4    0    0  0.40147600335E+02  0.20853975883E+02 -0.57696179687E+02  0.73318260162E+02  0.00000000000E+00 0.  1.
         14    1    4    4    0    0 -0.31070190886E+02 -0.16712158200E+02 -0.37472529027E+02  0.51466915830E+02  0.00000000000E+00 0. -1.
        -11    1    3    3    0    0 -0.23307748156E+02 -0.56260555025E+01  0.75272483362E+01  0.25130919047E+02  0.00000000000E+00 0. -1.
         11    1    3    3    0    0  0.13177298308E+01  0.40447361121E+02 -0.91075205479E+02  0.99661519588E+02  0.00000000000E+00 0.  1.
          1    1    1    2  501    0  0.12912608877E+02 -0.38963123302E+02 -0.21893060718E+02  0.46520603533E+02  0.00000000000E+00 0. -1.
<scales pt_clust_5="13000.00000" pt_clust_6="13000.00000" pt_clust_7="13000.00000" pt_clust_8="13000.00000" pt_clust_9="41.04707"></scales>
<clustering>
<clus scale="   41.047">  2  9  1 -1</clus>
<clus scale="   80.092">  5  6 -1 -1</clus>
<clus scale="   83.047">  7  8 -1 -1</clus>
<clus scale="   83.146">  2  5  1 -1</clus>
<clus scale="   41.047">  2  5  1 -1</clus>
</clustering>
</event>
<event>
 9    2  0.1033155E-004  0.7129779E+02  0.7546771E-02  0.1356842E+00
          2   -1    0    0  502    0 -0.00000000000E+00  0.00000000000E+00  0.13107955872E+03  0.13107955872E+03  0.00000000000E+00 0. -1.
         21   -1    0    0  501  502  0.00000000000E+00 -0.00000000000E+00 -0.26660491259E+03  0.26660491259E+03  0.00000000000E+00 0.  1.
         24    2    1    2    0    0 -0.12023690981E+02  0.15669935877E+02  0.10707835066E+03  0.12788521409E+03  0.67072637996E+02 0.  0.
         23    2    1    2    0    0 -0.10635645452E+02 -0.34142526530E+02 -0.11254006492E+03  0.13649047102E+03  0.68451102213E+02 0.  0.
        -13    1    3    3    0    0 -0.17696345023E+02 -0.18065630376E+02  0.14414724768E+02  0.29108622746E+02  0.00000000000E+00 0.  1.
         14    1    3    3    0    0  0.56726540413E+01  0.33735566253E+02  0.92663625890E+02  0.98776591343E+02  0.00000000000E+00 0. -1.
        -11    1    4    4    0    0 -0.36620964533E+02 -0.11040726776E+02 -0.80870778635E+02  0.89459910173E+02  0.00000000000E+00 0.  1.
         11    1    4    4    0    0  0.25985319081E+02 -0.23101799754E+02 -0.31669286288E+02  0.47030560847E+02  0.00000000000E+00 0. -1.
          1    1    1    2  501    0  0.22659336433E+02  0.18472590654E+02 -0.13006363960E+03  0.13330878621E+03  0.00000000000E+00 0. -1.
<scales pt_clust_5="13000.00000" pt_clust_6="13000.00000" pt_clust_7="13000.00000" pt_clust_8="13000.00000" pt_clust_9="29.23495"></scales>
<clustering>
<clus scale="   29.235">  2  9  1 -1</clus>
<clus scale="   67.073">  5  6 -1 -1</clus>
<clus scale="   68.451">  7  8 -1 -1</clus>
<clus scale="   69.975">  1  5  2 -1</clus>
<clus scale="   29.235">  2  5  1 -1</clus>
</clustering>
</event>
<event>
 9    2  0.1033155E-004  0.1208114E+03  0.7546771E-02  0.1245362E+00
         21   -1    0    0  501  502  0.00000000000E+00  0.00000000000E+00  0.12176380864E+03  0.12176380864E+03  0.00000000000E+00 0.  1.
          2   -1    0    0  502    0 -0.00000000000E+00 -0.00000000000E+00 -0.16404889722E+03  0.16404889722E+03  0.00000000000E+00 0. -1.
         24    2    1    2    0    0 -0.82026565685E+02  0.21401096730E+02 -0.60769442026E+02  0.13109511100E+03  0.79414347726E+02 0.  0.
         23    2    1    2    0    0  0.73168735070E+02  0.18544175582E+01 -0.96251557217E+01  0.11717529054E+03  0.90996167139E+02 0.  0.
        -13    1    3    3    0    0 -0.86937336644E+02  0.29828559701E+02 -0.26780345427E+02  0.95734165154E+02  0.00000000000E+00 0.  1.
         14    1    3    3    0    0  0.49107709586E+01 -0.84274629712E+01 -0.33989096599E+02  0.35360945846E+02  0.00000000000E+00 0. -1.
        -13    1    4    4    0    0  0.41151487922E+02  0.45795962575E+02  0.19012122462E+01  0.61598131095E+02  0.00000000000E+00 0.  1.
         13    1    4    4    0    0  0.32017247148E+02 -0.43941545016E+02 -0.11526367968E+02  0.55577159444E+02  0.00000000000E+00 0. -1.
          1    1    1    2  501    0  0.88578306150E+01 -0.23255514288E+02  0.28109509168E+02  0.37542304320E+02  0.00000000000E+00 0. -1.
<scales pt_clust_5="13000.00000" pt_clust_6="13000.00000" pt_clust_7="13000.00000" pt_clust_8="13000.00000" pt_clust_9="24.88534"></scales>
<clustering>
<clus scale="   24.885">  1  9  2 -1</clus>
<clus scale="   79.414">  5  6 -1 -1</clus>
<clus scale="   90.996">  7  8 -1 -1</clus>
<clus scale="  112.347">  2  5  1 -1</clus>
<clus scale="   24.885">  1  5  2 -1</clus>
</clustering>
</event>
<event>
 9    2  0.1033155E-004  0.9508508E+02  0.7546771E-02  0.1298728E+00
          2   -1    0    0  502    0 -0.00000000000E+00  0.00000000000E+00  0.30532741287E+03  0.30532741287E+03  0.00000000000E+00 0. -1.
         21   -1    0    0  501  502  0.00000000000E+00 -0.00000000000E+00 -0.17195033246E+03  0.17195033246E+03  0.00000000000E+00 0. -1.
         24    2    1    2    0    0 -0.56666767331E+01  0.11799425254E+02  0.23558015683E+03  0.24931672072E+03  0.80557304310E+02 0.  0.
         23    2    1    2    0    0 -0.25594640549E+02 -0.60931100850E+02 -0.49959739822E+01  0.11464548167E+03  0.93546469926E+02 0.  0.
        -11    1    3    3    0    0  0.80843083525E+01  0.38218006561E+02  0.19559935830E+03  0.19946197892E+03  0.00000000000E+00 0.  1.
         12    1    3    3    0    0 -0.13750985086E+02 -0.26418581307E+02  0.39980798534E+02  0.49854741806E+02  0.00000000000E+00 0. -1.
        -11    1    4    4    0    0 -0.36878133491E+02 -0.81709734485E+02  0.29683887363E+01  0.89695533730E+02  0.00000000000E+00 0. -1.
         11    1    4    4    0    0  0.11283492942E+02  0.20778633635E+02 -0.79643627185E+01  0.24949947940E+02  0.00000000000E+00 0.  1.
          1    1    1    2  501    0  0.31261317282E+02  0.49131675597E+02 -0.97207102443E+02  0.11331554293E+03  0.00000000000E+00 0. -1.
<scales pt_clust_5="13000.00000" pt_clust_6="13000.00000" pt_clust_7="13000.00000" pt_clust_8="13000.00000" pt_clust_9="58.23394"></scales>
<clustering>
<clus scale="   58.234">  2  9  1 -1</clus>
<clus scale="   80.557">  5  6 -1 -1</clus>
<clus scale="   82.339">  1  5  2 -1</clus>
<clus scale="   93.546">  7  8 -1 -1</clus>
<clus scale="   58.234">  2  5  1 -1</clus>
</clustering>
</event>
<event>
 9    2  0.1033155E-004  0.1251358E+03  0.7546771E-02  0.1238976E+00
          4   -1    0    0  502    0 -0.00000000000E+00  0.00000000000E+00  0.26740972067E+03  0.26740972067E+03  0.00000000000E+00 0. -1.
         21   -1    0    0  501  502  0.00000000000E+00 -0.00000000000E+00 -0.16668982061E+03  0.16668982061E+03  0.00000000000E+00 0. -1.
         24    2    1    2    0    0 -0.67460375057E+02  0.68787578952E+02  0.50444921591E+02  0.13531723867E+03  0.80519759972E+02 0.  0.
         23    2    1    2    0    0  0.18283773829E+02 -0.40937097099E+02 -0.96048122687E+02  0.14192428599E+03  0.94377533223E+02 0.  0.
        -13    1    3    3    0    0  0.13563909566E+02  0.33773393083E+02  0.75079340612E+01  0.37161684527E+02  0.00000000000E+00 0.  1.
         14    1    3    3    0    0 -0.81024284623E+02  0.35014185869E+02  0.42936987530E+02  0.98155554142E+02  0.00000000000E+00 0. -1.
        -11    1    4    4    0    0 -0.21525694543E+02 -0.20830917795E+02 -0.92448706756E+02  0.97180481799E+02  0.00000000000E+00 0. -1.
         11    1    4    4    0    0  0.39809468372E+02 -0.20106179304E+02 -0.35994159301E+01  0.44743804189E+02  0.00000000000E+00 0.  1.
          3    1    1    2  501    0  0.49176601228E+02 -0.27850481853E+02  0.14632310115E+03  0.15685801662E+03  0.00000000000E+00 0. -1.
<scales pt_clust_5="13000.00000" pt_clust_6="13000.00000" pt_clust_7="13000.00000" pt_clust_8="13000.00000" pt_clust_9="56.51540"></scales>
<clustering>
<clus scale="   56.515">  2  9  1 -1</clus>
<clus scale="   80.520">  5  6 -1 -1</clus>
<clus scale="   94.378">  7  8 -1 -1</clus>
<clus scale="  115.045">  1  5  2 -1</clus>
<clus scale="   56.515">  2  5  1 -1</clus>
</clustering>
</event>
<event>
 9    2  0.1033155E-004  0.9779701E+02  0.7546771E-02  0.1291379E+00
         21   -1    0    0  501  502  0.00000000000E+00  0.00000000000E+00  0.55666226107E+02  0.55666226107E+02  0.00000000000E+00 0. -1.
          2   -1    0    0  502    0 -0.00000000000E+00 -0.00000000000E+00 -0.60400568629E+03  0.60400568629E+03  0.00000000000E+00 0. -1.
         24    2    1    2    0    0  0.43230423676E+02 -0.71599171687E+00 -0.45602490892E+03  0.46509477881E+03  0.80529830125E+02 0.  0.
         23    2    1    2    0    0  0.11734264884E+02  0.62524623602E+01 -0.10229796250E+03  0.13843946356E+03  0.92324567057E+02 0.  0.
        -11    1    3    3    0    0 -0.23966462797E+02 -0.14957591044E+01 -0.13363858451E+03  0.13577886398E+03  0.00000000000E+00 0.  1.
         12    1    3    3    0    0  0.67196886472E+02  0.77976738756E+00 -0.32238632441E+03  0.32931591482E+03  0.00000000000E+00 0. -1.
        -11    1    4    4    0    0  0.40141028308E+02  0.92061588816E+00 -0.10190954646E+03  0.10953403739E+03  0.00000000000E+00 0. -1.
         11    1    4    4    0    0 -0.28406763425E+02  0.53318464721E+01 -0.38841603553E+00  0.28905426170E+02  0.00000000000E+00 0.  1.
          1    1    1    2  501    0 -0.54964688559E+02 -0.55364706433E+01  0.99834112431E+01  0.56137670023E+02  0.00000000000E+00 0. -1.
<scales pt_clust_5="13000.00000" pt_clust_6="13000.00000" pt_clust_7="13000.00000" pt_clust_8="13000.00000" pt_clust_9="55.24282"></scales>
<clustering>
<clus scale="   55.243">  1  9  2 -1</clus>
<clus scale="   80.530">  5  6 -1 -1</clus>
<clus scale="   86.750">  2  5  1 -1</clus>
<clus scale="   92.325">  7  8 -1 -1</clus>
<clus scale="   55.243">  1  5  2 -1</clus>
</clustering>
</event>
<event>
 9    2  0.1033155E-004  0.1840597E+03  0.7546771E-02  0.1198142E+00
         21   -1    0    0  501  502  0.00000000000E+00  0.00000000000E+00  0.83005574947E+02  0.83005574947E+02  0.00000000000E+00 0.  1.
         -1   -1    0    0    0  501 -0.00000000000E+00 -0.00000000000E+00 -0.58693447006E+03  0.58693447006E+03  0.00000000000E+00 0.  1.
         24    2    1    2    0    0  0.19875808441E+02  0.31920785872E+00 -0.13853946389E+03  0.16275050043E+03  0.83062582898E+02 0.  0.
         23    2    1    2    0    0  0.11185366849E+03  0.10103931365E+03 -0.24699155172E+03  0.30312028466E+03  0.90315526302E+02 0.  0.
        -11    1    3    3    0    0 -0.27003151423E+02  0.24821996036E+01 -0.15890387365E+02  0.31429857019E+02  0.00000000000E+00 0.  1.
         12    1    3    3    0    0  0.46878959863E+02 -0.21629917449E+01 -0.12264907653E+03  0.13132064341E+03  0.00000000000E+00 0. -1.
        -13    1    4    4    0    0  0.14048000927E+02  0.37403851875E+02 -0.13721284049E+03  0.14291171422E+03  0.00000000000E+00 0. -1.
         13    1    4    4    0    0  0.97805667565E+02  0.63635461779E+02 -0.10977871123E+03  0.16020857044E+03  0.00000000000E+00 0.  1.
         -2    1    1    2    0  502 -0.13172947693E+03 -0.10135852151E+03 -0.11839787950E+03  0.20406925993E+03  0.00000000000E+00 0.  1.
<scales pt_clust_5="13000.00000" pt_clust_6="13000.00000" pt_clust_7="13000.00000" pt_clust_8="13000.00000" pt_clust_9="160.37796"></scales>
<clustering>
<clus scale="   83.063">  5  6 -1 -1</clus>
<clus scale="   85.408">  2  5  1 -1</clus>
<clus scale="   90.316">  7  8 -1 -1</clus>
<clus scale="  160.378">  1  9  2 -1</clus>
<clus scale="  160.378">  1  5  2 -1</clus>
</clustering>
</event>
<event>
 9    2  0.1033155E-004  0.9550371E+02  0.7546771E-02  0.1291141E+00
          4   -1    0    0  502    0 -0.00000000000E+00  0.00000000000E+00  0.40477983394E+03  0.40477983394E+03  0.00000000000E+00 0. -1.
         21   -1    0    0  501  502  0.00000000000E+00 -0.00000000000E+00 -0.55085920198E+02  0.55085920198E+02  0.00000000000E+00 0. -1.
         24    2    1    2    0    0 -0.35851813747E+02 -0.19504434892E+02  0.18374721089E+03  0.20982834858E+03  0.92731455443E+02 0.  0.
         23    2    1    2    0    0 -0.26068254467E+02 -0.42924308659E+01  0.30640580113E+02  0.99345227532E+02  0.90733953016E+02 0.  0.
        -11    1    3    3    0    0 -0.48030697069E+00  0.23960414953E+02  0.78467792224E+01  0.25217139483E+02  0.00000000000E+00 0.  1.
         12    1    3    3    0    0 -0.35371506776E+02 -0.43464849845E+02  0.17590043166E+03  0.18461120909E+03  0.00000000000E+00 0. -1.
        -13    1    4    4    0    0  0.32374866199E+02 -0.37980116173E+01  0.24093203287E+02  0.40534421154E+02  0.00000000000E+00 0.  1.
         13    1    4    4    0    0 -0.58443120666E+02 -0.49441924859E+00  0.65473768256E+01  0.58810806378E+02  0.00000000000E+00 0. -1.
          3    1    1    2  501    0  0.61920068214E+02  0.23796865757E+02  0.13530612274E+03  0.15069217803E+03  0.00000000000E+00 0. -1.
<scales pt_clust_5="13000.00000" pt_clust_6="13000.00000" pt_clust_7="13000.00000" pt_clust_8="13000.00000" pt_clust_9="66.33544"></scales>
<clustering>
<clus scale="   66.335">  2  9  1 -1</clus>
<clus scale="   90.734">  7  8 -1 -1</clus>
<clus scale="   92.731">  5  6 -1 -1</clus>
<clus scale="   93.565">  2  7  1 -1</clus>
<clus scale="   66.335">  2  5  1 -1</clus>
</clustering>
</event>
<event>
 9    2  0.1033155E-004  0.1020193E+03  0.7546771E-02  0.1280586E+00
          2   -1    0    0  502    0 -0.00000000000E+00  0.00000000000E+00  0.12415788280E+03  0.12415788280E+03  0.00000000000E+00 0. -1.
         21   -1    0    0  501  502  0.00000000000E+00 -0.00000000000E+00 -0.13175926799E+03  0.13175926799E+03  0.00000000000E+00 0. -1.
         24    2    1    2    0    0 -0.51179077694E+02 -0.30703392536E+02  0.13013193483E+02  0.10158705721E+03  0.81170134174E+02 0.  0.
         23    2    1    2    0    0  0.26112633768E+02  0.19479965468E+01 -0.49404020564E+02  0.10653855276E+03  0.90686501989E+02 0.  0.
        -11    1    3    3    0    0 -0.36605208934E+02 -0.11393168107E+02 -0.32358861675E+02  0.50168132610E+02  0.00000000000E+00 0.  1.
         12    1    3    3    0    0 -0.14573868760E+02 -0.19310224429E+02  0.45372055158E+02  0.51418924604E+02  0.00000000000E+00 0. -1.
        -11    1    4    4    0    0  0.22935553101E+02 -0.41912333285E+02 -0.13172383339E+02  0.49560013723E+02  0.00000000000E+00 0.  1.
         11    1    4    4    0    0  0.31770806675E+01  0.43860329832E+02 -0.36231637226E+02  0.56978539035E+02  0.00000000000E+00 0. -1.
          1    1    1    2  501    0  0.25066443926E+02  0.28755395989E+02  0.28789441888E+02  0.47791540818E+02  0.00000000000E+00 0. -1.
<scales pt_clust_5="13000.00000" pt_clust_6="13000.00000" pt_clust_7="13000.00000" pt_clust_8="13000.00000" pt_clust_9="38.14710"></scales>
<clustering>
<clus scale="   38.147">  2  9  1 -1</clus>
<clus scale="   81.170">  5  6 -1 -1</clus>
<clus scale="   90.687">  7  8 -1 -1</clus>
<clus scale="   93.662">  1  5  2 -1</clus>
<clus scale="   38.147">  2  5  1 -1</clus>
</clustering>
</event>
<event>
 9    2  0.1033155E-004  0.1633131E+03  0.7546771E-02  0.1190984E+00
         21   -1    0    0  501  502  0.00000000000E+00  0.00000000000E+00  0.12105179197E+03  0.12105179197E+03  0.00000000000E+00 0.  1.
          2   -1    0    0  502    0 -0.00000000000E+00 -0.00000000000E+00 -0.49587379958E+03  0.49587379958E+03  0.00000000000E+00 0. -1.
         24    2    1    2    0    0 -0.59251116922E+02 -0.10377646891E+03 -0.64407814552E+02  0.15687409943E+03  0.78618484714E+02 0.  0.
         23    2    1    2    0    0  0.88783996931E+02 -0.80307152411E+02 -0.10552409382E+03  0.18303358041E+03  0.89633254673E+02 0.  0.
        -13    1    3    3    0    0 -0.55540109465E+02 -0.10419372063E+03 -0.78834760599E+02  0.14197166850E+03  0.00000000000E+00 0.  1.
         14    1    3    3    0    0 -0.37110074576E+01  0.41725171295E+00  0.14426946047E+02  0.14902430929E+02  0.00000000000E+00 0. -1.
        -11    1    4    4    0    0  0.50839220333E+02  0.87657760889E+01 -0.47700010964E+02  0.70262053773E+02  0.00000000000E+00 0.  1.
         11    1    4    4    0    0  0.37944776598E+02 -0.89072928500E+02 -0.57824082854E+02  0.11277152664E+03  0.00000000000E+00 0. -1.
          1    1    1    2  501    0 -0.29532880008E+02  0.18408362133E+03 -0.20489009924E+03  0.27701791171E+03  0.00000000000E+00 0. -1.
<scales pt_clust_5="13000.00000" pt_clust_6="13000.00000" pt_clust_7="13000.00000" pt_clust_8="13000.00000" pt_clust_9="136.51766"></scales>
<clustering>
<clus scale="   78.618">  5  6 -1 -1</clus>
<clus scale="   89.633">  7  8 -1 -1</clus>
<clus scale="  143.042">  2  5  1 -1</clus>
<clus scale="  136.518">  1  9  2 -1</clus>
<clus scale="  136.518">  1  5  2 -1</clus>
</clustering>
</event>
<event>
 9    2  0.1033155E-004  0.1103748E+03  0.7546771E-02  0.1262245E+00
          4   -1    0    0  502    0 -0.00000000000E+00  0.00000000000E+00  0.35094822109E+03  0.35094822109E+03  0.00000000000E+00 0. -1.
         21   -1    0    0  501  502  0.00000000000E+00 -0.00000000000E+00 -0.75313493540E+02  0.75313493540E+02  0.00000000000E+00 0.  1.
         23    2    1    2    0    0 -0.35729360464E+02 -0.44771772685E+02  0.19337202164E+03  0.22098289837E+03  0.90330525241E+02 0.  0.
         24    2    1    2    0    0  0.80050980486E+02  0.46105743039E+02  0.16602880817E+02  0.12604878338E+03  0.84135254938E+02 0.  0.
        -11    1    4    4    0    0  0.96736937569E+02  0.32782683081E+02  0.20927976948E+02  0.10426274320E+03  0.00000000000E+00 0.  1.
         12    1    4    4    0    0 -0.16685957084E+02  0.13323059957E+02 -0.43250961302E+01  0.21786040185E+02  0.00000000000E+00 0. -1.
        -11    1    3    3    0    0  0.16628774076E+02  0.11801888194E+02  0.88559246772E+02  0.90876514463E+02  0.00000000000E+00 0.  1.
         11    1    3    3    0    0 -0.52358134539E+02 -0.56573660879E+02  0.10481277486E+03  0.13010638390E+03  0.00000000000E+00 0. -1.
          3    1    1    2  501    0 -0.44321620022E+02 -0.13339703536E+01  0.65659825098E+02  0.79230032880E+02  0.00000000000E+00 0. -1.
<scales pt_clust_5="13000.00000" pt_clust_6="13000.00000" pt_clust_7="13000.00000" pt_clust_8="13000.00000" pt_clust_9="44.34171"></scales>
<clustering>
<clus scale="   44.342">  2  9  1 -1</clus>
<clus scale="   84.135">  5  6 -1 -1</clus>
<clus scale="   90.331">  7  8 -1 -1</clus>
<clus scale="  105.365">  2  5  1 -1</clus>
<clus scale="   44.342">  2  5  1 -1</clus>
</clustering>
</event>
<event>
 9    2  0.1033155E-004  0.9772089E+02  0.7546771E-02  0.1290317E+00
         -1   -1    0    0    0  501 -0.00000000000E+00  0.00000000000E+00  0.79839721582E+03  0.79839721582E+03  0.00000000000E+00 0.  1.
         21   -1    0    0  501  502  0.00000000000E+00 -0.00000000000E+00 -0.26835203345E+02  0.26835203345E+02  0.00000000000E+00 0. -1.
         24    2    1    2    0    0  0.95772920767E+01 -0.41294276591E+02  0.22734227691E+03  0.24508352064E+03  0.81144805237E+02 0.  0.
         23    2    1    2    0    0  0.67455006704E+02  0.83896349057E+01  0.25682545561E+03  0.28079599199E+03  0.90920352858E+02 0.  0.
        -11    1    3    3    0    0 -0.15622880449E+02 -0.56845508469E+02  0.11951693838E+03  0.13326584253E+03  0.00000000000E+00 0.  1.
         12    1    3    3    0    0  0.25200172526E+02  0.15551231878E+02  0.10782533853E+03  0.11181767811E+03  0.00000000000E+00 0. -1.
        -11    1    4    4    0    0  0.63694662851E+01  0.36701123125E+02  0.14974125431E+03  0.15430484692E+03  0.00000000000E+00 0.  1.
         11    1    4    4    0    0  0.61085540419E+02 -0.28311488220E+02  0.10708420130E+03  0.12649114507E+03  0.00000000000E+00 0. -1.
         -2    1    1    2    0  502 -0.77032298781E+02  0.32904641686E+02  0.28739427995E+03  0.29935290653E+03  0.00000000000E+00 0.  1.
<scales pt_clust_5="13000.00000" pt_clust_6="13000.00000" pt_clust_7="13000.00000" pt_clust_8="13000.00000" pt_clust_9="83.76573"></scales>
<clustering>
<clus scale="   81.145">  5  6 -1 -1</clus>
<clus scale="   83.766">  2  9  1 -1</clus>
<clus scale="   88.698">  1  5  2 -1</clus>
<clus scale="   90.920">  7  8 -1 -1</clus>
<clus scale="   83.766">  2  5  1 -1</clus>
</clustering>
</event>
<event>
 9    2  0.1033155E-004  0.9575423E+02  0.7546771E-02  0.1296277E+00
          2   -1    0    0  502    0 -0.00000000000E+00  0.00000000000E+00  0.65807302089E+03  0.65807302089E+03  0.00000000000E+00 0. -1.
         21   -1    0    0  501  502  0.00000000000E+00 -0.00000000000E+00 -0.22046095979E+02  0.22046095979E+02  0.00000000000E+00 0. -1.
         24    2    1    2    0    0  0.28878232390E+01 -0.24103573542E+02  0.44400893431E+03  0.45170289659E+03  0.79386719691E+02 0.  0.
         23    2    1    2    0    0 -0.67001087755E+01  0.45163914095E+02  0.15456422757E+03  0.18527858206E+03  0.91396837656E+02 0.  0.
        -11    1    3    3    0    0  0.36952963406E+02  0.60983907370E+01  0.19371734162E+03  0.19730463836E+03  0.00000000000E+00 0.  1.
         12    1    3    3    0    0 -0.34065140167E+02 -0.30201964279E+02  0.25029159269E+03  0.25439825823E+03  0.00000000000E+00 0. -1.
        -13    1    4    4    0    0 -0.22568194270E+02 -0.24802461385E+01 -0.60099106826E-01  0.22704154365E+02  0.00000000000E+00 0.  1.
         13    1    4    4    0    0  0.15868085495E+02  0.47644160234E+02  0.15462432667E+03  0.16257442770E+03  0.00000000000E+00 0. -1.
          1    1    1    2  501    0  0.38122855365E+01 -0.21060340553E+02  0.37453763036E+02  0.43137638215E+02  0.00000000000E+00 0. -1.
<scales pt_clust_5="13000.00000" pt_clust_6="13000.00000" pt_clust_7="13000.00000" pt_clust_8="13000.00000" pt_clust_9="21.40260"></scales>
<clustering>
<clus scale="   21.403">  2  9  1 -1</clus>
<clus scale="   79.387">  5  6 -1 -1</clus>
<clus scale="   84.367">  1  5  2 -1</clus>
<clus scale="   91.397">  7  8 -1 -1</clus>
<clus scale="   21.403">  2  5  1 -1</clus>
</clustering>
</event>
<event>
 9    2  0.1033155E-004  0.1021823E+03  0.7546771E-02  0.1280585E+00
          2   -1    0    0  502    0 -0.00000000000E+00  0.00000000000E+00  0.16116581527E+04  0.16116581527E+04  0.00000000000E+00 0. -1.
         21   -1    0    0  501  502  0.00000000000E+00 -0.00000000000E+00 -0.18018046187E+02  0.18018046187E+02  0.00000000000E+00 0.  1.
         24    2    1    2    0    0 -0.47779807651E+02 -0.12247428010E+02  0.10852551434E+04  0.10894637980E+04  0.81973967270E+02 0.  0.
         23    2    1    2    0    0  0.26217970135E+02  0.25940706706E+02  0.50476771961E+03  0.51441505275E+03  0.92043975947E+02 0.  0.
        -11    1    3    3    0    0 -0.42306061238E+02  0.13778999948E+02  0.25995400184E+03  0.26373423504E+03  0.00000000000E+00 0.  1.
         12    1    3    3    0    0 -0.54737464127E+01 -0.26026427957E+02  0.82530114160E+03  0.82572956298E+03  0.00000000000E+00 0. -1.
        -11    1    4    4    0    0  0.39424163327E+01  0.59018156432E+02  0.28845573994E+03  0.29445780570E+03  0.00000000000E+00 0.  1.
         11    1    4    4    0    0  0.22275553802E+02 -0.33077449726E+02  0.21631197968E+03  0.21995724705E+03  0.00000000000E+00 0. -1.
          1    1    1    2  501    0  0.21561837516E+02 -0.13693278696E+02  0.36172434270E+01  0.25797348091E+02  0.00000000000E+00 0. -1.
<scales pt_clust_5="13000.00000" pt_clust_6="13000.00000" pt_clust_7="13000.00000" pt_clust_8="13000.00000" pt_clust_9="25.54249"></scales>
<clustering>
<clus scale="   25.542">  2  9  1 -1</clus>
<clus scale="   81.974">  5  6 -1 -1</clus>
<clus scale="   92.044">  7  8 -1 -1</clus>
<clus scale="   93.214">  1  5  2 -1</clus>
<clus scale="   25.542">  2  5  1 -1</clus>
</clustering>
</event>
<event>
 9    2  0.1033155E-004  0.9306555E+02  0.7546771E-02  0.1300681E+00
          2   -1    0    0  502    0 -0.00000000000E+00  0.00000000000E+00  0.16081922129E+03  0.16081922129E+03  0.00000000000E+00 0. -1.
         21   -1    0    0  501  502  0.00000000000E+00 -0.00000000000E+00 -0.12190988793E+03  0.12190988793E+03  0.00000000000E+00 0. -1.
         24    2    1    2    0    0 -0.34814867485E+02 -0.29633768628E+02  0.61161226415E+02  0.11009681123E+03  0.79311896865E+02 0.  0.
         23    2    1    2    0    0 -0.25232274635E+02  0.24486153100E+02  0.22506000596E+02  0.97562821732E+02  0.88180183401E+02 0.  0.
        -11    1    3    3    0    0 -0.44242422390E+02  0.10521057515E+02  0.49531905150E+02  0.67242056913E+02  0.00000000000E+00 0.  1.
         12    1    3    3    0    0  0.94275549047E+01 -0.40154826143E+02  0.11629321265E+02  0.42854754312E+02  0.00000000000E+00 0. -1.
        -11    1    4    4    0    0 -0.43355602361E+02  0.46960335279E+02  0.24899185603E+02  0.68592643842E+02  0.00000000000E+00 0. -1.
         11    1    4    4    0    0  0.18123327726E+02 -0.22474182180E+02 -0.23931850067E+01  0.28970177890E+02  0.00000000000E+00 0.  1.
          1    1    1    2  501    0  0.60047142120E+02  0.51476155283E+01 -0.44757893655E+02  0.75069476266E+02  0.00000000000E+00 0. -1.
<scales pt_clust_5="13000.00000" pt_clust_6="13000.00000" pt_clust_7="13000.00000" pt_clust_8="13000.00000" pt_clust_9="60.26738"></scales>
<clustering>
<clus scale="   60.267">  2  9  1 -1</clus>
<clus scale="   79.312">  5  6 -1 -1</clus>
<clus scale="   84.710">  1  5  2 -1</clus>
<clus scale="   88.180">  7  8 -1 -1</clus>
<clus scale="   60.267">  2  5  1 -1</clus>
</clustering>
</event>
<event>
 9    2  0.1033155E-004  0.1055129E+03  0.7546771E-02  0.1280220E+00
         21   -1    0    0  501  502  0.00000000000E+00  0.00000000000E+00  0.27214253541E+03  0.27214253541E+03  0.00000000000E+00 0.  1.
         -1   -1    0    0    0  501 -0.00000000000E+00 -0.00000000000E+00 -0.89787238624E+02  0.89787238624E+02  0.00000000000E+00 0.  1.
         24    2    1    2    0    0 -0.26137409783E+02  0.50753545439E+01  0.34785187579E+02  0.92716751938E+02  0.81715747571E+02 0.  0.
         23    2    1    2    0    0  0.80857674744E+01 -0.28542245719E+02  0.18969139964E+03  0.21772749133E+03  0.10267616060E+03 0.  0.
        -13    1    3    3    0    0 -0.48352780959E+02 -0.37429265881E+01 -0.23501544845E+01  0.48554342257E+02  0.00000000000E+00 0.  1.
         14    1    3    3    0    0  0.22215371176E+02  0.88182811320E+01  0.37135342064E+02  0.44162409680E+02  0.00000000000E+00 0. -1.
        -13    1    4    4    0    0  0.23008571649E+02  0.45933226678E+01 -0.11170692975E+01  0.23489164018E+02  0.00000000000E+00 0. -1.
         13    1    4    4    0    0 -0.14922804174E+02 -0.33135568387E+02  0.19080846894E+03  0.19423832731E+03  0.00000000000E+00 0.  1.
         -2    1    1    2    0  502  0.18051642309E+02  0.23466891175E+02 -0.42121290431E+02  0.51485530774E+02  0.00000000000E+00 0.  1.
<scales pt_clust_5="13000.00000" pt_clust_6="13000.00000" pt_clust_7="13000.00000" pt_clust_8="13000.00000" pt_clust_9="29.60672"></scales>
<clustering>
<clus scale="   29.607">  1  9  2 -1</clus>
<clus scale="   81.716">  5  6 -1 -1</clus>
<clus scale="   85.253">  2  5  1 -1</clus>
<clus scale="  102.676">  7  8 -1 -1</clus>
<clus scale="   29.607">  1  5  2 -1</clus>
</clustering>
</event>
<event>
 9    2  0.1033155E-004  0.9667601E+02  0.7546771E-02  0.1293624E+00
         21   -1    0    0  501  502  0.00000000000E+00  0.00000000000E+00  0.14949747241E+03  0.14949747241E+03  0.00000000000E+00 0.  1.
          2   -1    0    0  502    0 -0.00000000000E+00 -0.00000000000E+00 -0.11858839191E+03  0.11858839191E+03  0.00000000000E+00 0. -1.
         23    2    1    2    0    0  0.30194822169E+02 -0.15039227553E+02 -0.60741145192E+02  0.11500715719E+03  0.91647443138E+02 0.  0.
         24    2    1    2    0    0 -0.88446372925E+01  0.29519435216E+02  0.39215352753E+02  0.94641367116E+02  0.80433325268E+02 0.  0.
        -13    1    4    4    0    0 -0.44513282367E+02  0.20826857757E+02  0.18674304534E+02  0.52572996499E+02  0.00000000000E+00 0.  1.
         14    1    4    4    0    0  0.35668645075E+02  0.86925774592E+01  0.20541048220E+02  0.42068370616E+02  0.00000000000E+00 0. -1.
        -11    1    3    3    0    0 -0.27718385796E+02 -0.79772497452E+01 -0.46877504588E+02  0.55040402079E+02  0.00000000000E+00 0. -1.
         11    1    3    3    0    0  0.57913207965E+02 -0.70619778073E+01 -0.13863640604E+02  0.59966755107E+02  0.00000000000E+00 0.  1.
          1    1    1    2  501    0 -0.21350184876E+02 -0.14480207663E+02  0.52434872938E+02  0.58437340017E+02  0.00000000000E+00 0. -1.
<scales pt_clust_5="13000.00000" pt_clust_6="13000.00000" pt_clust_7="13000.00000" pt_clust_8="13000.00000" pt_clust_9="25.79742"></scales>
<clustering>
<clus scale="   25.797">  1  9  2 -1</clus>
<clus scale="   80.433">  5  6 -1 -1</clus>
<clus scale="   86.119">  1  5  2 -1</clus>
<clus scale="   91.647">  7  8 -1 -1</clus>
<clus scale="   25.797">  1  5  2 -1</clus>
</clustering>
</event>
<event>
 9    2  0.1033155E-004  0.1241988E+03  0.7546771E-02  0.1239429E+00
          2   -1    0    0  502    0 -0.00000000000E+00  0.00000000000E+00  0.17840555907E+03  0.17840555907E+03  0.00000000000E+00 0. -1.
         21   -1    0    0  501  502  0.00000000000E+00 -0.00000000000E+00 -0.21824420904E+03  0.21824420904E+03  0.00000000000E+00 0. -1.
         23    2    1    2    0    0  0.81221708736E+02 -0.29645307292E+02  0.10873620783E+03  0.16628937048E+03  0.91393553534E+02 0.  0.
         24    2    1    2    0    0 -0.71116553874E+02  0.57952992317E+01 -0.16687741972E+03  0.19864414292E+03  0.80748204789E+02 0.  0.
        -13    1    4    4    0    0 -0.34391415204E+02  0.43276588082E+02 -0.86458450089E+02  0.10261918002E+03  0.00000000000E+00 0.  1.
         14    1    4    4    0    0 -0.36725138671E+02 -0.37481288850E+02 -0.80418969633E+02  0.96024962906E+02  0.00000000000E+00 0. -1.
        -13    1    3    3    0    0  0.62897949243E+02 -0.49682065014E+02  0.34534552523E+02  0.87275969894E+02  0.00000000000E+00 0. -1.
         13    1    3    3    0    0  0.18323759493E+02  0.20036757722E+02  0.74201655311E+02  0.79013400590E+02  0.00000000000E+00 0.  1.
          1    1    1    2  501    0 -0.10105154861E+02  0.23850008060E+02  0.18302561927E+02  0.31716254702E+02  0.00000000000E+00 0. -1.
<scales pt_clust_5="13000.00000" pt_clust_6="13000.00000" pt_clust_7="13000.00000" pt_clust_8="13000.00000" pt_clust_9="25.90247"></scales>
<clustering>
<clus scale="   25.902">  2  9  1 -1</clus>
<clus scale="   80.748">  5  6 -1 -1</clus>
<clus scale="   91.394">  7  8 -1 -1</clus>
<clus scale="  116.588">  2  5  1 -1</clus>
<clus scale="   25.902">  2  5  1 -1</clus>
</clustering>
</event>
<event>
 9    2  0.1033155E-004  0.9350120E+02  0.7546771E-02  0.1301324E+00
          2   -1    0    0  502    0 -0.00000000000E+00  0.00000000000E+00  0.17464993807E+03  0.17464993807E+03  0.00000000000E+00 0. -1.
         21   -1    0    0  501  502  0.00000000000E+00 -0.00000000000E+00 -0.11467676786E+03  0.11467676786E+03  0.00000000000E+00 0.  1.
         23    2    1    2    0    0 -0.27153834465E+01  0.24281798460E+02  0.80847234373E+02  0.12488246858E+03  0.91991176801E+02 0.  0.
         24    2    1    2    0    0 -0.17327140691E+02  0.12386617979E+02 -0.63329337990E+02  0.10487305460E+03  0.80833745565E+02 0.  0.
        -11    1    4    4    0    0  0.25493036271E+02  0.27776415193E+02 -0.23691722212E+02  0.44527764829E+02  0.00000000000E+00 0.  1.
         12    1    4    4    0    0 -0.42820176961E+02 -0.15389797215E+02 -0.39637615778E+02  0.60345289774E+02  0.00000000000E+00 0. -1.
        -11    1    3    3    0    0  0.33248570767E+02 -0.18635773510E+02  0.23738832991E+02  0.44903136908E+02  0.00000000000E+00 0.  1.
         11    1    3    3    0    0 -0.35963954213E+02  0.42917571970E+02  0.57108401382E+02  0.79979331673E+02  0.00000000000E+00 0. -1.
          1    1    1    2  501    0  0.20042524137E+02 -0.36668416438E+02  0.42455273827E+02  0.59571182745E+02  0.00000000000E+00 0. -1.
<scales pt_clust_5="13000.00000" pt_clust_6="13000.00000" pt_clust_7="13000.00000" pt_clust_8="13000.00000" pt_clust_9="41.78848"></scales>
<clustering>
<clus scale="   41.788">  2  9  1 -1</clus>
<clus scale="   80.834">  5  6 -1 -1</clus>
<clus scale="   82.548">  2  5  1 -1</clus>
<clus scale="   91.991">  7  8 -1 -1</clus>
<clus scale="   41.788">  2  5  1 -1</clus>
</clustering>
</event>
<event>
 9    2  0.1033155E-004  0.1776853E+03  0.7546771E-02  0.1172187E+00
         21   -1    0    0  501  502  0.00000000000E+00  0.00000000000E+00  0.50748298336E+02  0.50748298336E+02  0.00000000000E+00 0. -1.
          2   -1    0    0  502    0 -0.00000000000E+00 -0.00000000000E+00 -0.13689550582E+04  0.13689550582E+04  0.00000000000E+00 0. -1.
         24    2    1    2    0    0  0.15666584859E+03  0.14749858470E+02 -0.84629524715E+03  0.86438506264E+03  0.78639333169E+02 0.  0.
         23    2    1    2    0    0 -0.13803103001E+03  0.40452509564E+02 -0.46578183346E+03  0.49673390290E+03  0.95409030681E+02 0.  0.
        -11    1    3    3    0    0  0.57780459565E+02  0.15079235566E+02 -0.15592529314E+03  0.16696904472E+03  0.00000000000E+00 0.  1.
         12    1    3    3    0    0  0.98885389026E+02 -0.32937709541E+00 -0.69036995401E+03  0.69741601792E+03  0.00000000000E+00 0. -1.
        -13    1    4    4    0    0 -0.86396451262E+02  0.62949320582E+02 -0.37465141561E+03  0.38960319168E+03  0.00000000000E+00 0. -1.
         13    1    4    4    0    0 -0.51634578749E+02 -0.22496811018E+02 -0.91130417854E+02  0.10713071122E+03  0.00000000000E+00 0.  1.
          1    1    1    2  501    0 -0.18634818580E+02 -0.55202368034E+02 -0.61296792489E+01  0.58584390991E+02  0.00000000000E+00 0. -1.
<scales pt_clust_5="13000.00000" pt_clust_6="13000.00000" pt_clust_7="13000.00000" pt_clust_8="13000.00000" pt_clust_9="58.26283"></scales>
<clustering>
<clus scale="   58.263">  1  9  2 -1</clus>
<clus scale="   78.639">  5  6 -1 -1</clus>
<clus scale="   95.409">  7  8 -1 -1</clus>
<clus scale="  169.273">  2  5  1 -1</clus>
<clus scale="   58.263">  1  5  2 -1</clus>
</clustering>
</event>
<event>
 9    2  0.1033155E-004  0.1033062E+03  0.7546771E-02  0.1275875E+00
          2   -1    0    0  502    0 -0.00000000000E+00  0.00000000000E+00  0.44833097012E+03  0.44833097012E+03  0.00000000000E+00 0. -1.
         21   -1    0    0  501  502  0.00000000000E+00 -0.00000000000E+00 -0.20750856544E+03  0.20750856544E+03  0.00000000000E+00 0. -1.
         24    2    1    2    0    0  0.52209966301E+02  0.40901515047E+01  0.40566471022E+03  0.41756298320E+03  0.83978437128E+02 0.  0.
         23    2    1    2    0    0 -0.33223837605E+02 -0.59318293164E+02 -0.12228438410E+03  0.16601454718E+03  0.89358133329E+02 0.  0.
        -11    1    3    3    0    0  0.12164293521E+02  0.30774401115E+02  0.59615549165E+02  0.68183924081E+02  0.00000000000E+00 0.  1.
         12    1    3    3    0    0  0.40045672780E+02 -0.26684249610E+02  0.34604916105E+03  0.34937905912E+03  0.00000000000E+00 0. -1.
        -11    1    4    4    0    0  0.19347728855E+02 -0.44023617699E+02 -0.24556560013E+02  0.53994797590E+02  0.00000000000E+00 0. -1.
         11    1    4    4    0    0 -0.52571566460E+02 -0.15294675465E+02 -0.97727824088E+02  0.11201974959E+03  0.00000000000E+00 0.  1.
          1    1    1    2  501    0 -0.18986128696E+02  0.55228141659E+02 -0.42557921440E+02  0.72262005171E+02  0.00000000000E+00 0. -1.
<scales pt_clust_5="13000.00000" pt_clust_6="13000.00000" pt_clust_7="13000.00000" pt_clust_8="13000.00000" pt_clust_9="58.40052"></scales>
<clustering>
<clus scale="   58.401">  2  9  1 -1</clus>
<clus scale="   83.978">  5  6 -1 -1</clus>
<clus scale="   89.358">  7  8 -1 -1</clus>
<clus scale="   98.690">  1  5  2 -1</clus>
<clus scale="   58.401">  2  5  1 -1</clus>
</clustering>
</event>
<event>
 9    2  0.1033155E-004  0.1305717E+03  0.7546771E-02  0.1229154E+00
         21   -1    0    0  501  502  0.00000000000E+00  0.00000000000E+00  0.49507412313E+03  0.49507412313E+03  0.00000000000E+00 0. -1.
          2   -1    0    0  502    0 -0.00000000000E+00 -0.00000000000E+00 -0.93587608896E+02  0.93587608896E+02  0.00000000000E+00 0. -1.
         24    2    1    2    0    0 -0.92058174674E+02  0.99504122592E+01 -0.24611401830E+02  0.12600136910E+03  0.81834624006E+02 0.  0.
         23    2    1    2    0    0  0.91388538614E+02 -0.42674038114E+02  0.39362792344E+03  0.41655630104E+03  0.91669358596E+02 0.  0.
        -11    1    3    3    0    0 -0.37959259668E+02 -0.21740248998E+02  0.20945676154E+02  0.48500156397E+02  0.00000000000E+00 0.  1.
         12    1    3    3    0    0 -0.54098915006E+02  0.31690661257E+02 -0.45557077984E+02  0.77501212702E+02  0.00000000000E+00 0. -1.
        -11    1    4    4    0    0  0.65396106361E+02 -0.87119959513E+01  0.34728206536E+03  0.35349311523E+03  0.00000000000E+00 0.  1.
         11    1    4    4    0    0  0.25992432253E+02 -0.33962042163E+02  0.46345858082E+02  0.63063185803E+02  0.00000000000E+00 0. -1.
          1    1    1    2  501    0  0.66963606040E+00  0.32723625855E+02  0.32469992623E+02  0.46104061887E+02  0.00000000000E+00 0. -1.
<scales pt_clust_5="13000.00000" pt_clust_6="13000.00000" pt_clust_7="13000.00000" pt_clust_8="13000.00000" pt_clust_9="32.73048"></scales>
<clustering>
<clus scale="   32.730">  1  9  2 -1</clus>
<clus scale="   81.835">  5  6 -1 -1</clus>
<clus scale="   91.669">  7  8 -1 -1</clus>
<clus scale="  123.865">  2  5  1 -1</clus>
<clus scale="   32.730">  1  5  2 -1</clus>
</clustering>
</event>
<event>
 9    2  0.1033155E-004  0.8080334E+02  0.7546771E-02  0.1340590E+00
          2   -1    0    0  502    0 -0.00000000000E+00  0.00000000000E+00  0.93361323904E+03  0.93361323904E+03  0.00000000000E+00 0. -1.
         21   -1    0    0  501  502  0.00000000000E+00 -0.00000000000E+00 -0.10202416973E+03  0.10202416973E+03  0.00000000000E+00 0. -1.
         24    2    1    2    0    0  0.21578071610E+01  0.70742798157E+01  0.84153879998E+03  0.84543655263E+03  0.80750920047E+02 0.  0.
         23    2    1    2    0    0  0.20635552044E+01  0.34839625496E+02  0.69458239886E+02  0.10031080581E+03  0.63401521351E+02 0.  0.
        -13    1    3    3    0    0 -0.24584612273E+02 -0.72316988858E+01  0.98496076995E+02  0.10177513357E+03  0.00000000000E+00 0.  1.
         14    1    3    3    0    0  0.26742419434E+02  0.14305978702E+02  0.74304272299E+03  0.74366141907E+03  0.00000000000E+00 0. -1.
        -11    1    4    4    0    0 -0.22191903722E+02  0.14734184315E+02  0.30545208962E+01  0.26812438833E+02  0.00000000000E+00 0.  1.
         11    1    4    4    0    0  0.24255458927E+02  0.20105441180E+02  0.66403718990E+02  0.73498366979E+02  0.00000000000E+00 0. -1.
          1    1    1    2  501    0 -0.42213623653E+01 -0.41913905311E+02 -0.79407970565E+02  0.89890050327E+02  0.00000000000E+00 0. -1.
<scales pt_clust_5="13000.00000" pt_clust_6="13000.00000" pt_clust_7="13000.00000" pt_clust_8="13000.00000" pt_clust_9="42.12595"></scales>
<clustering>
<clus scale="   42.126">  2  9  1 -1</clus>
<clus scale="   63.402">  7  8 -1 -1</clus>
<clus scale="   63.468">  2  7  1 -1</clus>
<clus scale="   80.751">  5  6 -1 -1</clus>
<clus scale="   42.126">  2  5  1 -1</clus>
</clustering>
</event>
<event>
 9    2  0.1033155E-004  0.8879059E+02  0.7546771E-02  0.1313545E+00
         21   -1    0    0  501  502  0.00000000000E+00  0.00000000000E+00  0.27624748596E+03  0.27624748596E+03  0.00000000000E+00 0.  1.
          2   -1    0    0  502    0 -0.00000000000E+00 -0.00000000000E+00 -0.90334311252E+02  0.90334311252E+02  0.00000000000E+00 0. -1.
         24    2    1    2    0    0  0.13029805445E+02  0.88778174261E+01 -0.27481593706E+02  0.83360679522E+02  0.77104950720E+02 0.  0.
         23    2    1    2    0    0  0.43544810825E+02  0.42173422373E+02  0.10140379976E+03  0.14776303063E+03  0.88749278926E+02 0.  0.
        -11    1    3    3    0    0  0.30811931071E+02 -0.25467680596E+02 -0.15452209771E+02  0.42857305539E+02  0.00000000000E+00 0.  1.
         12    1    3    3    0    0 -0.17782125626E+02  0.34345498022E+02 -0.12029383935E+02  0.40503373983E+02  0.00000000000E+00 0. -1.
        -13    1    4    4    0    0  0.26664802390E+02 -0.23877625153E+02  0.53780601000E+02  0.64602675745E+02  0.00000000000E+00 0. -1.
         13    1    4    4    0    0  0.16880008435E+02  0.66051047526E+02  0.47623198762E+02  0.83160354883E+02  0.00000000000E+00 0.  1.
          1    1    1    2  501    0 -0.56574616270E+02 -0.51051239799E+02  0.11199096865E+03  0.13545808706E+03  0.00000000000E+00 0. -1.
<scales pt_clust_5="13000.00000" pt_clust_6="13000.00000" pt_clust_7="13000.00000" pt_clust_8="13000.00000" pt_clust_9="76.20313"></scales>
<clustering>
<clus scale="   76.203">  1  9  2 -1</clus>
<clus scale="   77.105">  5  6 -1 -1</clus>
<clus scale="   77.152">  2  5  1 -1</clus>
<clus scale="   88.749">  7  8 -1 -1</clus>
<clus scale="   76.203">  1  5  2 -1</clus>
</clustering>
</event>
<event>
 9    2  0.1033155E-004  0.1789757E+03  0.7546771E-02  0.1183468E+00
         21   -1    0    0  501  502  0.00000000000E+00  0.00000000000E+00  0.13172452805E+03  0.13172452805E+03  0.00000000000E+00 0. -1.
          4   -1    0    0  502    0 -0.00000000000E+00 -0.00000000000E+00 -0.55433265749E+03  0.55433265749E+03  0.00000000000E+00 0. -1.
         24    2    1    2    0    0  0.30107937839E+02  0.72104336179E+02 -0.22533297696E+03  0.25935418013E+03  0.10190248785E+03 0.  0.
         23    2    1    2    0    0  0.11630591530E+03  0.95236279641E+01 -0.21107901964E+03  0.25850464731E+03  0.93019001954E+02 0.  0.
        -13    1    3    3    0    0  0.52418310214E+02  0.51151540445E+02 -0.21486844513E+03  0.22700794711E+03  0.00000000000E+00 0.  1.
         14    1    3    3    0    0 -0.22310372375E+02  0.20952795734E+02 -0.10464531827E+02  0.32346233026E+02  0.00000000000E+00 0. -1.
        -13    1    4    4    0    0  0.80282023765E+02  0.91831105257E+01 -0.53621197259E+02  0.96978171019E+02  0.00000000000E+00 0.  1.
         13    1    4    4    0    0  0.36023891533E+02  0.34051743839E+00 -0.15745782238E+03  0.16152647629E+03  0.00000000000E+00 0. -1.
          3    1    1    2  501    0 -0.14641385314E+03 -0.81627964143E+02  0.13803867163E+02  0.16819835810E+03  0.00000000000E+00 0. -1.
<scales pt_clust_5="13000.00000" pt_clust_6="13000.00000" pt_clust_7="13000.00000" pt_clust_8="13000.00000" pt_clust_9="152.90444"></scales>
<clustering>
<clus scale="   93.019">  7  8 -1 -1</clus>
<clus scale="  101.902">  5  6 -1 -1</clus>
<clus scale="  128.412">  2  5  1 -1</clus>
<clus scale="  152.904">  1  9  2 -1</clus>
<clus scale="  152.904">  1  5  2 -1</clus>
</clustering>
</event>
<event>
 9    2  0.1033155E-004  0.9237478E+02  0.7546771E-02  0.1301215E+00
          2   -1    0    0  502    0 -0.00000000000E+00  0.00000000000E+00  0.43084701149E+03  0.43084701149E+03  0.00000000000E+00 0. -1.
         21   -1    0    0  501  502  0.00000000000E+00 -0.00000000000E+00 -0.30648339788E+02  0.30648339788E+02  0.00000000000E+00 0. -1.
         23    2    1    2    0    0 -0.86892769917E+01 -0.33898818061E+01  0.23429950111E+03  0.25138490531E+03  0.90615228119E+02 0.  0.
         24    2    1    2    0    0  0.37648849035E+02 -0.11699801694E+02  0.98686885161E+02  0.13538530512E+03  0.83879427430E+02 0.  0.
        -13    1    4    4    0    0  0.20455192231E+02 -0.36615625118E+02  0.96278208224E+02  0.10501719988E+03  0.00000000000E+00 0.  1.
         14    1    4    4    0    0  0.17193656804E+02  0.24915823424E+02  0.24086769369E+01  0.30368105238E+02  0.00000000000E+00 0. -1.
        -11    1    3    3    0    0 -0.44843506935E+02 -0.15369077179E+01  0.70014334199E+02  0.83158338084E+02  0.00000000000E+00 0.  1.
         11    1    3    3    0    0  0.36154229943E+02 -0.18529740883E+01  0.16428516691E+03  0.16822656723E+03  0.00000000000E+00 0. -1.
          1    1    1    2  501    0 -0.28959572043E+02  0.15089683500E+02  0.67212285429E+02  0.74725140841E+02  0.00000000000E+00 0. -1.
<scales pt_clust_5="13000.00000" pt_clust_6="13000.00000" pt_clust_7="13000.00000" pt_clust_8="13000.00000" pt_clust_9="32.65511"></scales>
<clustering>
<clus scale="   32.655">  2  9  1 -1</clus>
<clus scale="   83.879">  5  6 -1 -1</clus>
<clus scale="   85.777">  2  5  1 -1</clus>
<clus scale="   90.615">  7  8 -1 -1</clus>
<clus scale="   32.655">  2  5  1 -1</clus>
</clustering>
</event>
<event>
 9    2  0.1033155E-004  0.1141834E+03  0.7546771E-02  0.1258031E+00
          2   -1    0    0  502    0 -0.00000000000E+00  0.00000000000E+00  0.25502932307E+03  0.25502932307E+03  0.00000000000E+00 0. -1.
         21   -1    0    0  501  502  0.00000000000E+00 -0.00000000000E+00 -0.63775371294E+02  0.63775371294E+02  0.00000000000E+00 0. -1.
         24    2    1    2    0    0 -0.16360264192E+02  0.58047322692E+02  0.84680717711E+02  0.13046984379E+03  0.78831505577E+02 0.  0.
         23    2    1    2    0    0 -0.50810221030E+01 -0.79387800569E+02  0.69326361465E+02  0.14035074620E+03  0.92541600910E+02 0.  0.
        -13    1    3    3    0    0  0.19975356928E+02 -0.90097552125E+01  0.27408039308E+02  0.35091183966E+02  0.00000000000E+00 0.  1.
         14    1    3    3    0    0 -0.36335621120E+02  0.67057077904E+02  0.57272678402E+02  0.95378659828E+02  0.00000000000E+00 0. -1.
        -11    1    4    4    0    0  0.29694462884E+02  0.40848916054E+01  0.27659354589E+02  0.40785872084E+02  0.00000000000E+00 0.  1.
         11    1    4    4    0    0 -0.34775484986E+02 -0.83472692174E+02  0.41667006876E+02  0.99564874111E+02  0.00000000000E+00 0. -1.
          1    1    1    2  501    0  0.21441286295E+02  0.21340477877E+02  0.37246872597E+02  0.47984104371E+02  0.00000000000E+00 0. -1.
<scales pt_clust_5="13000.00000" pt_clust_6="13000.00000" pt_clust_7="13000.00000" pt_clust_8="13000.00000" pt_clust_9="30.25137"></scales>
<clustering>
<clus scale="   30.251">  2  9  1 -1</clus>
<clus scale="   78.832">  5  6 -1 -1</clus>
<clus scale="   92.542">  7  8 -1 -1</clus>
<clus scale="  103.384">  1  5  2 -1</clus>
<clus scale="   30.251">  2  5  1 -1</clus>
</clustering>
</event>
<event>
 9    2  0.1033155E-004  0.1499746E+03  0.7546771E-02  0.1220355E+00
          2   -1    0    0  502    0 -0.00000000000E+00  0.00000000000E+00  0.10157138269E+04  0.10157138269E+04  0.00000000000E+00 0. -1.
         21   -1    0    0  501  502  0.00000000000E+00 -0.00000000000E+00 -0.10502745689E+03  0.10502745689E+03  0.00000000000E+00 0. -1.
         24    2    1    2    0    0 -0.52876357788E+02  0.18745187536E+02  0.82054729991E+03  0.82640089099E+03  0.80580828838E+02 0.  0.
         23    2    1    2    0    0  0.84823281889E+02  0.92464966818E+02  0.15714882153E+02  0.15676399893E+03  0.92645747887E+02 0.  0.
        -11    1    3    3    0    0 -0.21590434827E+02 -0.95297283569E+01  0.57033450982E+02  0.61723392077E+02  0.00000000000E+00 0.  1.
         12    1    3    3    0    0 -0.31285922962E+02  0.28274915893E+02  0.76351384892E+03  0.76467749891E+03  0.00000000000E+00 0. -1.
        -11    1    4    4    0    0  0.54140751541E+02  0.92707634794E+02 -0.20499701658E+02  0.10929851003E+03  0.00000000000E+00 0. -1.
         11    1    4    4    0    0  0.30682530348E+02 -0.24266797656E+00  0.36214583811E+02  0.47465488904E+02  0.00000000000E+00 0.  1.
          1    1    1    2  501    0 -0.31946924101E+02 -0.11121015435E+03  0.74424187909E+02  0.13757639382E+03  0.00000000000E+00 0. -1.
<scales pt_clust_5="13000.00000" pt_clust_6="13000.00000" pt_clust_7="13000.00000" pt_clust_8="13000.00000" pt_clust_9="117.93706"></scales>
<clustering>
<clus scale="   80.581">  5  6 -1 -1</clus>
<clus scale="   92.646">  7  8 -1 -1</clus>
<clus scale="   98.186">  1  5  2 -1</clus>
<clus scale="  117.937">  2  9  1 -1</clus>
<clus scale="  117.937">  2  5  1 -1</clus>
</clustering>
</event>
<event>
 9    2  0.1033155E-004  0.1289179E+03  0.7546771E-02  0.1232399E+00
          2   -1    0    0  502    0 -0.00000000000E+00  0.00000000000E+00  0.13677980018E+04  0.13677980018E+04  0.00000000000E+00 0. -1.
         21   -1    0    0  501  502  0.00000000000E+00 -0.00000000000E+00 -0.34266855694E+02  0.34266855694E+02  0.00000000000E+00 0. -1.
         24    2    1    2    0    0  0.11401430133E+03 -0.33977636279E+01  0.78436542529E+03  0.79663440108E+03  0.79915223114E+02 0.  0.
         23    2    1    2    0    0 -0.51873550963E+02  0.56901139343E+02  0.48944440481E+03  0.50398727205E+03  0.92297020728E+02 0.  0.
        -11    1    3    3    0    0  0.15140789454E+02 -0.14894996006E+02  0.36945953276E+02  0.42615817190E+02  0.00000000000E+00 0.  1.
         12    1    3    3    0    0  0.98873511881E+02  0.11497232378E+02  0.74741947202E+03  0.75401858389E+03  0.00000000000E+00 0. -1.
        -11    1    4    4    0    0  0.25477374311E+02  0.50422527349E+01  0.81044426342E+02  0.85104171199E+02  0.00000000000E+00 0. -1.
         11    1    4    4    0    0 -0.77350925275E+02  0.51858886609E+02  0.40839997847E+03  0.41888310085E+03  0.00000000000E+00 0.  1.
          1    1    1    2  501    0 -0.62140750371E+02 -0.53503375715E+02  0.59721316004E+02  0.10144318437E+03  0.00000000000E+00 0. -1.
<scales pt_clust_5="13000.00000" pt_clust_6="13000.00000" pt_clust_7="13000.00000" pt_clust_8="13000.00000" pt_clust_9="82.00051"></scales>
<clustering>
<clus scale="   79.915">  5  6 -1 -1</clus>
<clus scale="   82.001">  2  9  1 -1</clus>
<clus scale="   92.297">  7  8 -1 -1</clus>
<clus scale="  120.364">  1  5  2 -1</clus>
<clus scale="   82.001">  2  5  1 -1</clus>
</clustering>
</event>
<event>
 9    2  0.1033155E-004  0.1022173E+03  0.7546771E-02  0.1281890E+00
         21   -1    0    0  501  502  0.00000000000E+00  0.00000000000E+00  0.18731400133E+03  0.18731400133E+03  0.00000000000E+00 0.  1.
          2   -1    0    0  502    0 -0.00000000000E+00 -0.00000000000E+00 -0.31844189477E+03  0.31844189477E+03  0.00000000000E+00 0. -1.
         24    2    1    2    0    0 -0.10718207429E+02 -0.27923948558E+02 -0.14806613025E+03  0.17036747879E+03  0.78783704095E+02 0.  0.
         23    2    1    2    0    0  0.61645376729E+02  0.56452293902E+02 -0.12853613882E+03  0.17863945551E+03  0.91670617553E+02 0.  0.
        -13    1    3    3    0    0  0.24593972593E+02  0.72516175363E+01 -0.18710802094E+02  0.31741826661E+02  0.00000000000E+00 0.  1.
         14    1    3    3    0    0 -0.35312180022E+02 -0.35175566094E+02 -0.12935532815E+03  0.13862565213E+03  0.00000000000E+00 0. -1.
        -13    1    4    4    0    0  0.87285727440E+01  0.22107479008E+02  0.10482122302E+02  0.25976980159E+02  0.00000000000E+00 0.  1.
         13    1    4    4    0    0  0.52916803985E+02  0.34344814894E+02 -0.13901826112E+03  0.15266247535E+03  0.00000000000E+00 0. -1.
          1    1    1    2  501    0 -0.50927169300E+02 -0.28528345344E+02  0.14547437563E+03  0.15674896180E+03  0.00000000000E+00 0. -1.
<scales pt_clust_5="13000.00000" pt_clust_6="13000.00000" pt_clust_7="13000.00000" pt_clust_8="13000.00000" pt_clust_9="58.37331"></scales>
<clustering>
<clus scale="   58.373">  1  9  2 -1</clus>
<clus scale="   78.784">  5  6 -1 -1</clus>
<clus scale="   90.839">  2  5  1 -1</clus>
<clus scale="   91.671">  7  8 -1 -1</clus>
<clus scale="   58.373">  1  5  2 -1</clus>
</clustering>
</event>
<event>
 9    2  0.1033155E-004  0.9276426E+02  0.7546771E-02  0.1301225E+00
         21   -1    0    0  501  502  0.00000000000E+00  0.00000000000E+00  0.15374197650E+03  0.15374197650E+03  0.00000000000E+00 0. -1.
          2   -1    0    0  502    0 -0.00000000000E+00 -0.00000000000E+00 -0.22144762332E+03  0.22144762332E+03  0.00000000000E+00 0. -1.
         24    2    1    2    0    0  0.17085903936E+02  0.23907967706E+02 -0.11450975425E+03  0.14384267069E+03  0.81943340556E+02 0.  0.
         23    2    1    2    0    0  0.11104416540E+01 -0.11226981411E+02 -0.68533758226E+02  0.11389592802E+03  0.90266982955E+02 0.  0.
        -13    1    3    3    0    0  0.43714598523E+02 -0.48683552694E+01 -0.39106976540E+02  0.58855948053E+02  0.00000000000E+00 0.  1.
         14    1    3    3    0    0 -0.26628694587E+02  0.28776322975E+02 -0.75402777706E+02  0.84986722640E+02  0.00000000000E+00 0. -1.
        -11    1    4    4    0    0 -0.12324438995E+02  0.33476633937E+02 -0.54529489756E+02  0.65161661039E+02  0.00000000000E+00 0. -1.
         11    1    4    4    0    0  0.13434880649E+02 -0.44703615348E+02 -0.14004268470E+02  0.48734266985E+02  0.00000000000E+00 0.  1.
          1    1    1    2  501    0 -0.18196345590E+02 -0.12680986295E+02  0.11533786565E+03  0.11745100110E+03  0.00000000000E+00 0. -1.
<scales pt_clust_5="13000.00000" pt_clust_6="13000.00000" pt_clust_7="13000.00000" pt_clust_8="13000.00000" pt_clust_9="22.17914"></scales>
<clustering>
<clus scale="   22.179">  1  9  2 -1</clus>
<clus scale="   81.943">  5  6 -1 -1</clus>
<clus scale="   84.686">  2  5  1 -1</clus>
<clus scale="   90.267">  7  8 -1 -1</clus>
<clus scale="   22.179">  1  5  2 -1</clus>
</clustering>
</event>
<event>
 9    2  0.1033155E-004  0.1248583E+03  0.7546771E-02  0.1246063E+00
         21   -1    0    0  501  502  0.00000000000E+00  0.00000000000E+00  0.53005473330E+02  0.53005473330E+02  0.00000000000E+00 0. -1.
          2   -1    0    0  502    0 -0.00000000000E+00 -0.00000000000E+00 -0.57249108090E+03  0.57249108090E+03  0.00000000000E+00 0. -1.
         24    2    1    2    0    0 -0.11525757356E+02 -0.60377255622E+02 -0.28384860247E+03  0.30106413143E+03  0.79317879641E+02 0.  0.
         23    2    1    2    0    0 -0.20622834086E+02 -0.45890104338E+02 -0.98687845059E+02  0.14813336959E+03  0.98351418207E+02 0.  0.
        -11    1    3    3    0    0  0.30519438617E+02 -0.31642355684E+02 -0.83756311577E+02  0.94592782683E+02  0.00000000000E+00 0.  1.
         12    1    3    3    0    0 -0.42045195973E+02 -0.28734899938E+02 -0.20009229089E+03  0.20647134874E+03  0.00000000000E+00 0. -1.
        -13    1    4    4    0    0  0.91798456952E+00  0.28710995448E+02 -0.10382486866E+02  0.30544393738E+02  0.00000000000E+00 0.  1.
         13    1    4    4    0    0 -0.21540818656E+02 -0.74601099786E+02 -0.88305358193E+02  0.11758897586E+03  0.00000000000E+00 0. -1.
          1    1    1    2  501    0  0.32148591443E+02  0.10626735996E+03 -0.13694916004E+03  0.17629905320E+03  0.00000000000E+00 0. -1.
<scales pt_clust_5="13000.00000" pt_clust_6="13000.00000" pt_clust_7="13000.00000" pt_clust_8="13000.00000" pt_clust_9="76.91944"></scales>
<clustering>
<clus scale="   79.318">  5  6 -1 -1</clus>
<clus scale="   98.351">  7  8 -1 -1</clus>
<clus scale="  100.347">  2  5  1 -1</clus>
<clus scale="   76.919">  1  9  2 -1</clus>
<clus scale="   76.919">  1  5  2 -1</clus>
</clustering>
</event>
<event>
 9    2  0.1033155E-004  0.1503052E+03  0.7546771E-02  0.1200612E+00
         21   -1    0    0  501  502  0.00000000000E+00  0.00000000000E+00  0.16143154499E+03  0.16143154499E+03  0.00000000000E+00 0. -1.
         -1   -1    0    0    0  501 -0.00000000000E+00 -0.00000000000E+00 -0.43961203468E+03  0.43961203468E+03  0.00000000000E+00 0.  1.
         24    2    1    2    0    0  0.12249529857E+03 -0.70326301501E+02 -0.32223109171E+03  0.36208450186E+03  0.85565315216E+02 0.  0.
         23    2    1    2    0    0 -0.75645958743E+02 -0.33082605013E+02  0.16146841397E+02  0.12205363548E+03  0.88428500028E+02 0.  0.
        -11    1    3    3    0    0  0.11140777824E+03 -0.85130548006E+02 -0.24140278950E+03  0.27916699309E+03  0.00000000000E+00 0.  1.
         12    1    3    3    0    0  0.11087520339E+02  0.14804246505E+02 -0.80828302215E+02  0.82917508771E+02  0.00000000000E+00 0. -1.
        -11    1    4    4    0    0 -0.95957306785E+02 -0.28979359426E+02  0.12512979203E+02  0.10101575445E+03  0.00000000000E+00 0. -1.
         11    1    4    4    0    0  0.20311348043E+02 -0.41032455874E+01  0.36338621940E+01  0.21037881027E+02  0.00000000000E+00 0.  1.
         -2    1    1    2    0  502 -0.46849339832E+02  0.10340890651E+03  0.27903760628E+02  0.11690544233E+03  0.00000000000E+00 0.  1.
<scales pt_clust_5="13000.00000" pt_clust_6="13000.00000" pt_clust_7="13000.00000" pt_clust_8="13000.00000" pt_clust_9="113.52648"></scales>
<clustering>
<clus scale="   85.565">  5  6 -1 -1</clus>
<clus scale="   88.429">  7  8 -1 -1</clus>
<clus scale="  113.526">  1  9  2 -1</clus>
<clus scale="  148.639">  2  5  1 -1</clus>
<clus scale="  113.526">  1  5  2 -1</clus>
</clustering>
</event>
<event>
 9    2  0.1033155E-004  0.1249591E+03  0.7546771E-02  0.1238975E+00
          2   -1    0    0  502    0 -0.00000000000E+00  0.00000000000E+00  0.14029555454E+03  0.14029555454E+03  0.00000000000E+00 0. -1.
         21   -1    0    0  501  502  0.00000000000E+00 -0.00000000000E+00 -0.24492126052E+03  0.24492126052E+03  0.00000000000E+00 0.  1.
         23    2    1    2    0    0 -0.68825723825E+02 -0.73614125756E+02  0.72330302326E+02  0.15375173694E+03  0.90839992334E+02 0.  0.
         24    2    1    2    0    0  0.39869605377E+02  0.23044249421E+02 -0.94803251332E+02  0.13074345846E+03  0.77366482417E+02 0.  0.
        -11    1    4    4    0    0 -0.13952546698E+02  0.30723516402E+02 -0.49859998655E+02  0.60204879249E+02  0.00000000000E+00 0.  1.
         12    1    4    4    0    0  0.53822152075E+02 -0.76792669813E+01 -0.44943252676E+02  0.70538579206E+02  0.00000000000E+00 0. -1.
        -13    1    3    3    0    0 -0.69657658864E+01 -0.60844914091E+02  0.66367884789E+02  0.90306819213E+02  0.00000000000E+00 0. -1.
         13    1    3    3    0    0 -0.61859957939E+02 -0.12769211665E+02  0.59624175374E+01  0.63444917729E+02  0.00000000000E+00 0.  1.
          1    1    1    2  501    0  0.28956118448E+02  0.50569876334E+02 -0.82152756975E+02  0.10072161966E+03  0.00000000000E+00 0. -1.
<scales pt_clust_5="13000.00000" pt_clust_6="13000.00000" pt_clust_7="13000.00000" pt_clust_8="13000.00000" pt_clust_9="58.27323"></scales>
<clustering>
<clus scale="   58.273">  2  9  1 -1</clus>
<clus scale="   77.366">  5  6 -1 -1</clus>
<clus scale="   90.840">  7  8 -1 -1</clus>
<clus scale="  115.536">  2  5  1 -1</clus>
<clus scale="   58.273">  2  5  1 -1</clus>
</clustering>
</event>
<event>
 9    2  0.1033155E-004  0.2346811E+03  0.7546771E-02  0.1164484E+00
          2   -1    0    0  502    0 -0.00000000000E+00  0.00000000000E+00  0.74109170606E+03  0.74109170606E+03  0.00000000000E+00 0. -1.
         21   -1    0    0  501  502  0.00000000000E+00 -0.00000000000E+00 -0.16683839317E+03  0.16683839317E+03  0.00000000000E+00 0. -1.
         24    2    1    2    0    0 -0.29954393953E+02 -0.27460476204E+02  0.28967229090E+03  0.30264845320E+03  0.77683374262E+02 0.  0.
         23    2    1    2    0    0 -0.16967465888E+02 -0.19109470699E+03  0.31479733652E+03  0.37971335327E+03  0.90993327400E+02 0.  0.
        -11    1    3    3    0    0 -0.48030365884E+02  0.44804438089E+01  0.20044842889E+03  0.20617119845E+03  0.00000000000E+00 0.  1.
         12    1    3    3    0    0  0.18075971930E+02 -0.31940920013E+02  0.89223862008E+02  0.96477254750E+02  0.00000000000E+00 0. -1.
        -13    1    4    4    0    0 -0.39560928295E+02 -0.62505766262E+02  0.16613622380E+03  0.18186061344E+03  0.00000000000E+00 0.  1.
         13    1    4    4    0    0  0.22593462407E+02 -0.12858894073E+03  0.14866111273E+03  0.19785273983E+03  0.00000000000E+00 0. -1.
          1    1    1    2  501    0  0.46921859841E+02  0.21855518319E+03 -0.30216314537E+02  0.22556829275E+03  0.00000000000E+00 0. -1.
<scales pt_clust_5="13000.00000" pt_clust_6="13000.00000" pt_clust_7="13000.00000" pt_clust_8="13000.00000" pt_clust_9="216.32250"></scales>
<clustering>
<clus scale="   77.683">  5  6 -1 -1</clus>
<clus scale="   87.670">  1  5  2 -1</clus>
<clus scale="   90.993">  7  8 -1 -1</clus>
<clus scale="  216.323">  2  9  1 -1</clus>
<clus scale="  216.323">  2  5  1 -1</clus>
</clustering>
</event>
<event>
 9    2  0.1033155E-004  0.1143766E+03  0.7546771E-02  0.1256332E+00
          2   -1    0    0  502    0 -0.00000000000E+00  0.00000000000E+00  0.62354160711E+03  0.62354160711E+03  0.00000000000E+00 0. -1.
         21   -1    0    0  501  502  0.00000000000E+00 -0.00000000000E+00 -0.90168218754E+02  0.90168218754E+02  0.00000000000E+00 0. -1.
         24    2    1    2    0    0 -0.29008535465E+02 -0.66340862571E+02  0.40899734607E+03  0.42311620384E+03  0.80659083070E+02 0.  0.
         23    2    1    2    0    0 -0.52368941385E+01  0.67958879213E+02  0.18721143581E+03  0.21901391746E+03  0.90956803040E+02 0.  0.
        -11    1    3    3    0    0  0.22909047103E+02 -0.69093772429E+01  0.48488105217E+02  0.54070882003E+02  0.00000000000E+00 0.  1.
         12    1    3    3    0    0 -0.51917582568E+02 -0.59431485328E+02  0.36050924086E+03  0.36904532184E+03  0.00000000000E+00 0. -1.
        -11    1    4    4    0    0  0.24563204007E+02  0.31908788542E+02  0.19195696002E+02  0.44609377066E+02  0.00000000000E+00 0.  1.
         11    1    4    4    0    0 -0.29800098145E+02  0.36050090671E+02  0.16801573981E+03  0.17440454039E+03  0.00000000000E+00 0. -1.
          1    1    1    2  501    0  0.34245429603E+02 -0.16180166413E+01 -0.62835393523E+02  0.71579704566E+02  0.00000000000E+00 0. -1.
<scales pt_clust_5="13000.00000" pt_clust_6="13000.00000" pt_clust_7="13000.00000" pt_clust_8="13000.00000" pt_clust_9="34.28363"></scales>
<clustering>
<clus scale="   34.284">  2  9  1 -1</clus>
<clus scale="   80.659">  5  6 -1 -1</clus>
<clus scale="   90.957">  7  8 -1 -1</clus>
<clus scale="  106.371">  1  5  2 -1</clus>
<clus scale="   34.284">  2  5  1 -1</clus>
</clustering>
</event>
<event>
 9    2  0.1033155E-004  0.9814207E+02  0.7546771E-02  0.1288266E+00
         21   -1    0    0  501  502  0.00000000000E+00  0.00000000000E+00  0.31226130123E+03  0.31226130123E+03  0.00000000000E+00 0.  1.
          2   -1    0    0  502    0 -0.00000000000E+00 -0.00000000000E+00 -0.42027984454E+02  0.42027984454E+02  0.00000000000E+00 0. -1.
         24    2    1    2    0    0  0.15591812123E+02 -0.36068553824E+02  0.53497866903E+02  0.10460260352E+03  0.80843291119E+02 0.  0.
         23    2    1    2    0    0 -0.36959328278E+02  0.34182692182E+02  0.17068780623E+03  0.19888793508E+03  0.88812359122E+02 0.  0.
        -13    1    3    3    0    0  0.16960262703E+02 -0.38292195598E+02 -0.83460273716E+01  0.42703617266E+02  0.00000000000E+00 0.  1.
         14    1    3    3    0    0 -0.13684505797E+01  0.22236417747E+01  0.61843894274E+02  0.61898986250E+02  0.00000000000E+00 0. -1.
        -11    1    4    4    0    0  0.24703829870E+02  0.32648170146E+01  0.86668253846E+02  0.90179401556E+02  0.00000000000E+00 0.  1.
         11    1    4    4    0    0 -0.61663158148E+02  0.30917875168E+02  0.84019552381E+02  0.10870853352E+03  0.00000000000E+00 0. -1.
          1    1    1    2  501    0  0.21367516155E+02  0.18858616414E+01  0.46047643647E+02  0.50798747092E+02  0.00000000000E+00 0. -1.
<scales pt_clust_5="13000.00000" pt_clust_6="13000.00000" pt_clust_7="13000.00000" pt_clust_8="13000.00000" pt_clust_9="21.45058"></scales>
<clustering>
<clus scale="   21.451">  1  9  2 -1</clus>
<clus scale="   80.843">  5  6 -1 -1</clus>
<clus scale="   88.812">  7  8 -1 -1</clus>
<clus scale="   90.994">  2  5  1 -1</clus>
<clus scale="   21.451">  1  5  2 -1</clus>
</clustering>
</event>
<event>
 9    2  0.1033155E-004  0.9997044E+02  0.7546771E-02  0.1282592E+00
         21   -1    0    0  501  502  0.00000000000E+00  0.00000000000E+00  0.25727899352E+03  0.25727899352E+03  0.00000000000E+00 0. -1.
          2   -1    0    0  502    0 -0.00000000000E+00 -0.00000000000E+00 -0.47297750115E+03  0.47297750115E+03  0.00000000000E+00 0. -1.
         24    2    1    2    0    0  0.45416708169E+02  0.10656281215E+02 -0.44272863299E+03  0.45320560637E+03  0.84914341921E+02 0.  0.
         23    2    1    2    0    0  0.12765029319E+02  0.20365157916E+02  0.12746934075E+03  0.15763650852E+03  0.89572040036E+02 0.  0.
        -11    1    3    3    0    0  0.21049669948E+02  0.18974812032E+02 -0.36733542487E+02  0.46394883772E+02  0.00000000000E+00 0.  1.
         12    1    3    3    0    0  0.24367038222E+02 -0.83185308171E+01 -0.40599509051E+03  0.40681072260E+03  0.00000000000E+00 0. -1.
        -13    1    4    4    0    0  0.34656031319E+02  0.45631761671E+02  0.95553232000E+02  0.11141686733E+03  0.00000000000E+00 0. -1.
         13    1    4    4    0    0 -0.21891002000E+02 -0.25266603755E+02  0.31916108749E+02  0.46219641188E+02  0.00000000000E+00 0.  1.
          1    1    1    2  501    0 -0.58181737489E+02 -0.31021439131E+02  0.99560784615E+02  0.11941437977E+03  0.00000000000E+00 0. -1.
<scales pt_clust_5="13000.00000" pt_clust_6="13000.00000" pt_clust_7="13000.00000" pt_clust_8="13000.00000" pt_clust_9="65.93515"></scales>
<clustering>
<clus scale="   65.935">  1  9  2 -1</clus>
<clus scale="   84.914">  5  6 -1 -1</clus>
<clus scale="   89.572">  7  8 -1 -1</clus>
<clus scale="   95.820">  2  5  1 -1</clus>
<clus scale="   65.935">  1  5  2 -1</clus>
</clustering>
</event>
<event>
 9    2  0.1033155E-004  0.3087298E+03  0.7546771E-02  0.1122455E+00
         21   -1    0    0  501  502  0.00000000000E+00  0.00000000000E+00  0.73819830952E+03  0.73819830952E+03  0.00000000000E+00 0.  1.
          2   -1    0    0  502    0 -0.00000000000E+00 -0.00000000000E+00 -0.18835166625E+03  0.18835166625E+03  0.00000000000E+00 0. -1.
         24    2    1    2    0    0 -0.48152933981E+02 -0.48454655486E+02 -0.23503979138E+01  0.10552739661E+03  0.80398683916E+02 0.  0.
         23    2    1    2    0    0 -0.23621931537E+03 -0.11149713733E+03  0.20360715924E+03  0.34356361965E+03  0.91372363818E+02 0.  0.
        -13    1    3    3    0    0 -0.17747986382E+02  0.15124542798E+02  0.20902092453E+02  0.31315176582E+02  0.00000000000E+00 0.  1.
         14    1    3    3    0    0 -0.30404947599E+02 -0.63579198284E+02 -0.23252490367E+02  0.74212220026E+02  0.00000000000E+00 0. -1.
        -13    1    4    4    0    0 -0.17237749559E+03 -0.86204491930E+02  0.19531382616E+03  0.27439516414E+03  0.00000000000E+00 0.  1.
         13    1    4    4    0    0 -0.63841819778E+02 -0.25292645402E+02  0.82933330744E+01  0.69168455509E+02  0.00000000000E+00 0. -1.
          1    1    1    2  501    0  0.28437224935E+03  0.15995179282E+03  0.34858988195E+03  0.47745895952E+03  0.00000000000E+00 0. -1.
<scales pt_clust_5="13000.00000" pt_clust_6="13000.00000" pt_clust_7="13000.00000" pt_clust_8="13000.00000" pt_clust_9="294.89862"></scales>
<clustering>
<clus scale="   80.399">  5  6 -1 -1</clus>
<clus scale="   91.372">  7  8 -1 -1</clus>
<clus scale="  105.501">  2  5  1 -1</clus>
<clus scale="  294.899">  1  9  2 -1</clus>
<clus scale="  294.899">  1  5  2 -1</clus>
</clustering>
</event>
<event>
 9    2  0.1033155E-004  0.1139376E+03  0.7546771E-02  0.1253891E+00
         21   -1    0    0  501  502  0.00000000000E+00  0.00000000000E+00  0.11473370834E+03  0.11473370834E+03  0.00000000000E+00 0. -1.
          2   -1    0    0  502    0 -0.00000000000E+00 -0.00000000000E+00 -0.68262271447E+03  0.68262271447E+03  0.00000000000E+00 0. -1.
         23    2    1    2    0    0  0.13817883857E+02 -0.71367535452E+02 -0.40467134874E+03  0.42104194736E+03  0.90736772641E+02 0.  0.
         24    2    1    2    0    0  0.92367705431E+02  0.28691277295E+02  0.48769452090E+02  0.13540956275E+03  0.81254586493E+02 0.  0.
        -13    1    4    4    0    0  0.23761561935E+02 -0.25858391956E+02  0.29033276231E+02  0.45565330997E+02  0.00000000000E+00 0.  1.
         14    1    4    4    0    0  0.68606143496E+02  0.54549669251E+02  0.19736175859E+02  0.89844231748E+02  0.00000000000E+00 0. -1.
        -11    1    3    3    0    0  0.21070535271E+02  0.17323230131E+02 -0.95215365858E+02  0.99045583719E+02  0.00000000000E+00 0.  1.
         11    1    3    3    0    0 -0.72526514146E+01 -0.88690765582E+02 -0.30945598289E+03  0.32199636364E+03  0.00000000000E+00 0. -1.
          1    1    1    2  501    0 -0.10618558929E+03  0.42676258156E+02 -0.21198710948E+03  0.24090491271E+03  0.00000000000E+00 0. -1.
<scales pt_clust_5="13000.00000" pt_clust_6="13000.00000" pt_clust_7="13000.00000" pt_clust_8="13000.00000" pt_clust_9="114.44062"></scales>
<clustering>
<clus scale="   81.255">  5  6 -1 -1</clus>
<clus scale="   90.737">  7  8 -1 -1</clus>
<clus scale="  114.441">  1  9  2 -1</clus>
<clus scale="  114.441">  1  5  2 -1</clus>
<clus scale="  113.938">  1  5  2 -1</clus>
</clustering>
</event>
<event>
 9    2  0.1033155E-004  0.1010655E+03  0.7546771E-02  0.1283778E+00
         -1   -1    0    0    0  501 -0.00000000000E+00  0.00000000000E+00  0.16791779241E+03  0.16791779241E+03  0.00000000000E+00 0.  1.
         21   -1    0    0  501  502  0.00000000000E+00 -0.00000000000E+00 -0.13574856201E+03  0.13574856201E+03  0.00000000000E+00 0.  1.
         24    2    1    2    0    0  0.38343418977E+01 -0.55668147019E+02  0.23828261467E+02  0.10163257076E+03  0.81533726913E+02 0.  0.
         23    2    1    2    0    0 -0.17149449684E+02  0.13377873253E+01 -0.61334993432E+02  0.11268156034E+03  0.92947616014E+02 0.  0.
        -11    1    3    3    0    0 -0.21091626763E+02 -0.60985478906E+02  0.35444528173E+02  0.73623365410E+02  0.00000000000E+00 0.  1.
         12    1    3    3    0    0  0.24925968661E+02  0.53173318871E+01 -0.11616266706E+02  0.28009205349E+02  0.00000000000E+00 0. -1.
        -11    1    4    4    0    0 -0.52522796051E+02  0.16227687409E+02 -0.44698327113E+02  0.70851410645E+02  0.00000000000E+00 0.  1.
         11    1    4    4    0    0  0.35373346366E+02 -0.14889900083E+02 -0.16636666319E+02  0.41830149699E+02  0.00000000000E+00 0. -1.
         -2    1    1    2    0  502  0.13315107787E+02  0.54330359694E+02  0.69675962361E+02  0.89352223312E+02  0.00000000000E+00 0.  1.
<scales pt_clust_5="13000.00000" pt_clust_6="13000.00000" pt_clust_7="13000.00000" pt_clust_8="13000.00000" pt_clust_9="55.93821"></scales>
<clustering>
<clus scale="   55.938">  2  9  1 -1</clus>
<clus scale="   81.534">  5  6 -1 -1</clus>
<clus scale="   90.679">  1  5  2 -1</clus>
<clus scale="   92.948">  7  8 -1 -1</clus>
<clus scale="   55.938">  2  5  1 -1</clus>
</clustering>
</event>
<event>
 9    2  0.1033155E-004  0.1368651E+03  0.7546771E-02  0.1232510E+00
         21   -1    0    0  501  502  0.00000000000E+00  0.00000000000E+00  0.28691729659E+03  0.28691729659E+03  0.00000000000E+00 0.  1.
         -3   -1    0    0    0  501 -0.00000000000E+00 -0.00000000000E+00 -0.22647229183E+03  0.22647229183E+03  0.00000000000E+00 0.  1.
         24    2    1    2    0    0  0.33240163872E+02  0.49113379338E+02 -0.12910218931E+03  0.16352369549E+03  0.80966605330E+02 0.  0.
         23    2    1    2    0    0 -0.64322553558E+02  0.53012803746E+02 -0.84990400492E+01  0.12488104217E+03  0.92602876596E+02 0.  0.
        -11    1    3    3    0    0  0.36248344109E+02  0.12154287942E+02 -0.11914507194E+03  0.12512880298E+03  0.00000000000E+00 0.  1.
         12    1    3    3    0    0 -0.30081802367E+01  0.36959091396E+02 -0.99571173683E+01  0.38394892517E+02  0.00000000000E+00 0. -1.
        -13    1    4    4    0    0 -0.38182283638E+00  0.51065250573E+02 -0.27694239928E+02  0.58092826837E+02  0.00000000000E+00 0.  1.
         13    1    4    4    0    0 -0.63940730722E+02  0.19475531727E+01  0.19195199879E+02  0.66788215330E+02  0.00000000000E+00 0. -1.
         -4    1    1    2    0  502  0.31082389686E+02 -0.10212618308E+03  0.19804623412E+03  0.22498485075E+03  0.00000000000E+00 0.  1.
<scales pt_clust_5="13000.00000" pt_clust_6="13000.00000" pt_clust_7="13000.00000" pt_clust_8="13000.00000" pt_clust_9="100.78083"></scales>
<clustering>
<clus scale="   80.967">  5  6 -1 -1</clus>
<clus scale="   92.603">  7  8 -1 -1</clus>
<clus scale="  100.362">  2  5  1 -1</clus>
<clus scale="  100.781">  1  9  2 -1</clus>
<clus scale="  100.781">  1  5  2 -1</clus>
</clustering>
</event>
<event>
 9    2  0.1033155E-004  0.1115091E+03  0.7546771E-02  0.1263869E+00
         21   -1    0    0  501  502  0.00000000000E+00  0.00000000000E+00  0.35876027054E+03  0.35876027054E+03  0.00000000000E+00 0. -1.
         -3   -1    0    0    0  501 -0.00000000000E+00 -0.00000000000E+00 -0.15531845071E+03  0.15531845071E+03  0.00000000000E+00 0.  1.
         24    2    1    2    0    0  0.34176131573E+02 -0.49080106180E+02 -0.12294429088E+03  0.15815777705E+03  0.79509238388E+02 0.  0.
         23    2    1    2    0    0 -0.44525616138E+02  0.28029888883E+02  0.20054334037E+03  0.22791068553E+03  0.94643774483E+02 0.  0.
        -11    1    3    3    0    0 -0.19320362774E+02 -0.32570567626E+02 -0.25114025500E+02  0.45440428806E+02  0.00000000000E+00 0.  1.
         12    1    3    3    0    0  0.53496494346E+02 -0.16509538553E+02 -0.97830265380E+02  0.11271734824E+03  0.00000000000E+00 0. -1.
        -13    1    4    4    0    0 -0.21112280907E+02 -0.29067768968E+02  0.12660133509E+03  0.13160000625E+03  0.00000000000E+00 0. -1.
         13    1    4    4    0    0 -0.23413335231E+02  0.57097657851E+02  0.73942005278E+02  0.96310679279E+02  0.00000000000E+00 0.  1.
         -4    1    1    2    0  502  0.10349484566E+02  0.21050217297E+02  0.12584277034E+03  0.12801025867E+03  0.00000000000E+00 0.  1.
<scales pt_clust_5="13000.00000" pt_clust_6="13000.00000" pt_clust_7="13000.00000" pt_clust_8="13000.00000" pt_clust_9="23.45684"></scales>
<clustering>
<clus scale="   23.457">  1  9  2 -1</clus>
<clus scale="   79.509">  5  6 -1 -1</clus>
<clus scale="   94.644">  7  8 -1 -1</clus>
<clus scale="   98.988">  2  5  1 -1</clus>
<clus scale="   23.457">  1  5  2 -1</clus>
</clustering>
</event>
<event>
 9    2  0.1033155E-004  0.1558858E+03  0.7546771E-02  0.1195371E+00
         21   -1    0    0  501  502  0.00000000000E+00  0.00000000000E+00  0.43324113305E+03  0.43324113305E+03  0.00000000000E+00 0. -1.
         -1   -1    0    0    0  501 -0.00000000000E+00 -0.00000000000E+00 -0.71392081100E+02  0.71392081100E+02  0.00000000000E+00 0.  1.
         23    2    1    2    0    0  0.12127650987E+03 -0.46090375730E+02  0.93755531561E+02  0.18454157098E+03  0.91832331675E+02 0.  0.
         24    2    1    2    0    0 -0.11984619939E+03  0.17072654279E+02  0.23257448464E+03  0.27420399944E+03  0.80264284521E+02 0.  0.
        -11    1    4    4    0    0 -0.95892427705E+02  0.31191534797E+02  0.11304960215E+03  0.15148756411E+03  0.00000000000E+00 0.  1.
         12    1    4    4    0    0 -0.23953771685E+02 -0.14118880518E+02  0.11952488249E+03  0.12271643532E+03  0.00000000000E+00 0. -1.
        -11    1    3    3    0    0  0.49215752993E+02 -0.18316753680E+02 -0.11729913585E+02  0.53807849620E+02  0.00000000000E+00 0.  1.
         11    1    3    3    0    0  0.72060756881E+02 -0.27773622051E+02  0.10548544515E+03  0.13073372136E+03  0.00000000000E+00 0. -1.
         -2    1    1    2    0  502 -0.14303104832E+01  0.29017721452E+02  0.35519035747E+02  0.45887643726E+02  0.00000000000E+00 0.  1.
<scales pt_clust_5="13000.00000" pt_clust_6="13000.00000" pt_clust_7="13000.00000" pt_clust_8="13000.00000" pt_clust_9="29.05295"></scales>
<clustering>
<clus scale="   29.053">  1  9  2 -1</clus>
<clus scale="   80.264">  5  6 -1 -1</clus>
<clus scale="   91.832">  7  8 -1 -1</clus>
<clus scale="  149.364">  1  5  2 -1</clus>
<clus scale="   29.053">  1  5  2 -1</clus>
</clustering>
</event>
<event>
 9    2  0.1033155E-004  0.9419846E+02  0.7546771E-02  0.1298786E+00
         21   -1    0    0  501  502  0.00000000000E+00  0.00000000000E+00  0.41577152936E+03  0.41577152936E+03  0.00000000000E+00 0.  1.
          2   -1    0    0  502    0 -0.00000000000E+00 -0.00000000000E+00 -0.21742049460E+03  0.21742049460E+03  0.00000000000E+00 0. -1.
         24    2    1    2    0    0 -0.23547446049E+02  0.63709836565E+01 -0.17087045639E+03  0.19015305866E+03  0.79789731184E+02 0.  0.
         23    2    1    2    0    0  0.70479122866E+02  0.18449615701E+02  0.62035708282E+02  0.13129909034E+03  0.89907324187E+02 0.  0.
        -11    1    3    3    0    0 -0.37180103251E+01  0.37623912660E+02 -0.44089966155E+02  0.58080181820E+02  0.00000000000E+00 0.  1.
         12    1    3    3    0    0 -0.19829435724E+02 -0.31252929004E+02 -0.12678049024E+03  0.13207287684E+03  0.00000000000E+00 0. -1.
        -11    1    4    4    0    0  0.90374156739E+02  0.10837660055E+02  0.36556110474E+02  0.98088186316E+02  0.00000000000E+00 0.  1.
         11    1    4    4    0    0 -0.19895033874E+02  0.76119556461E+01  0.25479597808E+02  0.33210904023E+02  0.00000000000E+00 0. -1.
          1    1    1    2  501    0 -0.46931676816E+02 -0.24820599358E+02  0.30718578287E+03  0.31173987496E+03  0.00000000000E+00 0. -1.
<scales pt_clust_5="13000.00000" pt_clust_6="13000.00000" pt_clust_7="13000.00000" pt_clust_8="13000.00000" pt_clust_9="53.09091"></scales>
<clustering>
<clus scale="   53.091">  1  9  2 -1</clus>
<clus scale="   79.790">  5  6 -1 -1</clus>
<clus scale="   84.596">  2  5  1 -1</clus>
<clus scale="   89.907">  7  8 -1 -1</clus>
<clus scale="   53.091">  1  5  2 -1</clus>
</clustering>
</event>
<event>
 9    2  0.1033155E-004  0.1052725E+03  0.7546771E-02  0.1273835E+00
         21   -1    0    0  501  502  0.00000000000E+00  0.00000000000E+00  0.56738717824E+03  0.56738717824E+03  0.00000000000E+00 0. -1.
         -1   -1    0    0    0  501 -0.00000000000E+00 -0.00000000000E+00 -0.10210867635E+03  0.10210867635E+03  0.00000000000E+00 0.  1.
         24    2    1    2    0    0  0.23441346078E+02  0.36421068864E+02 -0.18290328724E+02  0.95490090920E+02  0.83113358589E+02 0.  0.
         23    2    1    2    0    0 -0.97440200411E+02 -0.90492463268E+02  0.44674596680E+03  0.47523598370E+03  0.92648814283E+02 0.  0.
        -11    1    3    3    0    0  0.79668098457E+01  0.57241385040E+02 -0.32092333974E+02  0.66105704144E+02  0.00000000000E+00 0.  1.
         12    1    3    3    0    0  0.15474536232E+02 -0.20820316176E+02  0.13802005250E+02  0.29384386776E+02  0.00000000000E+00 0. -1.
        -11    1    4    4    0    0 -0.20707602759E+02  0.15020027927E+02  0.35254409527E+02  0.43557771317E+02  0.00000000000E+00 0.  1.
         11    1    4    4    0    0 -0.76732597652E+02 -0.10551249120E+03  0.41149155727E+03  0.43167821239E+03  0.00000000000E+00 0. -1.
         -2    1    1    2    0  502  0.73998854333E+02  0.54071394404E+02  0.36822863807E+02  0.98769779965E+02  0.00000000000E+00 0.  1.
<scales pt_clust_5="13000.00000" pt_clust_6="13000.00000" pt_clust_7="13000.00000" pt_clust_8="13000.00000" pt_clust_9="91.64908"></scales>
<clustering>
<clus scale="   83.113">  5  6 -1 -1</clus>
<clus scale="   91.649">  1  9  2 -1</clus>
<clus scale="   92.649">  7  8 -1 -1</clus>
<clus scale="   96.986">  2  5  1 -1</clus>
<clus scale="   91.649">  1  5  2 -1</clus>
</clustering>
</event>
<event>
 9    2  0.1033155E-004  0.1044034E+03  0.7546771E-02  0.1278898E+00
         21   -1    0    0  501  502  0.00000000000E+00  0.00000000000E+00  0.15865197755E+03  0.15865197755E+03  0.00000000000E+00 0.  1.
          2   -1    0    0  502    0 -0.00000000000E+00 -0.00000000000E+00 -0.11296899892E+03  0.11296899892E+03  0.00000000000E+00 0. -1.
         24    2    1    2    0    0  0.39022373270E+02 -0.35912042452E+02 -0.45590038499E+02  0.10525544146E+03  0.78662798945E+02 0.  0.
         23    2    1    2    0    0  0.47911846156E+00  0.23658476485E+02  0.68544997391E+02  0.11917358009E+03  0.94572577735E+02 0.  0.
        -11    1    3    3    0    0  0.45942071309E+02 -0.35415875060E+02 -0.63525000784E+02  0.86025483707E+02  0.00000000000E+00 0.  1.
         12    1    3    3    0    0 -0.69196980385E+01 -0.49616739125E+00  0.17934962285E+02  0.19229957753E+02  0.00000000000E+00 0. -1.
        -13    1    4    4    0    0 -0.42343585351E+02  0.11881342098E+01  0.54082482346E+02  0.68697203582E+02  0.00000000000E+00 0.  1.
         13    1    4    4    0    0  0.42822703812E+02  0.22470342275E+02  0.14462515045E+02  0.50476376506E+02  0.00000000000E+00 0. -1.
          1    1    1    2  501    0 -0.39501491732E+02  0.12253565967E+02  0.22728019746E+02  0.47191954924E+02  0.00000000000E+00 0. -1.
<scales pt_clust_5="13000.00000" pt_clust_6="13000.00000" pt_clust_7="13000.00000" pt_clust_8="13000.00000" pt_clust_9="41.35841"></scales>
<clustering>
<clus scale="   41.358">  1  9  2 -1</clus>
<clus scale="   78.663">  5  6 -1 -1</clus>
<clus scale="   90.244">  2  5  1 -1</clus>
<clus scale="   94.573">  7  8 -1 -1</clus>
<clus scale="   41.358">  1  5  2 -1</clus>
</clustering>
</event>
<event>
 9    2  0.1033155E-004  0.1272311E+03  0.7546771E-02  0.1234715E+00
         21   -1    0    0  501  502  0.00000000000E+00  0.00000000000E+00  0.79507399035E+02  0.79507399035E+02  0.00000000000E+00 0. -1.
          4   -1    0    0  502    0 -0.00000000000E+00 -0.00000000000E+00 -0.44268235297E+03  0.44268235297E+03  0.00000000000E+00 0. -1.
         23    2    1    2    0    0 -0.35925420755E+02 -0.89768487366E+02 -0.24216238020E+03  0.27597139406E+03  0.90380168030E+02 0.  0.
         24    2    1    2    0    0  0.28988958764E+02  0.49345571338E+02 -0.15469559974E+03  0.19314602158E+03  0.10049533290E+03 0.  0.
        -11    1    4    4    0    0 -0.32457827047E+02  0.34487921559E+02 -0.39188458557E+02  0.61470826854E+02  0.00000000000E+00 0.  1.
         12    1    4    4    0    0  0.61446785811E+02  0.14857649779E+02 -0.11550714118E+03  0.13167519473E+03  0.00000000000E+00 0. -1.
        -13    1    3    3    0    0 -0.37959345418E+02 -0.55076669817E+02 -0.22939554226E+03  0.23894908720E+03  0.00000000000E+00 0.  1.
         13    1    3    3    0    0  0.20339246635E+01 -0.34691817549E+02 -0.12766837941E+02  0.37022306862E+02  0.00000000000E+00 0. -1.
          3    1    1    2  501    0  0.69364619907E+01  0.40422916028E+02  0.33683026011E+02  0.53072336357E+02  0.00000000000E+00 0. -1.
<scales pt_clust_5="13000.00000" pt_clust_6="13000.00000" pt_clust_7="13000.00000" pt_clust_8="13000.00000" pt_clust_9="41.01374"></scales>
<clustering>
<clus scale="   41.014">  1  9  2 -1</clus>
<clus scale="   90.380">  7  8 -1 -1</clus>
<clus scale="  100.495">  5  6 -1 -1</clus>
<clus scale="  119.403">  2  7  1 -1</clus>
<clus scale="   41.014">  1  5  2 -1</clus>
</clustering>
</event>
<event>
 9    2  0.1033155E-004  0.9393485E+02  0.7546771E-02  0.1299344E+00
          4   -1    0    0  502    0 -0.00000000000E+00  0.00000000000E+00  0.64246234988E+03  0.64246234988E+03  0.00000000000E+00 0. -1.
         21   -1    0    0  501  502  0.00000000000E+00 -0.00000000000E+00 -0.74008545236E+02  0.74008545236E+02  0.00000000000E+00 0. -1.
         24    2    1    2    0    0 -0.28155112290E+02 -0.73722059987E+01  0.48872081137E+03  0.49593942777E+03  0.79125373810E+02 0.  0.
         23    2    1    2    0    0  0.25019449862E+01  0.79023559535E+02  0.81526819225E+02  0.14440512980E+03  0.89192132894E+02 0.  0.
        -11    1    3    3    0    0 -0.45645113531E+02 -0.30588263061E+02  0.29938764751E+03  0.30438804462E+03  0.00000000000E+00 0.  1.
         12    1    3    3    0    0  0.17490001241E+02  0.23216057063E+02  0.18933316385E+03  0.19155138314E+03  0.00000000000E+00 0. -1.
        -13    1    4    4    0    0  0.34477347287E+02  0.47899251021E+01  0.41637383649E+02  0.54270641931E+02  0.00000000000E+00 0.  1.
         13    1    4    4    0    0 -0.31975402301E+02  0.74233634433E+02  0.39889435576E+02  0.90134487873E+02  0.00000000000E+00 0. -1.
          3    1    1    2  501    0  0.25653167304E+02 -0.71651353536E+02 -0.17938259498E+01  0.76126337544E+02  0.00000000000E+00 0. -1.
<scales pt_clust_5="13000.00000" pt_clust_6="13000.00000" pt_clust_7="13000.00000" pt_clust_8="13000.00000" pt_clust_9="76.10520"></scales>
<clustering>
<clus scale="   76.105">  2  9  1 -1</clus>
<clus scale="   79.125">  5  6 -1 -1</clus>
<clus scale="   84.435">  1  5  2 -1</clus>
<clus scale="   89.192">  7  8 -1 -1</clus>
<clus scale="   76.105">  2  5  1 -1</clus>
</clustering>
</event>
<event>
 9    2  0.1033155E-004  0.9978636E+02  0.7546771E-02  0.1286930E+00
         21   -1    0    0  501  502  0.00000000000E+00  0.00000000000E+00  0.16644856872E+02  0.16644856872E+02  0.00000000000E+00 0. -1.
          2   -1    0    0  502    0 -0.00000000000E+00 -0.00000000000E+00 -0.14340516915E+04  0.14340516915E+04  0.00000000000E+00 0. -1.
         24    2    1    2    0    0 -0.87846295506E+01 -0.39009327790E+02 -0.10587353676E+04  0.10624606627E+04  0.79392591851E+02 0.  0.
         23    2    1    2    0    0  0.41866079642E+02  0.27349845412E+02 -0.19818049963E+03  0.22395662204E+03  0.91543844427E+02 0.  0.
        -13    1    3    3    0    0  0.24893408110E+02  0.25822236658E+01 -0.14381118321E+03  0.14597262093E+03  0.00000000000E+00 0.  1.
         14    1    3    3    0    0 -0.33678037660E+02 -0.41591551455E+02 -0.91492418442E+03  0.91648804172E+03  0.00000000000E+00 0. -1.
        -11    1    4    4    0    0  0.29179789737E+02  0.47854452633E+02 -0.19061665821E+03  0.19868623293E+03  0.00000000000E+00 0.  1.
         11    1    4    4    0    0  0.12686289905E+02 -0.20504607221E+02 -0.75638414147E+01  0.25270389110E+02  0.00000000000E+00 0. -1.
          1    1    1    2  501    0 -0.33081450092E+02  0.11659482377E+02 -0.16049096741E+03  0.16427926372E+03  0.00000000000E+00 0. -1.
<scales pt_clust_5="13000.00000" pt_clust_6="13000.00000" pt_clust_7="13000.00000" pt_clust_8="13000.00000" pt_clust_9="35.07600"></scales>
<clustering>
<clus scale="   35.076">  1  9  2 -1</clus>
<clus scale="   79.393">  5  6 -1 -1</clus>
<clus scale="   88.771">  2  5  1 -1</clus>
<clus scale="   91.544">  7  8 -1 -1</clus>
<clus scale="   35.076">  1  5  2 -1</clus>
</clustering>
</event>
<event>
 9    2  0.1033155E-004  0.1048165E+03  0.7546771E-02  0.1279717E+00
         21   -1    0    0  501  502  0.00000000000E+00  0.00000000000E+00  0.13793469651E+02  0.13793469651E+02  0.00000000000E+00 0.  1.
          2   -1    0    0  502    0 -0.00000000000E+00 -0.00000000000E+00 -0.10350464373E+04  0.10350464373E+04  0.00000000000E+00 0. -1.
         24    2    1    2    0    0 -0.84837011873E+01  0.54457675257E+02 -0.64052653132E+03  0.64720445709E+03  0.74577210784E+02 0.  0.
         23    2    1    2    0    0  0.89104481538E+01 -0.25740566212E+02 -0.31624612013E+03  0.33104815892E+03  0.94017563224E+02 0.  0.
        -11    1    3    3    0    0  0.22555253991E+02  0.51491658358E+02 -0.29756278123E+03  0.30282625239E+03  0.00000000000E+00 0.  1.
         12    1    3    3    0    0 -0.31038955178E+02  0.29660168993E+01 -0.34296375010E+03  0.34437820470E+03  0.00000000000E+00 0. -1.
        -11    1    4    4    0    0 -0.40380907781E+02 -0.12049404111E+02 -0.19409880077E+03  0.19862061905E+03  0.00000000000E+00 0. -1.
         11    1    4    4    0    0  0.49291355935E+02 -0.13691162101E+02 -0.12214731936E+03  0.13242753988E+03  0.00000000000E+00 0.  1.
          1    1    1    2  501    0 -0.42674696645E+00 -0.28717109045E+02 -0.64480316190E+02  0.70587290930E+02  0.00000000000E+00 0. -1.
<scales pt_clust_5="13000.00000" pt_clust_6="13000.00000" pt_clust_7="13000.00000" pt_clust_8="13000.00000" pt_clust_9="28.72028"></scales>
<clustering>
<clus scale="   28.720">  1  9  2 -1</clus>
<clus scale="   74.577">  5  6 -1 -1</clus>
<clus scale="   87.801">  2  5  1 -1</clus>
<clus scale="   94.018">  7  8 -1 -1</clus>
<clus scale="   28.720">  1  5  2 -1</clus>
</clustering>
</event>
<event>
 9    2  0.1033155E-004  0.9299953E+02  0.7546771E-02  0.1303269E+00
          2   -1    0    0  502    0 -0.00000000000E+00  0.00000000000E+00  0.18368878777E+03  0.18368878777E+03  0.00000000000E+00 0. -1.
         21   -1    0    0  501  502  0.00000000000E+00 -0.00000000000E+00 -0.10447915798E+03  0.10447915798E+03  0.00000000000E+00 0.  1.
         24    2    1    2    0    0  0.32180557554E+01  0.19376684104E+02  0.63146748583E+02  0.10422769110E+03  0.80561082206E+02 0.  0.
         23    2    1    2    0    0 -0.14665840959E+02  0.41518702730E+02 -0.29820665459E+02  0.10683902393E+03  0.92662912634E+02 0.  0.
        -13    1    3    3    0    0  0.32573979101E+02  0.14578743940E+02  0.65288147296E+02  0.74405282518E+02  0.00000000000E+00 0.  1.
         14    1    3    3    0    0 -0.29355923345E+02  0.47979401646E+01 -0.21413987133E+01  0.29822408583E+02  0.00000000000E+00 0. -1.
        -11    1    4    4    0    0 -0.33806625862E+02  0.18242437433E+02 -0.55328971086E+02  0.67357030198E+02  0.00000000000E+00 0.  1.
         11    1    4    4    0    0  0.19140784903E+02  0.23276265298E+02  0.25508305626E+02  0.39481993729E+02  0.00000000000E+00 0. -1.
          1    1    1    2  501    0  0.11447785204E+02 -0.60895386835E+02  0.45883546667E+02  0.77101230720E+02  0.00000000000E+00 0. -1.
<scales pt_clust_5="13000.00000" pt_clust_6="13000.00000" pt_clust_7="13000.00000" pt_clust_8="13000.00000" pt_clust_9="61.96212"></scales>
<clustering>
<clus scale="   61.962">  2  9  1 -1</clus>
<clus scale="   80.561">  5  6 -1 -1</clus>
<clus scale="   80.948">  1  5  2 -1</clus>
<clus scale="   92.663">  7  8 -1 -1</clus>
<clus scale="   61.962">  2  5  1 -1</clus>
</clustering>
</event>
<event>
 9    2  0.1033155E-004  0.1163992E+03  0.7546771E-02  0.1252527E+00
         21   -1    0    0  501  502  0.00000000000E+00  0.00000000000E+00  0.23609979149E+02  0.23609979149E+02  0.00000000000E+00 0. -1.
          2   -1    0    0  502    0 -0.00000000000E+00 -0.00000000000E+00 -0.67538192221E+03  0.67538192221E+03  0.00000000000E+00 0. -1.
         23    2    1    2    0    0  0.76016020819E+02  0.11524530414E+02 -0.36390472950E+03  0.38262656916E+03  0.89806397605E+02 0.  0.
         24    2    1    2    0    0 -0.71317449461E+02  0.99270882441E+01 -0.21654699630E+03  0.24174079263E+03  0.79757655034E+02 0.  0.
        -11    1    4    4    0    0  0.58967009548E+01 -0.19701236244E+02 -0.75347667643E+02  0.78103654274E+02  0.00000000000E+00 0.  1.
         12    1    4    4    0    0 -0.77214150416E+02  0.29628324488E+02 -0.14119932866E+03  0.16363713836E+03  0.00000000000E+00 0. -1.
        -11    1    3    3    0    0  0.75108290027E+02  0.38275149560E+02 -0.32240826240E+03  0.33324665035E+03  0.00000000000E+00 0. -1.
         11    1    3    3    0    0  0.90773079184E+00 -0.26750619146E+02 -0.41496467100E+02  0.49379918810E+02  0.00000000000E+00 0.  1.
          1    1    1    2  501    0 -0.46985713572E+01 -0.21451618658E+02 -0.71320217259E+02  0.74624539568E+02  0.00000000000E+00 0. -1.
<scales pt_clust_5="13000.00000" pt_clust_6="13000.00000" pt_clust_7="13000.00000" pt_clust_8="13000.00000" pt_clust_9="21.96017"></scales>
<clustering>
<clus scale="   21.960">  1  9  2 -1</clus>
<clus scale="   79.758">  5  6 -1 -1</clus>
<clus scale="   89.806">  7  8 -1 -1</clus>
<clus scale="  108.834">  1  5  2 -1</clus>
<clus scale="   21.960">  1  5  2 -1</clus>
</clustering>
</event>
<event>
 9    2  0.1033155E-004  0.9132118E+02  0.7546771E-02  0.1306454E+00
          2   -1    0    0  502    0 -0.00000000000E+00  0.00000000000E+00  0.92353399207E+03  0.92353399207E+03  0.00000000000E+00 0. -1.
         21   -1    0    0  501  502  0.00000000000E+00 -0.00000000000E+00 -0.28086945824E+02  0.28086945824E+02  0.00000000000E+00 0. -1.
         24    2    1    2    0    0  0.34921287253E+00 -0.14311227963E+01  0.49289575430E+03  0.49924142091E+03  0.79332223467E+02 0.  0.
         23    2    1    2    0    0  0.20703157751E+01 -0.47755503033E+02  0.38775669381E+03  0.40095910845E+03  0.90155858245E+02 0.  0.
        -13    1    3    3    0    0 -0.37467619767E+02  0.11218282796E+02  0.22037865729E+03  0.22382230673E+03  0.00000000000E+00 0.  1.
         14    1    3    3    0    0  0.37816832639E+02 -0.12649405593E+02  0.27251709702E+03  0.27541911419E+03  0.00000000000E+00 0. -1.
        -11    1    4    4    0    0  0.25631516117E+02 -0.58438351373E+02  0.34602155052E+03  0.35185640388E+03  0.00000000000E+00 0. -1.
         11    1    4    4    0    0 -0.23561200342E+02  0.10682848340E+02  0.41735143295E+02  0.49102704570E+02  0.00000000000E+00 0.  1.
          1    1    1    2  501    0 -0.24195286476E+01  0.49186625830E+02  0.14794598125E+02  0.51420408527E+02  0.00000000000E+00 0. -1.
<scales pt_clust_5="13000.00000" pt_clust_6="13000.00000" pt_clust_7="13000.00000" pt_clust_8="13000.00000" pt_clust_9="49.24610"></scales>
<clustering>
<clus scale="   49.246">  2  9  1 -1</clus>
<clus scale="   79.332">  5  6 -1 -1</clus>
<clus scale="   80.654">  1  5  2 -1</clus>
<clus scale="   90.156">  7  8 -1 -1</clus>
<clus scale="   49.246">  2  5  1 -1</clus>
</clustering>
</event>
<event>
 9    2  0.1033155E-004  0.1032774E+03  0.7546771E-02  0.1296088E+00
         21   -1    0    0  501  502  0.00000000000E+00  0.00000000000E+00  0.57469032924E+02  0.57469032924E+02  0.00000000000E+00 0. -1.
          2   -1    0    0  502    0 -0.00000000000E+00 -0.00000000000E+00 -0.44854322491E+03  0.44854322491E+03  0.00000000000E+00 0. -1.
         24    2    1    2    0    0 -0.33873488864E+02  0.56422247234E+02 -0.23962908834E+03  0.25439828430E+03  0.54456439892E+02 0.  0.
         23    2    1    2    0    0 -0.69457518377E+01  0.78706283363E+01 -0.14678787825E+03  0.17531538896E+03  0.95281761862E+02 0.  0.
        -13    1    3    3    0    0 -0.20830489948E+02  0.65064369884E+02 -0.21084109416E+03  0.22163313950E+03  0.00000000000E+00 0.  1.
         14    1    3    3    0    0 -0.13042998916E+02 -0.86421226499E+01 -0.28787994177E+02  0.32765144794E+02  0.00000000000E+00 0. -1.
        -11    1    4    4    0    0  0.20459301750E+02  0.40758137639E+02 -0.41513989749E+02  0.61670253419E+02  0.00000000000E+00 0. -1.
         11    1    4    4    0    0 -0.27405053587E+02 -0.32887509303E+02 -0.10527388850E+03  0.11364513554E+03  0.00000000000E+00 0.  1.
          1    1    1    2  501    0  0.40819240701E+02 -0.64292875570E+02 -0.46572253948E+01  0.76298584580E+02  0.00000000000E+00 0. -1.
<scales pt_clust_5="13000.00000" pt_clust_6="13000.00000" pt_clust_7="13000.00000" pt_clust_8="13000.00000" pt_clust_9="76.15631"></scales>
<clustering>
<clus scale="   54.456">  5  6 -1 -1</clus>
<clus scale="   76.156">  1  9  2 -1</clus>
<clus scale="   67.477">  2  5  1 -1</clus>
<clus scale="   95.282">  7  8 -1 -1</clus>
<clus scale="   76.156">  1  5  2 -1</clus>
</clustering>
</event>
<event>
 9    2  0.1033155E-004  0.1937546E+03  0.7546771E-02  0.1156046E+00
         -1   -1    0    0    0  501 -0.00000000000E+00  0.00000000000E+00  0.12215755832E+03  0.12215755832E+03  0.00000000000E+00 0.  1.
         21   -1    0    0  501  502  0.00000000000E+00 -0.00000000000E+00 -0.55935394173E+03  0.55935394173E+03  0.00000000000E+00 0. -1.
         24    2    1    2    0    0 -0.14478787908E+03 -0.64265776184E+02 -0.18974837588E+03  0.26010335837E+03  0.80967221592E+02 0.  0.
         23    2    1    2    0    0  0.13686305598E+03  0.14094082364E+03 -0.26533359734E+03  0.34227685807E+03  0.90309013003E+02 0.  0.
        -13    1    3    3    0    0 -0.67072855818E+02  0.92739119057E+01 -0.50360640071E+02  0.84385825219E+02  0.00000000000E+00 0.  1.
         14    1    3    3    0    0 -0.77715023266E+02 -0.73539688089E+02 -0.13938773580E+03  0.17571753316E+03  0.00000000000E+00 0. -1.
        -13    1    4    4    0    0  0.37013834474E+02  0.10218983734E+03 -0.14441344563E+03  0.18074299454E+03  0.00000000000E+00 0. -1.
         13    1    4    4    0    0  0.99849221506E+02  0.38750986300E+02 -0.12092015171E+03  0.16153386353E+03  0.00000000000E+00 0.  1.
         -2    1    1    2    0  502  0.79248231030E+01 -0.76675047458E+02  0.17885589807E+02  0.79131283616E+02  0.00000000000E+00 0.  1.
<scales pt_clust_5="13000.00000" pt_clust_6="13000.00000" pt_clust_7="13000.00000" pt_clust_8="13000.00000" pt_clust_9="77.08354"></scales>
<clustering>
<clus scale="   77.084">  2  9  1 -1</clus>
<clus scale="   80.967">  5  6 -1 -1</clus>
<clus scale="   90.309">  7  8 -1 -1</clus>
<clus scale="  189.581">  1  5  2 -1</clus>
<clus scale="   77.084">  2  5  1 -1</clus>
</clustering>
</event>
<event>
 9    2  0.1033155E-004  0.1313232E+03  0.7546771E-02  0.1228386E+00
          2   -1    0    0  502    0 -0.00000000000E+00  0.00000000000E+00  0.11919802746E+04  0.11919802746E+04  0.00000000000E+00 0. -1.
         21   -1    0    0  501  502  0.00000000000E+00 -0.00000000000E+00 -0.23367070145E+02  0.23367070145E+02  0.00000000000E+00 0.  1.
         24    2    1    2    0    0  0.11466453518E+02  0.91797685305E+02  0.85396924362E+03  0.86267790665E+03  0.79946275677E+02 0.  0.
         23    2    1    2    0    0 -0.30835090578E+02 -0.98421317769E+02  0.25845472755E+03  0.29286771115E+03  0.91296721944E+02 0.  0.
        -11    1    3    3    0    0  0.38572352455E+02  0.28437585478E+02  0.23167823334E+03  0.23658259963E+03  0.00000000000E+00 0.  1.
         12    1    3    3    0    0 -0.27105898937E+02  0.63360099827E+02  0.62229101028E+03  0.62609530703E+03  0.00000000000E+00 0. -1.
        -13    1    4    4    0    0 -0.27711124888E+02 -0.18737136421E+02  0.17211378033E+03  0.17533436658E+03  0.00000000000E+00 0. -1.
         13    1    4    4    0    0 -0.31239656904E+01 -0.79684181348E+02  0.86340947216E+02  0.11753334457E+03  0.00000000000E+00 0.  1.
          1    1    1    2  501    0  0.19368637059E+02  0.66236324649E+01  0.56189233327E+02  0.59801726986E+02  0.00000000000E+00 0. -1.
<scales pt_clust_5="13000.00000" pt_clust_6="13000.00000" pt_clust_7="13000.00000" pt_clust_8="13000.00000" pt_clust_9="20.46990"></scales>
<clustering>
<clus scale="   20.470">  2  9  1 -1</clus>
<clus scale="   79.946">  5  6 -1 -1</clus>
<clus scale="   91.297">  7  8 -1 -1</clus>
<clus scale="  123.702">  1  5  2 -1</clus>
<clus scale="   20.470">  2  5  1 -1</clus>
</clustering>
</event>
<event>
 9    2  0.1033155E-004  0.9522408E+02  0.7546771E-02  0.1295599E+00
         21   -1    0    0  501  502  0.00000000000E+00  0.00000000000E+00  0.21185562883E+03  0.21185562883E+03  0.00000000000E+00 0. -1.
         -1   -1    0    0    0  501 -0.00000000000E+00 -0.00000000000E+00 -0.85629589127E+02  0.85629589127E+02  0.00000000000E+00 0.  1.
         24    2    1    2    0    0 -0.25521010090E+02  0.11288022533E+02 -0.32969758958E+02  0.91964376606E+02  0.81189285932E+02 0.  0.
         23    2    1    2    0    0  0.32503656564E+02 -0.37321551659E+02  0.13117192595E+03  0.16663846190E+03  0.90071732062E+02 0.  0.
        -13    1    3    3    0    0 -0.10653231805E+02  0.28297493527E+02 -0.53490139249E+02  0.61444564321E+02  0.00000000000E+00 0.  1.
         14    1    3    3    0    0 -0.14867778285E+02 -0.17009470994E+02  0.20520380291E+02  0.30519812285E+02  0.00000000000E+00 0. -1.
        -13    1    4    4    0    0  0.10810475767E+02  0.29988011349E+02  0.45367062317E+02  0.55446528784E+02  0.00000000000E+00 0.  1.
         13    1    4    4    0    0  0.21693180797E+02 -0.67309563009E+02  0.85804863638E+02  0.11119193311E+03  0.00000000000E+00 0. -1.
         -2    1    1    2    0  502 -0.69826464737E+01  0.26033529126E+02  0.28023872709E+02  0.38882379456E+02  0.00000000000E+00 0.  1.
<scales pt_clust_5="13000.00000" pt_clust_6="13000.00000" pt_clust_7="13000.00000" pt_clust_8="13000.00000" pt_clust_9="26.95370"></scales>
<clustering>
<clus scale="   26.954">  1  9  2 -1</clus>
<clus scale="   81.189">  5  6 -1 -1</clus>
<clus scale="   86.870">  2  5  1 -1</clus>
<clus scale="   90.072">  7  8 -1 -1</clus>
<clus scale="   26.954">  1  5  2 -1</clus>
</clustering>
</event>
<event>
 9    2  0.1033155E-004  0.1038221E+03  0.7546771E-02  0.1279554E+00
          4   -1    0    0  502    0 -0.00000000000E+00  0.00000000000E+00  0.74306232349E+02  0.74306232349E+02  0.00000000000E+00 0. -1.
         21   -1    0    0  501  502  0.00000000000E+00 -0.00000000000E+00 -0.15956618287E+03  0.15956618287E+03  0.00000000000E+00 0. -1.
         23    2    1    2    0    0  0.42671696848E+02 -0.23452272283E+02 -0.35503788475E+02  0.11370537253E+03  0.96423596479E+02 0.  0.
         24    2    1    2    0    0 -0.20942936919E+02  0.20920698395E+02 -0.43155293536E+02  0.97317111855E+02  0.82048514133E+02 0.  0.
        -11    1    4    4    0    0  0.23485855612E+02 -0.14397210792E+01  0.90505726108E+01  0.25210535005E+02  0.00000000000E+00 0.  1.
         12    1    4    4    0    0 -0.44428792532E+02  0.22360419474E+02 -0.52205866147E+02  0.72106576850E+02  0.00000000000E+00 0. -1.
        -13    1    3    3    0    0 -0.28849942320E+02 -0.97012702280E+00  0.36993230993E+01  0.29102324816E+02  0.00000000000E+00 0.  1.
         13    1    3    3    0    0  0.71521639167E+02 -0.22482145260E+02 -0.39203111574E+02  0.84603047710E+02  0.00000000000E+00 0. -1.
          3    1    1    2  501    0 -0.21728759928E+02  0.25315738887E+01 -0.66008685140E+01  0.22849930843E+02  0.00000000000E+00 0. -1.
<scales pt_clust_5="13000.00000" pt_clust_6="13000.00000" pt_clust_7="13000.00000" pt_clust_8="13000.00000" pt_clust_9="21.87575"></scales>
<clustering>
<clus scale="   21.876">  2  9  1 -1</clus>
<clus scale="   82.049">  5  6 -1 -1</clus>
<clus scale="   90.628">  2  5  1 -1</clus>
<clus scale="   96.424">  7  8 -1 -1</clus>
<clus scale="   21.876">  2  5  1 -1</clus>
</clustering>
</event>
<event>
 9    2  0.1033155E-004  0.9446160E+02  0.7546771E-02  0.1300985E+00
         21   -1    0    0  501  502  0.00000000000E+00  0.00000000000E+00  0.15294362203E+03  0.15294362203E+03  0.00000000000E+00 0. -1.
          2   -1    0    0  502    0 -0.00000000000E+00 -0.00000000000E+00 -0.21726076705E+03  0.21726076705E+03  0.00000000000E+00 0. -1.
         23    2    1    2    0    0  0.21687333985E+02  0.22208228474E+02 -0.92739768880E+02  0.13383632472E+03  0.91367123274E+02 0.  0.
         24    2    1    2    0    0  0.38421934359E+02 -0.79685340938E+01  0.10631360458E+03  0.13695529901E+03  0.76905323822E+02 0.  0.
        -13    1    4    4    0    0 -0.22949520402E+02 -0.77546241050E+01  0.38565844131E+02  0.45542716380E+02  0.00000000000E+00 0.  1.
         14    1    4    4    0    0  0.61371454762E+02 -0.21390998876E+00  0.67747760450E+02  0.91412582630E+02  0.00000000000E+00 0. -1.
        -11    1    3    3    0    0  0.50030905691E+02  0.27098582857E+02 -0.87842427956E+02  0.10466000605E+03  0.00000000000E+00 0.  1.
         11    1    3    3    0    0 -0.28343571706E+02 -0.48903543832E+01 -0.48973409240E+01  0.29176318671E+02  0.00000000000E+00 0. -1.
          1    1    1    2  501    0 -0.60109268345E+02 -0.14239694380E+02 -0.77890980722E+02  0.99412765351E+02  0.00000000000E+00 0. -1.
<scales pt_clust_5="13000.00000" pt_clust_6="13000.00000" pt_clust_7="13000.00000" pt_clust_8="13000.00000" pt_clust_9="61.77295"></scales>
<clustering>
<clus scale="   61.773">  1  9  2 -1</clus>
<clus scale="   76.905">  5  6 -1 -1</clus>
<clus scale="   80.557">  1  5  2 -1</clus>
<clus scale="   91.367">  7  8 -1 -1</clus>
<clus scale="   61.773">  1  5  2 -1</clus>
</clustering>
</event>
<event>
 9    2  0.1033155E-004  0.1380265E+03  0.7546771E-02  0.1218367E+00
         -1   -1    0    0    0  501 -0.00000000000E+00  0.00000000000E+00  0.68254841867E+03  0.68254841867E+03  0.00000000000E+00 0.  1.
         21   -1    0    0  501  502  0.00000000000E+00 -0.00000000000E+00 -0.16939548590E+03  0.16939548590E+03  0.00000000000E+00 0.  1.
         23    2    1    2    0    0 -0.10576863533E+03 -0.31633246064E+02  0.55425917253E+03  0.57239364673E+03  0.90794217908E+02 0.  0.
         24    2    1    2    0    0  0.88815203578E+02 -0.48555103548E+02  0.65699772031E+02  0.14492071273E+03  0.80248454609E+02 0.  0.
        -11    1    4    4    0    0  0.86865311228E+01 -0.38143154161E+02  0.48495670205E+02  0.62307191085E+02  0.00000000000E+00 0.  1.
         12    1    4    4    0    0  0.80128672455E+02 -0.10411949387E+02  0.17204101826E+02  0.82613521648E+02  0.00000000000E+00 0. -1.
        -11    1    3    3    0    0 -0.27032345009E+02 -0.54390394216E+02  0.25249007644E+03  0.25969270564E+03  0.00000000000E+00 0. -1.
         11    1    3    3    0    0 -0.78736290319E+02  0.22757148152E+02  0.30176909609E+03  0.31270094109E+03  0.00000000000E+00 0.  1.
         -2    1    1    2    0  502  0.16953431751E+02  0.80188349612E+02 -0.10680601179E+03  0.13462954511E+03  0.00000000000E+00 0.  1.
<scales pt_clust_5="13000.00000" pt_clust_6="13000.00000" pt_clust_7="13000.00000" pt_clust_8="13000.00000" pt_clust_9="81.96091"></scales>
<clustering>
<clus scale="   80.248">  5  6 -1 -1</clus>
<clus scale="   81.961">  2  9  1 -1</clus>
<clus scale="   90.794">  7  8 -1 -1</clus>
<clus scale="  131.330">  2  5  1 -1</clus>
<clus scale="   81.961">  2  5  1 -1</clus>
</clustering>
</event>
<event>
 9    2  0.1033155E-004  0.9232819E+02  0.7546771E-02  0.1314206E+00
         -1   -1    0    0    0  501 -0.00000000000E+00  0.00000000000E+00  0.38965125692E+03  0.38965125692E+03  0.00000000000E+00 0.  1.
         21   -1    0    0  501  502  0.00000000000E+00 -0.00000000000E+00 -0.37915942043E+02  0.37915942043E+02  0.00000000000E+00 0. -1.
         24    2    1    2    0    0 -0.18413731780E+02 -0.16739270216E+02  0.15575250449E+03  0.17075196321E+03  0.65407351285E+02 0.  0.
         23    2    1    2    0    0 -0.40085746541E+02  0.19479797174E+02  0.87771264841E+02  0.13377281200E+03  0.90581679852E+02 0.  0.
        -13    1    3    3    0    0 -0.33612124991E+02 -0.32482398295E+02  0.12064115904E+03  0.12937994590E+03  0.00000000000E+00 0.  1.
         14    1    3    3    0    0  0.15198393211E+02  0.15743128079E+02  0.35111345442E+02  0.41372017314E+02  0.00000000000E+00 0. -1.
        -13    1    4    4    0    0  0.14775627674E+01  0.27649078490E+02  0.87114777972E+02  0.91409185940E+02  0.00000000000E+00 0.  1.
         13    1    4    4    0    0 -0.41563309308E+02 -0.81692813167E+01  0.65648686859E+00  0.42363626059E+02  0.00000000000E+00 0. -1.
         -2    1    1    2    0  502  0.58499478321E+02 -0.27405269577E+01  0.10821154555E+03  0.12304242375E+03  0.00000000000E+00 0.  1.
<scales pt_clust_5="13000.00000" pt_clust_6="13000.00000" pt_clust_7="13000.00000" pt_clust_8="13000.00000" pt_clust_9="58.56367"></scales>
<clustering>
<clus scale="   58.564">  2  9  1 -1</clus>
<clus scale="   65.407">  5  6 -1 -1</clus>
<clus scale="   67.805">  1  5  2 -1</clus>
<clus scale="   90.582">  7  8 -1 -1</clus>
<clus scale="   58.564">  2  5  1 -1</clus>
</clustering>
</event>
<event>
 9    2  0.1033155E-004  0.3775411E+03  0.7546771E-02  0.1052100E+00
          2   -1    0    0  502    0 -0.00000000000E+00  0.00000000000E+00  0.33446093449E+03  0.33446093449E+03  0.00000000000E+00 0. -1.
         21   -1    0    0  501  502  0.00000000000E+00 -0.00000000000E+00 -0.85592840676E+03  0.85592840676E+03  0.00000000000E+00 0. -1.
         23    2    1    2    0    0  0.35277144396E+03  0.29964235748E+02 -0.21695724611E+02  0.36695858481E+03  0.94033778007E+02 0.  0.
         24    2    1    2    0    0 -0.40270303127E+03  0.13341588702E+03 -0.48848462592E+03  0.65221852834E+03  0.82475745838E+02 0.  0.
        -13    1    4    4    0    0 -0.15058333728E+03  0.87758808205E+02 -0.22616065267E+03  0.28552686511E+03  0.00000000000E+00 0.  1.
         14    1    4    4    0    0 -0.25211969399E+03  0.45657078820E+02 -0.26232397325E+03  0.36669166324E+03  0.00000000000E+00 0. -1.
        -13    1    3    3    0    0  0.27885956981E+03  0.31289914151E+01  0.16851605417E+02  0.27938580291E+03  0.00000000000E+00 0. -1.
         13    1    3    3    0    0  0.73911874150E+02  0.26835244333E+02 -0.38547330028E+02  0.87572781908E+02  0.00000000000E+00 0.  1.
          1    1    1    2  501    0  0.49931587315E+02 -0.16338012277E+03 -0.11287121737E+02  0.17121222809E+03  0.00000000000E+00 0. -1.
<scales pt_clust_5="13000.00000" pt_clust_6="13000.00000" pt_clust_7="13000.00000" pt_clust_8="13000.00000" pt_clust_9="170.83986"></scales>
<clustering>
<clus scale="   82.476">  5  6 -1 -1</clus>
<clus scale="   94.034">  7  8 -1 -1</clus>
<clus scale="  170.840">  2  9  1 -1</clus>
<clus scale="  374.830">  2  5  1 -1</clus>
<clus scale="  170.840">  2  5  1 -1</clus>
</clustering>
</event>
<event>
 9    2  0.1033155E-004  0.1080079E+03  0.7546771E-02  0.1268086E+00
          2   -1    0    0  502    0 -0.00000000000E+00  0.00000000000E+00  0.23597544262E+03  0.23597544262E+03  0.00000000000E+00 0. -1.
         21   -1    0    0  501  502  0.00000000000E+00 -0.00000000000E+00 -0.93363620806E+02  0.93363620806E+02  0.00000000000E+00 0. -1.
         24    2    1    2    0    0  0.37054194668E+02  0.23292129784E+02  0.99583391720E+02  0.13790918913E+03  0.84773556540E+02 0.  0.
         23    2    1    2    0    0 -0.49913612342E+02 -0.49625111818E+02  0.81728248825E+02  0.14288642431E+03  0.93717678040E+02 0.  0.
        -13    1    3    3    0    0  0.20334526682E+02 -0.20626079288E+02  0.13285842549E+01  0.28994710868E+02  0.00000000000E+00 0.  1.
         14    1    3    3    0    0  0.16719667986E+02  0.43918209072E+02  0.98254807465E+02  0.10891447826E+03  0.00000000000E+00 0. -1.
        -13    1    4    4    0    0  0.70185496215E+01 -0.57953884193E+02  0.30584950873E+02  0.65904111797E+02  0.00000000000E+00 0.  1.
         13    1    4    4    0    0 -0.56932161964E+02  0.83287723746E+01  0.51143297952E+02  0.76982312517E+02  0.00000000000E+00 0. -1.
          1    1    1    2  501    0  0.12859417674E+02  0.26332982034E+02 -0.38699818733E+02  0.48543449977E+02  0.00000000000E+00 0. -1.
<scales pt_clust_5="13000.00000" pt_clust_6="13000.00000" pt_clust_7="13000.00000" pt_clust_8="13000.00000" pt_clust_9="29.30513"></scales>
<clustering>
<clus scale="   29.305">  2  9  1 -1</clus>
<clus scale="   84.774">  5  6 -1 -1</clus>
<clus scale="   93.718">  7  8 -1 -1</clus>
<clus scale="  100.346">  1  5  2 -1</clus>
<clus scale="   29.305">  2  5  1 -1</clus>
</clustering>
</event>
<event>
 9    2  0.1033155E-004  0.1435754E+03  0.7546771E-02  0.1212887E+00
         21   -1    0    0  501  502  0.00000000000E+00  0.00000000000E+00  0.80774364439E+02  0.80774364439E+02  0.00000000000E+00 0. -1.
          2   -1    0    0  502    0 -0.00000000000E+00 -0.00000000000E+00 -0.56823665099E+03  0.56823665099E+03  0.00000000000E+00 0. -1.
         23    2    1    2    0    0  0.96001872578E+02  0.15839276069E+02 -0.78987010610E+02  0.15299086198E+03  0.87749722505E+02 0.  0.
         24    2    1    2    0    0 -0.35865604840E+02  0.11106684190E+03 -0.21136964736E+03  0.25400328979E+03  0.78856568642E+02 0.  0.
        -13    1    4    4    0    0 -0.35936636185E+02  0.10226470880E+03 -0.21767837787E+03  0.24317357726E+03  0.00000000000E+00 0.  1.
         14    1    4    4    0    0  0.71031344885E-01  0.88021331024E+01  0.63087305157E+01  0.10829712523E+02  0.00000000000E+00 0. -1.
        -13    1    3    3    0    0  0.38568540678E+02 -0.36601094724E+02 -0.29455855680E+02  0.60785030220E+02  0.00000000000E+00 0.  1.
         13    1    3    3    0    0  0.57433331900E+02  0.52440370793E+02 -0.49531154930E+02  0.92205831761E+02  0.00000000000E+00 0. -1.
          1    1    1    2  501    0 -0.60136267738E+02 -0.12690611797E+03 -0.19710562859E+03  0.24201686367E+03  0.00000000000E+00 0. -1.
<scales pt_clust_5="13000.00000" pt_clust_6="13000.00000" pt_clust_7="13000.00000" pt_clust_8="13000.00000" pt_clust_9="119.98152"></scales>
<clustering>
<clus scale="   78.857">  5  6 -1 -1</clus>
<clus scale="   87.750">  7  8 -1 -1</clus>
<clus scale="  131.024">  2  7  1 -1</clus>
<clus scale="  119.982">  1  9  2 -1</clus>
<clus scale="  119.982">  1  5  2 -1</clus>
</clustering>
</event>
<event>
 9    2  0.1033155E-004  0.1470437E+03  0.7546771E-02  0.1222584E+00
         21   -1    0    0  501  502  0.00000000000E+00  0.00000000000E+00  0.30109028870E+03  0.30109028870E+03  0.00000000000E+00 0. -1.
          2   -1    0    0  502    0 -0.00000000000E+00 -0.00000000000E+00 -0.11825161709E+03  0.11825161709E+03  0.00000000000E+00 0. -1.
         24    2    1    2    0    0 -0.55733906532E+02  0.10893013840E+02  0.34079852407E+02  0.10510152724E+03  0.81608630673E+02 0.  0.
         23    2    1    2    0    0 -0.16295959410E+02 -0.11132933085E+03  0.38463777629E+02  0.14858787612E+03  0.89101720182E+02 0.  0.
        -11    1    3    3    0    0 -0.36670747112E+02 -0.21309706132E+02  0.49007502365E+02  0.64811901355E+02  0.00000000000E+00 0.  1.
         12    1    3    3    0    0 -0.19063159420E+02  0.32202719972E+02 -0.14927649958E+02  0.40289625885E+02  0.00000000000E+00 0. -1.
        -13    1    4    4    0    0 -0.36996100671E+02 -0.99096046446E+02  0.55178898195E+02  0.11930401792E+03  0.00000000000E+00 0. -1.
         13    1    4    4    0    0  0.20700141261E+02 -0.12233284409E+02 -0.16715120566E+02  0.29283858202E+02  0.00000000000E+00 0.  1.
          1    1    1    2  501    0  0.72029865942E+02  0.10043631701E+03  0.11029504158E+03  0.16565250243E+03  0.00000000000E+00 0. -1.
<scales pt_clust_5="13000.00000" pt_clust_6="13000.00000" pt_clust_7="13000.00000" pt_clust_8="13000.00000" pt_clust_9="116.97318"></scales>
<clustering>
<clus scale="   81.609">  5  6 -1 -1</clus>
<clus scale="   89.102">  7  8 -1 -1</clus>
<clus scale="   99.423">  2  5  1 -1</clus>
<clus scale="  116.973">  1  9  2 -1</clus>
<clus scale="  116.973">  1  5  2 -1</clus>
</clustering>
</event>
<event>
 9    2  0.1033155E-004  0.9182783E+02  0.7546771E-02  0.1305277E+00
          2   -1    0    0  502    0 -0.00000000000E+00  0.00000000000E+00  0.68804948571E+02  0.68804948571E+02  0.00000000000E+00 0. -1.
         21   -1    0    0  501  502  0.00000000000E+00 -0.00000000000E+00 -0.22047321313E+03  0.22047321313E+03  0.00000000000E+00 0.  1.
         24    2    1    2    0    0 -0.43121960266E+01 -0.10587923640E+02 -0.70112509960E+02  0.10590777703E+03  0.78549309484E+02 0.  0.
         23    2    1    2    0    0  0.23936650217E+02  0.23272498960E+02 -0.11051782405E+03  0.14615722679E+03  0.89627970402E+02 0.  0.
        -13    1    3    3    0    0 -0.15185259402E+02  0.30896038306E+02 -0.43350882785E+02  0.55357531776E+02  0.00000000000E+00 0.  1.
         14    1    3    3    0    0  0.10873063375E+02 -0.41483961946E+02 -0.26761627175E+02  0.50550245251E+02  0.00000000000E+00 0. -1.
        -13    1    4    4    0    0  0.43780313623E+02  0.76157818506E+01 -0.11234534293E+03  0.12081470139E+03  0.00000000000E+00 0.  1.
         13    1    4    4    0    0 -0.19843663406E+02  0.15656717109E+02  0.18275188859E+01  0.25342525393E+02  0.00000000000E+00 0. -1.
          1    1    1    2  501    0 -0.19624454190E+02 -0.12684575320E+02  0.28962069447E+02  0.37213157888E+02  0.00000000000E+00 0. -1.
<scales pt_clust_5="13000.00000" pt_clust_6="13000.00000" pt_clust_7="13000.00000" pt_clust_8="13000.00000" pt_clust_9="23.36703"></scales>
<clustering>
<clus scale="   23.367">  2  9  1 -1</clus>
<clus scale="   78.549">  5  6 -1 -1</clus>
<clus scale="   81.050">  1  5  2 -1</clus>
<clus scale="   89.628">  7  8 -1 -1</clus>
<clus scale="   23.367">  2  5  1 -1</clus>
</clustering>
</event>
<event>
 9    2  0.1033155E-004  0.1421897E+03  0.7546771E-02  0.1214575E+00
          2   -1    0    0  502    0 -0.00000000000E+00  0.00000000000E+00  0.31727612087E+03  0.31727612087E+03  0.00000000000E+00 0. -1.
         21   -1    0    0  501  502  0.00000000000E+00 -0.00000000000E+00 -0.25593373959E+03  0.25593373959E+03  0.00000000000E+00 0. -1.
         23    2    1    2    0    0  0.13821313486E+02  0.90469722293E+02  0.98686413657E+02  0.16735833760E+03  0.99468615981E+02 0.  0.
         24    2    1    2    0    0 -0.13472562701E+03 -0.58089918205E+02  0.11893162476E+03  0.20563068040E+03  0.81325347741E+02 0.  0.
        -13    1    4    4    0    0 -0.12043124181E+03 -0.36954098411E+02  0.56262952928E+02  0.13796669622E+03  0.00000000000E+00 0.  1.
         14    1    4    4    0    0 -0.14294385199E+02 -0.21135819794E+02  0.62668671835E+02  0.67663984188E+02  0.00000000000E+00 0. -1.
        -11    1    3    3    0    0  0.26433965427E+02  0.10702285142E+03  0.96362116826E+02  0.14641824618E+03  0.00000000000E+00 0.  1.
         11    1    3    3    0    0 -0.12612651941E+02 -0.16553129129E+02  0.23242968316E+01  0.20940091421E+02  0.00000000000E+00 0. -1.
          1    1    1    2  501    0  0.12090431352E+03 -0.32379804088E+02 -0.15627565713E+03  0.20022084245E+03  0.00000000000E+00 0. -1.
<scales pt_clust_5="13000.00000" pt_clust_6="13000.00000" pt_clust_7="13000.00000" pt_clust_8="13000.00000" pt_clust_9="125.16511"></scales>
<clustering>
<clus scale="   81.325">  5  6 -1 -1</clus>
<clus scale="   99.469">  7  8 -1 -1</clus>
<clus scale="  125.165">  2  9  1 -1</clus>
<clus scale="  130.145">  2  5  1 -1</clus>
<clus scale="  125.165">  2  5  1 -1</clus>
</clustering>
</event>
<event>
 9    2  0.1033155E-004  0.9554542E+02  0.7546771E-02  0.1297064E+00
         -1   -1    0    0    0  501 -0.00000000000E+00  0.00000000000E+00  0.83053776867E+02  0.83053776867E+02  0.00000000000E+00 0.  1.
         21   -1    0    0  501  502  0.00000000000E+00 -0.00000000000E+00 -0.23437299578E+03  0.23437299578E+03  0.00000000000E+00 0.  1.
         23    2    1    2    0    0  0.40216391241E+02 -0.15197823796E+01  0.59141251488E+01  0.10192779703E+03  0.93459248167E+02 0.  0.
         24    2    1    2    0    0  0.13889316700E+02  0.83258102815E+01 -0.54559319188E+02  0.99241911181E+02  0.81301939641E+02 0.  0.
        -13    1    4    4    0    0  0.38039302731E+02 -0.22119116391E+02 -0.27512082958E+02  0.51895650790E+02  0.00000000000E+00 0.  1.
         14    1    4    4    0    0 -0.24149986030E+02  0.30444926673E+02 -0.27047236230E+02  0.47346260392E+02  0.00000000000E+00 0. -1.
        -13    1    3    3    0    0  0.36865536640E+02 -0.41849341154E+02 -0.12986208241E+02  0.57263223374E+02  0.00000000000E+00 0.  1.
         13    1    3    3    0    0  0.33508546013E+01  0.40329558774E+02  0.18900333389E+02  0.44664573654E+02  0.00000000000E+00 0. -1.
         -2    1    1    2    0  502 -0.54105707941E+02 -0.68060279019E+01 -0.10267402487E+03  0.11625706443E+03  0.00000000000E+00 0.  1.
<scales pt_clust_5="13000.00000" pt_clust_6="13000.00000" pt_clust_7="13000.00000" pt_clust_8="13000.00000" pt_clust_9="54.53210"></scales>
<clustering>
<clus scale="   54.532">  2  9  1 -1</clus>
<clus scale="   81.302">  5  6 -1 -1</clus>
<clus scale="   83.692">  2  5  1 -1</clus>
<clus scale="   93.459">  7  8 -1 -1</clus>
<clus scale="   54.532">  2  5  1 -1</clus>
</clustering>
</event>
<event>
 9    2  0.1033155E-004  0.1172279E+03  0.7546771E-02  0.1251864E+00
         21   -1    0    0  501  502  0.00000000000E+00  0.00000000000E+00  0.60843215425E+02  0.60843215425E+02  0.00000000000E+00 0.  1.
          2   -1    0    0  502    0 -0.00000000000E+00 -0.00000000000E+00 -0.10499883560E+04  0.10499883560E+04  0.00000000000E+00 0. -1.
         24    2    1    2    0    0  0.40519880154E+02  0.61164593169E+02 -0.96042521546E+03  0.96647405715E+03  0.79199371945E+02 0.  0.
         23    2    1    2    0    0 -0.58250925736E+02 -0.49074916027E+02 -0.17961562193E+02  0.12035141828E+03  0.91434831616E+02 0.  0.
        -13    1    3    3    0    0 -0.11786303867E+02  0.24987605115E+02 -0.10135702925E+03  0.10505496060E+03  0.00000000000E+00 0.  1.
         14    1    3    3    0    0  0.52306184021E+02  0.36176988053E+02 -0.85906818621E+03  0.86141909655E+03  0.00000000000E+00 0. -1.
        -11    1    4    4    0    0 -0.46905698749E+02 -0.11063837203E+02  0.31026483401E+02  0.57316627090E+02  0.00000000000E+00 0.  1.
         11    1    4    4    0    0 -0.11345226987E+02 -0.38011078825E+02 -0.48988045594E+02  0.63034791187E+02  0.00000000000E+00 0. -1.
          1    1    1    2  501    0  0.17731045582E+02 -0.12089677141E+02 -0.10758362874E+02  0.24006095945E+02  0.00000000000E+00 0. -1.
<scales pt_clust_5="13000.00000" pt_clust_6="13000.00000" pt_clust_7="13000.00000" pt_clust_8="13000.00000" pt_clust_9="21.46044"></scales>
<clustering>
<clus scale="   21.460">  1  9  2 -1</clus>
<clus scale="   79.199">  5  6 -1 -1</clus>
<clus scale="   91.435">  7  8 -1 -1</clus>
<clus scale="  107.956">  2  5  1 -1</clus>
<clus scale="   21.460">  1  5  2 -1</clus>
</clustering>
</event>
<event>
 9    2  0.1033155E-004  0.1000723E+03  0.7546771E-02  0.1284392E+00
          4   -1    0    0  502    0 -0.00000000000E+00  0.00000000000E+00  0.37241872927E+02  0.37241872927E+02  0.00000000000E+00 0. -1.
         21   -1    0    0  501  502  0.00000000000E+00 -0.00000000000E+00 -0.50647989238E+03  0.50647989238E+03  0.00000000000E+00 0. -1.
         23    2    1    2    0    0 -0.12313363471E+02  0.36103109761E+02 -0.10105281757E+03  0.14245374869E+03  0.92878119727E+02 0.  0.
         24    2    1    2    0    0  0.57545502764E+02 -0.49514798164E+01 -0.27037433236E+03  0.28909254394E+03  0.84476134616E+02 0.  0.
        -13    1    4    4    0    0  0.17736944990E+01  0.31128376904E+02 -0.49997342872E+02  0.58922458665E+02  0.00000000000E+00 0.  1.
         14    1    4    4    0    0  0.55771808265E+02 -0.36079856720E+02 -0.22037698949E+03  0.23017008528E+03  0.00000000000E+00 0. -1.
        -13    1    3    3    0    0  0.24105744504E+02  0.32796198994E+02 -0.66843150983E+01  0.41247516954E+02  0.00000000000E+00 0.  1.
         13    1    3    3    0    0 -0.36419107975E+02  0.33069107674E+01 -0.94368502470E+02  0.10120623174E+03  0.00000000000E+00 0. -1.
          3    1    1    2  501    0 -0.45232139292E+02 -0.31151629945E+02 -0.97810869519E+02  0.11217547267E+03  0.00000000000E+00 0. -1.
<scales pt_clust_5="13000.00000" pt_clust_6="13000.00000" pt_clust_7="13000.00000" pt_clust_8="13000.00000" pt_clust_9="54.92149"></scales>
<clustering>
<clus scale="   54.921">  2  9  1 -1</clus>
<clus scale="   84.476">  5  6 -1 -1</clus>
<clus scale="   92.327">  2  5  1 -1</clus>
<clus scale="   92.878">  7  8 -1 -1</clus>
<clus scale="   54.921">  2  5  1 -1</clus>
</clustering>
</event>
<event>
 9    2  0.1033155E-004  0.9804736E+02  0.7546771E-02  0.1290117E+00
         21   -1    0    0  501  502  0.00000000000E+00  0.00000000000E+00  0.33993419715E+02  0.33993419715E+02  0.00000000000E+00 0. -1.
         -1   -1    0    0    0  501 -0.00000000000E+00 -0.00000000000E+00 -0.63706821178E+03  0.63706821178E+03  0.00000000000E+00 0.  1.
         24    2    1    2    0    0  0.45057496393E+02 -0.83326586205E+01 -0.24188316348E+03  0.25902165926E+03  0.80530391837E+02 0.  0.
         23    2    1    2    0    0 -0.35023808348E+01  0.18700145770E+02 -0.67142296125E+02  0.11488795333E+03  0.91264405813E+02 0.  0.
        -11    1    3    3    0    0  0.38608423034E+02  0.32994150165E+02 -0.12880026550E+03  0.13845119236E+03  0.00000000000E+00 0.  1.
         12    1    3    3    0    0  0.64490733589E+01 -0.41326808786E+02 -0.11308289798E+03  0.12057046690E+03  0.00000000000E+00 0. -1.
        -11    1    4    4    0    0  0.26334641256E+01  0.40356176037E+02  0.36472234431E+01  0.40606136438E+02  0.00000000000E+00 0. -1.
         11    1    4    4    0    0 -0.61358449604E+01 -0.21656030266E+02 -0.70789519568E+02  0.74281816893E+02  0.00000000000E+00 0.  1.
         -2    1    1    2    0  502 -0.41555115558E+02 -0.10367487150E+02 -0.29404933246E+03  0.29715201891E+03  0.00000000000E+00 0.  1.
<scales pt_clust_5="13000.00000" pt_clust_6="13000.00000" pt_clust_7="13000.00000" pt_clust_8="13000.00000" pt_clust_9="42.82890"></scales>
<clustering>
<clus scale="   42.829">  1  9  2 -1</clus>
<clus scale="   80.530">  5  6 -1 -1</clus>
<clus scale="   88.143">  2  5  1 -1</clus>
<clus scale="   91.264">  7  8 -1 -1</clus>
<clus scale="   42.829">  1  5  2 -1</clus>
</clustering>
</event>
<event>
 9    2  0.1033155E-004  0.1471168E+03  0.7546771E-02  0.1224265E+00
          2   -1    0    0  502    0 -0.00000000000E+00  0.00000000000E+00  0.14736902746E+03  0.14736902746E+03  0.00000000000E+00 0. -1.
         21   -1    0    0  501  502  0.00000000000E+00 -0.00000000000E+00 -0.23392532484E+03  0.23392532484E+03  0.00000000000E+00 0. -1.
         24    2    1    2    0    0 -0.48844284162E+02 -0.18450798219E+02 -0.48073017908E+02  0.10723149579E+03  0.80382725682E+02 0.  0.
         23    2    1    2    0    0  0.11116608739E+02 -0.10203338157E+03  0.12853567537E+02  0.13777167216E+03  0.91002359895E+02 0.  0.
        -13    1    3    3    0    0  0.12249956805E+02 -0.22689347784E+02 -0.36842313669E+02  0.44969145211E+02  0.00000000000E+00 0.  1.
         14    1    3    3    0    0 -0.61094240967E+02  0.42385495658E+01 -0.11230704240E+02  0.62262350577E+02  0.00000000000E+00 0. -1.
        -13    1    4    4    0    0 -0.32777374529E+02 -0.17453799050E+02  0.20063491840E+02  0.42208234826E+02  0.00000000000E+00 0.  1.
         13    1    4    4    0    0  0.43893983268E+02 -0.84579582519E+02 -0.72099243023E+01  0.95563437332E+02  0.00000000000E+00 0. -1.
          1    1    1    2  501    0  0.37727675424E+02  0.12048417979E+03 -0.51336847012E+02  0.13629118436E+03  0.00000000000E+00 0. -1.
<scales pt_clust_5="13000.00000" pt_clust_6="13000.00000" pt_clust_7="13000.00000" pt_clust_8="13000.00000" pt_clust_9="115.59383"></scales>
<clustering>
<clus scale="   80.383">  5  6 -1 -1</clus>
<clus scale="   91.002">  7  8 -1 -1</clus>
<clus scale="   95.852">  1  5  2 -1</clus>
<clus scale="  115.594">  2  9  1 -1</clus>
<clus scale="  115.594">  2  5  1 -1</clus>
</clustering>
</event>
<event>
 9    2  0.1033155E-004  0.9854472E+02  0.7546771E-02  0.1290149E+00
         21   -1    0    0  501  502  0.00000000000E+00  0.00000000000E+00  0.37145644333E+03  0.37145644333E+03  0.00000000000E+00 0.  1.
         -3   -1    0    0    0  501 -0.00000000000E+00 -0.00000000000E+00 -0.56521066962E+02  0.56521066962E+02  0.00000000000E+00 0.  1.
         24    2    1    2    0    0 -0.74035474809E+01 -0.34779945447E+02  0.11740034824E+02  0.88997203749E+02  0.80735473845E+02 0.  0.
         23    2    1    2    0    0  0.33889157105E+02  0.18150748598E+01  0.26101866931E+03  0.27925558896E+03  0.93280055578E+02 0.  0.
        -13    1    3    3    0    0 -0.38368141626E+02 -0.36125240209E+02 -0.63988581858E+01  0.53085710489E+02  0.00000000000E+00 0.  1.
         14    1    3    3    0    0  0.30964594145E+02  0.13452947622E+01  0.18138893009E+02  0.35911493260E+02  0.00000000000E+00 0. -1.
        -11    1    4    4    0    0  0.34280590122E+02  0.23844786670E+02  0.25201926641E+03  0.25545536470E+03  0.00000000000E+00 0.  1.
         11    1    4    4    0    0 -0.39143301724E+00 -0.22029711810E+02  0.89994029004E+01  0.23800224259E+02  0.00000000000E+00 0. -1.
         -4    1    1    2    0  502 -0.26485609624E+02  0.32964870587E+02  0.42176672226E+02  0.59724717580E+02  0.00000000000E+00 0.  1.
<scales pt_clust_5="13000.00000" pt_clust_6="13000.00000" pt_clust_7="13000.00000" pt_clust_8="13000.00000" pt_clust_9="42.28678"></scales>
<clustering>
<clus scale="   42.287">  1  9  2 -1</clus>
<clus scale="   80.735">  5  6 -1 -1</clus>
<clus scale="   86.765">  2  5  1 -1</clus>
<clus scale="   93.280">  7  8 -1 -1</clus>
<clus scale="   42.287">  1  5  2 -1</clus>
</clustering>
</event>
<event>
 9    2  0.1033155E-004  0.8771889E+02  0.7546771E-02  0.1309763E+00
          2   -1    0    0  502    0 -0.00000000000E+00  0.00000000000E+00  0.41297546273E+03  0.41297546273E+03  0.00000000000E+00 0. -1.
         21   -1    0    0  501  502  0.00000000000E+00 -0.00000000000E+00 -0.13735839604E+03  0.13735839604E+03  0.00000000000E+00 0.  1.
         24    2    1    2    0    0 -0.20043220720E+02 -0.13828439202E+02  0.36640129739E+03  0.37617367914E+03  0.81631916036E+02 0.  0.
         23    2    1    2    0    0  0.34972857727E+02  0.53869584571E+02 -0.69859170395E+02  0.12657819215E+03  0.83765757441E+02 0.  0.
        -11    1    3    3    0    0  0.23799426620E+02  0.18660854451E+02  0.14800702301E+03  0.15106528078E+03  0.00000000000E+00 0.  1.
         12    1    3    3    0    0 -0.43842647340E+02 -0.32489293653E+02  0.21839427438E+03  0.22510839836E+03  0.00000000000E+00 0. -1.
        -13    1    4    4    0    0  0.13872304740E+02  0.73749417439E+02 -0.59583016285E+02  0.95820421837E+02  0.00000000000E+00 0.  1.
         13    1    4    4    0    0  0.21100552986E+02 -0.19879832868E+02 -0.10276154110E+02  0.30757770311E+02  0.00000000000E+00 0. -1.
          1    1    1    2  501    0 -0.14929637007E+02 -0.40041145368E+02 -0.20925060309E+02  0.47581987480E+02  0.00000000000E+00 0. -1.
<scales pt_clust_5="13000.00000" pt_clust_6="13000.00000" pt_clust_7="13000.00000" pt_clust_8="13000.00000" pt_clust_9="42.73391"></scales>
<clustering>
<clus scale="   42.734">  2  9  1 -1</clus>
<clus scale="   81.632">  5  6 -1 -1</clus>
<clus scale="   83.766">  7  8 -1 -1</clus>
<clus scale="   85.684">  1  5  2 -1</clus>
<clus scale="   42.734">  2  5  1 -1</clus>
</clustering>
</event>
<event>
 9    2  0.1033155E-004  0.1026148E+03  0.7546771E-02  0.1280636E+00
         21   -1    0    0  501  502  0.00000000000E+00  0.00000000000E+00  0.46688128354E+02  0.46688128354E+02  0.00000000000E+00 0. -1.
          2   -1    0    0  502    0 -0.00000000000E+00 -0.00000000000E+00 -0.45803396336E+03  0.45803396336E+03  0.00000000000E+00 0. -1.
         24    2    1    2    0    0  0.15875943508E+02  0.31780812796E+02 -0.24161351634E+03  0.25718616768E+03  0.80657100891E+02 0.  0.
         23    2    1    2    0    0 -0.27234143185E+02 -0.54638901767E+02 -0.18649633447E+03  0.21699851817E+03  0.92630264917E+02 0.  0.
        -11    1    3    3    0    0  0.18809531911E+02  0.51472630049E+02 -0.98707292120E+02  0.11289977703E+03  0.00000000000E+00 0.  1.
         12    1    3    3    0    0 -0.29335884032E+01 -0.19691817252E+02 -0.14290622422E+03  0.14428639065E+03  0.00000000000E+00 0. -1.
        -13    1    4    4    0    0 -0.48659525065E+02 -0.68207653495E+02 -0.12504803417E+03  0.15052257048E+03  0.00000000000E+00 0. -1.
         13    1    4    4    0    0  0.21425381879E+02  0.13568751727E+02 -0.61448300297E+02  0.66475947692E+02  0.00000000000E+00 0.  1.
          1    1    1    2  501    0  0.11358199677E+02  0.22858088971E+02  0.16764015795E+02  0.30537405864E+02  0.00000000000E+00 0. -1.
<scales pt_clust_5="13000.00000" pt_clust_6="13000.00000" pt_clust_7="13000.00000" pt_clust_8="13000.00000" pt_clust_9="25.52452"></scales>
<clustering>
<clus scale="   25.525">  1  9  2 -1</clus>
<clus scale="   80.657">  5  6 -1 -1</clus>
<clus scale="   91.951">  2  5  1 -1</clus>
<clus scale="   92.630">  7  8 -1 -1</clus>
<clus scale="   25.525">  1  5  2 -1</clus>
</clustering>
</event>
<event>
 9    2  0.1033155E-004  0.1019760E+03  0.7546771E-02  0.1280748E+00
          4   -1    0    0  502    0 -0.00000000000E+00  0.00000000000E+00  0.14220668766E+03  0.14220668766E+03  0.00000000000E+00 0. -1.
         21   -1    0    0  501  502  0.00000000000E+00 -0.00000000000E+00 -0.35401626738E+03  0.35401626738E+03  0.00000000000E+00 0. -1.
         24    2    1    2    0    0  0.44118717214E+02  0.18543904546E+02  0.11079809937E+03  0.14548972116E+03  0.81244707734E+02 0.  0.
         23    2    1    2    0    0 -0.33438696064E+02  0.33551713393E+01 -0.16574566585E+03  0.19199028577E+03  0.90880363741E+02 0.  0.
        -13    1    3    3    0    0  0.22987161299E+02  0.19358711871E+02 -0.25734245044E+01  0.30162755570E+02  0.00000000000E+00 0.  1.
         14    1    3    3    0    0  0.21131555915E+02 -0.81480732502E+00  0.11337152388E+03  0.11532696559E+03  0.00000000000E+00 0. -1.
        -11    1    4    4    0    0 -0.53914118747E+02 -0.22925901914E+02 -0.13273799228E+03  0.14509205276E+03  0.00000000000E+00 0.  1.
         11    1    4    4    0    0  0.20475422683E+02  0.26281073253E+02 -0.33007673570E+02  0.46898233015E+02  0.00000000000E+00 0. -1.
          3    1    1    2  501    0 -0.10680021151E+02 -0.21899075886E+02 -0.15686201323E+03  0.15874294810E+03  0.00000000000E+00 0. -1.
<scales pt_clust_5="13000.00000" pt_clust_6="13000.00000" pt_clust_7="13000.00000" pt_clust_8="13000.00000" pt_clust_9="24.36457"></scales>
<clustering>
<clus scale="   24.365">  2  9  1 -1</clus>
<clus scale="   81.245">  5  6 -1 -1</clus>
<clus scale="   90.880">  7  8 -1 -1</clus>
<clus scale="   93.491">  1  5  2 -1</clus>
<clus scale="   24.365">  2  5  1 -1</clus>
</clustering>
</event>
<event>
 9    2  0.1033155E-004  0.9773631E+02  0.7546771E-02  0.1290423E+00
          2   -1    0    0  502    0 -0.00000000000E+00  0.00000000000E+00  0.62313982356E+02  0.62313982356E+02  0.00000000000E+00 0. -1.
         21   -1    0    0  501  502  0.00000000000E+00 -0.00000000000E+00 -0.69062040678E+03  0.69062040678E+03  0.00000000000E+00 0.  1.
         24    2    1    2    0    0  0.14448790107E+02 -0.36132558587E+02  0.95137680880E+01  0.89584434479E+02  0.80128208467E+02 0.  0.
         23    2    1    2    0    0 -0.64639299102E+02 -0.75230738828E+01 -0.46611219834E+03  0.47920724722E+03  0.90245048167E+02 0.  0.
        -13    1    3    3    0    0  0.19148459812E+02  0.21905436177E+02  0.11592724512E+02  0.31319369548E+02  0.00000000000E+00 0.  1.
         14    1    3    3    0    0 -0.46996697048E+01 -0.58037994764E+02 -0.20789564236E+01  0.58265064931E+02  0.00000000000E+00 0. -1.
        -13    1    4    4    0    0 -0.22208799811E+02  0.41069133095E+02 -0.20360778129E+03  0.20889239595E+03  0.00000000000E+00 0. -1.
         13    1    4    4    0    0 -0.42430499291E+02 -0.48592206978E+02 -0.26250441705E+03  0.27031485127E+03  0.00000000000E+00 0.  1.
          1    1    1    2  501    0  0.50190508995E+02  0.43655632470E+02 -0.17170799417E+03  0.18414270744E+03  0.00000000000E+00 0. -1.
<scales pt_clust_5="13000.00000" pt_clust_6="13000.00000" pt_clust_7="13000.00000" pt_clust_8="13000.00000" pt_clust_9="66.51993"></scales>
<clustering>
<clus scale="   66.520">  2  9  1 -1</clus>
<clus scale="   80.128">  5  6 -1 -1</clus>
<clus scale="   88.480">  1  5  2 -1</clus>
<clus scale="   90.245">  7  8 -1 -1</clus>
<clus scale="   66.520">  2  5  1 -1</clus>
</clustering>
</event>
<event>
 9    2  0.1033155E-004  0.1291794E+03  0.7546771E-02  0.1230241E+00
          2   -1    0    0  502    0 -0.00000000000E+00  0.00000000000E+00  0.78804748252E+03  0.78804748252E+03  0.00000000000E+00 0. -1.
         21   -1    0    0  501  502  0.00000000000E+00 -0.00000000000E+00 -0.48129229536E+02  0.48129229536E+02  0.00000000000E+00 0.  1.
         23    2    1    2    0    0 -0.12401811833E+02  0.91600371673E+02  0.37575088010E+03  0.39576432782E+03  0.83043640638E+02 0.  0.
         24    2    1    2    0    0 -0.36189664787E+02 -0.10702501581E+03  0.36474337004E+03  0.38942823945E+03  0.76502168904E+02 0.  0.
        -13    1    4    4    0    0 -0.55800058408E+02 -0.83533873868E+02  0.31858444874E+03  0.33404731040E+03  0.00000000000E+00 0.  1.
         14    1    4    4    0    0  0.19610393621E+02 -0.23491141940E+02  0.46158921296E+02  0.55380929054E+02  0.00000000000E+00 0. -1.
        -13    1    3    3    0    0  0.24703222276E+02  0.68292850437E+02  0.16148311366E+03  0.17706201911E+03  0.00000000000E+00 0. -1.
         13    1    3    3    0    0 -0.37105034109E+02  0.23307521237E+02  0.21426776643E+03  0.21870230871E+03  0.00000000000E+00 0.  1.
          1    1    1    2  501    0  0.48591476619E+02  0.15424644134E+02 -0.57599715805E+00  0.50984144785E+02  0.00000000000E+00 0. -1.
<scales pt_clust_5="13000.00000" pt_clust_6="13000.00000" pt_clust_7="13000.00000" pt_clust_8="13000.00000" pt_clust_9="50.98089"></scales>
<clustering>
<clus scale="   50.981">  2  9  1 -1</clus>
<clus scale="   76.502">  5  6 -1 -1</clus>
<clus scale="   83.044">  7  8 -1 -1</clus>
<clus scale="  125.075">  2  5  1 -1</clus>
<clus scale="   50.981">  2  5  1 -1</clus>
</clustering>
</event>
<event>
 9    2  0.1033155E-004  0.1034732E+03  0.7546771E-02  0.1278855E+00
         21   -1    0    0  501  502  0.00000000000E+00  0.00000000000E+00  0.35835090862E+02  0.35835090862E+02  0.00000000000E+00 0. -1.
         -1   -1    0    0    0  501 -0.00000000000E+00 -0.00000000000E+00 -0.62922578177E+03  0.62922578177E+03  0.00000000000E+00 0.  1.
         24    2    1    2    0    0  0.51126803867E+02  0.73847004288E+01 -0.48921645773E+03  0.49836002951E+03  0.79758965781E+02 0.  0.
         23    2    1    2    0    0 -0.30183173622E+02  0.10014793450E+02 -0.99295652398E+02  0.13903898155E+03  0.91983105776E+02 0.  0.
        -11    1    3    3    0    0  0.60757918626E+02 -0.20334610407E+02 -0.37500812639E+03  0.38044200073E+03  0.00000000000E+00 0.  1.
         12    1    3    3    0    0 -0.96311147586E+01  0.27719310836E+02 -0.11420833134E+03  0.11791802878E+03  0.00000000000E+00 0. -1.
        -11    1    4    4    0    0 -0.37568053597E+02 -0.21564134056E+02 -0.10592854909E+02  0.44593487234E+02  0.00000000000E+00 0. -1.
         11    1    4    4    0    0  0.73848799742E+01  0.31578927505E+02 -0.88702797489E+02  0.94445494318E+02  0.00000000000E+00 0.  1.
         -2    1    1    2    0  502 -0.20943630245E+02 -0.17399493879E+02 -0.48785807770E+01  0.27661861569E+02  0.00000000000E+00 0.  1.
<scales pt_clust_5="13000.00000" pt_clust_6="13000.00000" pt_clust_7="13000.00000" pt_clust_8="13000.00000" pt_clust_9="27.22826"></scales>
<clustering>
<clus scale="   27.228">  1  9  2 -1</clus>
<clus scale="   79.759">  5  6 -1 -1</clus>
<clus scale="   91.983">  7  8 -1 -1</clus>
<clus scale="   92.776">  2  5  1 -1</clus>
<clus scale="   27.228">  1  5  2 -1</clus>
</clustering>
</event>
<event>
 9    2  0.1033155E-004  0.8809444E+02  0.7546771E-02  0.1311096E+00
         21   -1    0    0  501  502  0.00000000000E+00  0.00000000000E+00  0.18710401101E+03  0.18710401101E+03  0.00000000000E+00 0. -1.
          4   -1    0    0  502    0 -0.00000000000E+00 -0.00000000000E+00 -0.88886716945E+02  0.88886716945E+02  0.00000000000E+00 0. -1.
         24    2    1    2    0    0 -0.23493625679E+02 -0.19689277180E+02 -0.44450074663E+01  0.86339905649E+02  0.80592823084E+02 0.  0.
         23    2    1    2    0    0 -0.37112851726E+02  0.14657899049E+02  0.42468712867E+02  0.10408372591E+03  0.86241594715E+02 0.  0.
        -13    1    3    3    0    0 -0.15402993605E+02 -0.32838832658E+02  0.30977122040E+02  0.47699300123E+02  0.00000000000E+00 0.  1.
         14    1    3    3    0    0 -0.80906320736E+01  0.13149555478E+02 -0.35422129506E+02  0.38640605526E+02  0.00000000000E+00 0. -1.
        -13    1    4    4    0    0 -0.56805087390E+02  0.99923181278E+01  0.71225571834E+00  0.57681640780E+02  0.00000000000E+00 0. -1.
         13    1    4    4    0    0  0.19692235664E+02  0.46655809213E+01  0.41756457148E+02  0.46402085129E+02  0.00000000000E+00 0.  1.
          3    1    1    2  501    0  0.60606477404E+02  0.50313781305E+01  0.60193588662E+02  0.85567096394E+02  0.00000000000E+00 0. -1.
<scales pt_clust_5="13000.00000" pt_clust_6="13000.00000" pt_clust_7="13000.00000" pt_clust_8="13000.00000" pt_clust_9="60.81496"></scales>
<clustering>
<clus scale="   60.815">  1  9  2 -1</clus>
<clus scale="   80.593">  5  6 -1 -1</clus>
<clus scale="   82.573">  2  5  1 -1</clus>
<clus scale="   86.242">  7  8 -1 -1</clus>
<clus scale="   60.815">  1  5  2 -1</clus>
</clustering>
</event>
<event>
 9    2  0.1033155E-004  0.1528631E+03  0.7546771E-02  0.1199083E+00
         21   -1    0    0  501  502  0.00000000000E+00  0.00000000000E+00  0.11635324179E+03  0.11635324179E+03  0.00000000000E+00 0. -1.
          2   -1    0    0  502    0 -0.00000000000E+00 -0.00000000000E+00 -0.12273788468E+04  0.12273788468E+04  0.00000000000E+00 0. -1.
         24    2    1    2    0    0  0.22035406602E+02 -0.12156977178E+03 -0.11519248110E+04  0.11612917918E+04  0.80019290029E+02 0.  0.
         23    2    1    2    0    0  0.62128431780E+01  0.10300445850E+03  0.13248493988E+02  0.13876883768E+03  0.91830005042E+02 0.  0.
        -11    1    3    3    0    0  0.17677770148E+02 -0.94404633162E+02 -0.52174032346E+03  0.53050702488E+03  0.00000000000E+00 0.  1.
         12    1    3    3    0    0  0.43576364536E+01 -0.27165138620E+02 -0.63018448759E+03  0.63078476689E+03  0.00000000000E+00 0. -1.
        -13    1    4    4    0    0  0.35416006540E+02  0.34733059421E+02  0.35788983357E+02  0.61168049386E+02  0.00000000000E+00 0. -1.
         13    1    4    4    0    0 -0.29203163362E+02  0.68271399077E+02 -0.22540489368E+02  0.77600788290E+02  0.00000000000E+00 0.  1.
          1    1    1    2  501    0 -0.28248249780E+02  0.18565313285E+02  0.27650712003E+02  0.43671459185E+02  0.00000000000E+00 0. -1.
<scales pt_clust_5="13000.00000" pt_clust_6="13000.00000" pt_clust_7="13000.00000" pt_clust_8="13000.00000" pt_clust_9="33.80288"></scales>
<clustering>
<clus scale="   33.803">  1  9  2 -1</clus>
<clus scale="   80.019">  5  6 -1 -1</clus>
<clus scale="   91.830">  7  8 -1 -1</clus>
<clus scale="  146.073">  2  5  1 -1</clus>
<clus scale="   33.803">  1  5  2 -1</clus>
</clustering>
</event>
<event>
 9    2  0.1033155E-004  0.1385142E+03  0.7546771E-02  0.1233181E+00
         21   -1    0    0  501  502  0.00000000000E+00  0.00000000000E+00  0.76139421880E+03  0.76139421880E+03  0.00000000000E+00 0. -1.
          2   -1    0    0  502    0 -0.00000000000E+00 -0.00000000000E+00 -0.42130196986E+03  0.42130196986E+03  0.00000000000E+00 0. -1.
         24    2    1    2    0    0 -0.26365428827E+02 -0.40469845082E+02 -0.11973485942E+03  0.15315175266E+03  0.82377658291E+02 0.  0.
         23    2    1    2    0    0 -0.72663040366E+02 -0.10191142271E+01 -0.26930755800E+03  0.29254692371E+03  0.88182683951E+02 0.  0.
        -11    1    3    3    0    0  0.20131306335E+02  0.11356368487E+02 -0.15604661390E+02  0.27888027127E+02  0.00000000000E+00 0.  1.
         12    1    3    3    0    0 -0.46496735162E+02 -0.51826213569E+02 -0.10413019803E+03  0.12526372554E+03  0.00000000000E+00 0. -1.
        -13    1    4    4    0    0 -0.77771922007E+01  0.25022243329E+02 -0.18240913155E+02  0.31926921124E+02  0.00000000000E+00 0.  1.
         13    1    4    4    0    0 -0.64885848166E+02 -0.26041357556E+02 -0.25106664484E+03  0.26062000258E+03  0.00000000000E+00 0. -1.
          1    1    1    2  501    0  0.99028469194E+02  0.41488959310E+02  0.72913466635E+03  0.73699751229E+03  0.00000000000E+00 0. -1.
<scales pt_clust_5="13000.00000" pt_clust_6="13000.00000" pt_clust_7="13000.00000" pt_clust_8="13000.00000" pt_clust_9="106.81761"></scales>
<clustering>
<clus scale="   82.378">  5  6 -1 -1</clus>
<clus scale="   88.183">  7  8 -1 -1</clus>
<clus scale="   95.494">  2  5  1 -1</clus>
<clus scale="  106.818">  1  9  2 -1</clus>
<clus scale="  106.818">  1  5  2 -1</clus>
</clustering>
</event>
<event>
 9    2  0.1033155E-004  0.1215374E+03  0.7546771E-02  0.1258403E+00
         21   -1    0    0  501  502  0.00000000000E+00  0.00000000000E+00  0.31170443065E+03  0.31170443065E+03  0.00000000000E+00 0.  1.
          2   -1    0    0  502    0 -0.00000000000E+00 -0.00000000000E+00 -0.67818429615E+02  0.67818429615E+02  0.00000000000E+00 0. -1.
         24    2    1    2    0    0 -0.17966604613E+02 -0.66666223867E+01  0.82332134301E+02  0.11684202435E+03  0.80661239646E+02 0.  0.
         23    2    1    2    0    0  0.43819625635E+02  0.58531614237E+01  0.18742858828E+03  0.22609475071E+03  0.11846915847E+03 0.  0.
        -13    1    3    3    0    0 -0.21870677431E+02 -0.20149026884E+02  0.93998636504E+02  0.98590331576E+02  0.00000000000E+00 0.  1.
         14    1    3    3    0    0  0.39040728181E+01  0.13482404498E+02 -0.11666502203E+02  0.18251692778E+02  0.00000000000E+00 0. -1.
        -13    1    4    4    0    0  0.47608198464E+02 -0.50827025125E+02  0.10278720290E+03  0.12415770666E+03  0.00000000000E+00 0. -1.
         13    1    4    4    0    0 -0.37885728288E+01  0.56680186549E+02  0.84641385375E+02  0.10193704405E+03  0.00000000000E+00 0.  1.
          1    1    1    2  501    0 -0.25853021022E+02  0.81346096299E+00 -0.25874721546E+02  0.36586085194E+02  0.00000000000E+00 0. -1.
<scales pt_clust_5="13000.00000" pt_clust_6="13000.00000" pt_clust_7="13000.00000" pt_clust_8="13000.00000" pt_clust_9="25.86583"></scales>
<clustering>
<clus scale="   25.866">  1  9  2 -1</clus>
<clus scale="   80.661">  5  6 -1 -1</clus>
<clus scale="   85.104">  2  5  1 -1</clus>
<clus scale="  118.469">  7  8 -1 -1</clus>
<clus scale="   25.866">  1  5  2 -1</clus>
</clustering>
</event>
<event>
 9    2  0.1033155E-004  0.9682294E+02  0.7546771E-02  0.1292732E+00
          2   -1    0    0  502    0 -0.00000000000E+00  0.00000000000E+00  0.46314912083E+03  0.46314912083E+03  0.00000000000E+00 0. -1.
         21   -1    0    0  501  502  0.00000000000E+00 -0.00000000000E+00 -0.12551782746E+03  0.12551782746E+03  0.00000000000E+00 0. -1.
         24    2    1    2    0    0  0.22116413100E+02  0.28758578244E+02  0.38414755069E+03  0.39425575369E+03  0.80944839631E+02 0.  0.
         23    2    1    2    0    0 -0.35237256818E+02  0.37007849769E+02  0.12164236029E+02  0.10530014089E+03  0.91262839206E+02 0.  0.
        -11    1    3    3    0    0  0.11134236031E+02  0.39141044384E+02  0.80207325550E+02  0.89940022456E+02  0.00000000000E+00 0.  1.
         12    1    3    3    0    0  0.10982177069E+02 -0.10382466140E+02  0.30394022514E+03  0.30431573123E+03  0.00000000000E+00 0. -1.
        -11    1    4    4    0    0 -0.12951085254E+02  0.59183978056E+02  0.31607717522E+02  0.68333898430E+02  0.00000000000E+00 0. -1.
         11    1    4    4    0    0 -0.22286171564E+02 -0.22176128286E+02 -0.19443481493E+02  0.36966242456E+02  0.00000000000E+00 0.  1.
          1    1    1    2  501    0  0.13120843719E+02 -0.65766428013E+02 -0.58680493352E+02  0.89111053711E+02  0.00000000000E+00 0. -1.
<scales pt_clust_5="13000.00000" pt_clust_6="13000.00000" pt_clust_7="13000.00000" pt_clust_8="13000.00000" pt_clust_9="67.06251"></scales>
<clustering>
<clus scale="   67.063">  2  9  1 -1</clus>
<clus scale="   80.945">  5  6 -1 -1</clus>
<clus scale="   87.166">  1  5  2 -1</clus>
<clus scale="   91.263">  7  8 -1 -1</clus>
<clus scale="   67.063">  2  5  1 -1</clus>
</clustering>
</event>
<event>
 9    2  0.1033155E-004  0.1173418E+03  0.7546771E-02  0.1248983E+00
          2   -1    0    0  502    0 -0.00000000000E+00  0.00000000000E+00  0.31401579473E+02  0.31401579473E+02  0.00000000000E+00 0. -1.
         21   -1    0    0  501  502  0.00000000000E+00 -0.00000000000E+00 -0.65819924519E+03  0.65819924519E+03  0.00000000000E+00 0. -1.
         23    2    1    2    0    0 -0.87738959919E+02  0.58703413411E+01 -0.23635310179E+03  0.26796572068E+03  0.90610444976E+02 0.  0.
         24    2    1    2    0    0  0.56559379464E+02  0.31803535912E+02 -0.29981189575E+03  0.31865079544E+03  0.86259656280E+02 0.  0.
        -11    1    4    4    0    0  0.57661968408E+02  0.20667573949E+02 -0.91930377200E+02  0.11046830073E+03  0.00000000000E+00 0.  1.
         12    1    4    4    0    0 -0.11025889438E+01  0.11135961963E+02 -0.20788151855E+03  0.20818249471E+03  0.00000000000E+00 0. -1.
        -11    1    3    3    0    0  0.12536660879E+02  0.15871130561E+02 -0.75421831429E+02  0.78086575718E+02  0.00000000000E+00 0.  1.
         11    1    3    3    0    0 -0.10027562080E+03 -0.10000789220E+02 -0.16093127037E+03  0.18987914497E+03  0.00000000000E+00 0. -1.
          1    1    1    2  501    0  0.31179580455E+02 -0.37673877253E+02 -0.90632668174E+02  0.10298430854E+03  0.00000000000E+00 0. -1.
<scales pt_clust_5="13000.00000" pt_clust_6="13000.00000" pt_clust_7="13000.00000" pt_clust_8="13000.00000" pt_clust_9="48.90286"></scales>
<clustering>
<clus scale="   48.903">  2  9  1 -1</clus>
<clus scale="   86.260">  5  6 -1 -1</clus>
<clus scale="   90.610">  7  8 -1 -1</clus>
<clus scale="  114.016">  2  5  1 -1</clus>
<clus scale="   48.903">  2  5  1 -1</clus>
</clustering>
</event>
<event>
 9    2  0.1033155E-004  0.1245405E+03  0.7546771E-02  0.1239467E+00
          4   -1    0    0  502    0 -0.00000000000E+00  0.00000000000E+00  0.17071457038E+03  0.17071457038E+03  0.00000000000E+00 0. -1.
         21   -1    0    0  501  502  0.00000000000E+00 -0.00000000000E+00 -0.14584285422E+03  0.14584285422E+03  0.00000000000E+00 0. -1.
         24    2    1    2    0    0  0.64219114350E+02 -0.42594633933E+02  0.59525745101E+02  0.12537418411E+03  0.78974516297E+02 0.  0.
         23    2    1    2    0    0 -0.73318771748E+02  0.80005608284E+02 -0.48772414597E+02  0.15017453921E+03  0.91635714400E+02 0.  0.
        -13    1    3    3    0    0 -0.20798425544E+01 -0.42220671012E+02  0.12470408164E+02  0.44072915555E+02  0.00000000000E+00 0.  1.
         14    1    3    3    0    0  0.66298956905E+02 -0.37396292158E+00  0.47055336936E+02  0.81301268558E+02  0.00000000000E+00 0. -1.
        -11    1    4    4    0    0 -0.44612845831E+02 -0.11118745143E+02 -0.99062186016E+01  0.47032602242E+02  0.00000000000E+00 0.  1.
         11    1    4    4    0    0 -0.28705925917E+02  0.91124353427E+02 -0.38866195996E+02  0.10314193697E+03  0.00000000000E+00 0. -1.
          3    1    1    2  501    0  0.90996573980E+01 -0.37410974350E+02  0.14118385661E+02  0.41008701275E+02  0.00000000000E+00 0. -1.
<scales pt_clust_5="13000.00000" pt_clust_6="13000.00000" pt_clust_7="13000.00000" pt_clust_8="13000.00000" pt_clust_9="38.50177"></scales>
<clustering>
<clus scale="   38.502">  2  9  1 -1</clus>
<clus scale="   78.975">  5  6 -1 -1</clus>
<clus scale="   91.636">  7  8 -1 -1</clus>
<clus scale="  115.543">  1  5  2 -1</clus>
<clus scale="   38.502">  2  5  1 -1</clus>
</clustering>
</event>
<event>
 9    2  0.1033155E-004  0.9342988E+02  0.7546771E-02  0.1297843E+00
         21   -1    0    0  501  502  0.00000000000E+00  0.00000000000E+00  0.23647873310E+02  0.23647873310E+02  0.00000000000E+00 0.  1.
          2   -1    0    0  502    0 -0.00000000000E+00 -0.00000000000E+00 -0.58376836931E+03  0.58376836931E+03  0.00000000000E+00 0. -1.
         24    2    1    2    0    0 -0.33042615137E+02 -0.32128362898E+02 -0.31328427085E+03  0.32634909609E+03  0.78947147149E+02 0.  0.
         23    2    1    2    0    0  0.21488639694E+02  0.10455202584E+02 -0.10453799475E+03  0.13666490761E+03  0.84723265578E+02 0.  0.
        -13    1    3    3    0    0  0.22894081672E+02 -0.21363871436E+01 -0.13853988667E+03  0.14043505020E+03  0.00000000000E+00 0.  1.
         14    1    3    3    0    0 -0.55936696809E+02 -0.29991975755E+02 -0.17474438418E+03  0.18591404589E+03  0.00000000000E+00 0. -1.
        -11    1    4    4    0    0 -0.40656770859E+01  0.25487324667E+02  0.21835423985E+01  0.25901762609E+02  0.00000000000E+00 0.  1.
         11    1    4    4    0    0  0.25554316780E+02 -0.15032122084E+02 -0.10672153715E+03  0.11076314500E+03  0.00000000000E+00 0. -1.
          1    1    1    2  501    0  0.11553975444E+02  0.21673160315E+02 -0.14229823040E+03  0.14440223891E+03  0.00000000000E+00 0. -1.
<scales pt_clust_5="13000.00000" pt_clust_6="13000.00000" pt_clust_7="13000.00000" pt_clust_8="13000.00000" pt_clust_9="24.56055"></scales>
<clustering>
<clus scale="   24.561">  1  9  2 -1</clus>
<clus scale="   78.947">  5  6 -1 -1</clus>
<clus scale="   84.723">  7  8 -1 -1</clus>
<clus scale="   88.226">  2  5  1 -1</clus>
<clus scale="   24.561">  1  5  2 -1</clus>
</clustering>
</event>
<event>
 9    2  0.1033155E-004  0.1588767E+03  0.7546771E-02  0.1209781E+00
         21   -1    0    0  501  502  0.00000000000E+00  0.00000000000E+00  0.75229975521E+03  0.75229975521E+03  0.00000000000E+00 0. -1.
          4   -1    0    0  502    0 -0.00000000000E+00 -0.00000000000E+00 -0.21354446833E+03  0.21354446833E+03  0.00000000000E+00 0. -1.
         24    2    1    2    0    0  0.28502309861E+02 -0.15402130721E+02  0.20368574408E+03  0.22838764366E+03  0.98099062876E+02 0.  0.
         23    2    1    2    0    0 -0.64668096690E+02 -0.10140088098E+03 -0.16177315250E+03  0.22578913755E+03  0.10171568400E+03 0.  0.
        -11    1    3    3    0    0 -0.34694276890E+02  0.75086436863E+01  0.59135906326E+02  0.68971936292E+02  0.00000000000E+00 0.  1.
         12    1    3    3    0    0  0.63196586751E+02 -0.22910774407E+02  0.14454983775E+03  0.15941570736E+03  0.00000000000E+00 0. -1.
        -11    1    4    4    0    0 -0.50512808948E+02 -0.11736008131E+03 -0.10579502923E+03  0.16588405819E+03  0.00000000000E+00 0.  1.
         11    1    4    4    0    0 -0.14155287742E+02  0.15959200339E+02 -0.55978123276E+02  0.59905079351E+02  0.00000000000E+00 0. -1.
          3    1    1    2  501    0  0.36165786830E+02  0.11680301170E+03  0.49684269530E+03  0.51166744234E+03  0.00000000000E+00 0. -1.
<scales pt_clust_5="13000.00000" pt_clust_6="13000.00000" pt_clust_7="13000.00000" pt_clust_8="13000.00000" pt_clust_9="122.04806"></scales>
<clustering>
<clus scale="   98.099">  5  6 -1 -1</clus>
<clus scale="  101.716">  7  8 -1 -1</clus>
<clus scale="  103.310">  2  5  1 -1</clus>
<clus scale="  122.048">  1  9  2 -1</clus>
<clus scale="  122.048">  1  5  2 -1</clus>
</clustering>
</event>
<event>
 9    2  0.1033155E-004  0.4150204E+03  0.7546771E-02  0.1085841E+00
         21   -1    0    0  501  502  0.00000000000E+00  0.00000000000E+00  0.36201040962E+03  0.36201040962E+03  0.00000000000E+00 0.  1.
          2   -1    0    0  502    0 -0.00000000000E+00 -0.00000000000E+00 -0.93173641649E+03  0.93173641649E+03  0.00000000000E+00 0. -1.
         24    2    1    2    0    0 -0.66517216285E+02  0.20029322327E+02  0.30762967131E+01  0.11155679424E+03  0.87233829011E+02 0.  0.
         23    2    1    2    0    0  0.26580398206E+03  0.31205675999E+03  0.75514767197E+02  0.42700038328E+03  0.92712830391E+02 0.  0.
        -11    1    3    3    0    0 -0.85765730672E+02  0.33329275215E+01  0.51981328358E+01  0.85987729058E+02  0.00000000000E+00 0.  1.
         12    1    3    3    0    0  0.19248514387E+02  0.16696394806E+02 -0.21218361227E+01  0.25569065179E+02  0.00000000000E+00 0. -1.
        -11    1    4    4    0    0  0.65990485008E+02  0.45090385228E+02  0.46045918098E+02  0.92239435845E+02  0.00000000000E+00 0.  1.
         11    1    4    4    0    0  0.19981349706E+03  0.26696637476E+03  0.29468849098E+02  0.33476094743E+03  0.00000000000E+00 0. -1.
          1    1    1    2  501    0 -0.19928676578E+03 -0.33208608232E+03 -0.64831707078E+03  0.75518964860E+03  0.00000000000E+00 0. -1.
<scales pt_clust_5="13000.00000" pt_clust_6="13000.00000" pt_clust_7="13000.00000" pt_clust_8="13000.00000" pt_clust_9="404.53240"></scales>
<clustering>
<clus scale="   87.234">  5  6 -1 -1</clus>
<clus scale="   92.713">  7  8 -1 -1</clus>
<clus scale="  111.514">  2  5  1 -1</clus>
<clus scale="  404.532">  1  9  2 -1</clus>
<clus scale="  404.532">  1  5  2 -1</clus>
</clustering>
</event>
<event>
 9    2  0.1033155E-004  0.1057986E+03  0.7546771E-02  0.1273238E+00
         21   -1    0    0  501  502  0.00000000000E+00  0.00000000000E+00  0.40921402446E+02  0.40921402446E+02  0.00000000000E+00 0. -1.
          2   -1    0    0  502    0 -0.00000000000E+00 -0.00000000000E+00 -0.69769867982E+03  0.69769867982E+03  0.00000000000E+00 0. -1.
         23    2    1    2    0    0 -0.16567788522E+02  0.44298131363E+02 -0.48045105440E+03  0.49135341153E+03  0.91422881676E+02 0.  0.
         24    2    1    2    0    0  0.61981968679E+02 -0.64266625292E+02 -0.10112290151E+03  0.15717378495E+03  0.80658501711E+02 0.  0.
        -13    1    4    4    0    0 -0.15902624901E+02 -0.21674888499E+02 -0.69697714470E+01  0.27771783958E+02  0.00000000000E+00 0.  1.
         14    1    4    4    0    0  0.77884593581E+02 -0.42591736793E+02 -0.94153130068E+02  0.12940200100E+03  0.00000000000E+00 0. -1.
        -13    1    3    3    0    0  0.27579547856E+01 -0.27607331781E+02 -0.15800310557E+03  0.16042054872E+03  0.00000000000E+00 0. -1.
         13    1    3    3    0    0 -0.19325743307E+02  0.71905463144E+02 -0.32244794883E+03  0.33093286281E+03  0.00000000000E+00 0.  1.
          1    1    1    2  501    0 -0.45414180158E+02  0.19968493929E+02 -0.75203321465E+02  0.90092885782E+02  0.00000000000E+00 0. -1.
<scales pt_clust_5="13000.00000" pt_clust_6="13000.00000" pt_clust_7="13000.00000" pt_clust_8="13000.00000" pt_clust_9="49.61037"></scales>
<clustering>
<clus scale="   49.610">  1  9  2 -1</clus>
<clus scale="   80.659">  5  6 -1 -1</clus>
<clus scale="   91.423">  7  8 -1 -1</clus>
<clus scale="   96.649">  1  5  2 -1</clus>
<clus scale="   49.610">  1  5  2 -1</clus>
</clustering>
</event>
<event>
 9    2  0.1033155E-004  0.1020518E+03  0.7546771E-02  0.1283582E+00
         21   -1    0    0  501  502  0.00000000000E+00  0.00000000000E+00  0.77074612338E+03  0.77074612338E+03  0.00000000000E+00 0. -1.
         -1   -1    0    0    0  501 -0.00000000000E+00 -0.00000000000E+00 -0.14079990583E+03  0.14079990583E+03  0.00000000000E+00 0.  1.
         24    2    1    2    0    0  0.35964815861E+02  0.19917928743E+02 -0.11147729106E+03  0.14221748248E+03  0.78156471480E+02 0.  0.
         23    2    1    2    0    0 -0.69386812336E+02  0.36202677285E+02  0.31134960919E+03  0.33432267180E+03  0.93316162412E+02 0.  0.
        -13    1    3    3    0    0  0.45738968866E+02  0.16057385319E+02 -0.11952497336E+03  0.12898105347E+03  0.00000000000E+00 0.  1.
         14    1    3    3    0    0 -0.97741530048E+01  0.38605434238E+01  0.80476823011E+01  0.13236429009E+02  0.00000000000E+00 0. -1.
        -13    1    4    4    0    0  0.10280375428E+02  0.37338497393E+02  0.14166534647E+03  0.14686360985E+03  0.00000000000E+00 0.  1.
         13    1    4    4    0    0 -0.79667187764E+02 -0.11358201084E+01  0.16968426272E+03  0.18745906196E+03  0.00000000000E+00 0. -1.
         -2    1    1    2    0  502  0.33421996475E+02 -0.56120606028E+02  0.43007389941E+03  0.43500587493E+03  0.00000000000E+00 0.  1.
<scales pt_clust_5="13000.00000" pt_clust_6="13000.00000" pt_clust_7="13000.00000" pt_clust_8="13000.00000" pt_clust_9="65.31885"></scales>
<clustering>
<clus scale="   65.319">  1  9  2 -1</clus>
<clus scale="   78.156">  5  6 -1 -1</clus>
<clus scale="   88.403">  2  5  1 -1</clus>
<clus scale="   93.316">  7  8 -1 -1</clus>
<clus scale="   65.319">  1  5  2 -1</clus>
</clustering>
</event>
<event>
 9    2  0.1033155E-004  0.1610100E+03  0.7546771E-02  0.1189919E+00
          2   -1    0    0  502    0 -0.00000000000E+00  0.00000000000E+00  0.32088333161E+03  0.32088333161E+03  0.00000000000E+00 0. -1.
         21   -1    0    0  501  502  0.00000000000E+00 -0.00000000000E+00 -0.24654129712E+03  0.24654129712E+03  0.00000000000E+00 0.  1.
         24    2    1    2    0    0  0.30346750460E+02  0.12554606998E+03  0.25365767657E+03  0.29544004432E+03  0.79119289398E+02 0.  0.
         23    2    1    2    0    0 -0.58548346107E+02 -0.13514735800E+03 -0.15365906798E+03  0.23266824528E+03  0.93971729704E+02 0.  0.
        -11    1    3    3    0    0  0.30692825195E+00  0.10168132680E+03  0.12472766958E+03  0.16092289453E+03  0.00000000000E+00 0.  1.
         12    1    3    3    0    0  0.30039822208E+02  0.23864743177E+02  0.12893000699E+03  0.13451714979E+03  0.00000000000E+00 0. -1.
        -13    1    4    4    0    0 -0.74347478929E+02 -0.10270747300E+03 -0.14998768187E+03  0.19639928041E+03  0.00000000000E+00 0.  1.
         13    1    4    4    0    0  0.15799132822E+02 -0.32439885001E+02 -0.36713861097E+01  0.36268964870E+02  0.00000000000E+00 0. -1.
          1    1    1    2  501    0  0.28201595647E+02  0.96012880139E+01 -0.25656574090E+02  0.39316339130E+02  0.00000000000E+00 0. -1.
<scales pt_clust_5="13000.00000" pt_clust_6="13000.00000" pt_clust_7="13000.00000" pt_clust_8="13000.00000" pt_clust_9="29.79119"></scales>
<clustering>
<clus scale="   29.791">  2  9  1 -1</clus>
<clus scale="   79.119">  5  6 -1 -1</clus>
<clus scale="   93.972">  7  8 -1 -1</clus>
<clus scale="  152.818">  1  5  2 -1</clus>
<clus scale="   29.791">  2  5  1 -1</clus>
</clustering>
</event>
<event>
 9    2  0.1033155E-004  0.1029614E+03  0.7546771E-02  0.1284343E+00
          2   -1    0    0  502    0 -0.00000000000E+00  0.00000000000E+00  0.20744192862E+03  0.20744192862E+03  0.00000000000E+00 0. -1.
         21   -1    0    0  501  502  0.00000000000E+00 -0.00000000000E+00 -0.18513241173E+03  0.18513241173E+03  0.00000000000E+00 0.  1.
         24    2    1    2    0    0  0.18603622955E+02  0.15810028794E+02  0.16889499516E+03  0.18912092131E+03  0.81517799847E+02 0.  0.
         23    2    1    2    0    0 -0.23442198729E+02  0.55240813902E+01 -0.72038755549E+02  0.12576320123E+03  0.10023346910E+03 0.  0.
        -11    1    3    3    0    0 -0.27259869213E+02 -0.77245056138E+01  0.31468193355E+02  0.42344015510E+02  0.00000000000E+00 0.  1.
         12    1    3    3    0    0  0.45863492168E+02  0.23534534408E+02  0.13742680180E+03  0.14677690580E+03  0.00000000000E+00 0. -1.
        -13    1    4    4    0    0  0.20743862980E+02  0.39852533460E+02 -0.19389228950E+02  0.48933367693E+02  0.00000000000E+00 0. -1.
         13    1    4    4    0    0 -0.44186061708E+02 -0.34328452070E+02 -0.52649526599E+02  0.76829833541E+02  0.00000000000E+00 0.  1.
          1    1    1    2  501    0  0.48385757737E+01 -0.21334110184E+02 -0.74546722724E+02  0.77690217800E+02  0.00000000000E+00 0. -1.
<scales pt_clust_5="13000.00000" pt_clust_6="13000.00000" pt_clust_7="13000.00000" pt_clust_8="13000.00000" pt_clust_9="21.87592"></scales>
<clustering>
<clus scale="   21.876">  2  9  1 -1</clus>
<clus scale="   81.518">  5  6 -1 -1</clus>
<clus scale="   84.850">  1  5  2 -1</clus>
<clus scale="  100.233">  7  8 -1 -1</clus>
<clus scale="   21.876">  2  5  1 -1</clus>
</clustering>
</event>
<event>
 9    2  0.1033155E-004  0.1288855E+03  0.7546771E-02  0.1231583E+00
         -3   -1    0    0    0  501 -0.00000000000E+00  0.00000000000E+00  0.23043558355E+03  0.23043558355E+03  0.00000000000E+00 0.  1.
         21   -1    0    0  501  502  0.00000000000E+00 -0.00000000000E+00 -0.72590420852E+03  0.72590420852E+03  0.00000000000E+00 0.  1.
         24    2    1    2    0    0  0.89113492746E+02  0.47410604769E+02  0.17545855268E+03  0.21790667539E+03  0.80676114411E+02 0.  0.
         23    2    1    2    0    0 -0.64810142611E+02  0.61074559179E+02 -0.11367109374E+03  0.17019546686E+03  0.90082867533E+02 0.  0.
        -13    1    3    3    0    0  0.91099006598E+02  0.63064920809E+02  0.16577373290E+03  0.19939193504E+03  0.00000000000E+00 0.  1.
         14    1    3    3    0    0 -0.19855138526E+01 -0.15654316040E+02  0.96848197773E+01  0.18514740345E+02  0.00000000000E+00 0. -1.
        -11    1    4    4    0    0 -0.24295526550E+02  0.88966233654E+01  0.11768783272E+02  0.28424052796E+02  0.00000000000E+00 0. -1.
         11    1    4    4    0    0 -0.40514616061E+02  0.52177935813E+02 -0.12543987701E+03  0.14177141406E+03  0.00000000000E+00 0.  1.
         -4    1    1    2    0  502 -0.24303350135E+02 -0.10848516395E+03 -0.55725608391E+03  0.56823764982E+03  0.00000000000E+00 0.  1.
<scales pt_clust_5="13000.00000" pt_clust_6="13000.00000" pt_clust_7="13000.00000" pt_clust_8="13000.00000" pt_clust_9="111.17411"></scales>
<clustering>
<clus scale="   80.676">  5  6 -1 -1</clus>
<clus scale="   90.083">  7  8 -1 -1</clus>
<clus scale="  111.174">  2  9  1 -1</clus>
<clus scale="  122.496">  1  5  2 -1</clus>
<clus scale="  111.174">  2  5  1 -1</clus>
</clustering>
</event>
<event>
 9    2  0.1033155E-004  0.1007554E+03  0.7546771E-02  0.1285741E+00
          2   -1    0    0  502    0 -0.00000000000E+00  0.00000000000E+00  0.55031193831E+03  0.55031193831E+03  0.00000000000E+00 0. -1.
         21   -1    0    0  501  502  0.00000000000E+00 -0.00000000000E+00 -0.27412993651E+03  0.27412993651E+03  0.00000000000E+00 0. -1.
         24    2    1    2    0    0  0.28541162382E+02  0.33850095369E+01  0.52023625720E+03  0.52763773529E+03  0.83245180937E+02 0.  0.
         23    2    1    2    0    0 -0.37534812642E+02 -0.47875096647E+02 -0.12405574279E+03  0.16850801089E+03  0.96458464514E+02 0.  0.
        -13    1    3    3    0    0  0.34807518412E+02 -0.21061063462E+02  0.12203849600E+03  0.12864107523E+03  0.00000000000E+00 0.  1.
         14    1    3    3    0    0 -0.62663560298E+01  0.24446072999E+02  0.39819776121E+03  0.39899666005E+03  0.00000000000E+00 0. -1.
        -11    1    4    4    0    0 -0.50392983745E+02  0.88871516774E+01 -0.82176888100E+02  0.96806380024E+02  0.00000000000E+00 0.  1.
         11    1    4    4    0    0  0.12858171103E+02 -0.56762248324E+02 -0.41878854693E+02  0.71701630869E+02  0.00000000000E+00 0. -1.
          1    1    1    2  501    0  0.89936502597E+01  0.44490087110E+02 -0.11999851261E+03  0.12829612864E+03  0.00000000000E+00 0. -1.
<scales pt_clust_5="13000.00000" pt_clust_6="13000.00000" pt_clust_7="13000.00000" pt_clust_8="13000.00000" pt_clust_9="45.39002"></scales>
<clustering>
<clus scale="   45.390">  2  9  1 -1</clus>
<clus scale="   83.245">  5  6 -1 -1</clus>
<clus scale="   88.188">  1  5  2 -1</clus>
<clus scale="   96.458">  7  8 -1 -1</clus>
<clus scale="   45.390">  2  5  1 -1</clus>
</clustering>
</event>
<event>
 9    2  0.1033155E-004  0.1182342E+03  0.7546771E-02  0.1249701E+00
         21   -1    0    0  501  502  0.00000000000E+00  0.00000000000E+00  0.44268410412E+03  0.44268410412E+03  0.00000000000E+00 0.  1.
          2   -1    0    0  502    0 -0.00000000000E+00 -0.00000000000E+00 -0.51932987798E+02  0.51932987798E+02  0.00000000000E+00 0. -1.
         23    2    1    2    0    0  0.82699281131E+00 -0.81710711880E+02  0.54895910948E+02  0.13424073224E+03  0.91267128808E+02 0.  0.
         24    2    1    2    0    0 -0.10404165332E+02  0.54171599552E+02  0.29143011310E+03  0.30723773188E+03  0.80129296831E+02 0.  0.
        -11    1    4    4    0    0 -0.29936905360E+02  0.67004218121E+02  0.20660573660E+03  0.21925262586E+03  0.00000000000E+00 0.  1.
         12    1    4    4    0    0  0.19532740028E+02 -0.12832618568E+02  0.84824376502E+02  0.87985106019E+02  0.00000000000E+00 0. -1.
        -13    1    3    3    0    0  0.26133237480E+02 -0.29876449335E+02 -0.16040916103E+02  0.42811906235E+02  0.00000000000E+00 0. -1.
         13    1    3    3    0    0 -0.25306244668E+02 -0.51834262545E+02  0.70936827052E+02  0.91428826007E+02  0.00000000000E+00 0.  1.
          1    1    1    2  501    0  0.95771725209E+01  0.27539112327E+02  0.44425092266E+02  0.53138627796E+02  0.00000000000E+00 0. -1.
<scales pt_clust_5="13000.00000" pt_clust_6="13000.00000" pt_clust_7="13000.00000" pt_clust_8="13000.00000" pt_clust_9="29.15690"></scales>
<clustering>
<clus scale="   29.157">  1  9  2 -1</clus>
<clus scale="   80.129">  5  6 -1 -1</clus>
<clus scale="   91.267">  7  8 -1 -1</clus>
<clus scale="  109.865">  1  5  2 -1</clus>
<clus scale="   29.157">  1  5  2 -1</clus>
</clustering>
</event>
<event>
 9    2  0.1033155E-004  0.9760505E+02  0.7546771E-02  0.1290447E+00
         21   -1    0    0  501  502  0.00000000000E+00  0.00000000000E+00  0.91650319881E+02  0.91650319881E+02  0.00000000000E+00 0.  1.
         -1   -1    0    0    0  501 -0.00000000000E+00 -0.00000000000E+00 -0.35779787947E+03  0.35779787947E+03  0.00000000000E+00 0.  1.
         24    2    1    2    0    0  0.31955943701E+02 -0.16931078764E+02 -0.25021887684E+03  0.26529689605E+03  0.80405926158E+02 0.  0.
         23    2    1    2    0    0 -0.65710560295E+02 -0.17382528130E+02  0.30928578561E+02  0.11697689823E+03  0.90038812345E+02 0.  0.
        -11    1    3    3    0    0  0.20121108302E+02 -0.49235179491E+02 -0.13684465488E+03  0.14681764699E+03  0.00000000000E+00 0.  1.
         12    1    3    3    0    0  0.11834835399E+02  0.32304100727E+02 -0.11337422196E+03  0.11847924906E+03  0.00000000000E+00 0. -1.
        -11    1    4    4    0    0 -0.34029033139E+02 -0.38385416612E+02  0.52392944302E+02  0.73324183715E+02  0.00000000000E+00 0.  1.
         11    1    4    4    0    0 -0.31681527156E+02  0.21002888482E+02 -0.21464365741E+02  0.43652714512E+02  0.00000000000E+00 0. -1.
         -2    1    1    2    0  502  0.33754616594E+02  0.34313606894E+02 -0.46857261312E+02  0.67174405075E+02  0.00000000000E+00 0.  1.
<scales pt_clust_5="13000.00000" pt_clust_6="13000.00000" pt_clust_7="13000.00000" pt_clust_8="13000.00000" pt_clust_9="48.13315"></scales>
<clustering>
<clus scale="   48.133">  1  9  2 -1</clus>
<clus scale="   80.406">  5  6 -1 -1</clus>
<clus scale="   88.797">  2  5  1 -1</clus>
<clus scale="   90.039">  7  8 -1 -1</clus>
<clus scale="   48.133">  1  5  2 -1</clus>
</clustering>
</event>
<event>
 9    2  0.1033155E-004  0.1140965E+03  0.7546771E-02  0.1269015E+00
         -1   -1    0    0    0  501 -0.00000000000E+00  0.00000000000E+00  0.35810442749E+03  0.35810442749E+03  0.00000000000E+00 0.  1.
         21   -1    0    0  501  502  0.00000000000E+00 -0.00000000000E+00 -0.11799275685E+03  0.11799275685E+03  0.00000000000E+00 0.  1.
         24    2    1    2    0    0  0.20382924313E+02  0.12078745868E+02  0.22785456039E+03  0.24270816700E+03  0.80176018421E+02 0.  0.
         23    2    1    2    0    0  0.49507357612E+02  0.50318532583E+02  0.70707872113E+02  0.12296002011E+03  0.71670288042E+02 0.  0.
        -13    1    3    3    0    0 -0.52223320050E-01  0.43225411950E+02  0.15455368982E+03  0.16048452263E+03  0.00000000000E+00 0.  1.
         14    1    3    3    0    0  0.20435147633E+02 -0.31146666082E+02  0.73300870571E+02  0.82223644369E+02  0.00000000000E+00 0. -1.
        -11    1    4    4    0    0  0.64935647697E+02  0.28212200629E+02  0.63379669015E+02  0.95023939355E+02  0.00000000000E+00 0.  1.
         11    1    4    4    0    0 -0.15428290084E+02  0.22106331954E+02  0.73282030977E+01  0.27936080756E+02  0.00000000000E+00 0. -1.
         -2    1    1    2    0  502 -0.69890281926E+02 -0.62397278451E+02 -0.58450761868E+02  0.11042899723E+03  0.00000000000E+00 0.  1.
<scales pt_clust_5="13000.00000" pt_clust_6="13000.00000" pt_clust_7="13000.00000" pt_clust_8="13000.00000" pt_clust_9="88.77713"></scales>
<clustering>
<clus scale="   71.670">  7  8 -1 -1</clus>
<clus scale="   80.176">  5  6 -1 -1</clus>
<clus scale="   83.604">  1  5  2 -1</clus>
<clus scale="   88.777">  2  9  1 -1</clus>
<clus scale="   88.777">  2  5  1 -1</clus>
</clustering>
</event>
<event>
 9    2  0.1033155E-004  0.8915995E+02  0.7546771E-02  0.1309892E+00
         -3   -1    0    0    0  501 -0.00000000000E+00  0.00000000000E+00  0.17050129218E+03  0.17050129218E+03  0.00000000000E+00 0.  1.
         21   -1    0    0  501  502  0.00000000000E+00 -0.00000000000E+00 -0.12076454668E+03  0.12076454668E+03  0.00000000000E+00 0.  1.
         24    2    1    2    0    0  0.13594724101E+02  0.67053207696E+00  0.11591516847E+03  0.14169019252E+03  0.80340016424E+02 0.  0.
         23    2    1    2    0    0 -0.16948410533E+01 -0.33274762084E+02 -0.28812622689E+02  0.98577155551E+02  0.88188469158E+02 0.  0.
        -13    1    3    3    0    0 -0.90588182854E+01 -0.26847013223E+02  0.97575291304E+02  0.10160591410E+03  0.00000000000E+00 0.  1.
         14    1    3    3    0    0  0.22653542386E+02  0.27517545300E+02  0.18339877168E+02  0.40084278421E+02  0.00000000000E+00 0. -1.
        -11    1    4    4    0    0 -0.13806173660E+02 -0.55575139700E+02 -0.40996679426E+02  0.70426801061E+02  0.00000000000E+00 0.  1.
         11    1    4    4    0    0  0.12111332607E+02  0.22300377615E+02  0.12184056738E+02  0.28150354489E+02  0.00000000000E+00 0. -1.
         -4    1    1    2    0  502 -0.11899883048E+02  0.32604230007E+02 -0.37365800286E+02  0.50998490781E+02  0.00000000000E+00 0.  1.
<scales pt_clust_5="13000.00000" pt_clust_6="13000.00000" pt_clust_7="13000.00000" pt_clust_8="13000.00000" pt_clust_9="34.70797"></scales>
<clustering>
<clus scale="   34.708">  2  9  1 -1</clus>
<clus scale="   80.340">  5  6 -1 -1</clus>
<clus scale="   81.405">  1  5  2 -1</clus>
<clus scale="   88.188">  7  8 -1 -1</clus>
<clus scale="   34.708">  2  5  1 -1</clus>
</clustering>
</event>
<event>
 9    2  0.1033155E-004  0.2928811E+03  0.7546771E-02  0.1089274E+00
          2   -1    0    0  502    0 -0.00000000000E+00  0.00000000000E+00  0.25723997129E+04  0.25723997129E+04  0.00000000000E+00 0. -1.
         21   -1    0    0  501  502  0.00000000000E+00 -0.00000000000E+00 -0.55155771310E+02  0.55155771310E+02  0.00000000000E+00 0. -1.
         24    2    1    2    0    0 -0.16408691815E+03 -0.26711170515E+03  0.18351171104E+04  0.18634599933E+04  0.80963930907E+02 0.  0.
         23    2    1    2    0    0  0.93180402514E+02  0.19715094030E+03  0.54902548836E+03  0.59784805469E+03  0.91881602911E+02 0.  0.
        -11    1    3    3    0    0 -0.65014861325E+02 -0.17639376821E+03  0.98219933796E+03  0.10000286162E+04  0.00000000000E+00 0.  1.
         12    1    3    3    0    0 -0.99072056827E+02 -0.90717936949E+02  0.85291777240E+03  0.86343137713E+03  0.00000000000E+00 0. -1.
        -13    1    4    4    0    0  0.11101962899E+02  0.10703622262E+03  0.18576484870E+03  0.21468252269E+03  0.00000000000E+00 0. -1.
         13    1    4    4    0    0  0.82078439615E+02  0.90114717683E+02  0.36326063966E+03  0.38316553200E+03  0.00000000000E+00 0.  1.
          1    1    1    2  501    0  0.70906515638E+02  0.69960764850E+02  0.13310134285E+03  0.16624743621E+03  0.00000000000E+00 0. -1.
<scales pt_clust_5="13000.00000" pt_clust_6="13000.00000" pt_clust_7="13000.00000" pt_clust_8="13000.00000" pt_clust_9="99.61045"></scales>
<clustering>
<clus scale="   80.964">  5  6 -1 -1</clus>
<clus scale="   91.882">  7  8 -1 -1</clus>
<clus scale="   99.610">  2  9  1 -1</clus>
<clus scale="  289.642">  1  5  2 -1</clus>
<clus scale="   99.610">  2  5  1 -1</clus>
</clustering>
</event>
<event>
 9    2  0.1033155E-004  0.1355115E+03  0.7546771E-02  0.1238501E+00
         21   -1    0    0  501  502  0.00000000000E+00  0.00000000000E+00  0.53871150200E+02  0.53871150200E+02  0.00000000000E+00 0.  1.
         -3   -1    0    0    0  501 -0.00000000000E+00 -0.00000000000E+00 -0.56331597305E+03  0.56331597305E+03  0.00000000000E+00 0.  1.
         24    2    1    2    0    0  0.41220003053E+02  0.64000187783E+01 -0.86293880698E+02  0.12575225022E+03  0.81406054434E+02 0.  0.
         23    2    1    2    0    0  0.45961594026E+02 -0.66658614990E+02 -0.32197785766E+03  0.34491619738E+03  0.93496541735E+02 0.  0.
        -13    1    3    3    0    0  0.24390502783E+02 -0.30108661769E+02 -0.74305624522E+02  0.83801873339E+02  0.00000000000E+00 0.  1.
         14    1    3    3    0    0  0.16829500269E+02  0.36508680547E+02 -0.11988256176E+02  0.41950376885E+02  0.00000000000E+00 0. -1.
        -13    1    4    4    0    0  0.53167264790E+02 -0.47656273664E+02 -0.31565986819E+03  0.32363410026E+03  0.00000000000E+00 0.  1.
         13    1    4    4    0    0 -0.72056707639E+01 -0.19002341326E+02 -0.63179894681E+01  0.21282097122E+02  0.00000000000E+00 0. -1.
         -4    1    1    2    0  502 -0.87181597079E+02  0.60258596211E+02 -0.10117308449E+03  0.14651867564E+03  0.00000000000E+00 0.  1.
<scales pt_clust_5="13000.00000" pt_clust_6="13000.00000" pt_clust_7="13000.00000" pt_clust_8="13000.00000" pt_clust_9="98.09059"></scales>
<clustering>
<clus scale="   81.406">  5  6 -1 -1</clus>
<clus scale="   91.471">  2  5  1 -1</clus>
<clus scale="   93.497">  7  8 -1 -1</clus>
<clus scale="   98.091">  1  9  2 -1</clus>
<clus scale="   98.091">  1  5  2 -1</clus>
</clustering>
</event>
<event>
 9    2  0.1033155E-004  0.1098780E+03  0.7546771E-02  0.1265954E+00
         21   -1    0    0  501  502  0.00000000000E+00  0.00000000000E+00  0.43063318268E+03  0.43063318268E+03  0.00000000000E+00 0.  1.
         -1   -1    0    0    0  501 -0.00000000000E+00 -0.00000000000E+00 -0.55045876165E+02  0.55045876165E+02  0.00000000000E+00 0.  1.
         24    2    1    2    0    0 -0.37565965669E+02  0.12652765337E+02  0.72758994988E+02  0.11463729245E+03  0.79224637715E+02 0.  0.
         23    2    1    2    0    0  0.92615712459E+02 -0.36813204466E-01  0.11207875106E+03  0.17210702411E+03  0.92095112572E+02 0.  0.
        -11    1    3    3    0    0 -0.45554756620E+02 -0.93365750835E+01  0.77862419897E+02  0.90691586805E+02  0.00000000000E+00 0.  1.
         12    1    3    3    0    0  0.79887909512E+01  0.21989340421E+02 -0.51034249084E+01  0.23945705644E+02  0.00000000000E+00 0. -1.
        -13    1    4    4    0    0  0.55917600065E+02 -0.41177657462E+02  0.36191645598E+02  0.78308445791E+02  0.00000000000E+00 0.  1.
         13    1    4    4    0    0  0.36698112394E+02  0.41140844257E+02  0.75887105462E+02  0.93798578320E+02  0.00000000000E+00 0. -1.
         -2    1    1    2    0  502 -0.55049746790E+02 -0.12615952133E+02  0.19074956046E+03  0.19893474228E+03  0.00000000000E+00 0.  1.
<scales pt_clust_5="13000.00000" pt_clust_6="13000.00000" pt_clust_7="13000.00000" pt_clust_8="13000.00000" pt_clust_9="56.47687"></scales>
<clustering>
<clus scale="   56.477">  1  9  2 -1</clus>
<clus scale="   79.225">  5  6 -1 -1</clus>
<clus scale="   92.095">  7  8 -1 -1</clus>
<clus scale="   99.339">  2  5  1 -1</clus>
<clus scale="   56.477">  1  5  2 -1</clus>
</clustering>
</event>
<event>
 9    2  0.1033155E-004  0.1098485E+03  0.7546771E-02  0.1265706E+00
          2   -1    0    0  502    0 -0.00000000000E+00  0.00000000000E+00  0.82473547304E+02  0.82473547304E+02  0.00000000000E+00 0. -1.
         21   -1    0    0  501  502  0.00000000000E+00 -0.00000000000E+00 -0.29930949429E+03  0.29930949429E+03  0.00000000000E+00 0. -1.
         23    2    1    2    0    0 -0.33571256442E+02  0.54277283416E+02  0.19675060448E+02  0.11361328706E+03  0.91912013571E+02 0.  0.
         24    2    1    2    0    0  0.59954757622E+01 -0.46363492169E+02 -0.20848676806E+03  0.22806477025E+03  0.79757681993E+02 0.  0.
        -11    1    4    4    0    0  0.58826067683E+01 -0.66998393144E+02 -0.12368402108E+03  0.14078752365E+03  0.00000000000E+00 0.  1.
         12    1    4    4    0    0  0.11286899394E+00  0.20634900975E+02 -0.84802746982E+02  0.87277246596E+02  0.00000000000E+00 0. -1.
        -11    1    3    3    0    0  0.12906621487E+01  0.72370945680E+02  0.16268661395E+02  0.74188199406E+02  0.00000000000E+00 0.  1.
         11    1    3    3    0    0 -0.34861918591E+02 -0.18093662264E+02  0.34063990540E+01  0.39425087654E+02  0.00000000000E+00 0. -1.
          1    1    1    2  501    0  0.27575780680E+02 -0.79137912473E+01 -0.28024239370E+02  0.40104984283E+02  0.00000000000E+00 0. -1.
<scales pt_clust_5="13000.00000" pt_clust_6="13000.00000" pt_clust_7="13000.00000" pt_clust_8="13000.00000" pt_clust_9="28.68888"></scales>
<clustering>
<clus scale="   28.689">  2  9  1 -1</clus>
<clus scale="   79.758">  5  6 -1 -1</clus>
<clus scale="   91.912">  7  8 -1 -1</clus>
<clus scale="   99.901">  2  5  1 -1</clus>
<clus scale="   28.689">  2  5  1 -1</clus>
</clustering>
</event>
<event>
 9    2  0.1033155E-004  0.1116520E+03  0.7546771E-02  0.1261317E+00
         21   -1    0    0  501  502  0.00000000000E+00  0.00000000000E+00  0.23490949255E+03  0.23490949255E+03  0.00000000000E+00 0.  1.
          2   -1    0    0  502    0 -0.00000000000E+00 -0.00000000000E+00 -0.43884800575E+03  0.43884800575E+03  0.00000000000E+00 0. -1.
         24    2    1    2    0    0  0.34502657239E+02  0.53665949203E+02 -0.35815444109E+03  0.37279727638E+03  0.81441624148E+02 0.  0.
         23    2    1    2    0    0 -0.37684334518E+01 -0.84910778124E+02  0.20116184538E+03  0.23673599740E+03  0.91399141654E+02 0.  0.
        -11    1    3    3    0    0  0.34018019522E+02 -0.59795433826E+01 -0.64699221574E+02  0.73341460741E+02  0.00000000000E+00 0.  1.
         12    1    3    3    0    0  0.48463771681E+00  0.59645492586E+02 -0.29345521952E+03  0.29945581564E+03  0.00000000000E+00 0. -1.
        -11    1    4    4    0    0  0.15210821285E+02 -0.98209062231E+02  0.17862770321E+03  0.20441195010E+03  0.00000000000E+00 0.  1.
         11    1    4    4    0    0 -0.18979254737E+02  0.13298284107E+02  0.22534142169E+02  0.32324047300E+02  0.00000000000E+00 0. -1.
          1    1    1    2  501    0 -0.30734223787E+02  0.31244828921E+02 -0.46945917489E+02  0.64224224518E+02  0.00000000000E+00 0. -1.
<scales pt_clust_5="13000.00000" pt_clust_6="13000.00000" pt_clust_7="13000.00000" pt_clust_8="13000.00000" pt_clust_9="43.82732"></scales>
<clustering>
<clus scale="   43.827">  1  9  2 -1</clus>
<clus scale="   81.442">  5  6 -1 -1</clus>
<clus scale="   91.399">  7  8 -1 -1</clus>
<clus scale="  103.659">  2  5  1 -1</clus>
<clus scale="   43.827">  1  5  2 -1</clus>
</clustering>
</event>
<event>
 9    2  0.1033155E-004  0.1618870E+03  0.7546771E-02  0.1188870E+00
         -1   -1    0    0    0  501 -0.00000000000E+00  0.00000000000E+00  0.10003318067E+04  0.10003318067E+04  0.00000000000E+00 0.  1.
         21   -1    0    0  501  502  0.00000000000E+00 -0.00000000000E+00 -0.37276408242E+02  0.37276408242E+02  0.00000000000E+00 0. -1.
         23    2    1    2    0    0  0.28374832891E+02 -0.98360857405E+02  0.30098054734E+03  0.33181064406E+03  0.95021177759E+02 0.  0.
         24    2    1    2    0    0 -0.31229407093E+02  0.16007962715E+03  0.46778062197E+03  0.50191622644E+03  0.80625214243E+02 0.  0.
        -11    1    4    4    0    0 -0.26283427983E+02  0.48710348039E+02  0.72478268937E+02  0.91195482677E+02  0.00000000000E+00 0.  1.
         12    1    4    4    0    0 -0.49459791095E+01  0.11136927912E+03  0.39530235304E+03  0.41072074376E+03  0.00000000000E+00 0. -1.
        -11    1    3    3    0    0  0.37793224422E+02 -0.38271544664E+02  0.23897696224E+03  0.24495515390E+03  0.00000000000E+00 0.  1.
         11    1    3    3    0    0 -0.94183915313E+01 -0.60089312741E+02  0.62003585101E+02  0.86855490155E+02  0.00000000000E+00 0. -1.
         -2    1    1    2    0  502  0.28545742018E+01 -0.61718769749E+02  0.19429422914E+03  0.20388134444E+03  0.00000000000E+00 0.  1.
<scales pt_clust_5="13000.00000" pt_clust_6="13000.00000" pt_clust_7="13000.00000" pt_clust_8="13000.00000" pt_clust_9="61.78478"></scales>
<clustering>
<clus scale="   61.785">  2  9  1 -1</clus>
<clus scale="   80.625">  5  6 -1 -1</clus>
<clus scale="   95.021">  7  8 -1 -1</clus>
<clus scale="  153.879">  2  5  1 -1</clus>
<clus scale="   61.785">  2  5  1 -1</clus>
</clustering>
</event>
<event>
 9    2  0.1033155E-004  0.9819385E+02  0.7546771E-02  0.1288786E+00
         -3   -1    0    0    0  501 -0.00000000000E+00  0.00000000000E+00  0.14819769806E+03  0.14819769806E+03  0.00000000000E+00 0.  1.
         21   -1    0    0  501  502  0.00000000000E+00 -0.00000000000E+00 -0.20179906588E+03  0.20179906588E+03  0.00000000000E+00 0.  1.
         24    2    1    2    0    0 -0.50314289382E+01  0.46397693376E+02  0.51618361408E+02  0.10651593295E+03  0.80641971146E+02 0.  0.
         23    2    1    2    0    0 -0.65291333191E+02 -0.37494020566E+01 -0.11595092546E+03  0.16053912738E+03  0.89728357262E+02 0.  0.
        -11    1    3    3    0    0 -0.11934916643E+01  0.67364248714E+02  0.52141637013E+02  0.85194581621E+02  0.00000000000E+00 0.  1.
         12    1    3    3    0    0 -0.38379372739E+01 -0.20966555337E+02 -0.52327560537E+00  0.21321351331E+02  0.00000000000E+00 0. -1.
        -13    1    4    4    0    0 -0.36427017590E+02  0.13771142138E+02 -0.12034471016E+03  0.12648881860E+03  0.00000000000E+00 0.  1.
         13    1    4    4    0    0 -0.28864315601E+02 -0.17520544195E+02  0.43937846965E+01  0.34050308779E+02  0.00000000000E+00 0. -1.
         -4    1    1    2    0  502  0.70322762130E+02 -0.42648291320E+02  0.10731196241E+02  0.82941703616E+02  0.00000000000E+00 0.  1.
<scales pt_clust_5="13000.00000" pt_clust_6="13000.00000" pt_clust_7="13000.00000" pt_clust_8="13000.00000" pt_clust_9="82.24460"></scales>
<clustering>
<clus scale="   80.642">  5  6 -1 -1</clus>
<clus scale="   82.245">  2  9  1 -1</clus>
<clus scale="   89.728">  7  8 -1 -1</clus>
<clus scale="   89.967">  1  5  2 -1</clus>
<clus scale="   82.245">  2  5  1 -1</clus>
</clustering>
</event>
<event>
 9    2  0.1033155E-004  0.1005111E+03  0.7546771E-02  0.1285021E+00
         21   -1    0    0  501  502  0.00000000000E+00  0.00000000000E+00  0.29038769074E+03  0.29038769074E+03  0.00000000000E+00 0. -1.
          4   -1    0    0  502    0 -0.00000000000E+00 -0.00000000000E+00 -0.12689531601E+03  0.12689531601E+03  0.00000000000E+00 0. -1.
         23    2    1    2    0    0  0.48046344519E+02  0.25496176537E+02 -0.31151732927E+02  0.11141521811E+03  0.92110879503E+02 0.  0.
         24    2    1    2    0    0  0.59257637885E+01 -0.42988022267E+02 -0.11345549325E+02  0.92207563223E+02  0.80563195636E+02 0.  0.
        -11    1    4    4    0    0  0.31880892883E+02 -0.25061943912E+02  0.22141529419E+02  0.46203243270E+02  0.00000000000E+00 0.  1.
         12    1    4    4    0    0 -0.25955129094E+02 -0.17926078355E+02 -0.33487078745E+02  0.46004319953E+02  0.00000000000E+00 0. -1.
        -11    1    3    3    0    0 -0.76404816909E+01  0.45201362359E+02 -0.24479659610E+02  0.51969162531E+02  0.00000000000E+00 0.  1.
         11    1    3    3    0    0  0.55686826210E+02 -0.19705185823E+02 -0.66720733169E+01  0.59446055580E+02  0.00000000000E+00 0. -1.
          3    1    1    2  501    0 -0.53972108308E+02  0.17491845731E+02  0.20598965698E+03  0.21366022542E+03  0.00000000000E+00 0. -1.
<scales pt_clust_5="13000.00000" pt_clust_6="13000.00000" pt_clust_7="13000.00000" pt_clust_8="13000.00000" pt_clust_9="56.73582"></scales>
<clustering>
<clus scale="   56.736">  1  9  2 -1</clus>
<clus scale="   80.563">  5  6 -1 -1</clus>
<clus scale="   90.047">  1  5  2 -1</clus>
<clus scale="   92.111">  7  8 -1 -1</clus>
<clus scale="   56.736">  1  5  2 -1</clus>
</clustering>
</event>
<event>
 9    2  0.1237163E-004  0.1137544E+03  0.7546771E-02  0.1258510E+00
         -3   -1    0    0    0  501 -0.00000000000E+00  0.00000000000E+00  0.18303837240E+03  0.18303837240E+03  0.00000000000E+00 0.  1.
         21   -1    0    0  501  502  0.00000000000E+00 -0.00000000000E+00 -0.24604620454E+03  0.24604620454E+03  0.00000000000E+00 0.  1.
         24    2    1    2    0    0 -0.89988599958E+02 -0.38058638852E+01  0.11517654957E+03  0.16607158092E+03  0.78750871086E+02 0.  0.
         23    2    1    2    0    0  0.41749621616E+01 -0.62616685927E+01 -0.40699064691E+02  0.10063212264E+03  0.91726612478E+02 0.  0.
        -11    1    3    3    0    0 -0.71292503827E+02 -0.16716364202E+02  0.12205222788E+03  0.14233342638E+03  0.00000000000E+00 0.  1.
         12    1    3    3    0    0 -0.18696096131E+02  0.12910500317E+02 -0.68756783091E+01  0.23738154544E+02  0.00000000000E+00 0. -1.
        -13    1    4    4    0    0 -0.24931130133E+02  0.62576330230E+01  0.19727864023E+02  0.32402281396E+02  0.00000000000E+00 0. -1.
         13    1    4    4    0    0  0.29106092295E+02 -0.12519301616E+02 -0.60426928715E+02  0.68229841239E+02  0.00000000000E+00 0.  1.
         -4    1    1    2    0  502  0.85813637796E+02  0.10067532478E+02 -0.13748531702E+03  0.16238087338E+03  0.00000000000E+00 0.  1.
<scales pt_clust_5="13000.00000" pt_clust_6="13000.00000" pt_clust_7="13000.00000" pt_clust_8="13000.00000" pt_clust_9="86.40217"></scales>
<clustering>
<clus scale="   78.751">  5  6 -1 -1</clus>
<clus scale="   86.402">  2  9  1 -1</clus>
<clus scale="   91.727">  7  8 -1 -1</clus>
<clus scale="  103.576">  1  5  2 -1</clus>
<clus scale="   86.402">  2  5  1 -1</clus>
</clustering>
</event>
<event>
 9    2  0.1033155E-004  0.1233643E+03  0.7546771E-02  0.1242004E+00
         21   -1    0    0  501  502  0.00000000000E+00  0.00000000000E+00  0.57584780013E+02  0.57584780013E+02  0.00000000000E+00 0. -1.
          2   -1    0    0  502    0 -0.00000000000E+00 -0.00000000000E+00 -0.33015593161E+03  0.33015593161E+03  0.00000000000E+00 0. -1.
         24    2    1    2    0    0  0.70098404863E+02  0.49847047035E+02 -0.19950642162E+03  0.23131544206E+03  0.79407222621E+02 0.  0.
         23    2    1    2    0    0 -0.61943790608E+02 -0.30080470143E+02 -0.67075251095E+02  0.13421965872E+03  0.93669416556E+02 0.  0.
        -11    1    3    3    0    0  0.26102369257E+02 -0.10465724100E+02 -0.14132724839E+02  0.31473782314E+02  0.00000000000E+00 0.  1.
         12    1    3    3    0    0  0.43996035606E+02  0.60312771135E+02 -0.18537369678E+03  0.19984165975E+03  0.00000000000E+00 0. -1.
        -13    1    4    4    0    0 -0.21196167155E+02 -0.47191075279E+02 -0.73165866384E+02  0.89607583897E+02  0.00000000000E+00 0.  1.
         13    1    4    4    0    0 -0.40747623454E+02  0.17110605137E+02  0.60906152889E+01  0.44612074821E+02  0.00000000000E+00 0. -1.
          1    1    1    2  501    0 -0.81546142544E+01 -0.19766576892E+02 -0.59894788772E+01  0.22205610843E+02  0.00000000000E+00 0. -1.
<scales pt_clust_5="13000.00000" pt_clust_6="13000.00000" pt_clust_7="13000.00000" pt_clust_8="13000.00000" pt_clust_9="21.38259"></scales>
<clustering>
<clus scale="   21.383">  1  9  2 -1</clus>
<clus scale="   79.407">  5  6 -1 -1</clus>
<clus scale="   93.669">  7  8 -1 -1</clus>
<clus scale="  112.917">  2  5  1 -1</clus>
<clus scale="   21.383">  1  5  2 -1</clus>
</clustering>
</event>
<event>
 9    2  0.1033155E-004  0.1385802E+03  0.7546771E-02  0.1233779E+00
         21   -1    0    0  501  502  0.00000000000E+00  0.00000000000E+00  0.76083441771E+02  0.76083441771E+02  0.00000000000E+00 0. -1.
          2   -1    0    0  502    0 -0.00000000000E+00 -0.00000000000E+00 -0.80933425434E+03  0.80933425434E+03  0.00000000000E+00 0. -1.
         23    2    1    2    0    0 -0.52130013737E+01 -0.33285570000E+02 -0.27394796391E+02  0.98096784668E+02  0.87962490525E+02 0.  0.
         24    2    1    2    0    0 -0.20489282095E+02  0.14444099043E+03 -0.62922811095E+03  0.64988739761E+03  0.71711948573E+02 0.  0.
        -13    1    4    4    0    0 -0.42762871213E+02  0.69789812186E+02 -0.26200941680E+03  0.27449629420E+03  0.00000000000E+00 0.  1.
         14    1    4    4    0    0  0.22273589118E+02  0.74651178240E+02 -0.36721869415E+03  0.37539110340E+03  0.00000000000E+00 0. -1.
        -13    1    3    3    0    0 -0.28062790834E+02 -0.39737909695E+02  0.13784172396E+02  0.50563080454E+02  0.00000000000E+00 0. -1.
         13    1    3    3    0    0  0.22849789460E+02  0.64523396951E+01 -0.41178968787E+02  0.47533704214E+02  0.00000000000E+00 0.  1.
          1    1    1    2  501    0  0.25702283469E+02 -0.11115542043E+03 -0.76627905236E+02  0.13743351384E+03  0.00000000000E+00 0. -1.
<scales pt_clust_5="13000.00000" pt_clust_6="13000.00000" pt_clust_7="13000.00000" pt_clust_8="13000.00000" pt_clust_9="118.58277"></scales>
<clustering>
<clus scale="   71.712">  5  6 -1 -1</clus>
<clus scale="   87.962">  7  8 -1 -1</clus>
<clus scale="   94.194">  2  7  1 -1</clus>
<clus scale="  118.583">  1  9  2 -1</clus>
<clus scale="  118.583">  1  5  2 -1</clus>
</clustering>
</event>
<event>
 9    2  0.1033155E-004  0.9864715E+02  0.7546771E-02  0.1288866E+00
          4   -1    0    0  502    0 -0.00000000000E+00  0.00000000000E+00  0.20019915562E+03  0.20019915562E+03  0.00000000000E+00 0. -1.
         21   -1    0    0  501  502  0.00000000000E+00 -0.00000000000E+00 -0.92660052139E+02  0.92660052139E+02  0.00000000000E+00 0. -1.
         24    2    1    2    0    0  0.18399442167E+02 -0.35371929761E+02  0.13550713962E+03  0.16305165377E+03  0.81449027140E+02 0.  0.
         23    2    1    2    0    0  0.18246795013E+01  0.12935086380E+02 -0.33619297336E+02  0.99077051375E+02  0.92278703073E+02 0.  0.
        -11    1    3    3    0    0  0.47122855687E+02 -0.28426302425E+01  0.67176315485E+02  0.82105428791E+02  0.00000000000E+00 0.  1.
         12    1    3    3    0    0 -0.28723413520E+02 -0.32529299519E+02  0.68330824130E+02  0.80946224975E+02  0.00000000000E+00 0. -1.
        -13    1    4    4    0    0 -0.20521057901E+02  0.34409589377E+02  0.13846532834E+02  0.42389386997E+02  0.00000000000E+00 0.  1.
         13    1    4    4    0    0  0.22345737402E+02 -0.21474502997E+02 -0.47465830170E+02  0.56687664379E+02  0.00000000000E+00 0. -1.
          3    1    1    2  501    0 -0.20224121668E+02  0.22436843381E+02  0.56512612066E+01  0.30730502622E+02  0.00000000000E+00 0. -1.
<scales pt_clust_5="13000.00000" pt_clust_6="13000.00000" pt_clust_7="13000.00000" pt_clust_8="13000.00000" pt_clust_9="30.20641"></scales>
<clustering>
<clus scale="   30.206">  2  9  1 -1</clus>
<clus scale="   81.449">  5  6 -1 -1</clus>
<clus scale="   88.599">  1  5  2 -1</clus>
<clus scale="   92.279">  7  8 -1 -1</clus>
<clus scale="   30.206">  2  5  1 -1</clus>
</clustering>
</event>
<event>
 9    2  0.1033155E-004  0.9240536E+02  0.7546771E-02  0.1299036E+00
          4   -1    0    0  502    0 -0.00000000000E+00  0.00000000000E+00  0.18812072840E+03  0.18812072840E+03  0.00000000000E+00 0. -1.
         21   -1    0    0  501  502  0.00000000000E+00 -0.00000000000E+00 -0.95194501826E+02  0.95194501826E+02  0.00000000000E+00 0. -1.
         24    2    1    2    0    0 -0.20210976535E+02 -0.45400169428E+01  0.11605902144E+03  0.14694042760E+03  0.87708024028E+02 0.  0.
         23    2    1    2    0    0  0.62955516770E+01 -0.10872350432E+02  0.14915657393E+02  0.93028928110E+02  0.90961874733E+02 0.  0.
        -13    1    3    3    0    0  0.31901465176E+02  0.13677476256E+02  0.40026143100E+02  0.52979892116E+02  0.00000000000E+00 0.  1.
         14    1    3    3    0    0 -0.52112441711E+02 -0.18217493199E+02  0.76032878344E+02  0.93960535486E+02  0.00000000000E+00 0. -1.
        -11    1    4    4    0    0  0.15421169375E+02  0.28058898727E+02  0.35707582531E+02  0.47959834371E+02  0.00000000000E+00 0.  1.
         11    1    4    4    0    0 -0.91256176984E+01 -0.38931249159E+02 -0.20791925138E+02  0.45069093739E+02  0.00000000000E+00 0. -1.
          3    1    1    2  501    0  0.13915424858E+02  0.15412367375E+02 -0.38048452267E+02  0.43345874510E+02  0.00000000000E+00 0. -1.
<scales pt_clust_5="13000.00000" pt_clust_6="13000.00000" pt_clust_7="13000.00000" pt_clust_8="13000.00000" pt_clust_9="20.76488"></scales>
<clustering>
<clus scale="   20.765">  2  9  1 -1</clus>
<clus scale="   87.708">  5  6 -1 -1</clus>
<clus scale="   89.204">  1  5  2 -1</clus>
<clus scale="   90.962">  7  8 -1 -1</clus>
<clus scale="   20.765">  2  5  1 -1</clus>
</clustering>
</event>
<event>
 9    2  0.1033155E-004  0.1001567E+03  0.7546771E-02  0.1286603E+00
          2   -1    0    0  502    0 -0.00000000000E+00  0.00000000000E+00  0.71441813359E+03  0.71441813359E+03  0.00000000000E+00 0. -1.
         21   -1    0    0  501  502  0.00000000000E+00 -0.00000000000E+00 -0.23171095071E+02  0.23171095071E+02  0.00000000000E+00 0. -1.
         24    2    1    2    0    0  0.39913764875E+02  0.17374207909E+02  0.47170136638E+03  0.47980005074E+03  0.76229508187E+02 0.  0.
         23    2    1    2    0    0 -0.32168405100E+02 -0.44502153652E+02  0.15443305239E+03  0.18682743268E+03  0.89664228999E+02 0.  0.
        -13    1    3    3    0    0 -0.20301552226E+02  0.26962486587E+01  0.58609780498E+02  0.62084854431E+02  0.00000000000E+00 0.  1.
         14    1    3    3    0    0  0.60215317102E+02  0.14677959251E+02  0.41309158588E+03  0.41771519631E+03  0.00000000000E+00 0. -1.
        -13    1    4    4    0    0  0.24422031146E+02 -0.22396560240E+01  0.82286887160E+02  0.85863749411E+02  0.00000000000E+00 0.  1.
         13    1    4    4    0    0 -0.56590436247E+02 -0.42262497628E+02  0.72146165234E+02  0.10096368327E+03  0.00000000000E+00 0. -1.
          1    1    1    2  501    0 -0.77453597747E+01  0.27127945743E+02  0.65112619743E+02  0.70961745244E+02  0.00000000000E+00 0. -1.
<scales pt_clust_5="13000.00000" pt_clust_6="13000.00000" pt_clust_7="13000.00000" pt_clust_8="13000.00000" pt_clust_9="28.21198"></scales>
<clustering>
<clus scale="   28.212">  2  9  1 -1</clus>
<clus scale="   76.230">  5  6 -1 -1</clus>
<clus scale="   88.332">  1  5  2 -1</clus>
<clus scale="   89.664">  7  8 -1 -1</clus>
<clus scale="   28.212">  2  5  1 -1</clus>
</clustering>
</event>
<event>
 9    2  0.1033155E-004  0.1885912E+03  0.7546771E-02  0.1170475E+00
         21   -1    0    0  501  502  0.00000000000E+00  0.00000000000E+00  0.10940793060E+03  0.10940793060E+03  0.00000000000E+00 0. -1.
          4   -1    0    0  502    0 -0.00000000000E+00 -0.00000000000E+00 -0.81744357574E+03  0.81744357574E+03  0.00000000000E+00 0. -1.
         24    2    1    2    0    0  0.19826021227E+02  0.11923437803E+03 -0.44799731806E+03  0.47156475182E+03  0.84034577085E+02 0.  0.
         23    2    1    2    0    0 -0.17560081180E+03 -0.59137963396E+02 -0.13631907507E+03  0.24747958971E+03  0.91270549861E+02 0.  0.
        -11    1    3    3    0    0  0.22587850183E+02 -0.33392379235E+01 -0.47175333837E+02  0.52410624958E+02  0.00000000000E+00 0.  1.
         12    1    3    3    0    0 -0.27618289562E+01  0.12257361596E+03 -0.40082198422E+03  0.41915412686E+03  0.00000000000E+00 0. -1.
        -13    1    4    4    0    0 -0.12342160150E+03 -0.13780228679E+02 -0.43173175988E+02  0.13147893194E+03  0.00000000000E+00 0. -1.
         13    1    4    4    0    0 -0.52179210308E+02 -0.45357734717E+02 -0.93145899082E+02  0.11600065777E+03  0.00000000000E+00 0.  1.
          3    1    1    2  501    0  0.15577479058E+03 -0.60096414639E+02 -0.12371925201E+03  0.20780716482E+03  0.00000000000E+00 0. -1.
<scales pt_clust_5="13000.00000" pt_clust_6="13000.00000" pt_clust_7="13000.00000" pt_clust_8="13000.00000" pt_clust_9="165.03427"></scales>
<clustering>
<clus scale="   84.035">  5  6 -1 -1</clus>
<clus scale="   91.271">  7  8 -1 -1</clus>
<clus scale="  147.213">  2  5  1 -1</clus>
<clus scale="  165.034">  1  9  2 -1</clus>
<clus scale="  165.034">  1  5  2 -1</clus>
</clustering>
</event>
<event>
 9    2  0.1033155E-004  0.9867459E+02  0.7546771E-02  0.1288880E+00
         21   -1    0    0  501  502  0.00000000000E+00  0.00000000000E+00  0.23275908737E+03  0.23275908737E+03  0.00000000000E+00 0. -1.
          2   -1    0    0  502    0 -0.00000000000E+00 -0.00000000000E+00 -0.12829012995E+03  0.12829012995E+03  0.00000000000E+00 0. -1.
         24    2    1    2    0    0  0.38011704139E+02 -0.72154495945E+01 -0.86189170476E+02  0.12465965124E+03  0.81329595935E+02 0.  0.
         23    2    1    2    0    0 -0.15925428797E+02 -0.98348719819E+01  0.84172265006E+02  0.12630888649E+03  0.92296373823E+02 0.  0.
        -13    1    3    3    0    0  0.31183404044E+02 -0.13703419838E+02  0.37148949728E+01  0.34263520655E+02  0.00000000000E+00 0.  1.
         14    1    3    3    0    0  0.68283000948E+01  0.64879702437E+01 -0.89904065449E+02  0.90396130582E+02  0.00000000000E+00 0. -1.
        -11    1    4    4    0    0  0.26811192049E+02  0.37842781769E+01  0.76048353076E+02  0.80724920477E+02  0.00000000000E+00 0. -1.
         11    1    4    4    0    0 -0.42736620847E+02 -0.13619150159E+02  0.81239119298E+01  0.45583966013E+02  0.00000000000E+00 0.  1.
          1    1    1    2  501    0 -0.22086275341E+02  0.17050321576E+02  0.10648586288E+03  0.11008067959E+03  0.00000000000E+00 0. -1.
<scales pt_clust_5="13000.00000" pt_clust_6="13000.00000" pt_clust_7="13000.00000" pt_clust_8="13000.00000" pt_clust_9="27.90192"></scales>
<clustering>
<clus scale="   27.902">  1  9  2 -1</clus>
<clus scale="   81.330">  5  6 -1 -1</clus>
<clus scale="   88.502">  2  5  1 -1</clus>
<clus scale="   92.296">  7  8 -1 -1</clus>
<clus scale="   27.902">  1  5  2 -1</clus>
</clustering>
</event>
<event>
 9    2  0.1033155E-004  0.1696611E+03  0.7546771E-02  0.1179581E+00
         21   -1    0    0  501  502  0.00000000000E+00  0.00000000000E+00  0.72409091186E+02  0.72409091186E+02  0.00000000000E+00 0. -1.
          2   -1    0    0  502    0 -0.00000000000E+00 -0.00000000000E+00 -0.10331995863E+04  0.10331995863E+04  0.00000000000E+00 0. -1.
         24    2    1    2    0    0  0.11857099068E+03  0.38488287544E+02 -0.33566556438E+03  0.36677826552E+03  0.79463808369E+02 0.  0.
         23    2    1    2    0    0 -0.19306998162E+03 -0.82328222908E+02 -0.19532284913E+03  0.30042207612E+03  0.89713178191E+02 0.  0.
        -11    1    3    3    0    0  0.11804716142E+00  0.26992849128E+02 -0.87186965416E+02  0.91269900721E+02  0.00000000000E+00 0.  1.
         12    1    3    3    0    0  0.11845294352E+03  0.11495438416E+02 -0.24847859896E+03  0.27550836480E+03  0.00000000000E+00 0. -1.
        -13    1    4    4    0    0 -0.39464597433E+02  0.18950571329E+01 -0.84093595437E+02  0.92912746627E+02  0.00000000000E+00 0.  1.
         13    1    4    4    0    0 -0.15360538418E+03 -0.84223280041E+02 -0.11122925369E+03  0.20750932949E+03  0.00000000000E+00 0. -1.
          1    1    1    2  501    0  0.74498990935E+02  0.43839935365E+02 -0.42980208163E+03  0.43840833586E+03  0.00000000000E+00 0. -1.
<scales pt_clust_5="13000.00000" pt_clust_6="13000.00000" pt_clust_7="13000.00000" pt_clust_8="13000.00000" pt_clust_9="86.44100"></scales>
<clustering>
<clus scale="   79.464">  5  6 -1 -1</clus>
<clus scale="   86.441">  1  9  2 -1</clus>
<clus scale="   89.713">  7  8 -1 -1</clus>
<clus scale="  164.472">  2  5  1 -1</clus>
<clus scale="   86.441">  1  5  2 -1</clus>
</clustering>
</event>
<event>
 9    2  0.1033155E-004  0.9601296E+02  0.7546771E-02  0.1297359E+00
          2   -1    0    0  502    0 -0.00000000000E+00  0.00000000000E+00  0.41213073701E+03  0.41213073701E+03  0.00000000000E+00 0. -1.
         21   -1    0    0  501  502  0.00000000000E+00 -0.00000000000E+00 -0.46569452610E+02  0.46569452610E+02  0.00000000000E+00 0.  1.
         23    2    1    2    0    0  0.15237371027E+02 -0.26198873856E+01  0.28456698581E+03  0.30029989367E+03  0.94671090812E+02 0.  0.
         24    2    1    2    0    0 -0.13061707256E+01  0.39829676905E+02  0.31982499444E+02  0.95306689041E+02  0.80451074952E+02 0.  0.
        -11    1    4    4    0    0 -0.40650421614E+02  0.23478942936E+02  0.20165899373E+02  0.51091888165E+02  0.00000000000E+00 0.  1.
         12    1    4    4    0    0  0.39344250888E+02  0.16350733969E+02  0.11816600072E+02  0.44214800876E+02  0.00000000000E+00 0. -1.
        -13    1    3    3    0    0  0.47369441690E+02 -0.18747549741E+02  0.22524008117E+03  0.23092948879E+03  0.00000000000E+00 0. -1.
         13    1    3    3    0    0 -0.32132070663E+02  0.16127662355E+02  0.59326904642E+02  0.69370404875E+02  0.00000000000E+00 0.  1.
          1    1    1    2  501    0 -0.13931200301E+02 -0.37209789519E+02  0.49011799140E+02  0.63093606910E+02  0.00000000000E+00 0. -1.
<scales pt_clust_5="13000.00000" pt_clust_6="13000.00000" pt_clust_7="13000.00000" pt_clust_8="13000.00000" pt_clust_9="39.73219"></scales>
<clustering>
<clus scale="   39.732">  2  9  1 -1</clus>
<clus scale="   80.451">  5  6 -1 -1</clus>
<clus scale="   82.026">  2  5  1 -1</clus>
<clus scale="   94.671">  7  8 -1 -1</clus>
<clus scale="   39.732">  2  5  1 -1</clus>
</clustering>
</event>
<event>
 9    2  0.1033155E-004  0.1006473E+03  0.7546771E-02  0.1283557E+00
          2   -1    0    0  502    0 -0.00000000000E+00  0.00000000000E+00  0.98934807907E+03  0.98934807907E+03  0.00000000000E+00 0. -1.
         21   -1    0    0  501  502  0.00000000000E+00 -0.00000000000E+00 -0.13339284862E+03  0.13339284862E+03  0.00000000000E+00 0. -1.
         24    2    1    2    0    0  0.38431545783E+02  0.12461139373E+02  0.88931080295E+03  0.89411749137E+03  0.83307385111E+02 0.  0.
         23    2    1    2    0    0 -0.18582085491E+02 -0.35669066348E+02  0.68702257449E+02  0.12209452193E+03  0.92571571827E+02 0.  0.
        -11    1    3    3    0    0  0.81372193969E+01  0.29795581436E+02  0.11668397572E+03  0.12070269757E+03  0.00000000000E+00 0.  1.
         12    1    3    3    0    0  0.30294326387E+02 -0.17334442063E+02  0.77262682724E+03  0.77341479379E+03  0.00000000000E+00 0. -1.
        -13    1    4    4    0    0 -0.55597060820E+02 -0.19939978309E+02  0.29867018218E+02  0.66186665455E+02  0.00000000000E+00 0.  1.
         13    1    4    4    0    0  0.37014975329E+02 -0.15729088038E+02  0.38835239231E+02  0.55907856472E+02  0.00000000000E+00 0. -1.
          1    1    1    2  501    0 -0.19849460293E+02  0.23207926975E+02 -0.10205782996E+03  0.10652891440E+03  0.00000000000E+00 0. -1.
<scales pt_clust_5="13000.00000" pt_clust_6="13000.00000" pt_clust_7="13000.00000" pt_clust_8="13000.00000" pt_clust_9="30.53865"></scales>
<clustering>
<clus scale="   30.539">  2  9  1 -1</clus>
<clus scale="   83.307">  5  6 -1 -1</clus>
<clus scale="   92.198">  1  5  2 -1</clus>
<clus scale="   92.572">  7  8 -1 -1</clus>
<clus scale="   30.539">  2  5  1 -1</clus>
</clustering>
</event>
<event>
 9    2  0.1033155E-004  0.1024232E+03  0.7546771E-02  0.1280407E+00
         21   -1    0    0  501  502  0.00000000000E+00  0.00000000000E+00  0.68667277294E+02  0.68667277294E+02  0.00000000000E+00 0. -1.
          2   -1    0    0  502    0 -0.00000000000E+00 -0.00000000000E+00 -0.18427567441E+03  0.18427567441E+03  0.00000000000E+00 0. -1.
         24    2    1    2    0    0  0.30790308510E+02  0.40325364348E+02 -0.68720648804E+02  0.11814205212E+03  0.81613962040E+02 0.  0.
         23    2    1    2    0    0 -0.35704462310E+02 -0.14624403518E+02 -0.34538626553E+02  0.10586667930E+03  0.92337182407E+02 0.  0.
        -11    1    3    3    0    0  0.25810195301E+02  0.18451760009E+02 -0.84800192702E+02  0.90541185718E+02  0.00000000000E+00 0.  1.
         12    1    3    3    0    0  0.49801132090E+01  0.21873604340E+02  0.16079543898E+02  0.27600866406E+02  0.00000000000E+00 0. -1.
        -13    1    4    4    0    0 -0.23745619432E+02 -0.52231607399E+02 -0.71253227323E+01  0.57816653982E+02  0.00000000000E+00 0.  1.
         13    1    4    4    0    0 -0.11958842878E+02  0.37607203881E+02 -0.27413303821E+02  0.48050025318E+02  0.00000000000E+00 0. -1.
          1    1    1    2  501    0  0.49141537995E+01 -0.25700960831E+02 -0.12349121763E+02  0.28934220285E+02  0.00000000000E+00 0. -1.
<scales pt_clust_5="13000.00000" pt_clust_6="13000.00000" pt_clust_7="13000.00000" pt_clust_8="13000.00000" pt_clust_9="26.16655"></scales>
<clustering>
<clus scale="   26.167">  1  9  2 -1</clus>
<clus scale="   81.614">  5  6 -1 -1</clus>
<clus scale="   92.337">  7  8 -1 -1</clus>
<clus scale="   92.872">  2  5  1 -1</clus>
<clus scale="   26.167">  1  5  2 -1</clus>
</clustering>
</event>
<event>
 9    2  0.1033155E-004  0.1128589E+03  0.7546771E-02  0.1270805E+00
         21   -1    0    0  501  502  0.00000000000E+00  0.00000000000E+00  0.53816972235E+02  0.53816972235E+02  0.00000000000E+00 0.  1.
          2   -1    0    0  502    0 -0.00000000000E+00 -0.00000000000E+00 -0.33051742332E+03  0.33051742332E+03  0.00000000000E+00 0. -1.
         24    2    1    2    0    0 -0.14416690581E+02  0.16922180526E+02 -0.18160889197E+03  0.20057811545E+03  0.82192393770E+02 0.  0.
         23    2    1    2    0    0 -0.22512739396E+02 -0.30704792271E+01 -0.86785958494E+02  0.14344951356E+03  0.11193618303E+03 0.  0.
        -11    1    3    3    0    0 -0.22508512089E+02  0.47998665860E+02 -0.11104688756E+03  0.12305249399E+03  0.00000000000E+00 0.  1.
         12    1    3    3    0    0  0.80918215077E+01 -0.31076485334E+02 -0.70562004410E+02  0.77525621458E+02  0.00000000000E+00 0. -1.
        -13    1    4    4    0    0 -0.66812464915E+02  0.34536674558E+01 -0.66367421362E+02  0.94236234566E+02  0.00000000000E+00 0.  1.
         13    1    4    4    0    0  0.44299725519E+02 -0.65241466829E+01 -0.20418537131E+02  0.49213278997E+02  0.00000000000E+00 0. -1.
          1    1    1    2  501    0  0.36929429978E+02 -0.13851701299E+02 -0.83056006211E+01  0.40306766541E+02  0.00000000000E+00 0. -1.
<scales pt_clust_5="13000.00000" pt_clust_6="13000.00000" pt_clust_7="13000.00000" pt_clust_8="13000.00000" pt_clust_9="39.44176"></scales>
<clustering>
<clus scale="   39.442">  1  9  2 -1</clus>
<clus scale="   82.192">  5  6 -1 -1</clus>
<clus scale="   83.445">  2  5  1 -1</clus>
<clus scale="  111.936">  7  8 -1 -1</clus>
<clus scale="   39.442">  1  5  2 -1</clus>
</clustering>
</event>
<event>
 9    2  0.1033155E-004  0.1114240E+03  0.7546771E-02  0.1261854E+00
         21   -1    0    0  501  502  0.00000000000E+00  0.00000000000E+00  0.42746423333E+03  0.42746423333E+03  0.00000000000E+00 0. -1.
          2   -1    0    0  502    0 -0.00000000000E+00 -0.00000000000E+00 -0.11416451843E+03  0.11416451843E+03  0.00000000000E+00 0. -1.
         24    2    1    2    0    0 -0.65167404497E+02 -0.14129671050E+02 -0.74346838816E+02  0.12827380002E+03  0.80500168433E+02 0.  0.
         23    2    1    2    0    0  0.33470740760E+02  0.18237047163E+02  0.35182676236E+03  0.36534863462E+03  0.90800185727E+02 0.  0.
        -11    1    3    3    0    0 -0.12894564143E+02 -0.37651314493E+02 -0.79991139813E+01  0.40594052421E+02  0.00000000000E+00 0.  1.
         12    1    3    3    0    0 -0.52272840354E+02  0.23521643442E+02 -0.66347724834E+02  0.87679747602E+02  0.00000000000E+00 0. -1.
        -11    1    4    4    0    0  0.53158698255E+01 -0.27845655319E+02  0.40881189589E+02  0.49748473890E+02  0.00000000000E+00 0.  1.
         11    1    4    4    0    0  0.28154870934E+02  0.46082702483E+02  0.31094557277E+03  0.31560016073E+03  0.00000000000E+00 0. -1.
          1    1    1    2  501    0  0.31696663737E+02 -0.41073761130E+01  0.35819791351E+02  0.48006317116E+02  0.00000000000E+00 0. -1.
<scales pt_clust_5="13000.00000" pt_clust_6="13000.00000" pt_clust_7="13000.00000" pt_clust_8="13000.00000" pt_clust_9="31.96168"></scales>
<clustering>
<clus scale="   31.962">  1  9  2 -1</clus>
<clus scale="   80.500">  5  6 -1 -1</clus>
<clus scale="   90.800">  7  8 -1 -1</clus>
<clus scale="  103.203">  2  5  1 -1</clus>
<clus scale="   31.962">  1  5  2 -1</clus>
</clustering>
</event>
<event>
 9    2  0.1033155E-004  0.1368279E+03  0.7546771E-02  0.1219274E+00
         21   -1    0    0  501  502  0.00000000000E+00  0.00000000000E+00  0.23549430906E+03  0.23549430906E+03  0.00000000000E+00 0.  1.
          4   -1    0    0  502    0 -0.00000000000E+00 -0.00000000000E+00 -0.14457325741E+03  0.14457325741E+03  0.00000000000E+00 0. -1.
         23    2    1    2    0    0 -0.58012182065E+01 -0.14484508763E+03  0.40900004437E+01  0.16871920330E+03  0.86230434966E+02 0.  0.
         24    2    1    2    0    0  0.28325119899E+02  0.61753007847E+02  0.64504553899E+02  0.12240966319E+03  0.78787954497E+02 0.  0.
        -11    1    4    4    0    0  0.39149536529E+02  0.72218677606E+02  0.35015063018E+02  0.89298814347E+02  0.00000000000E+00 0.  1.
         12    1    4    4    0    0 -0.10824416630E+02 -0.10465669759E+02  0.29489490881E+02  0.33110848846E+02  0.00000000000E+00 0. -1.
        -13    1    3    3    0    0 -0.20625704073E+02 -0.76116205721E+02  0.41459831143E+02  0.89095533223E+02  0.00000000000E+00 0.  1.
         13    1    3    3    0    0  0.14824485866E+02 -0.68728881912E+02 -0.37369830699E+02  0.79623670077E+02  0.00000000000E+00 0. -1.
          3    1    1    2  501    0 -0.22523901693E+02  0.83092079786E+02  0.22326497308E+02  0.88938699972E+02  0.00000000000E+00 0. -1.
<scales pt_clust_5="13000.00000" pt_clust_6="13000.00000" pt_clust_7="13000.00000" pt_clust_8="13000.00000" pt_clust_9="86.09077"></scales>
<clustering>
<clus scale="   78.788">  5  6 -1 -1</clus>
<clus scale="   86.091">  1  9  2 -1</clus>
<clus scale="   86.230">  7  8 -1 -1</clus>
<clus scale="  132.264">  1  5  2 -1</clus>
<clus scale="   86.091">  1  5  2 -1</clus>
</clustering>
</event>
<event>
 9    2  0.1033155E-004  0.9182037E+02  0.7546771E-02  0.1304380E+00
         21   -1    0    0  501  502  0.00000000000E+00  0.00000000000E+00  0.12166932235E+03  0.12166932235E+03  0.00000000000E+00 0. -1.
          2   -1    0    0  502    0 -0.00000000000E+00 -0.00000000000E+00 -0.13310577397E+03  0.13310577397E+03  0.00000000000E+00 0. -1.
         24    2    1    2    0    0  0.11694509302E+02  0.38141252668E+02 -0.34506478467E+02  0.95021096504E+02  0.79036668842E+02 0.  0.
         23    2    1    2    0    0  0.32692361828E+02  0.83753247556E+00 -0.41195500856E+01  0.94724674789E+02  0.88804849746E+02 0.  0.
        -13    1    3    3    0    0 -0.14239822726E+01 -0.20861627442E+02 -0.26944393552E+02  0.34106239443E+02  0.00000000000E+00 0.  1.
         14    1    3    3    0    0  0.13118491575E+02  0.59002880110E+02 -0.75620849144E+01  0.60914857061E+02  0.00000000000E+00 0. -1.
        -13    1    4    4    0    0 -0.14232536029E+02  0.24455217542E+02 -0.25420535735E+02  0.38037171082E+02  0.00000000000E+00 0.  1.
         13    1    4    4    0    0  0.46924897857E+02 -0.23617685067E+02  0.21300985650E+02  0.56687503707E+02  0.00000000000E+00 0. -1.
          1    1    1    2  501    0 -0.44386871130E+02 -0.38978785143E+02  0.27189576934E+02  0.65029325030E+02  0.00000000000E+00 0. -1.
<scales pt_clust_5="13000.00000" pt_clust_6="13000.00000" pt_clust_7="13000.00000" pt_clust_8="13000.00000" pt_clust_9="59.07233"></scales>
<clustering>
<clus scale="   59.072">  1  9  2 -1</clus>
<clus scale="   79.037">  5  6 -1 -1</clus>
<clus scale="   82.410">  2  5  1 -1</clus>
<clus scale="   88.805">  7  8 -1 -1</clus>
<clus scale="   59.072">  1  5  2 -1</clus>
</clustering>
</event>
<event>
 9    2  0.1033155E-004  0.1346512E+03  0.7546771E-02  0.1223405E+00
         21   -1    0    0  501  502  0.00000000000E+00  0.00000000000E+00  0.49111733631E+02  0.49111733631E+02  0.00000000000E+00 0. -1.
          2   -1    0    0  502    0 -0.00000000000E+00 -0.00000000000E+00 -0.83138386654E+03  0.83138386654E+03  0.00000000000E+00 0. -1.
         23    2    1    2    0    0 -0.64063970124E+02  0.11067515648E+02 -0.16549250211E+03  0.19993693211E+03  0.91434820474E+02 0.  0.
         24    2    1    2    0    0  0.13594867497E+03  0.72011290589E+02 -0.31837313365E+03  0.36257134697E+03  0.80180179688E+02 0.  0.
        -11    1    4    4    0    0  0.62167938169E+02  0.20242413296E+02 -0.21835858026E+03  0.22793656443E+03  0.00000000000E+00 0.  1.
         12    1    4    4    0    0  0.73780736799E+02  0.51768877293E+02 -0.10001455339E+03  0.13463478254E+03  0.00000000000E+00 0. -1.
        -11    1    3    3    0    0 -0.60368347776E+02  0.40967295802E+02 -0.14823783417E+03  0.16521837736E+03  0.00000000000E+00 0. -1.
         11    1    3    3    0    0 -0.36956223481E+01 -0.29899780154E+02 -0.17254667936E+02  0.34718554742E+02  0.00000000000E+00 0.  1.
          1    1    1    2  501    0 -0.71884704844E+02 -0.83078806237E+02 -0.29840649715E+03  0.31798732109E+03  0.00000000000E+00 0. -1.
<scales pt_clust_5="13000.00000" pt_clust_6="13000.00000" pt_clust_7="13000.00000" pt_clust_8="13000.00000" pt_clust_9="109.86133"></scales>
<clustering>
<clus scale="   80.180">  5  6 -1 -1</clus>
<clus scale="   91.435">  7  8 -1 -1</clus>
<clus scale="  109.861">  1  9  2 -1</clus>
<clus scale="  127.277">  1  5  2 -1</clus>
<clus scale="  109.861">  1  5  2 -1</clus>
</clustering>
</event>
<event>
 9    2  0.1033155E-004  0.9110807E+02  0.7546771E-02  0.1306932E+00
          2   -1    0    0  502    0 -0.00000000000E+00  0.00000000000E+00  0.17828051166E+03  0.17828051166E+03  0.00000000000E+00 0. -1.
         21   -1    0    0  501  502  0.00000000000E+00 -0.00000000000E+00 -0.79312967063E+02  0.79312967063E+02  0.00000000000E+00 0.  1.
         24    2    1    2    0    0 -0.35204587912E+01 -0.23235313154E+01  0.82532959337E+02  0.11509774908E+03  0.80112483664E+02 0.  0.
         23    2    1    2    0    0  0.97441925427E+01  0.21757739231E+02 -0.24308309722E+02  0.96928122830E+02  0.90751410837E+02 0.  0.
        -13    1    3    3    0    0 -0.83403089825E+01 -0.37471057738E+02  0.65085648543E+02  0.75563103219E+02  0.00000000000E+00 0.  1.
         14    1    3    3    0    0  0.48198501913E+01  0.35147526422E+02  0.17447310794E+02  0.39534645862E+02  0.00000000000E+00 0. -1.
        -11    1    4    4    0    0  0.18158047179E+02 -0.27898686034E+02 -0.31768958885E+02  0.46014325035E+02  0.00000000000E+00 0.  1.
         11    1    4    4    0    0 -0.84138546362E+01  0.49656425265E+02  0.74606491629E+01  0.50913797794E+02  0.00000000000E+00 0. -1.
          1    1    1    2  501    0 -0.62237337515E+01 -0.19434207915E+02  0.40742894979E+02  0.45567606809E+02  0.00000000000E+00 0. -1.
<scales pt_clust_5="13000.00000" pt_clust_6="13000.00000" pt_clust_7="13000.00000" pt_clust_8="13000.00000" pt_clust_9="20.40646"></scales>
<clustering>
<clus scale="   20.406">  2  9  1 -1</clus>
<clus scale="   80.112">  5  6 -1 -1</clus>
<clus scale="   80.516">  1  5  2 -1</clus>
<clus scale="   90.751">  7  8 -1 -1</clus>
<clus scale="   20.406">  2  5  1 -1</clus>
</clustering>
</event>
<event>
 9    2  0.1033155E-004  0.1058802E+03  0.7546771E-02  0.1271488E+00
         21   -1    0    0  501  502  0.00000000000E+00  0.00000000000E+00  0.80153102733E+02  0.80153102733E+02  0.00000000000E+00 0. -1.
          2   -1    0    0  502    0 -0.00000000000E+00 -0.00000000000E+00 -0.54498436354E+03  0.54498436354E+03  0.00000000000E+00 0. -1.
         24    2    1    2    0    0  0.47693956430E+02  0.24277814989E+02 -0.39821769320E+03  0.41034446380E+03  0.83313396366E+02 0.  0.
         23    2    1    2    0    0 -0.31410286450E+02 -0.63999079085E+02 -0.10595043441E+03  0.15656649802E+03  0.90581927186E+02 0.  0.
        -13    1    3    3    0    0  0.34967441385E+02 -0.22703507548E+02 -0.10261326065E+03  0.11075943514E+03  0.00000000000E+00 0.  1.
         14    1    3    3    0    0  0.12726515045E+02  0.46981322538E+02 -0.29560443256E+03  0.29958502866E+03  0.00000000000E+00 0. -1.
        -13    1    4    4    0    0 -0.31802064230E+02  0.92373696259E+01 -0.64267032907E+02  0.72297661135E+02  0.00000000000E+00 0.  1.
         13    1    4    4    0    0  0.39177778022E+00 -0.73236448711E+02 -0.41683401506E+02  0.84268836890E+02  0.00000000000E+00 0. -1.
          1    1    1    2  501    0 -0.16283669980E+02  0.39721264096E+02  0.39336866809E+02  0.58226504444E+02  0.00000000000E+00 0. -1.
<scales pt_clust_5="13000.00000" pt_clust_6="13000.00000" pt_clust_7="13000.00000" pt_clust_8="13000.00000" pt_clust_9="42.92944"></scales>
<clustering>
<clus scale="   42.929">  1  9  2 -1</clus>
<clus scale="   83.313">  5  6 -1 -1</clus>
<clus scale="   90.582">  7  8 -1 -1</clus>
<clus scale="   99.733">  2  5  1 -1</clus>
<clus scale="   42.929">  1  5  2 -1</clus>
</clustering>
</event>
<event>
 9    2  0.1033155E-004  0.9040232E+02  0.7546771E-02  0.1309736E+00
          2   -1    0    0  502    0 -0.00000000000E+00  0.00000000000E+00  0.29574181761E+03  0.29574181761E+03  0.00000000000E+00 0. -1.
         21   -1    0    0  501  502  0.00000000000E+00 -0.00000000000E+00 -0.65984056120E+02  0.65984056120E+02  0.00000000000E+00 0. -1.
         24    2    1    2    0    0 -0.11968346162E+02  0.58339067174E+01  0.19649081596E+03  0.21181901566E+03  0.77983196030E+02 0.  0.
         23    2    1    2    0    0 -0.82963074137E+01  0.16293973797E+02  0.59939421552E+02  0.10976062216E+03  0.90112915956E+02 0.  0.
        -13    1    3    3    0    0 -0.16588109938E+02 -0.33839515695E+02  0.75091332642E+02  0.84017774617E+02  0.00000000000E+00 0.  1.
         14    1    3    3    0    0  0.46197637758E+01  0.39673422412E+02  0.12139948332E+03  0.12780124104E+03  0.00000000000E+00 0. -1.
        -13    1    4    4    0    0 -0.21125783420E+02 -0.96218020549E+01  0.74036144328E+02  0.77590131246E+02  0.00000000000E+00 0.  1.
         13    1    4    4    0    0  0.12829476006E+02  0.25915775852E+02 -0.14096722776E+02  0.32170490913E+02  0.00000000000E+00 0. -1.
          1    1    1    2  501    0  0.20264653576E+02 -0.22127880514E+02 -0.26672476020E+02  0.40146235908E+02  0.00000000000E+00 0. -1.
<scales pt_clust_5="13000.00000" pt_clust_6="13000.00000" pt_clust_7="13000.00000" pt_clust_8="13000.00000" pt_clust_9="30.00499"></scales>
<clustering>
<clus scale="   30.005">  2  9  1 -1</clus>
<clus scale="   77.983">  5  6 -1 -1</clus>
<clus scale="   78.317">  1  5  2 -1</clus>
<clus scale="   90.113">  7  8 -1 -1</clus>
<clus scale="   30.005">  2  5  1 -1</clus>
</clustering>
</event>
<event>
 9    2  0.1033155E-004  0.1157537E+03  0.7546771E-02  0.1250729E+00
         21   -1    0    0  501  502  0.00000000000E+00  0.00000000000E+00  0.78243982833E+02  0.78243982833E+02  0.00000000000E+00 0. -1.
          2   -1    0    0  502    0 -0.00000000000E+00 -0.00000000000E+00 -0.35528454076E+03  0.35528454076E+03  0.00000000000E+00 0. -1.
         23    2    1    2    0    0  0.56086825388E+01 -0.55546150246E+02 -0.13769959512E+03  0.17428782327E+03  0.91094647030E+02 0.  0.
         24    2    1    2    0    0  0.51820889761E+02  0.10137681650E+03 -0.97091592049E+02  0.17448449068E+03  0.89751861837E+02 0.  0.
        -11    1    4    4    0    0 -0.21395186837E+02  0.33430614302E+01 -0.78226779695E+01  0.23024429854E+02  0.00000000000E+00 0.  1.
         12    1    4    4    0    0  0.73216076598E+02  0.98033755066E+02 -0.89268914080E+02  0.15146006083E+03  0.00000000000E+00 0. -1.
        -13    1    3    3    0    0 -0.16841646081E+02 -0.25556973629E+02  0.99472203901E+00  0.30623347559E+02  0.00000000000E+00 0. -1.
         13    1    3    3    0    0  0.22450328620E+02 -0.29989176618E+02 -0.13869431716E+03  0.14366447571E+03  0.00000000000E+00 0.  1.
          1    1    1    2  501    0 -0.57429572300E+02 -0.45830666250E+02 -0.42249370759E+02  0.84756209643E+02  0.00000000000E+00 0. -1.
<scales pt_clust_5="13000.00000" pt_clust_6="13000.00000" pt_clust_7="13000.00000" pt_clust_8="13000.00000" pt_clust_9="73.47520"></scales>
<clustering>
<clus scale="   73.475">  1  9  2 -1</clus>
<clus scale="   89.752">  5  6 -1 -1</clus>
<clus scale="   91.095">  7  8 -1 -1</clus>
<clus scale="  114.700">  1  5  2 -1</clus>
<clus scale="   73.475">  1  5  2 -1</clus>
</clustering>
</event>
<event>
 9    2  0.1033155E-004  0.1146790E+03  0.7546771E-02  0.1256735E+00
         21   -1    0    0  501  502  0.00000000000E+00  0.00000000000E+00  0.44985877191E+02  0.44985877191E+02  0.00000000000E+00 0. -1.
          2   -1    0    0  502    0 -0.00000000000E+00 -0.00000000000E+00 -0.54669995119E+03  0.54669995119E+03  0.00000000000E+00 0. -1.
         23    2    1    2    0    0  0.55825622542E+02 -0.65834981003E+01 -0.31911183435E+03  0.33707484442E+03  0.92882965820E+02 0.  0.
         24    2    1    2    0    0 -0.97902807795E+02  0.28218794007E+02 -0.12567248619E+03  0.18058685021E+03  0.80229524342E+02 0.  0.
        -13    1    4    4    0    0 -0.43761438435E+02 -0.19746555212E+02 -0.18848145297E+02  0.51577538888E+02  0.00000000000E+00 0.  1.
         14    1    4    4    0    0 -0.54141369360E+02  0.47965349219E+02 -0.10682434089E+03  0.12900931133E+03  0.00000000000E+00 0. -1.
        -13    1    3    3    0    0  0.81951553927E+02 -0.83708841365E+01 -0.24327333473E+03  0.25684245032E+03  0.00000000000E+00 0.  1.
         13    1    3    3    0    0 -0.26125931385E+02  0.17873860362E+01 -0.75838499615E+02  0.80232394102E+02  0.00000000000E+00 0. -1.
          1    1    1    2  501    0  0.42077185253E+02 -0.21635295907E+02 -0.56929753461E+02  0.74024133746E+02  0.00000000000E+00 0. -1.
<scales pt_clust_5="13000.00000" pt_clust_6="13000.00000" pt_clust_7="13000.00000" pt_clust_8="13000.00000" pt_clust_9="47.31359"></scales>
<clustering>
<clus scale="   47.314">  1  9  2 -1</clus>
<clus scale="   80.230">  5  6 -1 -1</clus>
<clus scale="   92.883">  7  8 -1 -1</clus>
<clus scale="  104.694">  1  5  2 -1</clus>
<clus scale="   47.314">  1  5  2 -1</clus>
</clustering>
</event>
<event>
 9    2  0.1033155E-004  0.9492092E+02  0.7546771E-02  0.1314572E+00
          2   -1    0    0  502    0 -0.00000000000E+00  0.00000000000E+00  0.20900458388E+03  0.20900458388E+03  0.00000000000E+00 0. -1.
         21   -1    0    0  501  502  0.00000000000E+00 -0.00000000000E+00 -0.53301828817E+02  0.53301828817E+02  0.00000000000E+00 0. -1.
         23    2    1    2    0    0  0.17145516062E+02  0.25425687556E+02  0.15169618798E+03  0.17979433639E+03  0.91508664287E+02 0.  0.
         24    2    1    2    0    0 -0.13613573927E+02 -0.51997970058E+01 -0.75405506780E+01  0.58955820403E+02  0.56626509436E+02 0.  0.
        -13    1    4    4    0    0  0.20096760271E+02  0.84074961606E+01  0.21082979365E+00  0.21785550585E+02  0.00000000000E+00 0.  1.
         14    1    4    4    0    0 -0.33710334199E+02 -0.13607293166E+02 -0.77513804717E+01  0.37170269818E+02  0.00000000000E+00 0. -1.
        -13    1    3    3    0    0  0.17417924503E+02 -0.27794542729E+02  0.21710573738E+02  0.39335349389E+02  0.00000000000E+00 0.  1.
         13    1    3    3    0    0 -0.27240844140E+00  0.53220230284E+02  0.12998561424E+03  0.14045898700E+03  0.00000000000E+00 0. -1.
          1    1    1    2  501    0 -0.35319421345E+01 -0.20225890550E+02  0.11547117754E+02  0.23556255904E+02  0.00000000000E+00 0. -1.
<scales pt_clust_5="13000.00000" pt_clust_6="13000.00000" pt_clust_7="13000.00000" pt_clust_8="13000.00000" pt_clust_9="20.53196"></scales>
<clustering>
<clus scale="   20.532">  2  9  1 -1</clus>
<clus scale="   56.627">  5  6 -1 -1</clus>
<clus scale="   61.990">  2  5  1 -1</clus>
<clus scale="   91.509">  7  8 -1 -1</clus>
<clus scale="   20.532">  2  5  1 -1</clus>
</clustering>
</event>
<event>
 9    2  0.1033155E-004  0.1045280E+03  0.7546771E-02  0.1275767E+00
          4   -1    0    0  502    0 -0.00000000000E+00  0.00000000000E+00  0.16620482967E+03  0.16620482967E+03  0.00000000000E+00 0. -1.
         21   -1    0    0  501  502  0.00000000000E+00 -0.00000000000E+00 -0.13135994610E+03  0.13135994610E+03  0.00000000000E+00 0.  1.
         24    2    1    2    0    0 -0.14150909145E+02  0.42443845571E+02  0.29098569357E+00  0.92266075216E+02  0.80692104364E+02 0.  0.
         23    2    1    2    0    0 -0.24110035126E+02 -0.65735651852E+02 -0.37062376997E+02  0.12082800195E+03  0.91232212226E+02 0.  0.
        -11    1    3    3    0    0  0.23795084450E+02  0.29172478878E+02 -0.24612075717E+02  0.44977703798E+02  0.00000000000E+00 0.  1.
         12    1    3    3    0    0 -0.37945993594E+02  0.13271366693E+02  0.24903061410E+02  0.47288371418E+02  0.00000000000E+00 0. -1.
        -13    1    4    4    0    0  0.27782704900E+02 -0.25306690556E+02  0.11229401909E+02  0.39222528548E+02  0.00000000000E+00 0. -1.
         13    1    4    4    0    0 -0.51892740026E+02 -0.40428961295E+02 -0.48291778906E+02  0.81605473399E+02  0.00000000000E+00 0.  1.
          3    1    1    2  501    0  0.38260944271E+02  0.23291806280E+02  0.71616274873E+02  0.84470698606E+02  0.00000000000E+00 0. -1.
<scales pt_clust_5="13000.00000" pt_clust_6="13000.00000" pt_clust_7="13000.00000" pt_clust_8="13000.00000" pt_clust_9="44.79297"></scales>
<clustering>
<clus scale="   44.793">  2  9  1 -1</clus>
<clus scale="   80.692">  5  6 -1 -1</clus>
<clus scale="   91.232">  7  8 -1 -1</clus>
<clus scale="   95.467">  1  5  2 -1</clus>
<clus scale="   44.793">  2  5  1 -1</clus>
</clustering>
</event>
<event>
 9    2  0.1033155E-004  0.1125686E+03  0.7546771E-02  0.1259892E+00
         21   -1    0    0  501  502  0.00000000000E+00  0.00000000000E+00  0.46783938929E+03  0.46783938929E+03  0.00000000000E+00 0.  1.
          2   -1    0    0  502    0 -0.00000000000E+00 -0.00000000000E+00 -0.54023925243E+02  0.54023925243E+02  0.00000000000E+00 0. -1.
         24    2    1    2    0    0  0.55806779683E+02  0.40586186715E+02  0.75741441918E+02  0.13095528084E+03  0.81552954239E+02 0.  0.
         23    2    1    2    0    0 -0.52327160472E+02 -0.10625455213E+02  0.34403831051E+03  0.36016188080E+03  0.92212739138E+02 0.  0.
        -13    1    3    3    0    0  0.74141508983E+02  0.20692872296E+02  0.41935663786E+02  0.87657048863E+02  0.00000000000E+00 0.  1.
         14    1    3    3    0    0 -0.18334729301E+02  0.19893314419E+02  0.33805778133E+02  0.43298231976E+02  0.00000000000E+00 0. -1.
        -13    1    4    4    0    0  0.84144884779E+01  0.28080820944E+02  0.15742823421E+03  0.16013427193E+03  0.00000000000E+00 0.  1.
         13    1    4    4    0    0 -0.60741648949E+02 -0.38706276157E+02  0.18661007630E+03  0.20002760887E+03  0.00000000000E+00 0. -1.
          1    1    1    2  501    0 -0.34796192110E+01 -0.29960731503E+02 -0.59642883819E+01  0.30746152896E+02  0.00000000000E+00 0. -1.
<scales pt_clust_5="13000.00000" pt_clust_6="13000.00000" pt_clust_7="13000.00000" pt_clust_8="13000.00000" pt_clust_9="30.16213"></scales>
<clustering>
<clus scale="   30.162">  1  9  2 -1</clus>
<clus scale="   81.553">  5  6 -1 -1</clus>
<clus scale="   92.213">  7  8 -1 -1</clus>
<clus scale="  104.016">  2  5  1 -1</clus>
<clus scale="   30.162">  1  5  2 -1</clus>
</clustering>
</event>
<event>
 9    2  0.1033155E-004  0.9235721E+02  0.7546771E-02  0.1303862E+00
          2   -1    0    0  502    0 -0.00000000000E+00  0.00000000000E+00  0.89079906834E+03  0.89079906834E+03  0.00000000000E+00 0. -1.
         21   -1    0    0  501  502  0.00000000000E+00 -0.00000000000E+00 -0.20012822699E+02  0.20012822699E+02  0.00000000000E+00 0. -1.
         24    2    1    2    0    0  0.14114697299E+01  0.34539873617E+02  0.50274186533E+03  0.51027376387E+03  0.80218051728E+02 0.  0.
         23    2    1    2    0    0  0.38795241248E+01  0.25608511208E+02  0.26126400287E+03  0.27786835983E+03  0.91000547489E+02 0.  0.
        -13    1    3    3    0    0 -0.31418963535E+02 -0.11450356548E+01  0.10554819445E+03  0.11013121142E+03  0.00000000000E+00 0.  1.
         14    1    3    3    0    0  0.32830433264E+02  0.35684909272E+02  0.39719367088E+03  0.40014255246E+03  0.00000000000E+00 0. -1.
        -13    1    4    4    0    0  0.18053816568E+02 -0.27218907809E+02  0.15443752241E+03  0.15785359535E+03  0.00000000000E+00 0.  1.
         13    1    4    4    0    0 -0.14174292444E+02  0.52827419017E+02  0.10682648046E+03  0.12001476448E+03  0.00000000000E+00 0. -1.
          1    1    1    2  501    0 -0.52909938547E+01 -0.60148384825E+02  0.10678037744E+03  0.12266976734E+03  0.00000000000E+00 0. -1.
<scales pt_clust_5="13000.00000" pt_clust_6="13000.00000" pt_clust_7="13000.00000" pt_clust_8="13000.00000" pt_clust_9="60.38065"></scales>
<clustering>
<clus scale="   60.381">  2  9  1 -1</clus>
<clus scale="   80.218">  5  6 -1 -1</clus>
<clus scale="   81.754">  1  5  2 -1</clus>
<clus scale="   91.001">  7  8 -1 -1</clus>
<clus scale="   60.381">  2  5  1 -1</clus>
</clustering>
</event>
<event>
 9    2  0.1033155E-004  0.1015039E+03  0.7546771E-02  0.1278259E+00
         -1   -1    0    0    0  501 -0.00000000000E+00  0.00000000000E+00  0.21204771011E+03  0.21204771011E+03  0.00000000000E+00 0.  1.
         21   -1    0    0  501  502  0.00000000000E+00 -0.00000000000E+00 -0.91807100835E+02  0.91807100835E+02  0.00000000000E+00 0.  1.
         24    2    1    2    0    0 -0.76448798945E+02  0.47593161144E+01  0.12384473054E+03  0.16598656150E+03  0.79667756117E+02 0.  0.
         23    2    1    2    0    0  0.25360824696E+02 -0.52177172936E+01  0.33014240810E+01  0.86313639557E+02  0.82272407098E+02 0.  0.
        -11    1    3    3    0    0 -0.63133073780E+02  0.22470603551E+02  0.12700868028E+03  0.14360333525E+03  0.00000000000E+00 0.  1.
         12    1    3    3    0    0 -0.13315725165E+02 -0.17711287437E+02 -0.31639497361E+01  0.22383226248E+02  0.00000000000E+00 0. -1.
        -11    1    4    4    0    0  0.46214946598E+02  0.13871582569E+02 -0.17378194647E+02  0.51285901973E+02  0.00000000000E+00 0.  1.
         11    1    4    4    0    0 -0.20854121902E+02 -0.19089299862E+02  0.20679618728E+02  0.35027737584E+02  0.00000000000E+00 0. -1.
         -2    1    1    2    0  502  0.51087974249E+02  0.45840117925E+00 -0.69055453458E+01  0.51554609891E+02  0.00000000000E+00 0.  1.
<scales pt_clust_5="13000.00000" pt_clust_6="13000.00000" pt_clust_7="13000.00000" pt_clust_8="13000.00000" pt_clust_9="51.09003"></scales>
<clustering>
<clus scale="   51.090">  2  9  1 -1</clus>
<clus scale="   79.668">  5  6 -1 -1</clus>
<clus scale="   82.272">  7  8 -1 -1</clus>
<clus scale="   99.404">  1  5  2 -1</clus>
<clus scale="   51.090">  2  5  1 -1</clus>
</clustering>
</event>
<event>
 9    2  0.1033155E-004  0.1722303E+03  0.7546771E-02  0.1176704E+00
          2   -1    0    0  502    0 -0.00000000000E+00  0.00000000000E+00  0.38054611266E+03  0.38054611266E+03  0.00000000000E+00 0. -1.
         21   -1    0    0  501  502  0.00000000000E+00 -0.00000000000E+00 -0.18389072222E+03  0.18389072222E+03  0.00000000000E+00 0. -1.
         24    2    1    2    0    0 -0.12815034515E+03 -0.78656303385E+02  0.10880713262E+03  0.20205008645E+03  0.79849360060E+02 0.  0.
         23    2    1    2    0    0  0.17391545434E+03 -0.61005731431E+02  0.50854024751E+02  0.21083311941E+03  0.88860496753E+02 0.  0.
        -11    1    3    3    0    0 -0.46521177592E+02 -0.68882007412E+02  0.78791874182E+02  0.11452995393E+03  0.00000000000E+00 0.  1.
         12    1    3    3    0    0 -0.81629167557E+02 -0.97742959721E+01  0.30015258441E+02  0.87520132525E+02  0.00000000000E+00 0. -1.
        -11    1    4    4    0    0  0.13437060973E+03 -0.21795428892E+02  0.10627189608E+01  0.13613093275E+03  0.00000000000E+00 0.  1.
         11    1    4    4    0    0  0.39544844610E+02 -0.39210302538E+02  0.49791305790E+02  0.74702186666E+02  0.00000000000E+00 0. -1.
          1    1    1    2  501    0 -0.45765109186E+02  0.13966203482E+03  0.36994233074E+02  0.15155362902E+03  0.00000000000E+00 0. -1.
<scales pt_clust_5="13000.00000" pt_clust_6="13000.00000" pt_clust_7="13000.00000" pt_clust_8="13000.00000" pt_clust_9="146.96914"></scales>
<clustering>
<clus scale="   79.849">  5  6 -1 -1</clus>
<clus scale="   88.860">  7  8 -1 -1</clus>
<clus scale="  146.969">  2  9  1 -1</clus>
<clus scale="  167.759">  1  5  2 -1</clus>
<clus scale="  146.969">  2  5  1 -1</clus>
</clustering>
</event>
<event>
 9    2  0.1033155E-004  0.1022454E+03  0.7546771E-02  0.1280650E+00
          2   -1    0    0  502    0 -0.00000000000E+00  0.00000000000E+00  0.18662927813E+03  0.18662927813E+03  0.00000000000E+00 0. -1.
         21   -1    0    0  501  502  0.00000000000E+00 -0.00000000000E+00 -0.16786701759E+03  0.16786701759E+03  0.00000000000E+00 0. -1.
         24    2    1    2    0    0 -0.44040101059E+02 -0.80143069668E+01  0.14361575978E+03  0.17091964996E+03  0.81143580581E+02 0.  0.
         23    2    1    2    0    0  0.51922099120E+02 -0.13094240790E+02 -0.78483630190E+02  0.13202219457E+03  0.91666875871E+02 0.  0.
        -11    1    3    3    0    0 -0.62766738061E+02  0.10182005777E+02  0.80275396322E+02  0.10240837809E+03  0.00000000000E+00 0.  1.
         12    1    3    3    0    0  0.18726637002E+02 -0.18196312744E+02  0.63340363455E+02  0.68511271872E+02  0.00000000000E+00 0. -1.
        -11    1    4    4    0    0  0.70196333656E+02  0.13385494663E+02 -0.66718160702E+02  0.97765073997E+02  0.00000000000E+00 0.  1.
         11    1    4    4    0    0 -0.18274234537E+02 -0.26479735453E+02 -0.11765469488E+02  0.34257120571E+02  0.00000000000E+00 0. -1.
          1    1    1    2  501    0 -0.78819980606E+01  0.21108547757E+02 -0.46369869052E+02  0.51554451193E+02  0.00000000000E+00 0. -1.
<scales pt_clust_5="13000.00000" pt_clust_6="13000.00000" pt_clust_7="13000.00000" pt_clust_8="13000.00000" pt_clust_9="22.53213"></scales>
<clustering>
<clus scale="   22.532">  2  9  1 -1</clus>
<clus scale="   81.144">  5  6 -1 -1</clus>
<clus scale="   91.667">  7  8 -1 -1</clus>
<clus scale="   92.928">  1  5  2 -1</clus>
<clus scale="   22.532">  2  5  1 -1</clus>
</clustering>
</event>
<event>
 9    2  0.1033155E-004  0.1628653E+03  0.7546771E-02  0.1186412E+00
          2   -1    0    0  502    0 -0.00000000000E+00  0.00000000000E+00  0.95891620370E+03  0.95891620370E+03  0.00000000000E+00 0. -1.
         21   -1    0    0  501  502  0.00000000000E+00 -0.00000000000E+00 -0.37977661274E+02  0.37977661274E+02  0.00000000000E+00 0.  1.
         24    2    1    2    0    0 -0.96599371051E+02  0.75449215059E+02  0.38160767256E+03  0.40872678296E+03  0.80057134663E+02 0.  0.
         23    2    1    2    0    0  0.12873042838E+03 -0.11173723284E+03  0.40845043465E+03  0.44860020413E+03  0.73168662626E+02 0.  0.
        -11    1    3    3    0    0 -0.75669882417E+02  0.17012051278E+02  0.27113658119E+03  0.28201132363E+03  0.00000000000E+00 0.  1.
         12    1    3    3    0    0 -0.20929488633E+02  0.58437163781E+02  0.11047109136E+03  0.12671545933E+03  0.00000000000E+00 0. -1.
        -11    1    4    4    0    0  0.93760851703E+01 -0.27432455560E+02  0.25109925478E+02  0.38353082649E+02  0.00000000000E+00 0. -1.
         11    1    4    4    0    0  0.11935434321E+03 -0.84304777279E+02  0.38334050917E+03  0.41024712149E+03  0.00000000000E+00 0.  1.
          1    1    1    2  501    0 -0.32131057327E+02  0.36288017779E+02  0.13088043522E+03  0.13956687788E+03  0.00000000000E+00 0. -1.
<scales pt_clust_5="13000.00000" pt_clust_6="13000.00000" pt_clust_7="13000.00000" pt_clust_8="13000.00000" pt_clust_9="48.46883"></scales>
<clustering>
<clus scale="   48.469">  2  9  1 -1</clus>
<clus scale="   73.169">  7  8 -1 -1</clus>
<clus scale="   80.057">  5  6 -1 -1</clus>
<clus scale="  159.592">  2  7  1 -1</clus>
<clus scale="   48.469">  2  5  1 -1</clus>
</clustering>
</event>
<event>
 9    2  0.1033155E-004  0.1041747E+03  0.7546771E-02  0.1275789E+00
         21   -1    0    0  501  502  0.00000000000E+00  0.00000000000E+00  0.54158437576E+03  0.54158437576E+03  0.00000000000E+00 0.  1.
         -1   -1    0    0    0  501 -0.00000000000E+00 -0.00000000000E+00 -0.27186791623E+02  0.27186791623E+02  0.00000000000E+00 0.  1.
         24    2    1    2    0    0  0.19846271137E+02 -0.57914102175E+02  0.14607079445E+03  0.17789094831E+03  0.80997498683E+02 0.  0.
         23    2    1    2    0    0  0.44560653207E+01  0.37775976052E+02  0.30163972316E+03  0.31710141098E+03  0.90110495345E+02 0.  0.
        -13    1    3    3    0    0 -0.10430560898E+02 -0.63830895851E+02  0.67519491325E+02  0.93498992372E+02  0.00000000000E+00 0.  1.
         14    1    3    3    0    0  0.30276832036E+02  0.59167936762E+01  0.78551303121E+02  0.84391955941E+02  0.00000000000E+00 0. -1.
        -13    1    4    4    0    0  0.22469862886E+02 -0.79101860029E+01  0.19686887806E+02  0.30903710654E+02  0.00000000000E+00 0. -1.
         13    1    4    4    0    0 -0.18013797566E+02  0.45686162055E+02  0.28195283536E+03  0.28619770033E+03  0.00000000000E+00 0.  1.
         -2    1    1    2    0  502 -0.24302336458E+02  0.20138126123E+02  0.66687066529E+02  0.73778808091E+02  0.00000000000E+00 0.  1.
<scales pt_clust_5="13000.00000" pt_clust_6="13000.00000" pt_clust_7="13000.00000" pt_clust_8="13000.00000" pt_clust_9="31.56182"></scales>
<clustering>
<clus scale="   31.562">  1  9  2 -1</clus>
<clus scale="   80.997">  5  6 -1 -1</clus>
<clus scale="   90.110">  7  8 -1 -1</clus>
<clus scale="   96.401">  2  5  1 -1</clus>
<clus scale="   31.562">  1  5  2 -1</clus>
</clustering>
</event>
<event>
 9    2  0.1033155E-004  0.9876408E+02  0.7546771E-02  0.1286423E+00
         21   -1    0    0  501  502  0.00000000000E+00  0.00000000000E+00  0.43374473098E+03  0.43374473098E+03  0.00000000000E+00 0. -1.
         -3   -1    0    0    0  501 -0.00000000000E+00 -0.00000000000E+00 -0.37349123599E+02  0.37349123599E+02  0.00000000000E+00 0.  1.
         24    2    1    2    0    0  0.28175122022E+02 -0.21970354772E+01  0.78481211882E+02  0.12142830436E+03  0.88243232125E+02 0.  0.
         23    2    1    2    0    0 -0.13869961813E+02  0.40888189383E+02  0.23407414035E+03  0.25622663229E+03  0.94853381829E+02 0.  0.
        -11    1    3    3    0    0  0.59563955602E+02 -0.73611288275E+01  0.43354239536E+02  0.74038105799E+02  0.00000000000E+00 0.  1.
         12    1    3    3    0    0 -0.31388833580E+02  0.51640933503E+01  0.35126972346E+02  0.47390198562E+02  0.00000000000E+00 0. -1.
        -13    1    4    4    0    0 -0.39462458195E+02  0.29717000170E+02  0.21898165493E+03  0.22448463400E+03  0.00000000000E+00 0. -1.
         13    1    4    4    0    0  0.25592496383E+02  0.11171189213E+02  0.15092485418E+02  0.31741998293E+02  0.00000000000E+00 0.  1.
         -4    1    1    2    0  502 -0.14305160210E+02 -0.38691153906E+02  0.83840255151E+02  0.93438917925E+02  0.00000000000E+00 0.  1.
<scales pt_clust_5="13000.00000" pt_clust_6="13000.00000" pt_clust_7="13000.00000" pt_clust_8="13000.00000" pt_clust_9="41.25098"></scales>
<clustering>
<clus scale="   41.251">  1  9  2 -1</clus>
<clus scale="   88.243">  5  6 -1 -1</clus>
<clus scale="   92.434">  2  5  1 -1</clus>
<clus scale="   94.853">  7  8 -1 -1</clus>
<clus scale="   41.251">  1  5  2 -1</clus>
</clustering>
</event>
<event>
 9    2  0.1033155E-004  0.9790693E+02  0.7546771E-02  0.1290540E+00
          2   -1    0    0  502    0 -0.00000000000E+00  0.00000000000E+00  0.47454815011E+03  0.47454815011E+03  0.00000000000E+00 0. -1.
         21   -1    0    0  501  502  0.00000000000E+00 -0.00000000000E+00 -0.12115223650E+03  0.12115223650E+03  0.00000000000E+00 0. -1.
         24    2    1    2    0    0  0.33653579493E+02 -0.15503726558E+02  0.39980540311E+03  0.40932479751E+03  0.79558158288E+02 0.  0.
         23    2    1    2    0    0 -0.20518657446E+02  0.43856979373E+02  0.27345194324E+02  0.10627448732E+03  0.90565208877E+02 0.  0.
        -11    1    3    3    0    0 -0.18963812033E+02  0.15247485179E+02  0.74919019943E+02  0.78771641600E+02  0.00000000000E+00 0.  1.
         12    1    3    3    0    0  0.52617391526E+02 -0.30751211737E+02  0.32488638317E+03  0.33055315591E+03  0.00000000000E+00 0. -1.
        -11    1    4    4    0    0 -0.17325923321E+02 -0.16966653203E+02 -0.18117790207E+02  0.30270600619E+02  0.00000000000E+00 0.  1.
         11    1    4    4    0    0 -0.31927341247E+01  0.60823632576E+02  0.45462984531E+02  0.76003886699E+02  0.00000000000E+00 0. -1.
          1    1    1    2  501    0 -0.13134922048E+02 -0.28353252815E+02 -0.73754683817E+02  0.80101101786E+02  0.00000000000E+00 0. -1.
<scales pt_clust_5="13000.00000" pt_clust_6="13000.00000" pt_clust_7="13000.00000" pt_clust_8="13000.00000" pt_clust_9="31.24793"></scales>
<clustering>
<clus scale="   31.248">  2  9  1 -1</clus>
<clus scale="   79.558">  5  6 -1 -1</clus>
<clus scale="   87.825">  1  5  2 -1</clus>
<clus scale="   90.565">  7  8 -1 -1</clus>
<clus scale="   31.248">  2  5  1 -1</clus>
</clustering>
</event>
<event>
 9    2  0.1033155E-004  0.1171228E+03  0.7546771E-02  0.1251868E+00
          2   -1    0    0  502    0 -0.00000000000E+00  0.00000000000E+00  0.12733890271E+04  0.12733890271E+04  0.00000000000E+00 0. -1.
         21   -1    0    0  501  502  0.00000000000E+00 -0.00000000000E+00 -0.25208653093E+02  0.25208653093E+02  0.00000000000E+00 0. -1.
         24    2    1    2    0    0  0.12968270950E+02 -0.73061891402E+02  0.85340371227E+03  0.86037990360E+03  0.80308569788E+02 0.  0.
         23    2    1    2    0    0  0.39973567080E+02  0.69066774697E+02  0.18230801144E+03  0.21921611785E+03  0.91931441076E+02 0.  0.
        -13    1    3    3    0    0  0.20239406918E+02 -0.39826066446E+02  0.15937480213E+03  0.16551760244E+03  0.00000000000E+00 0.  1.
         14    1    3    3    0    0 -0.72711359683E+01 -0.33235824956E+02  0.69402891013E+03  0.69486230116E+03  0.00000000000E+00 0. -1.
        -11    1    4    4    0    0 -0.28192546664E+02  0.36205144861E+02  0.74570548622E+02  0.87557974643E+02  0.00000000000E+00 0.  1.
         11    1    4    4    0    0  0.68166113744E+02  0.32861629835E+02  0.10773746282E+03  0.13165814321E+03  0.00000000000E+00 0. -1.
          1    1    1    2  501    0 -0.52941838030E+02  0.39951167050E+01  0.21246865030E+03  0.21900165875E+03  0.00000000000E+00 0. -1.
<scales pt_clust_5="13000.00000" pt_clust_6="13000.00000" pt_clust_7="13000.00000" pt_clust_8="13000.00000" pt_clust_9="53.09239"></scales>
<clustering>
<clus scale="   53.092">  2  9  1 -1</clus>
<clus scale="   80.309">  5  6 -1 -1</clus>
<clus scale="   91.931">  7  8 -1 -1</clus>
<clus scale="  108.240">  1  5  2 -1</clus>
<clus scale="   53.092">  2  5  1 -1</clus>
</clustering>
</event>
<event>
 9    2  0.1033155E-004  0.8744734E+02  0.7546771E-02  0.1313433E+00
         21   -1    0    0  501  502  0.00000000000E+00  0.00000000000E+00  0.58064399614E+03  0.58064399614E+03  0.00000000000E+00 0. -1.
         -1   -1    0    0    0  501 -0.00000000000E+00 -0.00000000000E+00 -0.28856606396E+02  0.28856606396E+02  0.00000000000E+00 0.  1.
         23    2    1    2    0    0 -0.38112642242E+02  0.56572724771E+01  0.22957864252E+03  0.24764128110E+03  0.84470543819E+02 0.  0.
         24    2    1    2    0    0  0.47145771625E+00  0.22896051789E+02  0.29791955733E+03  0.30873573115E+03  0.77699662730E+02 0.  0.
        -11    1    4    4    0    0 -0.12241485127E+02  0.35897447774E+02  0.66131751085E+02  0.76235747628E+02  0.00000000000E+00 0.  1.
         12    1    4    4    0    0  0.12712942843E+02 -0.13001395985E+02  0.23178780625E+03  0.23249998352E+03  0.00000000000E+00 0. -1.
        -13    1    3    3    0    0  0.23451957246E+02 -0.92462941238E+01  0.35894491273E+02  0.43862315915E+02  0.00000000000E+00 0.  1.
         13    1    3    3    0    0 -0.61564599489E+02  0.14903566601E+02  0.19368415125E+03  0.20377896518E+03  0.00000000000E+00 0. -1.
         -2    1    1    2    0  502  0.37641184526E+02 -0.28553324266E+02  0.24289189892E+02  0.53123590286E+02  0.00000000000E+00 0.  1.
<scales pt_clust_5="13000.00000" pt_clust_6="13000.00000" pt_clust_7="13000.00000" pt_clust_8="13000.00000" pt_clust_9="47.24567"></scales>
<clustering>
<clus scale="   47.246">  1  9  2 -1</clus>
<clus scale="   77.700">  5  6 -1 -1</clus>
<clus scale="   80.926">  1  5  2 -1</clus>
<clus scale="   84.471">  7  8 -1 -1</clus>
<clus scale="   47.246">  1  5  2 -1</clus>
</clustering>
</event>
<event>
 9    2  0.1033155E-004  0.1191815E+03  0.7546771E-02  0.1248556E+00
         21   -1    0    0  501  502  0.00000000000E+00  0.00000000000E+00  0.11620094892E+03  0.11620094892E+03  0.00000000000E+00 0. -1.
          2   -1    0    0  502    0 -0.00000000000E+00 -0.00000000000E+00 -0.49484769842E+03  0.49484769842E+03  0.00000000000E+00 0. -1.
         23    2    1    2    0    0 -0.66432220802E+02 -0.11116714683E+02 -0.36499281178E+03  0.38317949984E+03  0.95236312089E+02 0.  0.
         24    2    1    2    0    0  0.77975253000E+02  0.53732089658E+02 -0.79206233210E+02  0.14883488139E+03  0.83131925269E+02 0.  0.
        -13    1    4    4    0    0  0.65540335265E+02  0.76049473622E+02 -0.65056623716E+02  0.11963035683E+03  0.00000000000E+00 0.  1.
         14    1    4    4    0    0  0.12434917735E+02 -0.22317383964E+02 -0.14149609494E+02  0.29204524562E+02  0.00000000000E+00 0. -1.
        -13    1    3    3    0    0  0.18119149437E+02  0.16358688623E+02 -0.46589685351E+02  0.52597614498E+02  0.00000000000E+00 0.  1.
         13    1    3    3    0    0 -0.84551370239E+02 -0.27475403305E+02 -0.31840312643E+03  0.33058188534E+03  0.00000000000E+00 0. -1.
          1    1    1    2  501    0 -0.11543032198E+02 -0.42615374976E+02  0.65552295491E+02  0.79034266118E+02  0.00000000000E+00 0. -1.
<scales pt_clust_5="13000.00000" pt_clust_6="13000.00000" pt_clust_7="13000.00000" pt_clust_8="13000.00000" pt_clust_9="44.15101"></scales>
<clustering>
<clus scale="   44.151">  1  9  2 -1</clus>
<clus scale="   83.132">  5  6 -1 -1</clus>
<clus scale="   95.236">  7  8 -1 -1</clus>
<clus scale="  109.751">  1  5  2 -1</clus>
<clus scale="   44.151">  1  5  2 -1</clus>
</clustering>
</event>
<event>
 9    2  0.1033155E-004  0.5206415E+03  0.7546771E-02  0.1008624E+00
          2   -1    0    0  502    0 -0.00000000000E+00  0.00000000000E+00  0.24502738866E+04  0.24502738866E+04  0.00000000000E+00 0. -1.
         21   -1    0    0  501  502  0.00000000000E+00 -0.00000000000E+00 -0.30191290944E+03  0.30191290944E+03  0.00000000000E+00 0. -1.
         23    2    1    2    0    0 -0.65420369510E+02  0.46207104571E+03  0.26940980605E+03  0.54642063897E+03  0.90578115836E+02 0.  0.
         24    2    1    2    0    0  0.26975495219E+03 -0.51419769590E+03  0.39510601142E+03  0.70701125140E+03  0.81173546461E+02 0.  0.
        -13    1    4    4    0    0  0.45554766995E+02 -0.35913446421E+02  0.42481504373E+02  0.71900560801E+02  0.00000000000E+00 0.  1.
         14    1    4    4    0    0  0.22420018520E+03 -0.47828424948E+03  0.35262450705E+03  0.63511069060E+03  0.00000000000E+00 0. -1.
        -11    1    3    3    0    0 -0.87620733126E+02  0.35872002910E+03  0.19983916739E+03  0.41987277237E+03  0.00000000000E+00 0. -1.
         11    1    3    3    0    0  0.22200363616E+02  0.10335101660E+03  0.69570638658E+02  0.12654786660E+03  0.00000000000E+00 0.  1.
          1    1    1    2  501    0 -0.20433458268E+03  0.52126650196E+02  0.14838451597E+04  0.14987549057E+04  0.00000000000E+00 0. -1.
<scales pt_clust_5="13000.00000" pt_clust_6="13000.00000" pt_clust_7="13000.00000" pt_clust_8="13000.00000" pt_clust_9="210.87877"></scales>
<clustering>
<clus scale="   81.174">  5  6 -1 -1</clus>
<clus scale="   90.578">  7  8 -1 -1</clus>
<clus scale="  210.879">  2  9  1 -1</clus>
<clus scale="  519.088">  2  5  1 -1</clus>
<clus scale="  210.879">  2  5  1 -1</clus>
</clustering>
</event>
<event>
 9    2  0.1033155E-004  0.1017243E+03  0.7546771E-02  0.1283054E+00
          2   -1    0    0  502    0 -0.00000000000E+00  0.00000000000E+00  0.29884627066E+03  0.29884627066E+03  0.00000000000E+00 0. -1.
         21   -1    0    0  501  502  0.00000000000E+00 -0.00000000000E+00 -0.89804907247E+02  0.89804907247E+02  0.00000000000E+00 0.  1.
         24    2    1    2    0    0 -0.33162744634E+02 -0.11312051534E+02  0.19821473224E+03  0.21709665721E+03  0.81327414521E+02 0.  0.
         23    2    1    2    0    0  0.71446746068E+02 -0.20466829854E+02 -0.31799025226E+01  0.11986559486E+03  0.93990001619E+02 0.  0.
        -11    1    3    3    0    0  0.20166949492E+02 -0.24563555957E+02  0.52571005718E+02  0.61431138482E+02  0.00000000000E+00 0.  1.
         12    1    3    3    0    0 -0.53329694126E+02  0.13251504423E+02  0.14564372652E+03  0.15566551872E+03  0.00000000000E+00 0. -1.
        -13    1    4    4    0    0 -0.65549210047E+01 -0.25782837120E+02 -0.27229225775E+02  0.38067734574E+02  0.00000000000E+00 0. -1.
         13    1    4    4    0    0  0.78001667072E+02  0.53160072654E+01  0.24049323252E+02  0.81797860291E+02  0.00000000000E+00 0.  1.
          1    1    1    2  501    0 -0.38284001434E+02  0.31778881389E+02  0.14006533703E+02  0.51688925840E+02  0.00000000000E+00 0. -1.
<scales pt_clust_5="13000.00000" pt_clust_6="13000.00000" pt_clust_7="13000.00000" pt_clust_8="13000.00000" pt_clust_9="49.75502"></scales>
<clustering>
<clus scale="   49.755">  2  9  1 -1</clus>
<clus scale="   81.327">  5  6 -1 -1</clus>
<clus scale="   90.155">  1  5  2 -1</clus>
<clus scale="   93.990">  7  8 -1 -1</clus>
<clus scale="   49.755">  2  5  1 -1</clus>
</clustering>
</event>
<event>
 9    2  0.1033155E-004  0.1636078E+03  0.7546771E-02  0.1200661E+00
         21   -1    0    0  501  502  0.00000000000E+00  0.00000000000E+00  0.10086775351E+03  0.10086775351E+03  0.00000000000E+00 0. -1.
          2   -1    0    0  502    0 -0.00000000000E+00 -0.00000000000E+00 -0.71247628653E+03  0.71247628653E+03  0.00000000000E+00 0. -1.
         23    2    1    2    0    0 -0.53350868463E+02 -0.44219474684E+02 -0.45265936343E+02  0.12370646193E+03  0.91938058624E+02 0.  0.
         24    2    1    2    0    0 -0.82816402886E+02  0.11563831480E+03 -0.85500808732E+02  0.18480988320E+03  0.81323601732E+02 0.  0.
        -11    1    4    4    0    0 -0.68213125699E+02  0.48111497304E+02 -0.79810812928E+02  0.11548814896E+03  0.00000000000E+00 0.  1.
         12    1    4    4    0    0 -0.14603277187E+02  0.67526817498E+02 -0.56899958039E+01  0.69321734242E+02  0.00000000000E+00 0. -1.
        -13    1    3    3    0    0 -0.75888521439E+02 -0.50138412425E+02 -0.41972506574E+02  0.10017294742E+03  0.00000000000E+00 0. -1.
         13    1    3    3    0    0  0.22537652976E+02  0.59189377403E+01 -0.32934297696E+01  0.23533514512E+02  0.00000000000E+00 0.  1.
          1    1    1    2  501    0  0.13616727135E+03 -0.71418840118E+02 -0.48084178795E+03  0.50482769491E+03  0.00000000000E+00 0. -1.
<scales pt_clust_5="13000.00000" pt_clust_6="13000.00000" pt_clust_7="13000.00000" pt_clust_8="13000.00000" pt_clust_9="141.96476"></scales>
<clustering>
<clus scale="   81.324">  5  6 -1 -1</clus>
<clus scale="   91.938">  7  8 -1 -1</clus>
<clus scale="  115.127">  2  7  1 -1</clus>
<clus scale="  141.965">  1  9  2 -1</clus>
<clus scale="  141.965">  1  5  2 -1</clus>
</clustering>
</event>
<event>
 9    2  0.1033155E-004  0.2210141E+03  0.7546771E-02  0.1134417E+00
          2   -1    0    0  502    0 -0.00000000000E+00  0.00000000000E+00  0.58902060772E+03  0.58902060772E+03  0.00000000000E+00 0. -1.
         21   -1    0    0  501  502  0.00000000000E+00 -0.00000000000E+00 -0.92509106861E+02  0.92509106861E+02  0.00000000000E+00 0. -1.
         24    2    1    2    0    0  0.87891044276E+02  0.18465184344E+03  0.28459057519E+03  0.35847965127E+03  0.75463407941E+02 0.  0.
         23    2    1    2    0    0 -0.64478893520E+02 -0.18441861415E+03  0.17066502872E+03  0.27561345053E+03  0.93104613907E+02 0.  0.
        -13    1    3    3    0    0  0.48482436496E+02  0.56962874071E+02  0.55054898702E+02  0.92878186578E+02  0.00000000000E+00 0.  1.
         14    1    3    3    0    0  0.39408607780E+02  0.12768896937E+03  0.22953567649E+03  0.26560146469E+03  0.00000000000E+00 0. -1.
        -13    1    4    4    0    0 -0.24996708331E+02 -0.99628705537E+02  0.14665605394E+03  0.17904946957E+03  0.00000000000E+00 0.  1.
         13    1    4    4    0    0 -0.39482185188E+02 -0.84789908614E+02  0.24008974782E+02  0.96563980966E+02  0.00000000000E+00 0. -1.
          1    1    1    2  501    0 -0.23412150756E+02 -0.23322929279E+00  0.41255896947E+02  0.47436612778E+02  0.00000000000E+00 0. -1.
<scales pt_clust_5="13000.00000" pt_clust_6="13000.00000" pt_clust_7="13000.00000" pt_clust_8="13000.00000" pt_clust_9="23.41332"></scales>
<clustering>
<clus scale="   23.413">  2  9  1 -1</clus>
<clus scale="   75.463">  5  6 -1 -1</clus>
<clus scale="   93.105">  7  8 -1 -1</clus>
<clus scale="  214.181">  1  5  2 -1</clus>
<clus scale="   23.413">  2  5  1 -1</clus>
</clustering>
</event>
<event>
 9    2  0.1033155E-004  0.1028840E+03  0.7546771E-02  0.1276518E+00
          4   -1    0    0  502    0 -0.00000000000E+00  0.00000000000E+00  0.12646009903E+03  0.12646009903E+03  0.00000000000E+00 0. -1.
         21   -1    0    0  501  502  0.00000000000E+00 -0.00000000000E+00 -0.15091667724E+03  0.15091667724E+03  0.00000000000E+00 0.  1.
         23    2    1    2    0    0  0.17945754924E+02  0.30062417785E+02  0.55829952284E+02  0.11298625973E+03  0.91777514853E+02 0.  0.
         24    2    1    2    0    0  0.15975411185E+01 -0.44240355291E+02 -0.32477367906E+02  0.11083054679E+03  0.96274968198E+02 0.  0.
        -13    1    4    4    0    0  0.20594441912E+02 -0.60624038640E+02 -0.49144021941E+02  0.80712700309E+02  0.00000000000E+00 0.  1.
         14    1    4    4    0    0 -0.18996900793E+02  0.16383683350E+02  0.16666654035E+02  0.30117846480E+02  0.00000000000E+00 0. -1.
        -13    1    3    3    0    0  0.17073307765E+02 -0.21228521903E+02 -0.10446290418E+02  0.29176582454E+02  0.00000000000E+00 0.  1.
         13    1    3    3    0    0  0.87244715919E+00  0.51290939688E+02  0.66276242702E+02  0.83809677274E+02  0.00000000000E+00 0. -1.
          3    1    1    2  501    0 -0.19543296042E+02  0.14177937505E+02 -0.47809162587E+02  0.53559969748E+02  0.00000000000E+00 0. -1.
<scales pt_clust_5="13000.00000" pt_clust_6="13000.00000" pt_clust_7="13000.00000" pt_clust_8="13000.00000" pt_clust_9="24.14445"></scales>
<clustering>
<clus scale="   24.144">  2  9  1 -1</clus>
<clus scale="   91.778">  7  8 -1 -1</clus>
<clus scale="   96.275">  5  6 -1 -1</clus>
<clus scale="   98.688">  1  7  2 -1</clus>
<clus scale="   24.144">  2  5  1 -1</clus>
</clustering>
</event>
<event>
 9    2  0.1033155E-004  0.9670426E+02  0.7546771E-02  0.1291521E+00
         21   -1    0    0  501  502  0.00000000000E+00  0.00000000000E+00  0.69198494484E+03  0.69198494484E+03  0.00000000000E+00 0. -1.
          2   -1    0    0  502    0 -0.00000000000E+00 -0.00000000000E+00 -0.29293509416E+02  0.29293509416E+02  0.00000000000E+00 0. -1.
         24    2    1    2    0    0  0.98574053803E+01 -0.33773291059E+02  0.87835358098E+02  0.12791609084E+03  0.86079454765E+02 0.  0.
         23    2    1    2    0    0  0.15761915394E+02 -0.19471900689E+01  0.28994359938E+03  0.30507878348E+03  0.93560375093E+02 0.  0.
        -11    1    3    3    0    0  0.25928243892E+02  0.22278519652E+02  0.38960676662E+02  0.51831849235E+02  0.00000000000E+00 0.  1.
         12    1    3    3    0    0 -0.16070838511E+02 -0.56051810711E+02  0.48874681436E+02  0.76084241600E+02  0.00000000000E+00 0. -1.
        -13    1    4    4    0    0  0.22409664338E+02  0.40017669679E+02  0.20540908664E+03  0.21046733670E+03  0.00000000000E+00 0.  1.
         13    1    4    4    0    0 -0.66477489440E+01 -0.41964859748E+02  0.84534512731E+02  0.94611446783E+02  0.00000000000E+00 0. -1.
          1    1    1    2  501    0 -0.25619320774E+02  0.35720481128E+02  0.28491247795E+03  0.28828357994E+03  0.00000000000E+00 0. -1.
<scales pt_clust_5="13000.00000" pt_clust_6="13000.00000" pt_clust_7="13000.00000" pt_clust_8="13000.00000" pt_clust_9="43.95796"></scales>
<clustering>
<clus scale="   43.958">  1  9  2 -1</clus>
<clus scale="   86.079">  5  6 -1 -1</clus>
<clus scale="   89.487">  2  5  1 -1</clus>
<clus scale="   93.560">  7  8 -1 -1</clus>
<clus scale="   43.958">  1  5  2 -1</clus>
</clustering>
</event>
<event>
 9    2  0.1033155E-004  0.1479215E+03  0.7546771E-02  0.1227877E+00
          4   -1    0    0  502    0 -0.00000000000E+00  0.00000000000E+00  0.18985365038E+03  0.18985365038E+03  0.00000000000E+00 0. -1.
         21   -1    0    0  501  502  0.00000000000E+00 -0.00000000000E+00 -0.94272831164E+03  0.94272831164E+03  0.00000000000E+00 0. -1.
         23    2    1    2    0    0  0.51762056520E+02  0.29449293009E+02  0.15649991252E+03  0.17928789271E+03  0.64073040341E+02 0.  0.
         24    2    1    2    0    0  0.38790239540E+02  0.82645130483E+02 -0.24155170533E+03  0.27010137195E+03  0.79199902180E+02 0.  0.
        -11    1    4    4    0    0 -0.93946636493E+01  0.24683741002E+02 -0.14614812869E+03  0.14851539413E+03  0.00000000000E+00 0.  1.
         12    1    4    4    0    0  0.48184903189E+02  0.57961389481E+02 -0.95403576637E+02  0.12158597781E+03  0.00000000000E+00 0. -1.
        -11    1    3    3    0    0  0.82721997973E+01  0.21933082445E+02  0.11925809103E+03  0.12154004143E+03  0.00000000000E+00 0.  1.
         11    1    3    3    0    0  0.43489856723E+02  0.75162105635E+01  0.37241821491E+02  0.57747851275E+02  0.00000000000E+00 0. -1.
          3    1    1    2  501    0 -0.90552296060E+02 -0.11209442349E+03 -0.66782286846E+03  0.68319269737E+03  0.00000000000E+00 0. -1.
<scales pt_clust_5="13000.00000" pt_clust_6="13000.00000" pt_clust_7="13000.00000" pt_clust_8="13000.00000" pt_clust_9="124.93260"></scales>
<clustering>
<clus scale="   64.073">  7  8 -1 -1</clus>
<clus scale="   79.200">  5  6 -1 -1</clus>
<clus scale="   87.475">  1  7  2 -1</clus>
<clus scale="  124.933">  2  9  1 -1</clus>
<clus scale="  124.933">  2  5  1 -1</clus>
</clustering>
</event>
<event>
 9    2  0.1033155E-004  0.1029840E+03  0.7546771E-02  0.1280341E+00
         21   -1    0    0  501  502  0.00000000000E+00  0.00000000000E+00  0.30002599171E+02  0.30002599171E+02  0.00000000000E+00 0.  1.
          2   -1    0    0  502    0 -0.00000000000E+00 -0.00000000000E+00 -0.58016325380E+03  0.58016325380E+03  0.00000000000E+00 0. -1.
         24    2    1    2    0    0  0.46887982428E+02 -0.19191289699E+02 -0.34600750923E+03  0.35882778452E+03  0.80432543161E+02 0.  0.
         23    2    1    2    0    0 -0.98673598149E+01  0.28128368353E+02 -0.98005389494E+02  0.13856509316E+03  0.93309478493E+02 0.  0.
        -11    1    3    3    0    0  0.19721235610E+02  0.29577115295E+02 -0.89200474828E+02  0.96023213822E+02  0.00000000000E+00 0.  1.
         12    1    3    3    0    0  0.27166746819E+02 -0.48768404994E+02 -0.25680703440E+03  0.26280457069E+03  0.00000000000E+00 0. -1.
        -11    1    4    4    0    0 -0.49381998036E+02 -0.74386071243E-01 -0.51025035978E+02  0.71008038700E+02  0.00000000000E+00 0. -1.
         11    1    4    4    0    0  0.39514638221E+02  0.28202754424E+02 -0.46980353515E+02  0.67557054460E+02  0.00000000000E+00 0.  1.
          1    1    1    2  501    0 -0.37020622613E+02 -0.89370786544E+01 -0.10614775590E+03  0.11277297529E+03  0.00000000000E+00 0. -1.
<scales pt_clust_5="13000.00000" pt_clust_6="13000.00000" pt_clust_7="13000.00000" pt_clust_8="13000.00000" pt_clust_9="38.08411"></scales>
<clustering>
<clus scale="   38.084">  1  9  2 -1</clus>
<clus scale="   80.433">  5  6 -1 -1</clus>
<clus scale="   91.479">  2  5  1 -1</clus>
<clus scale="   93.309">  7  8 -1 -1</clus>
<clus scale="   38.084">  1  5  2 -1</clus>
</clustering>
</event>
<event>
 9    2  0.1033155E-004  0.2092866E+03  0.7546771E-02  0.1142132E+00
         21   -1    0    0  501  502  0.00000000000E+00  0.00000000000E+00  0.46712461784E+02  0.46712461784E+02  0.00000000000E+00 0.  1.
          2   -1    0    0  502    0 -0.00000000000E+00 -0.00000000000E+00 -0.63040942721E+03  0.63040942721E+03  0.00000000000E+00 0. -1.
         24    2    1    2    0    0 -0.62176031102E+01  0.61586448662E+02 -0.23895436693E+03  0.25927703815E+03  0.79333749377E+02 0.  0.
         23    2    1    2    0    0  0.16555901592E+02  0.56074813219E+02 -0.22476668038E+03  0.24948430353E+03  0.91125597637E+02 0.  0.
        -13    1    3    3    0    0 -0.25957781628E+02  0.42976290038E+02 -0.59808412417E+02  0.78088501896E+02  0.00000000000E+00 0.  1.
         14    1    3    3    0    0  0.19740178518E+02  0.18610158624E+02 -0.17914595451E+03  0.18118853625E+03  0.00000000000E+00 0. -1.
        -11    1    4    4    0    0  0.36037290669E+02  0.69195748509E+02 -0.20294266354E+03  0.21742231397E+03  0.00000000000E+00 0.  1.
         11    1    4    4    0    0 -0.19481389077E+02 -0.13120935290E+02 -0.21824016846E+02  0.32061989561E+02  0.00000000000E+00 0. -1.
          1    1    1    2  501    0 -0.10338298482E+02 -0.11766126188E+03 -0.11997591812E+03  0.16836054731E+03  0.00000000000E+00 0. -1.
<scales pt_clust_5="13000.00000" pt_clust_6="13000.00000" pt_clust_7="13000.00000" pt_clust_8="13000.00000" pt_clust_9="118.11458"></scales>
<clustering>
<clus scale="   79.334">  5  6 -1 -1</clus>
<clus scale="   91.126">  7  8 -1 -1</clus>
<clus scale="   94.292">  5  7 -1 -1</clus>
<clus scale="  118.115">  1  9  2 -1</clus>
<clus scale="  118.115">  1  5  2 -1</clus>
</clustering>
</event>
<event>
 9    2  0.1033155E-004  0.9575651E+02  0.7546771E-02  0.1295918E+00
         21   -1    0    0  501  502  0.00000000000E+00  0.00000000000E+00  0.26816389723E+02  0.26816389723E+02  0.00000000000E+00 0.  1.
         -1   -1    0    0    0  501 -0.00000000000E+00 -0.00000000000E+00 -0.61488736239E+03  0.61488736239E+03  0.00000000000E+00 0.  1.
         24    2    1    2    0    0  0.91859312448E+01  0.35099129236E+02 -0.32143034706E+03  0.33323408230E+03  0.80069690825E+02 0.  0.
         23    2    1    2    0    0  0.35887319199E+02 -0.93885490916E+01 -0.13725117548E+03  0.16906284917E+03  0.91478507130E+02 0.  0.
        -13    1    3    3    0    0  0.23105986990E+02 -0.99633452219E+01 -0.35932633218E+02  0.43866946699E+02  0.00000000000E+00 0.  1.
         14    1    3    3    0    0 -0.13920055745E+02  0.45062474458E+02 -0.28549771384E+03  0.28936713560E+03  0.00000000000E+00 0. -1.
        -13    1    4    4    0    0  0.30693134490E+02  0.17481720007E+02 -0.70534559104E+01  0.36019859515E+02  0.00000000000E+00 0.  1.
         13    1    4    4    0    0  0.51941847093E+01 -0.26870269098E+02 -0.13019771957E+03  0.13304298966E+03  0.00000000000E+00 0. -1.
         -2    1    1    2    0  502 -0.45073250444E+02 -0.25710580144E+02 -0.12938945013E+03  0.13940682064E+03  0.00000000000E+00 0.  1.
<scales pt_clust_5="13000.00000" pt_clust_6="13000.00000" pt_clust_7="13000.00000" pt_clust_8="13000.00000" pt_clust_9="51.89060"></scales>
<clustering>
<clus scale="   51.891">  1  9  2 -1</clus>
<clus scale="   80.070">  5  6 -1 -1</clus>
<clus scale="   84.924">  2  5  1 -1</clus>
<clus scale="   91.479">  7  8 -1 -1</clus>
<clus scale="   51.891">  1  5  2 -1</clus>
</clustering>
</event>
<event>
 9    2  0.1033155E-004  0.1309437E+03  0.7546771E-02  0.1229005E+00
         21   -1    0    0  501  502  0.00000000000E+00  0.00000000000E+00  0.49818942782E+02  0.49818942782E+02  0.00000000000E+00 0.  1.
          2   -1    0    0  502    0 -0.00000000000E+00 -0.00000000000E+00 -0.53455927215E+03  0.53455927215E+03  0.00000000000E+00 0. -1.
         24    2    1    2    0    0  0.18111779029E+02 -0.10076142039E+03 -0.33803478260E+03  0.36206017789E+03  0.79618828082E+02 0.  0.
         23    2    1    2    0    0 -0.21572997289E+02  0.76757656855E+02 -0.15498741574E+03  0.19669090201E+03  0.91154154044E+02 0.  0.
        -13    1    3    3    0    0  0.65337500625E+00 -0.92239899409E+02 -0.32690736373E+03  0.33967197471E+03  0.00000000000E+00 0.  1.
         14    1    3    3    0    0  0.17458404022E+02 -0.85215209852E+01 -0.11127418872E+02  0.22388203181E+02  0.00000000000E+00 0. -1.
        -13    1    4    4    0    0 -0.34477767416E+02 -0.19961149147E+01 -0.20085495099E+02  0.39951571109E+02  0.00000000000E+00 0.  1.
         13    1    4    4    0    0  0.12904770127E+02  0.78753771770E+02 -0.13490192064E+03  0.15673933090E+03  0.00000000000E+00 0. -1.
          1    1    1    2  501    0  0.34612182604E+01  0.24003763539E+02  0.82818689764E+01  0.25627135026E+02  0.00000000000E+00 0. -1.
<scales pt_clust_5="13000.00000" pt_clust_6="13000.00000" pt_clust_7="13000.00000" pt_clust_8="13000.00000" pt_clust_9="24.25202"></scales>
<clustering>
<clus scale="   24.252">  1  9  2 -1</clus>
<clus scale="   79.619">  5  6 -1 -1</clus>
<clus scale="   91.154">  7  8 -1 -1</clus>
<clus scale="  123.192">  2  5  1 -1</clus>
<clus scale="   24.252">  1  5  2 -1</clus>
</clustering>
</event>
<event>
 9    2  0.1033155E-004  0.1103027E+03  0.7546771E-02  0.1261389E+00
         21   -1    0    0  501  502  0.00000000000E+00  0.00000000000E+00  0.74272624375E+02  0.74272624375E+02  0.00000000000E+00 0. -1.
          2   -1    0    0  502    0 -0.00000000000E+00 -0.00000000000E+00 -0.22305626234E+03  0.22305626234E+03  0.00000000000E+00 0. -1.
         23    2    1    2    0    0  0.48903551501E+02  0.24637823658E+02 -0.54905814486E+02  0.11614637749E+03  0.86468218651E+02 0.  0.
         24    2    1    2    0    0 -0.63691597499E+02 -0.56951849136E+02 -0.65766850339E+02  0.13587125943E+03  0.82677613793E+02 0.  0.
        -11    1    4    4    0    0 -0.30512742705E+02  0.16512264023E+02 -0.52836924570E+01  0.35094155305E+02  0.00000000000E+00 0.  1.
         12    1    4    4    0    0 -0.33178854794E+02 -0.73464113159E+02 -0.60483157882E+02  0.10077710412E+03  0.00000000000E+00 0. -1.
        -13    1    3    3    0    0  0.16605768291E+02  0.38617777685E+02  0.91850701979E+01  0.43028476715E+02  0.00000000000E+00 0.  1.
         13    1    3    3    0    0  0.32297783210E+02 -0.13979954027E+02 -0.64090884684E+02  0.73117900780E+02  0.00000000000E+00 0. -1.
          1    1    1    2  501    0  0.14788045998E+02  0.32314025478E+02 -0.28110973137E+02  0.45311249792E+02  0.00000000000E+00 0. -1.
<scales pt_clust_5="13000.00000" pt_clust_6="13000.00000" pt_clust_7="13000.00000" pt_clust_8="13000.00000" pt_clust_9="35.53708"></scales>
<clustering>
<clus scale="   35.537">  1  9  2 -1</clus>
<clus scale="   82.678">  5  6 -1 -1</clus>
<clus scale="   86.468">  7  8 -1 -1</clus>
<clus scale="  107.357">  1  5  2 -1</clus>
<clus scale="   35.537">  1  5  2 -1</clus>
</clustering>
</event>
<event>
 9    2  0.1033155E-004  0.1544907E+03  0.7546771E-02  0.1202787E+00
          2   -1    0    0  502    0 -0.00000000000E+00  0.00000000000E+00  0.71775418979E+03  0.71775418979E+03  0.00000000000E+00 0. -1.
         21   -1    0    0  501  502  0.00000000000E+00 -0.00000000000E+00 -0.94036611127E+02  0.94036611127E+02  0.00000000000E+00 0. -1.
         24    2    1    2    0    0 -0.10012201243E+03 -0.21427752513E+02  0.33989666957E+03  0.36411799861E+03  0.81046930726E+02 0.  0.
         23    2    1    2    0    0 -0.75229132391E+02 -0.65736202361E+02  0.53291898934E+02  0.14520097957E+03  0.90898995134E+02 0.  0.
        -13    1    3    3    0    0 -0.58419582814E+02  0.26742404499E+02  0.13434165641E+03  0.14891502443E+03  0.00000000000E+00 0.  1.
         14    1    3    3    0    0 -0.41702429617E+02 -0.48170157011E+02  0.20555501315E+03  0.21520297418E+03  0.00000000000E+00 0. -1.
        -13    1    4    4    0    0  0.16684184211E+02 -0.16468139634E+02 -0.73473551086E+01  0.24567158013E+02  0.00000000000E+00 0.  1.
         13    1    4    4    0    0 -0.91913316602E+02 -0.49268062727E+02  0.60639254043E+02  0.12063382156E+03  0.00000000000E+00 0. -1.
          1    1    1    2  501    0  0.17535114482E+03  0.87163954874E+02  0.23052901016E+03  0.30247182273E+03  0.00000000000E+00 0. -1.
<scales pt_clust_5="13000.00000" pt_clust_6="13000.00000" pt_clust_7="13000.00000" pt_clust_8="13000.00000" pt_clust_9="124.91905"></scales>
<clustering>
<clus scale="   81.047">  5  6 -1 -1</clus>
<clus scale="   90.899">  7  8 -1 -1</clus>
<clus scale="  130.584">  1  5  2 -1</clus>
<clus scale="  124.919">  2  9  1 -1</clus>
<clus scale="  124.919">  2  5  1 -1</clus>
</clustering>
</event>
<event>
 9    2  0.1033155E-004  0.9598519E+02  0.7546771E-02  0.1298841E+00
         21   -1    0    0  501  502  0.00000000000E+00  0.00000000000E+00  0.92419309370E+02  0.92419309370E+02  0.00000000000E+00 0. -1.
          4   -1    0    0  502    0 -0.00000000000E+00 -0.00000000000E+00 -0.20987593178E+03  0.20987593178E+03  0.00000000000E+00 0. -1.
         23    2    1    2    0    0 -0.15479210978E+02 -0.17054054128E+01 -0.73823948418E+02  0.12006815116E+03  0.93401665846E+02 0.  0.
         24    2    1    2    0    0 -0.23662034070E+02 -0.44607147548E+02 -0.70596522535E+02  0.11586491135E+03  0.76753626756E+02 0.  0.
        -13    1    4    4    0    0  0.24209488485E+01  0.20338508801E+02 -0.25068685313E+02  0.32372131794E+02  0.00000000000E+00 0.  1.
         14    1    4    4    0    0 -0.26082982919E+02 -0.64945656349E+02 -0.45527837222E+02  0.83492779560E+02  0.00000000000E+00 0. -1.
        -11    1    3    3    0    0  0.13535551570E+02  0.15357582038E+02  0.14804277280E+02  0.25263275879E+02  0.00000000000E+00 0. -1.
         11    1    3    3    0    0 -0.29014762549E+02 -0.17062987451E+02 -0.88628225698E+02  0.94804875280E+02  0.00000000000E+00 0.  1.
          3    1    1    2  501    0  0.39141245048E+02  0.46312552961E+02  0.26963848541E+02  0.66362178640E+02  0.00000000000E+00 0. -1.
<scales pt_clust_5="13000.00000" pt_clust_6="13000.00000" pt_clust_7="13000.00000" pt_clust_8="13000.00000" pt_clust_9="60.63736"></scales>
<clustering>
<clus scale="   60.637">  1  9  2 -1</clus>
<clus scale="   76.754">  5  6 -1 -1</clus>
<clus scale="   79.877">  1  5  2 -1</clus>
<clus scale="   93.402">  7  8 -1 -1</clus>
<clus scale="   60.637">  1  5  2 -1</clus>
</clustering>
</event>
<event>
 9    2  0.1033155E-004  0.1243270E+03  0.7546771E-02  0.1245210E+00
          2   -1    0    0  502    0 -0.00000000000E+00  0.00000000000E+00  0.62098076748E+03  0.62098076748E+03  0.00000000000E+00 0. -1.
         21   -1    0    0  501  502  0.00000000000E+00 -0.00000000000E+00 -0.29422643209E+02  0.29422643209E+02  0.00000000000E+00 0.  1.
         24    2    1    2    0    0  0.52873921015E+01 -0.60945719014E+02  0.25542879567E+03  0.27439078700E+03  0.79398344774E+02 0.  0.
         23    2    1    2    0    0 -0.28389005887E+02  0.72751830188E+02  0.21217741766E+03  0.24937477371E+03  0.10521291151E+03 0.  0.
        -13    1    3    3    0    0 -0.31952686093E+02 -0.20504988924E+02  0.15824024866E+03  0.16273108190E+03  0.00000000000E+00 0.  1.
         14    1    3    3    0    0  0.37240078195E+02 -0.40440730090E+02  0.97188547006E+02  0.11165970510E+03  0.00000000000E+00 0. -1.
        -11    1    4    4    0    0 -0.92133507023E+01 -0.26549497763E+02  0.64818455203E+02  0.70648381422E+02  0.00000000000E+00 0. -1.
         11    1    4    4    0    0 -0.19175655185E+02  0.99301327951E+02  0.14735896246E+03  0.17872639229E+03  0.00000000000E+00 0.  1.
          1    1    1    2  501    0  0.23101613785E+02 -0.11806111174E+02  0.12395191093E+03  0.12663784997E+03  0.00000000000E+00 0. -1.
<scales pt_clust_5="13000.00000" pt_clust_6="13000.00000" pt_clust_7="13000.00000" pt_clust_8="13000.00000" pt_clust_9="25.94358"></scales>
<clustering>
<clus scale="   25.944">  2  9  1 -1</clus>
<clus scale="   79.398">  5  6 -1 -1</clus>
<clus scale="  103.400">  1  5  2 -1</clus>
<clus scale="  105.213">  7  8 -1 -1</clus>
<clus scale="   25.944">  2  5  1 -1</clus>
</clustering>
</event>
<event>
 9    2  0.1033155E-004  0.9606264E+02  0.7546771E-02  0.1297617E+00
         21   -1    0    0  501  502  0.00000000000E+00  0.00000000000E+00  0.50255789234E+03  0.50255789234E+03  0.00000000000E+00 0.  1.
          2   -1    0    0  502    0 -0.00000000000E+00 -0.00000000000E+00 -0.30143428433E+03  0.30143428433E+03  0.00000000000E+00 0. -1.
         24    2    1    2    0    0  0.16528962081E+02 -0.96366381988E+01 -0.28018453947E+03  0.29184284974E+03  0.79390184546E+02 0.  0.
         23    2    1    2    0    0 -0.82961343889E+01 -0.55013389781E+02  0.31823784352E+03  0.33653802433E+03  0.94272041852E+02 0.  0.
        -13    1    3    3    0    0 -0.11860121007E+02 -0.35226151859E+02 -0.82342083290E+02  0.90342475756E+02  0.00000000000E+00 0.  1.
         14    1    3    3    0    0  0.28389083088E+02  0.25589513660E+02 -0.19784245618E+03  0.20150037398E+03  0.00000000000E+00 0. -1.
        -13    1    4    4    0    0  0.38463774000E+02 -0.14318736942E+02  0.18624979249E+03  0.19071830888E+03  0.00000000000E+00 0. -1.
         13    1    4    4    0    0 -0.46759908389E+02 -0.40694652839E+02  0.13198805103E+03  0.14581971546E+03  0.00000000000E+00 0.  1.
          1    1    1    2  501    0 -0.82328276921E+01  0.64650027980E+02  0.16307030396E+03  0.17561130261E+03  0.00000000000E+00 0. -1.
<scales pt_clust_5="13000.00000" pt_clust_6="13000.00000" pt_clust_7="13000.00000" pt_clust_8="13000.00000" pt_clust_9="65.17212"></scales>
<clustering>
<clus scale="   65.172">  1  9  2 -1</clus>
<clus scale="   79.390">  5  6 -1 -1</clus>
<clus scale="   81.508">  2  5  1 -1</clus>
<clus scale="   94.272">  7  8 -1 -1</clus>
<clus scale="   65.172">  1  5  2 -1</clus>
</clustering>
</event>
<event>
 9    2  0.1033155E-004  0.9620694E+02  0.7546771E-02  0.1293852E+00
         21   -1    0    0  501  502  0.00000000000E+00  0.00000000000E+00  0.15702180468E+03  0.15702180468E+03  0.00000000000E+00 0.  1.
          2   -1    0    0  502    0 -0.00000000000E+00 -0.00000000000E+00 -0.96949395177E+02  0.96949395177E+02  0.00000000000E+00 0. -1.
         24    2    1    2    0    0  0.22165104306E+02 -0.16406097986E+02  0.37334762287E+02  0.93184688638E+02  0.80802535984E+02 0.  0.
         23    2    1    2    0    0 -0.44610798708E+02 -0.11567877486E+02  0.52275184473E+02  0.11432342255E+03  0.90626766915E+02 0.  0.
        -11    1    3    3    0    0  0.51645219811E+01 -0.43092619055E+02 -0.10824553767E+01  0.43414488526E+02  0.00000000000E+00 0.  1.
         12    1    3    3    0    0  0.17000582325E+02  0.26686521069E+02  0.38417217664E+02  0.49770200112E+02  0.00000000000E+00 0. -1.
        -13    1    4    4    0    0  0.74848992679E+00 -0.20089035822E+02  0.63683903731E+02  0.66781503366E+02  0.00000000000E+00 0.  1.
         13    1    4    4    0    0 -0.45359288635E+02  0.85211583360E+01 -0.11408719257E+02  0.47541919187E+02  0.00000000000E+00 0. -1.
          1    1    1    2  501    0  0.22445694402E+02  0.27973975472E+02 -0.29537537260E+02  0.46463088664E+02  0.00000000000E+00 0. -1.
<scales pt_clust_5="13000.00000" pt_clust_6="13000.00000" pt_clust_7="13000.00000" pt_clust_8="13000.00000" pt_clust_9="35.86577"></scales>
<clustering>
<clus scale="   35.866">  1  9  2 -1</clus>
<clus scale="   80.803">  5  6 -1 -1</clus>
<clus scale="   87.015">  2  5  1 -1</clus>
<clus scale="   90.627">  7  8 -1 -1</clus>
<clus scale="   35.866">  1  5  2 -1</clus>
</clustering>
</event>
<event>
 9    2  0.1033155E-004  0.9343585E+02  0.7546771E-02  0.1302634E+00
         21   -1    0    0  501  502  0.00000000000E+00  0.00000000000E+00  0.36060665100E+03  0.36060665100E+03  0.00000000000E+00 0. -1.
          2   -1    0    0  502    0 -0.00000000000E+00 -0.00000000000E+00 -0.38568555980E+02  0.38568555980E+02  0.00000000000E+00 0. -1.
         24    2    1    2    0    0 -0.69769196706E+01 -0.81273733181E+01  0.32635881802E+02  0.86705320873E+02  0.79611433109E+02 0.  0.
         23    2    1    2    0    0  0.27004995162E+02  0.63235876229E+01  0.22065913362E+03  0.24084594847E+03  0.92450311617E+02 0.  0.
        -13    1    3    3    0    0 -0.36592310911E+02 -0.19852549061E+02  0.75248308475E+00  0.41637569007E+02  0.00000000000E+00 0.  1.
         14    1    3    3    0    0  0.29615391240E+02  0.11725175743E+02  0.31883398717E+02  0.45067751866E+02  0.00000000000E+00 0. -1.
        -13    1    4    4    0    0 -0.68693008535E+01 -0.36227243974E+02  0.52838357267E+02  0.64432076630E+02  0.00000000000E+00 0.  1.
         13    1    4    4    0    0  0.33874296015E+02  0.42550831597E+02  0.16782077636E+03  0.17641387184E+03  0.00000000000E+00 0. -1.
          1    1    1    2  501    0 -0.20028075491E+02  0.18037856952E+01  0.68743079594E+02  0.71623937638E+02  0.00000000000E+00 0. -1.
<scales pt_clust_5="13000.00000" pt_clust_6="13000.00000" pt_clust_7="13000.00000" pt_clust_8="13000.00000" pt_clust_9="20.10914"></scales>
<clustering>
<clus scale="   20.109">  1  9  2 -1</clus>
<clus scale="   79.611">  5  6 -1 -1</clus>
<clus scale="   80.754">  2  5  1 -1</clus>
<clus scale="   92.450">  7  8 -1 -1</clus>
<clus scale="   20.109">  1  5  2 -1</clus>
</clustering>
</event>
<event>
 9    2  0.1033155E-004  0.1145784E+03  0.7546771E-02  0.1260230E+00
         21   -1    0    0  501  502  0.00000000000E+00  0.00000000000E+00  0.12878165420E+03  0.12878165420E+03  0.00000000000E+00 0. -1.
          4   -1    0    0  502    0 -0.00000000000E+00 -0.00000000000E+00 -0.35301029643E+03  0.35301029643E+03  0.00000000000E+00 0. -1.
         23    2    1    2    0    0  0.24761283599E+02 -0.66536107068E+02 -0.30703394708E+03  0.32838670138E+03  0.92346122147E+02 0.  0.
         24    2    1    2    0    0  0.11806416439E+02  0.52383828439E+02  0.47796218245E+02  0.10083986310E+03  0.70715928622E+02 0.  0.
        -11    1    4    4    0    0 -0.50278132670E+01  0.24216201514E+02  0.60726192625E+02  0.65569610284E+02  0.00000000000E+00 0.  1.
         12    1    4    4    0    0  0.16834229706E+02  0.28167626925E+02 -0.12929974381E+02  0.35270252818E+02  0.00000000000E+00 0. -1.
        -13    1    3    3    0    0 -0.17610993827E+01 -0.83640278678E+02 -0.19986476744E+03  0.21666730938E+03  0.00000000000E+00 0.  1.
         13    1    3    3    0    0  0.26522382981E+02  0.17104171610E+02 -0.10716917964E+03  0.11171939200E+03  0.00000000000E+00 0. -1.
          3    1    1    2  501    0 -0.36567700038E+02  0.14152278629E+02  0.35009086604E+02  0.52565386151E+02  0.00000000000E+00 0. -1.
<scales pt_clust_5="13000.00000" pt_clust_6="13000.00000" pt_clust_7="13000.00000" pt_clust_8="13000.00000" pt_clust_9="39.21076"></scales>
<clustering>
<clus scale="   39.211">  1  9  2 -1</clus>
<clus scale="   70.716">  5  6 -1 -1</clus>
<clus scale="   92.346">  7  8 -1 -1</clus>
<clus scale="   97.985">  1  5  2 -1</clus>
<clus scale="   39.211">  1  5  2 -1</clus>
</clustering>
</event>
<event>
 9    2  0.1033155E-004  0.1362928E+03  0.7546771E-02  0.1231929E+00
         21   -1    0    0  501  502  0.00000000000E+00  0.00000000000E+00  0.28625292994E+03  0.28625292994E+03  0.00000000000E+00 0. -1.
          2   -1    0    0  502    0 -0.00000000000E+00 -0.00000000000E+00 -0.33643687505E+03  0.33643687505E+03  0.00000000000E+00 0. -1.
         24    2    1    2    0    0 -0.11529262820E+02  0.62690275622E+02 -0.27135711651E+03  0.29019542249E+03  0.80719910770E+02 0.  0.
         23    2    1    2    0    0 -0.34095493587E+02  0.56911168245E+02  0.58679309923E+02  0.12563602809E+03  0.89105366767E+02 0.  0.
        -11    1    3    3    0    0 -0.13288531292E+02 -0.17366523824E+02 -0.43699404336E+02  0.48865316462E+02  0.00000000000E+00 0.  1.
         12    1    3    3    0    0  0.17592684720E+01  0.80056799446E+02 -0.22765771217E+03  0.24133010603E+03  0.00000000000E+00 0. -1.
        -11    1    4    4    0    0 -0.97759773464E+00  0.45669411327E+02 -0.11604945682E+02  0.47130940926E+02  0.00000000000E+00 0.  1.
         11    1    4    4    0    0 -0.33117895853E+02  0.11241756918E+02  0.70284255606E+02  0.78505087162E+02  0.00000000000E+00 0. -1.
          1    1    1    2  501    0  0.45624756407E+02 -0.11960144387E+03  0.16249386147E+03  0.20685835441E+03  0.00000000000E+00 0. -1.
<scales pt_clust_5="13000.00000" pt_clust_6="13000.00000" pt_clust_7="13000.00000" pt_clust_8="13000.00000" pt_clust_9="103.13084"></scales>
<clustering>
<clus scale="   80.720">  5  6 -1 -1</clus>
<clus scale="   89.105">  7  8 -1 -1</clus>
<clus scale="  102.853">  2  5  1 -1</clus>
<clus scale="  103.131">  1  9  2 -1</clus>
<clus scale="  103.131">  1  5  2 -1</clus>
</clustering>
</event>
<event>
 9    2  0.1033155E-004  0.9727750E+02  0.7546771E-02  0.1296157E+00
          2   -1    0    0  502    0 -0.00000000000E+00  0.00000000000E+00  0.22095366026E+03  0.22095366026E+03  0.00000000000E+00 0. -1.
         21   -1    0    0  501  502  0.00000000000E+00 -0.00000000000E+00 -0.85450919747E+02  0.85450919747E+02  0.00000000000E+00 0. -1.
         23    2    1    2    0    0 -0.17065334704E+02  0.10657051095E+02  0.14420650673E+03  0.17487708388E+03  0.96859070284E+02 0.  0.
         24    2    1    2    0    0 -0.86254400356E+01  0.14945428448E+02  0.21026770679E+02  0.84629653006E+02  0.80139185393E+02 0.  0.
        -13    1    4    4    0    0 -0.28407541840E+02 -0.19113949531E+02  0.28488907949E+02  0.44541546630E+02  0.00000000000E+00 0.  1.
         14    1    4    4    0    0  0.19782101805E+02  0.34059377979E+02 -0.74621372704E+01  0.40088106376E+02  0.00000000000E+00 0. -1.
        -13    1    3    3    0    0  0.18336172482E+02  0.10089804993E+02 -0.50077720707E+01  0.21519692544E+02  0.00000000000E+00 0.  1.
         13    1    3    3    0    0 -0.35401507186E+02  0.56724610173E+00  0.14921427880E+03  0.15335739133E+03  0.00000000000E+00 0. -1.
          1    1    1    2  501    0  0.25690774739E+02 -0.25602479543E+02 -0.29730536895E+02  0.46897843122E+02  0.00000000000E+00 0. -1.
<scales pt_clust_5="13000.00000" pt_clust_6="13000.00000" pt_clust_7="13000.00000" pt_clust_8="13000.00000" pt_clust_9="36.26986"></scales>
<clustering>
<clus scale="   36.270">  2  9  1 -1</clus>
<clus scale="   80.139">  5  6 -1 -1</clus>
<clus scale="   80.644">  2  5  1 -1</clus>
<clus scale="   96.859">  7  8 -1 -1</clus>
<clus scale="   36.270">  2  5  1 -1</clus>
</clustering>
</event>
<event>
 9    2  0.1033155E-004  0.1013706E+03  0.7546771E-02  0.1283189E+00
         -3   -1    0    0    0  501 -0.00000000000E+00  0.00000000000E+00  0.92209218682E+02  0.92209218682E+02  0.00000000000E+00 0.  1.
         21   -1    0    0  501  502  0.00000000000E+00 -0.00000000000E+00 -0.24780108511E+03  0.24780108511E+03  0.00000000000E+00 0. -1.
         23    2    1    2    0    0 -0.77477139105E+01  0.30005349061E+02  0.21343604032E+02  0.99669782722E+02  0.92293922398E+02 0.  0.
         24    2    1    2    0    0  0.53953751179E+01 -0.77051139915E+02 -0.98708220836E+02  0.14902599584E+03  0.80619143751E+02 0.  0.
        -11    1    4    4    0    0  0.38596786768E+02 -0.21157709297E+02 -0.24522737980E+02  0.50385764751E+02  0.00000000000E+00 0.  1.
         12    1    4    4    0    0 -0.33201411650E+02 -0.55893430618E+02 -0.74185482855E+02  0.98640231084E+02  0.00000000000E+00 0. -1.
        -11    1    3    3    0    0  0.23509388441E+02  0.25265542194E+02  0.47447517022E+02  0.58671167014E+02  0.00000000000E+00 0.  1.
         11    1    3    3    0    0 -0.31257102352E+02  0.47398068674E+01 -0.26103912990E+02  0.40998615707E+02  0.00000000000E+00 0. -1.
         -4    1    1    2    0  502  0.23523387926E+01  0.47045790854E+02 -0.78227249621E+02  0.91314525231E+02  0.00000000000E+00 0.  1.
<scales pt_clust_5="13000.00000" pt_clust_6="13000.00000" pt_clust_7="13000.00000" pt_clust_8="13000.00000" pt_clust_9="47.10456"></scales>
<clustering>
<clus scale="   47.105">  2  9  1 -1</clus>
<clus scale="   80.619">  5  6 -1 -1</clus>
<clus scale="   90.870">  2  5  1 -1</clus>
<clus scale="   92.294">  7  8 -1 -1</clus>
<clus scale="   47.105">  2  5  1 -1</clus>
</clustering>
</event>
<event>
 9    2  0.1033155E-004  0.1102721E+03  0.7546771E-02  0.1263248E+00
         21   -1    0    0  501  502  0.00000000000E+00  0.00000000000E+00  0.45175018241E+02  0.45175018241E+02  0.00000000000E+00 0. -1.
          4   -1    0    0  502    0 -0.00000000000E+00 -0.00000000000E+00 -0.38921623923E+03  0.38921623923E+03  0.00000000000E+00 0. -1.
         24    2    1    2    0    0 -0.29771476066E+02 -0.51692059116E+02 -0.17427086980E+03  0.20102545755E+03  0.80513904141E+02 0.  0.
         23    2    1    2    0    0  0.77156419037E+01  0.80408360570E+02 -0.10689619533E+03  0.16081068111E+03  0.88928302610E+02 0.  0.
        -11    1    3    3    0    0 -0.53946799410E+02 -0.16642036439E+02 -0.83893326649E+02  0.10112024921E+03  0.00000000000E+00 0.  1.
         12    1    3    3    0    0  0.24175323344E+02 -0.35050022676E+02 -0.90377543149E+02  0.99905208343E+02  0.00000000000E+00 0. -1.
        -13    1    4    4    0    0 -0.16225860950E+02  0.82155094994E+02 -0.46426559189E+02  0.95750527911E+02  0.00000000000E+00 0. -1.
         13    1    4    4    0    0  0.23941502853E+02 -0.17467344240E+01 -0.60469636138E+02  0.65060153202E+02  0.00000000000E+00 0.  1.
          3    1    1    2  501    0  0.22055834162E+02 -0.28716301455E+02 -0.62874155866E+02  0.72555118811E+02  0.00000000000E+00 0. -1.
<scales pt_clust_5="13000.00000" pt_clust_6="13000.00000" pt_clust_7="13000.00000" pt_clust_8="13000.00000" pt_clust_9="36.20894"></scales>
<clustering>
<clus scale="   36.209">  1  9  2 -1</clus>
<clus scale="   80.514">  5  6 -1 -1</clus>
<clus scale="   88.928">  7  8 -1 -1</clus>
<clus scale="  103.606">  2  5  1 -1</clus>
<clus scale="   36.209">  1  5  2 -1</clus>
</clustering>
</event>
<event>
 9    2  0.1033155E-004  0.9388711E+02  0.7546771E-02  0.1297858E+00
         21   -1    0    0  501  502  0.00000000000E+00  0.00000000000E+00  0.17893661557E+03  0.17893661557E+03  0.00000000000E+00 0. -1.
          2   -1    0    0  502    0 -0.00000000000E+00 -0.00000000000E+00 -0.10695760329E+03  0.10695760329E+03  0.00000000000E+00 0. -1.
         24    2    1    2    0    0  0.33951241778E+02 -0.66572462289E+01 -0.87956061087E+01  0.91357390012E+02  0.84094020461E+02 0.  0.
         23    2    1    2    0    0  0.11456810915E+02 -0.48432714731E+02  0.34855326258E+02  0.10965234006E+03  0.91278450571E+02 0.  0.
        -11    1    3    3    0    0  0.69894759542E+01  0.25244829959E+02  0.26064150417E+02  0.36952593289E+02  0.00000000000E+00 0.  1.
         12    1    3    3    0    0  0.26961765824E+02 -0.31902076188E+02 -0.34859756526E+02  0.54404796723E+02  0.00000000000E+00 0. -1.
        -13    1    4    4    0    0  0.23272843276E+02  0.73358875573E-02  0.51964667869E+02  0.56938141826E+02  0.00000000000E+00 0. -1.
         13    1    4    4    0    0 -0.11816032360E+02 -0.48440050619E+02 -0.17109341610E+02  0.52714198230E+02  0.00000000000E+00 0.  1.
          1    1    1    2  501    0 -0.45408052693E+02  0.55089960960E+02  0.45919292128E+02  0.84884488792E+02  0.00000000000E+00 0. -1.
<scales pt_clust_5="13000.00000" pt_clust_6="13000.00000" pt_clust_7="13000.00000" pt_clust_8="13000.00000" pt_clust_9="71.39184"></scales>
<clustering>
<clus scale="   71.392">  1  9  2 -1</clus>
<clus scale="   84.094">  5  6 -1 -1</clus>
<clus scale="   86.919">  2  5  1 -1</clus>
<clus scale="   91.278">  7  8 -1 -1</clus>
<clus scale="   71.392">  1  5  2 -1</clus>
</clustering>
</event>
<event>
 9    2  0.1033155E-004  0.1155988E+03  0.7546771E-02  0.1254461E+00
         -1   -1    0    0    0  501 -0.00000000000E+00  0.00000000000E+00  0.37605264148E+03  0.37605264148E+03  0.00000000000E+00 0.  1.
         21   -1    0    0  501  502  0.00000000000E+00 -0.00000000000E+00 -0.74140840013E+02  0.74140840013E+02  0.00000000000E+00 0. -1.
         24    2    1    2    0    0 -0.51199181415E+02 -0.79909537919E+02  0.17095904669E+03  0.21110252303E+03  0.79563742715E+02 0.  0.
         23    2    1    2    0    0 -0.94490652514E+01  0.30501918484E+02  0.12507517925E+02  0.97145205396E+02  0.90890599412E+02 0.  0.
        -11    1    3    3    0    0 -0.36299136710E+02 -0.80311525617E+01  0.10859112323E+03  0.11477873837E+03  0.00000000000E+00 0.  1.
         12    1    3    3    0    0 -0.14900044705E+02 -0.71878385358E+02  0.62367923460E+02  0.96323784656E+02  0.00000000000E+00 0. -1.
        -13    1    4    4    0    0  0.13640582542E+02 -0.18824041656E+02  0.31778511135E+02  0.39373643549E+02  0.00000000000E+00 0.  1.
         13    1    4    4    0    0 -0.23089647794E+02  0.49325960140E+02 -0.19270993211E+02  0.57771561847E+02  0.00000000000E+00 0. -1.
         -2    1    1    2    0  502  0.60648246666E+02  0.49407619435E+02  0.11844523685E+03  0.14194575307E+03  0.00000000000E+00 0.  1.
<scales pt_clust_5="13000.00000" pt_clust_6="13000.00000" pt_clust_7="13000.00000" pt_clust_8="13000.00000" pt_clust_9="78.22614"></scales>
<clustering>
<clus scale="   78.226">  2  9  1 -1</clus>
<clus scale="   79.564">  5  6 -1 -1</clus>
<clus scale="   90.891">  7  8 -1 -1</clus>
<clus scale="  106.922">  1  5  2 -1</clus>
<clus scale="   78.226">  2  5  1 -1</clus>
</clustering>
</event>
<event>
 9    2  0.1033155E-004  0.8981737E+02  0.7546771E-02  0.1304845E+00
         -1   -1    0    0    0  501 -0.00000000000E+00  0.00000000000E+00  0.15281802304E+03  0.15281802304E+03  0.00000000000E+00 0.  1.
         21   -1    0    0  501  502  0.00000000000E+00 -0.00000000000E+00 -0.82581236319E+02  0.82581236319E+02  0.00000000000E+00 0.  1.
         23    2    1    2    0    0  0.13805096589E+02 -0.18245490857E+02  0.40606357815E+02  0.96516645215E+02  0.84516908841E+02 0.  0.
         24    2    1    2    0    0 -0.47336967828E+02 -0.16527219186E+01  0.31982113730E+02  0.99820411410E+02  0.81839714824E+02 0.  0.
        -11    1    4    4    0    0 -0.44809896411E+02 -0.33888579497E+02  0.36753439915E+02  0.67135519528E+02  0.00000000000E+00 0.  1.
         12    1    4    4    0    0 -0.25270714173E+01  0.32235857579E+02 -0.47713261854E+01  0.32684891882E+02  0.00000000000E+00 0. -1.
        -13    1    3    3    0    0  0.53741176866E+01 -0.44946290986E+02 -0.22519534054E+01  0.45322417284E+02  0.00000000000E+00 0.  1.
         13    1    3    3    0    0  0.84309789021E+01  0.26700800129E+02  0.42858311221E+02  0.51194227931E+02  0.00000000000E+00 0. -1.
         -2    1    1    2    0  502  0.33531871240E+02  0.19898212776E+02 -0.23516848294E+01  0.39062202729E+02  0.00000000000E+00 0.  1.
<scales pt_clust_5="13000.00000" pt_clust_6="13000.00000" pt_clust_7="13000.00000" pt_clust_8="13000.00000" pt_clust_9="38.99135"></scales>
<clustering>
<clus scale="   38.991">  2  9  1 -1</clus>
<clus scale="   81.840">  5  6 -1 -1</clus>
<clus scale="   84.517">  7  8 -1 -1</clus>
<clus scale="   87.303">  2  5  1 -1</clus>
<clus scale="   38.991">  2  5  1 -1</clus>
</clustering>
</event>
<event>
 9    2  0.1033155E-004  0.9097569E+02  0.7546771E-02  0.1307120E+00
         21   -1    0    0  501  502  0.00000000000E+00  0.00000000000E+00  0.23229806412E+03  0.23229806412E+03  0.00000000000E+00 0.  1.
         -1   -1    0    0    0  501 -0.00000000000E+00 -0.00000000000E+00 -0.14874043846E+03  0.14874043846E+03  0.00000000000E+00 0.  1.
         24    2    1    2    0    0  0.17248694577E+02 -0.54662043140E+01 -0.91640912164E+02  0.12312648746E+03  0.80216446430E+02 0.  0.
         23    2    1    2    0    0  0.32585427444E+02 -0.19141669557E+02  0.30386175144E+02  0.10280041800E+03  0.90644319763E+02 0.  0.
        -11    1    3    3    0    0  0.32645389643E+02 -0.75662752766E+01 -0.10001131020E+03  0.10547621606E+03  0.00000000000E+00 0.  1.
         12    1    3    3    0    0 -0.15396695066E+02  0.21000709625E+01  0.83703980398E+01  0.17650271396E+02  0.00000000000E+00 0. -1.
        -13    1    4    4    0    0 -0.25391738635E+02  0.14723650035E+02  0.62876514786E+00  0.29358501441E+02  0.00000000000E+00 0. -1.
         13    1    4    4    0    0  0.57977166079E+02 -0.33865319592E+02  0.29757409996E+02  0.73441916555E+02  0.00000000000E+00 0.  1.
         -2    1    1    2    0  502 -0.49834122021E+02  0.24607873871E+02  0.14481236269E+03  0.15511159712E+03  0.00000000000E+00 0.  1.
<scales pt_clust_5="13000.00000" pt_clust_6="13000.00000" pt_clust_7="13000.00000" pt_clust_8="13000.00000" pt_clust_9="55.57866"></scales>
<clustering>
<clus scale="   55.579">  1  9  2 -1</clus>
<clus scale="   80.216">  5  6 -1 -1</clus>
<clus scale="   80.591">  2  5  1 -1</clus>
<clus scale="   90.644">  7  8 -1 -1</clus>
<clus scale="   55.579">  1  5  2 -1</clus>
</clustering>
</event>
<event>
 9    2  0.1033155E-004  0.2194233E+03  0.7546771E-02  0.1135043E+00
         21   -1    0    0  501  502  0.00000000000E+00  0.00000000000E+00  0.43024544408E+02  0.43024544408E+02  0.00000000000E+00 0. -1.
          2   -1    0    0  502    0 -0.00000000000E+00 -0.00000000000E+00 -0.18657921384E+04  0.18657921384E+04  0.00000000000E+00 0. -1.
         23    2    1    2    0    0 -0.15363081004E+03  0.46268031615E+01 -0.44168513290E+03  0.47634944566E+03  0.90549459705E+02 0.  0.
         24    2    1    2    0    0  0.25307187372E+03 -0.35298409482E+02 -0.84840116359E+03  0.88971624701E+03  0.80741035684E+02 0.  0.
        -11    1    4    4    0    0  0.26001060557E+02 -0.29350421878E+02 -0.93727457232E+02  0.10159891069E+03  0.00000000000E+00 0.  1.
         12    1    4    4    0    0  0.22707081317E+03 -0.59479876033E+01 -0.75467370636E+03  0.78811733632E+03  0.00000000000E+00 0. -1.
        -13    1    3    3    0    0 -0.12860421758E+03  0.25478643112E+02 -0.41171511143E+03  0.43208510622E+03  0.00000000000E+00 0. -1.
         13    1    3    3    0    0 -0.25026592455E+02 -0.20851839951E+02 -0.29970021473E+02  0.44264339443E+02  0.00000000000E+00 0.  1.
          1    1    1    2  501    0 -0.99441063685E+02  0.30671606320E+02 -0.53268129746E+03  0.54275099009E+03  0.00000000000E+00 0. -1.
<scales pt_clust_5="13000.00000" pt_clust_6="13000.00000" pt_clust_7="13000.00000" pt_clust_8="13000.00000" pt_clust_9="104.06384"></scales>
<clustering>
<clus scale="   80.741">  5  6 -1 -1</clus>
<clus scale="   90.549">  7  8 -1 -1</clus>
<clus scale="  104.064">  1  9  2 -1</clus>
<clus scale="  215.561">  1  5  2 -1</clus>
<clus scale="  104.064">  1  5  2 -1</clus>
</clustering>
</event>
<event>
 9    2  0.1033155E-004  0.9759201E+02  0.7546771E-02  0.1292544E+00
         21   -1    0    0  501  502  0.00000000000E+00  0.00000000000E+00  0.18788674763E+03  0.18788674763E+03  0.00000000000E+00 0. -1.
          2   -1    0    0  502    0 -0.00000000000E+00 -0.00000000000E+00 -0.17016439269E+03  0.17016439269E+03  0.00000000000E+00 0. -1.
         24    2    1    2    0    0  0.13404992429E+02  0.28618762937E+02 -0.97178090498E+02  0.12856185116E+03  0.78011799661E+02 0.  0.
         23    2    1    2    0    0 -0.56543112268E+02 -0.17669044374E+02  0.26799109256E+01  0.10876546349E+03  0.91177987756E+02 0.  0.
        -13    1    3    3    0    0  0.63333552821E+01 -0.27074717761E+02 -0.36684790057E+02  0.46031788500E+02  0.00000000000E+00 0.  1.
         14    1    3    3    0    0  0.70716371466E+01  0.55693480698E+02 -0.60493300440E+02  0.82530062658E+02  0.00000000000E+00 0. -1.
        -13    1    4    4    0    0 -0.29041369839E+02  0.37051380989E+02 -0.35297283556E+01  0.47208738360E+02  0.00000000000E+00 0. -1.
         13    1    4    4    0    0 -0.27501742429E+02 -0.54720425363E+02  0.62096392812E+01  0.61556725128E+02  0.00000000000E+00 0.  1.
          1    1    1    2  501    0  0.43138119839E+02 -0.10949718563E+02  0.11222053451E+03  0.12072382567E+03  0.00000000000E+00 0. -1.
<scales pt_clust_5="13000.00000" pt_clust_6="13000.00000" pt_clust_7="13000.00000" pt_clust_8="13000.00000" pt_clust_9="44.50611"></scales>
<clustering>
<clus scale="   44.506">  1  9  2 -1</clus>
<clus scale="   78.012">  5  6 -1 -1</clus>
<clus scale="   85.420">  2  5  1 -1</clus>
<clus scale="   91.178">  7  8 -1 -1</clus>
<clus scale="   44.506">  1  5  2 -1</clus>
</clustering>
</event>
<event>
 9    2  0.1033155E-004  0.8474197E+02  0.7546771E-02  0.1316804E+00
         21   -1    0    0  501  502  0.00000000000E+00  0.00000000000E+00  0.11837153696E+03  0.11837153696E+03  0.00000000000E+00 0.  1.
         -3   -1    0    0    0  501 -0.00000000000E+00 -0.00000000000E+00 -0.18076695706E+03  0.18076695706E+03  0.00000000000E+00 0.  1.
         24    2    1    2    0    0 -0.22679918819E+02  0.11004935754E+02 -0.12982048946E+03  0.15487557563E+03  0.80607674055E+02 0.  0.
         23    2    1    2    0    0  0.28706442413E+01 -0.19036475640E+02  0.11914530177E+02  0.84779030215E+02  0.81700060781E+02 0.  0.
        -11    1    3    3    0    0 -0.27636388373E+02 -0.11227547691E+02 -0.12865454047E+03  0.13206747734E+03  0.00000000000E+00 0.  1.
         12    1    3    3    0    0  0.49564695535E+01  0.22232483446E+02 -0.11659489919E+01  0.22808098291E+02  0.00000000000E+00 0. -1.
        -11    1    4    4    0    0 -0.14539330898E+02 -0.44023947399E+02  0.23766660859E+02  0.52099465025E+02  0.00000000000E+00 0.  1.
         11    1    4    4    0    0  0.17409975139E+02  0.24987471759E+02 -0.11852130682E+02  0.32679565190E+02  0.00000000000E+00 0. -1.
         -4    1    1    2    0  502  0.19809274578E+02  0.80315398852E+01  0.55510539174E+02  0.59483888168E+02  0.00000000000E+00 0.  1.
<scales pt_clust_5="13000.00000" pt_clust_6="13000.00000" pt_clust_7="13000.00000" pt_clust_8="13000.00000" pt_clust_9="21.37552"></scales>
<clustering>
<clus scale="   21.376">  1  9  2 -1</clus>
<clus scale="   80.608">  5  6 -1 -1</clus>
<clus scale="   81.700">  7  8 -1 -1</clus>
<clus scale="   83.689">  2  5  1 -1</clus>
<clus scale="   21.376">  1  5  2 -1</clus>
</clustering>
</event>
<event>
 9    2  0.1033155E-004  0.1030650E+03  0.7546771E-02  0.1279960E+00
         21   -1    0    0  501  502  0.00000000000E+00  0.00000000000E+00  0.49192959847E+02  0.49192959847E+02  0.00000000000E+00 0. -1.
          4   -1    0    0  502    0 -0.00000000000E+00 -0.00000000000E+00 -0.46938053166E+03  0.46938053166E+03  0.00000000000E+00 0. -1.
         24    2    1    2    0    0  0.61957976853E+01  0.11531000803E+02 -0.11668261803E+03  0.14206057634E+03  0.79968882142E+02 0.  0.
         23    2    1    2    0    0 -0.83124246291E+02 -0.27545150701E+02 -0.25251458651E+03  0.28284084486E+03  0.92557827711E+02 0.  0.
        -13    1    3    3    0    0  0.84629131585E+01  0.25868086551E+02 -0.12318464631E+03  0.12615560189E+03  0.00000000000E+00 0.  1.
         14    1    3    3    0    0 -0.22671154732E+01 -0.14337085747E+02  0.65020282871E+01  0.15904974446E+02  0.00000000000E+00 0. -1.
        -11    1    4    4    0    0 -0.96239625478E+01 -0.38645394779E+02 -0.35155086311E+02  0.53122192032E+02  0.00000000000E+00 0.  1.
         11    1    4    4    0    0 -0.73500283743E+02  0.11100244078E+02 -0.21735950020E+03  0.22971865283E+03  0.00000000000E+00 0. -1.
          3    1    1    2  501    0  0.76928448605E+02  0.16014149897E+02 -0.50990367276E+02  0.93672070313E+02  0.00000000000E+00 0. -1.
<scales pt_clust_5="13000.00000" pt_clust_6="13000.00000" pt_clust_7="13000.00000" pt_clust_8="13000.00000" pt_clust_9="78.57760"></scales>
<clustering>
<clus scale="   78.578">  1  9  2 -1</clus>
<clus scale="   79.969">  5  6 -1 -1</clus>
<clus scale="   91.926">  2  5  1 -1</clus>
<clus scale="   92.558">  7  8 -1 -1</clus>
<clus scale="   78.578">  1  5  2 -1</clus>
</clustering>
</event>
<event>
 9    2  0.1033155E-004  0.9531070E+02  0.7546771E-02  0.1296000E+00
          4   -1    0    0  502    0 -0.00000000000E+00  0.00000000000E+00  0.10755752852E+03  0.10755752852E+03  0.00000000000E+00 0. -1.
         21   -1    0    0  501  502  0.00000000000E+00 -0.00000000000E+00 -0.25310774128E+03  0.25310774128E+03  0.00000000000E+00 0. -1.
         23    2    1    2    0    0 -0.33968530784E+02 -0.61927692762E+01  0.22477866287E+02  0.10006616129E+03  0.91190847611E+02 0.  0.
         24    2    1    2    0    0 -0.81239030385E+01  0.87566676523E+00 -0.19421443074E+03  0.21074161580E+03  0.81400361976E+02 0.  0.
        -11    1    4    4    0    0  0.11689351379E+02 -0.30236513472E+02 -0.36704651897E+02  0.48970594784E+02  0.00000000000E+00 0.  1.
         12    1    4    4    0    0 -0.19813254418E+02  0.31112180237E+02 -0.15750977884E+03  0.16177102102E+03  0.00000000000E+00 0. -1.
        -13    1    3    3    0    0 -0.65286420128E+02 -0.89768866612E+01  0.17940371541E+02  0.68299034241E+02  0.00000000000E+00 0. -1.
         13    1    3    3    0    0  0.31317889344E+02  0.27841173849E+01  0.45374947460E+01  0.31767127052E+02  0.00000000000E+00 0.  1.
          3    1    1    2  501    0  0.42092433823E+02  0.53171025110E+01  0.26186351688E+02  0.49857492706E+02  0.00000000000E+00 0. -1.
<scales pt_clust_5="13000.00000" pt_clust_6="13000.00000" pt_clust_7="13000.00000" pt_clust_8="13000.00000" pt_clust_9="42.42695"></scales>
<clustering>
<clus scale="   42.427">  2  9  1 -1</clus>
<clus scale="   81.400">  5  6 -1 -1</clus>
<clus scale="   85.991">  2  5  1 -1</clus>
<clus scale="   91.191">  7  8 -1 -1</clus>
<clus scale="   42.427">  2  5  1 -1</clus>
</clustering>
</event>
<event>
 9    2  0.1033155E-004  0.1037642E+03  0.7546771E-02  0.1279838E+00
          4   -1    0    0  502    0 -0.00000000000E+00  0.00000000000E+00  0.58168606589E+02  0.58168606589E+02  0.00000000000E+00 0. -1.
         21   -1    0    0  501  502  0.00000000000E+00 -0.00000000000E+00 -0.63012370182E+03  0.63012370182E+03  0.00000000000E+00 0. -1.
         24    2    1    2    0    0 -0.42343497119E+02  0.86536508270E+01  0.44662351701E+01  0.91339628933E+02  0.80343780943E+02 0.  0.
         23    2    1    2    0    0  0.99217883222E+01 -0.37380581245E+02 -0.48520919267E+03  0.49597714877E+03  0.95234561530E+02 0.  0.
        -11    1    3    3    0    0 -0.30218041697E+02 -0.11065704934E+01 -0.36568915870E+02  0.47451450453E+02  0.00000000000E+00 0.  1.
         12    1    3    3    0    0 -0.12125455423E+02  0.97602213204E+01  0.41035151040E+02  0.43888178480E+02  0.00000000000E+00 0. -1.
        -13    1    4    4    0    0  0.72663526002E+01 -0.69841567312E+02 -0.33129595577E+03  0.33865565803E+03  0.00000000000E+00 0. -1.
         13    1    4    4    0    0  0.26554357220E+01  0.32460986067E+02 -0.15391323690E+03  0.15732149074E+03  0.00000000000E+00 0.  1.
          3    1    1    2  501    0  0.32421708797E+02  0.28726930418E+02 -0.91212137728E+02  0.10097553071E+03  0.00000000000E+00 0. -1.
<scales pt_clust_5="13000.00000" pt_clust_6="13000.00000" pt_clust_7="13000.00000" pt_clust_8="13000.00000" pt_clust_9="43.31748"></scales>
<clustering>
<clus scale="   43.317">  2  9  1 -1</clus>
<clus scale="   80.344">  5  6 -1 -1</clus>
<clus scale="   90.291">  1  5  2 -1</clus>
<clus scale="   95.235">  7  8 -1 -1</clus>
<clus scale="   43.317">  2  5  1 -1</clus>
</clustering>
</event>
<event>
 9    2  0.1033155E-004  0.1175304E+03  0.7546771E-02  0.1250850E+00
          2   -1    0    0  502    0 -0.00000000000E+00  0.00000000000E+00  0.14450926399E+04  0.14450926399E+04  0.00000000000E+00 0. -1.
         21   -1    0    0  501  502  0.00000000000E+00 -0.00000000000E+00 -0.84960810166E+02  0.84960810166E+02  0.00000000000E+00 0. -1.
         24    2    1    2    0    0  0.83766583984E+02 -0.16257016782E+01  0.12267542178E+04  0.12321834673E+04  0.79565712906E+02 0.  0.
         23    2    1    2    0    0 -0.35105030420E+02  0.20971035185E+02  0.19388518779E+03  0.21784901394E+03  0.90523915925E+02 0.  0.
        -11    1    3    3    0    0  0.58577159418E+02 -0.11075852162E+02  0.35177330106E+03  0.35678903212E+03  0.00000000000E+00 0.  1.
         12    1    3    3    0    0  0.25189424566E+02  0.94501504836E+01  0.87498091676E+03  0.87539443518E+03  0.00000000000E+00 0. -1.
        -11    1    4    4    0    0 -0.64016317803E+02  0.10251856031E+02  0.15644266456E+03  0.16934431432E+03  0.00000000000E+00 0.  1.
         11    1    4    4    0    0  0.28911287384E+02  0.10719179154E+02  0.37442523226E+02  0.48504699623E+02  0.00000000000E+00 0. -1.
          1    1    1    2  501    0 -0.48661553564E+02 -0.19345333507E+02 -0.60507575832E+02  0.80020968857E+02  0.00000000000E+00 0. -1.
<scales pt_clust_5="13000.00000" pt_clust_6="13000.00000" pt_clust_7="13000.00000" pt_clust_8="13000.00000" pt_clust_9="52.36591"></scales>
<clustering>
<clus scale="   52.366">  2  9  1 -1</clus>
<clus scale="   79.566">  5  6 -1 -1</clus>
<clus scale="   90.524">  7  8 -1 -1</clus>
<clus scale="  109.314">  1  5  2 -1</clus>
<clus scale="   52.366">  2  5  1 -1</clus>
</clustering>
</event>
<event>
 9    2  0.1033155E-004  0.1183489E+03  0.7546771E-02  0.1249997E+00
         21   -1    0    0  501  502  0.00000000000E+00  0.00000000000E+00  0.26269115837E+02  0.26269115837E+02  0.00000000000E+00 0. -1.
          2   -1    0    0  502    0 -0.00000000000E+00 -0.00000000000E+00 -0.14632792496E+04  0.14632792496E+04  0.00000000000E+00 0. -1.
         24    2    1    2    0    0  0.42878620397E+02 -0.81691801295E+02 -0.11194223020E+04  0.11260271870E+04  0.79490937395E+02 0.  0.
         23    2    1    2    0    0 -0.38961473309E+01  0.28095794939E+02 -0.25415951036E+03  0.27178614121E+03  0.92011391616E+02 0.  0.
        -13    1    3    3    0    0  0.37410046606E+02 -0.65026028904E+01 -0.20383738278E+03  0.20734385462E+03  0.00000000000E+00 0.  1.
         14    1    3    3    0    0  0.54685737916E+01 -0.75189198404E+02 -0.91558491923E+03  0.91868333237E+03  0.00000000000E+00 0. -1.
        -11    1    4    4    0    0  0.20738497798E+02 -0.27767689699E+02 -0.78212975384E+02  0.85547644039E+02  0.00000000000E+00 0. -1.
         11    1    4    4    0    0 -0.24634645129E+02  0.55863484638E+02 -0.17594653498E+03  0.18623849717E+03  0.00000000000E+00 0.  1.
          1    1    1    2  501    0 -0.38982473066E+02  0.53596006356E+02 -0.63428321419E+02  0.91735037263E+02  0.00000000000E+00 0. -1.
<scales pt_clust_5="13000.00000" pt_clust_6="13000.00000" pt_clust_7="13000.00000" pt_clust_8="13000.00000" pt_clust_9="66.27341"></scales>
<clustering>
<clus scale="   66.273">  1  9  2 -1</clus>
<clus scale="   79.491">  5  6 -1 -1</clus>
<clus scale="   92.011">  7  8 -1 -1</clus>
<clus scale="  108.900">  2  5  1 -1</clus>
<clus scale="   66.273">  1  5  2 -1</clus>
</clustering>
</event>
<event>
 9    2  0.1033155E-004  0.1150855E+03  0.7546771E-02  0.1254320E+00
          2   -1    0    0  502    0 -0.00000000000E+00  0.00000000000E+00  0.15671132752E+04  0.15671132752E+04  0.00000000000E+00 0. -1.
         21   -1    0    0  501  502  0.00000000000E+00 -0.00000000000E+00 -0.49992051508E+02  0.49992051508E+02  0.00000000000E+00 0. -1.
         24    2    1    2    0    0  0.68206472320E+02  0.28851584727E+02  0.14345572098E+04  0.14388149074E+04  0.82154809891E+02 0.  0.
         23    2    1    2    0    0 -0.14343256757E+02 -0.16405637385E+02  0.20731548600E+02  0.95348262601E+02  0.90479943199E+02 0.  0.
        -13    1    3    3    0    0  0.17621950093E+02 -0.17154378421E+02  0.12071464506E+03  0.12319428297E+03  0.00000000000E+00 0.  1.
         14    1    3    3    0    0  0.50584522227E+02  0.46005963148E+02  0.13138425647E+04  0.13156206244E+04  0.00000000000E+00 0. -1.
        -11    1    4    4    0    0 -0.40128601912E+02 -0.48539275873E+01  0.43264506857E+02  0.59208807267E+02  0.00000000000E+00 0.  1.
         11    1    4    4    0    0  0.25785345155E+02 -0.11551709798E+02 -0.22532958257E+02  0.36139455334E+02  0.00000000000E+00 0. -1.
          1    1    1    2  501    0 -0.53863215563E+02 -0.12445947342E+02  0.61832465352E+02  0.82942156757E+02  0.00000000000E+00 0. -1.
<scales pt_clust_5="13000.00000" pt_clust_6="13000.00000" pt_clust_7="13000.00000" pt_clust_8="13000.00000" pt_clust_9="55.28243"></scales>
<clustering>
<clus scale="   55.282">  2  9  1 -1</clus>
<clus scale="   82.155">  5  6 -1 -1</clus>
<clus scale="   90.480">  7  8 -1 -1</clus>
<clus scale="  108.662">  1  5  2 -1</clus>
<clus scale="   55.282">  2  5  1 -1</clus>
</clustering>
</event>
<event>
 9    2  0.1033155E-004  0.1416814E+03  0.7546771E-02  0.1212438E+00
         21   -1    0    0  501  502  0.00000000000E+00  0.00000000000E+00  0.22680535138E+03  0.22680535138E+03  0.00000000000E+00 0.  1.
         -3   -1    0    0    0  501 -0.00000000000E+00 -0.00000000000E+00 -0.14371891159E+03  0.14371891159E+03  0.00000000000E+00 0.  1.
         24    2    1    2    0    0  0.10588554420E+03 -0.50502066635E+02 -0.55810837829E+02  0.15524541090E+03  0.84994592649E+02 0.  0.
         23    2    1    2    0    0 -0.69571225160E+02  0.41697500620E+02  0.12660396310E+03  0.17594215505E+03  0.91368711961E+02 0.  0.
        -11    1    3    3    0    0  0.72353447616E+02  0.10908341411E+02 -0.40460197438E+02  0.83612444475E+02  0.00000000000E+00 0.  1.
         12    1    3    3    0    0  0.33532096585E+02 -0.61410408046E+02 -0.15350640390E+02  0.71632966420E+02  0.00000000000E+00 0. -1.
        -11    1    4    4    0    0 -0.12061341067E+02  0.59510216741E+02  0.51009846724E+02  0.79302877046E+02  0.00000000000E+00 0.  1.
         11    1    4    4    0    0 -0.57509884093E+02 -0.17812716121E+02  0.75594116372E+02  0.96639278009E+02  0.00000000000E+00 0. -1.
         -4    1    1    2    0  502 -0.36314319041E+02  0.88045660148E+01  0.12293314528E+02  0.39336697017E+02  0.00000000000E+00 0.  1.
<scales pt_clust_5="13000.00000" pt_clust_6="13000.00000" pt_clust_7="13000.00000" pt_clust_8="13000.00000" pt_clust_9="37.36643"></scales>
<clustering>
<clus scale="   37.366">  1  9  2 -1</clus>
<clus scale="   84.995">  5  6 -1 -1</clus>
<clus scale="   91.369">  7  8 -1 -1</clus>
<clus scale="  137.657">  2  5  1 -1</clus>
<clus scale="   37.366">  1  5  2 -1</clus>
</clustering>
</event>
<event>
 9    2  0.1033155E-004  0.9130481E+02  0.7546771E-02  0.1306933E+00
          2   -1    0    0  502    0 -0.00000000000E+00  0.00000000000E+00  0.11344242875E+04  0.11344242875E+04  0.00000000000E+00 0. -1.
         21   -1    0    0  501  502  0.00000000000E+00 -0.00000000000E+00 -0.51124709769E+02  0.51124709769E+02  0.00000000000E+00 0.  1.
         24    2    1    2    0    0 -0.10943226945E+02 -0.65614032000E+01  0.10124057027E+04  0.10155545768E+04  0.78885900702E+02 0.  0.
         23    2    1    2    0    0  0.38865475780E+02 -0.12505970236E+02  0.90926286310E+01  0.99548620286E+02  0.90334530531E+02 0.  0.
        -13    1    3    3    0    0  0.14001125116E+02 -0.15744716240E+02  0.78729306403E+02  0.81499885158E+02  0.00000000000E+00 0.  1.
         14    1    3    3    0    0 -0.24944352061E+02  0.91833130398E+01  0.93367639630E+03  0.93405469162E+03  0.00000000000E+00 0. -1.
        -13    1    4    4    0    0 -0.12314741211E+02 -0.34962221336E+02 -0.13240896907E+02  0.39361543703E+02  0.00000000000E+00 0.  1.
         13    1    4    4    0    0  0.51180216991E+02  0.22456251100E+02  0.22333525538E+02  0.60187076583E+02  0.00000000000E+00 0. -1.
          1    1    1    2  501    0 -0.27922248836E+02  0.19067373436E+02  0.61801246395E+02  0.70445800200E+02  0.00000000000E+00 0. -1.
<scales pt_clust_5="13000.00000" pt_clust_6="13000.00000" pt_clust_7="13000.00000" pt_clust_8="13000.00000" pt_clust_9="33.81149"></scales>
<clustering>
<clus scale="   33.811">  2  9  1 -1</clus>
<clus scale="   78.886">  5  6 -1 -1</clus>
<clus scale="   79.995">  1  5  2 -1</clus>
<clus scale="   90.335">  7  8 -1 -1</clus>
<clus scale="   33.811">  2  5  1 -1</clus>
</clustering>
</event>
<event>
 9    2  0.1033155E-004  0.1369799E+03  0.7546771E-02  0.1239012E+00
          2   -1    0    0  502    0 -0.00000000000E+00  0.00000000000E+00  0.74226392544E+03  0.74226392544E+03  0.00000000000E+00 0. -1.
         21   -1    0    0  501  502  0.00000000000E+00 -0.00000000000E+00 -0.64515711766E+02  0.64515711766E+02  0.00000000000E+00 0. -1.
         24    2    1    2    0    0  0.24137810998E+02 -0.20867218750E+02  0.34787518719E+03  0.35874597128E+03  0.81629965742E+02 0.  0.
         23    2    1    2    0    0 -0.54925450512E+02 -0.78172569442E+02  0.31701525348E+03  0.34352490687E+03  0.91558369225E+02 0.  0.
        -11    1    3    3    0    0  0.53801447639E+02 -0.67803826861E+01  0.23606194910E+03  0.24221026644E+03  0.00000000000E+00 0.  1.
         12    1    3    3    0    0 -0.29663636641E+02 -0.14086836064E+02  0.11181323809E+03  0.11653570484E+03  0.00000000000E+00 0. -1.
        -11    1    4    4    0    0 -0.35449067296E+01 -0.60151503536E+02  0.25009735705E+03  0.25725368364E+03  0.00000000000E+00 0. -1.
         11    1    4    4    0    0 -0.51380543782E+02 -0.18021065906E+02  0.66917896429E+02  0.86271223234E+02  0.00000000000E+00 0.  1.
          1    1    1    2  501    0  0.30787639514E+02  0.99039788192E+02  0.12857772998E+02  0.10450875905E+03  0.00000000000E+00 0. -1.
<scales pt_clust_5="13000.00000" pt_clust_6="13000.00000" pt_clust_7="13000.00000" pt_clust_8="13000.00000" pt_clust_9="101.88501"></scales>
<clustering>
<clus scale="   81.630">  5  6 -1 -1</clus>
<clus scale="   87.644">  1  5  2 -1</clus>
<clus scale="   91.558">  7  8 -1 -1</clus>
<clus scale="  101.885">  2  9  1 -1</clus>
<clus scale="  101.885">  2  5  1 -1</clus>
</clustering>
</event>
<event>
 9    2  0.1033155E-004  0.1153966E+03  0.7546771E-02  0.1256451E+00
         21   -1    0    0  501  502  0.00000000000E+00  0.00000000000E+00  0.13849684548E+03  0.13849684548E+03  0.00000000000E+00 0. -1.
         -3   -1    0    0    0  501 -0.00000000000E+00 -0.00000000000E+00 -0.13900227135E+03  0.13900227135E+03  0.00000000000E+00 0.  1.
         23    2    1    2    0    0 -0.74184509459E+02  0.33918668775E+01 -0.16866670836E+02  0.11924316320E+03  0.91758384791E+02 0.  0.
         24    2    1    2    0    0  0.55120464870E+02 -0.50139157773E+02  0.53937871383E+01  0.10659327723E+03  0.76031789539E+02 0.  0.
        -13    1    4    4    0    0  0.44363786570E+02 -0.26839377083E+02 -0.32229427711E+02  0.61051074778E+02  0.00000000000E+00 0.  1.
         14    1    4    4    0    0  0.10756678300E+02 -0.23299780689E+02  0.37623214849E+02  0.45542202447E+02  0.00000000000E+00 0. -1.
        -11    1    3    3    0    0 -0.65126670965E+02 -0.29145814670E+02  0.14884679685E+02  0.72887004830E+02  0.00000000000E+00 0. -1.
         11    1    3    3    0    0 -0.90578384938E+01  0.32537681547E+02 -0.31751350521E+02  0.46356158367E+02  0.00000000000E+00 0.  1.
         -4    1    1    2    0  502  0.19064044589E+02  0.46747290895E+02  0.10967457829E+02  0.51662676405E+02  0.00000000000E+00 0.  1.
<scales pt_clust_5="13000.00000" pt_clust_6="13000.00000" pt_clust_7="13000.00000" pt_clust_8="13000.00000" pt_clust_9="50.48512"></scales>
<clustering>
<clus scale="   50.485">  1  9  2 -1</clus>
<clus scale="   76.032">  5  6 -1 -1</clus>
<clus scale="   91.758">  7  8 -1 -1</clus>
<clus scale="  103.333">  1  5  2 -1</clus>
<clus scale="   50.485">  1  5  2 -1</clus>
</clustering>
</event>
<event>
 9    2  0.1033155E-004  0.1099350E+03  0.7546771E-02  0.1263619E+00
          2   -1    0    0  502    0 -0.00000000000E+00  0.00000000000E+00  0.34395502272E+03  0.34395502272E+03  0.00000000000E+00 0. -1.
         21   -1    0    0  501  502  0.00000000000E+00 -0.00000000000E+00 -0.94240237407E+02  0.94240237407E+02  0.00000000000E+00 0.  1.
         23    2    1    2    0    0 -0.67890201972E+02 -0.60765951973E+01  0.27987261229E+03  0.30145567554E+03  0.88886673201E+02 0.  0.
         24    2    1    2    0    0  0.48102702250E+02  0.17866238216E+02  0.33260478593E+01  0.96098340737E+02  0.81183471632E+02 0.  0.
        -13    1    4    4    0    0  0.62963732342E+02  0.32990374944E+02 -0.88751168186E+01  0.71634936504E+02  0.00000000000E+00 0.  1.
         14    1    4    4    0    0 -0.14861030092E+02 -0.15124136728E+02  0.12201164678E+02  0.24463404233E+02  0.00000000000E+00 0. -1.
        -13    1    3    3    0    0 -0.39063184361E+02  0.40378651987E+02  0.12018102010E+03  0.13266440933E+03  0.00000000000E+00 0.  1.
         13    1    3    3    0    0 -0.28827017611E+02 -0.46455247184E+02  0.15969159219E+03  0.16879126622E+03  0.00000000000E+00 0. -1.
          1    1    1    2  501    0  0.19787499721E+02 -0.11789643019E+02 -0.33483874835E+02  0.40641243850E+02  0.00000000000E+00 0. -1.
<scales pt_clust_5="13000.00000" pt_clust_6="13000.00000" pt_clust_7="13000.00000" pt_clust_8="13000.00000" pt_clust_9="23.03347"></scales>
<clustering>
<clus scale="   23.033">  2  9  1 -1</clus>
<clus scale="   81.183">  5  6 -1 -1</clus>
<clus scale="   88.887">  7  8 -1 -1</clus>
<clus scale="  103.806">  2  5  1 -1</clus>
<clus scale="   23.033">  2  5  1 -1</clus>
</clustering>
</event>
<event>
 9    2  0.1033155E-004  0.9923158E+02  0.7546771E-02  0.1289629E+00
          4   -1    0    0  502    0 -0.00000000000E+00  0.00000000000E+00  0.11941440517E+03  0.11941440517E+03  0.00000000000E+00 0. -1.
         21   -1    0    0  501  502  0.00000000000E+00 -0.00000000000E+00 -0.18024441757E+03  0.18024441757E+03  0.00000000000E+00 0. -1.
         23    2    1    2    0    0  0.32440382907E+02 -0.45264976542E+02  0.41107650139E+02  0.11438431688E+03  0.91063914388E+02 0.  0.
         24    2    1    2    0    0 -0.28332451652E+02 -0.24159745307E+02 -0.62116588543E+02  0.10513472151E+03  0.76212977796E+02 0.  0.
        -13    1    4    4    0    0 -0.87823082860E+01  0.25881429231E+02 -0.36545773634E+02  0.45635193528E+02  0.00000000000E+00 0.  1.
         14    1    4    4    0    0 -0.19550143366E+02 -0.50041174538E+02 -0.25570814910E+02  0.59499527981E+02  0.00000000000E+00 0. -1.
        -13    1    3    3    0    0 -0.22707103256E+02  0.13281853089E+02  0.10661503890E+02  0.28384640652E+02  0.00000000000E+00 0.  1.
         13    1    3    3    0    0  0.55147486163E+02 -0.58546829631E+02  0.30446146248E+02  0.85999676228E+02  0.00000000000E+00 0. -1.
          3    1    1    2  501    0 -0.41079312546E+01  0.69424721848E+02 -0.39821073992E+02  0.80139784357E+02  0.00000000000E+00 0. -1.
<scales pt_clust_5="13000.00000" pt_clust_6="13000.00000" pt_clust_7="13000.00000" pt_clust_8="13000.00000" pt_clust_9="69.54615"></scales>
<clustering>
<clus scale="   69.546">  2  9  1 -1</clus>
<clus scale="   76.213">  5  6 -1 -1</clus>
<clus scale="   85.806">  2  5  1 -1</clus>
<clus scale="   91.064">  7  8 -1 -1</clus>
<clus scale="   69.546">  2  5  1 -1</clus>
</clustering>
</event>
<event>
 9    2  0.1033155E-004  0.2492832E+03  0.7546771E-02  0.1114428E+00
         -3   -1    0    0    0  501 -0.00000000000E+00  0.00000000000E+00  0.32573732255E+03  0.32573732255E+03  0.00000000000E+00 0.  1.
         21   -1    0    0  501  502  0.00000000000E+00 -0.00000000000E+00 -0.36262934400E+03  0.36262934400E+03  0.00000000000E+00 0.  1.
         23    2    1    2    0    0 -0.12991608068E+03 -0.17812429763E+03  0.11047260795E+03  0.26297573178E+03  0.91354173235E+02 0.  0.
         24    2    1    2    0    0  0.13861664429E+03  0.23636830515E+03 -0.19840693436E+03  0.34745903428E+03  0.79233320925E+02 0.  0.
        -11    1    4    4    0    0  0.11520787523E+03  0.14046509547E+03 -0.97026229411E+02  0.20595481727E+03  0.00000000000E+00 0.  1.
         12    1    4    4    0    0  0.23408769052E+02  0.95903209682E+02 -0.10138070495E+03  0.14150421701E+03  0.00000000000E+00 0. -1.
        -13    1    3    3    0    0 -0.93086215642E+02 -0.53805462663E+02  0.35639518906E+02  0.11327067874E+03  0.00000000000E+00 0.  1.
         13    1    3    3    0    0 -0.36829865041E+02 -0.12431883497E+03  0.74833089045E+02  0.14970505303E+03  0.00000000000E+00 0. -1.
         -4    1    1    2    0  502 -0.87005636039E+01 -0.58244007517E+02  0.51042304968E+02  0.77931900497E+02  0.00000000000E+00 0.  1.
<scales pt_clust_5="13000.00000" pt_clust_6="13000.00000" pt_clust_7="13000.00000" pt_clust_8="13000.00000" pt_clust_9="58.89030"></scales>
<clustering>
<clus scale="   58.890">  2  9  1 -1</clus>
<clus scale="   79.233">  5  6 -1 -1</clus>
<clus scale="   91.354">  7  8 -1 -1</clus>
<clus scale="  245.101">  2  5  1 -1</clus>
<clus scale="   58.890">  2  5  1 -1</clus>
</clustering>
</event>
<event>
 9    2  0.1033155E-004  0.2304525E+03  0.7546771E-02  0.1145011E+00
          2   -1    0    0  502    0 -0.00000000000E+00  0.00000000000E+00  0.19030963874E+04  0.19030963874E+04  0.00000000000E+00 0. -1.
         21   -1    0    0  501  502  0.00000000000E+00 -0.00000000000E+00 -0.53329797499E+02  0.53329797499E+02  0.00000000000E+00 0.  1.
         24    2    1    2    0    0 -0.98797311801E+01  0.12132713068E+03  0.73253456204E+03  0.74700177574E+03  0.81159636793E+02 0.  0.
         23    2    1    2    0    0  0.18777903211E+02 -0.27125824000E+03  0.51177327556E+03  0.58561448959E+03  0.84254391183E+02 0.  0.
        -11    1    3    3    0    0 -0.40814219304E+02  0.99763404396E+02  0.50638319966E+03  0.51772819341E+03  0.00000000000E+00 0.  1.
         12    1    3    3    0    0  0.30934488124E+02  0.21563726285E+02  0.22615136238E+03  0.22927358233E+03  0.00000000000E+00 0. -1.
        -13    1    4    4    0    0  0.47266497245E+02 -0.22658513829E+03  0.40732742852E+03  0.46849821844E+03  0.00000000000E+00 0.  1.
         13    1    4    4    0    0 -0.28488594034E+02 -0.44673101708E+02  0.10444584703E+03  0.11711627115E+03  0.00000000000E+00 0. -1.
          1    1    1    2  501    0 -0.88981720309E+01  0.14993110932E+03  0.60545875229E+03  0.62380991955E+03  0.00000000000E+00 0. -1.
<scales pt_clust_5="13000.00000" pt_clust_6="13000.00000" pt_clust_7="13000.00000" pt_clust_8="13000.00000" pt_clust_9="214.49847"></scales>
<clustering>
<clus scale="   81.160">  5  6 -1 -1</clus>
<clus scale="   84.254">  7  8 -1 -1</clus>
<clus scale="  146.304">  1  5  2 -1</clus>
<clus scale="  214.498">  2  9  1 -1</clus>
<clus scale="  214.498">  2  5  1 -1</clus>
</clustering>
</event>
<event>
 9    2  0.1033155E-004  0.9271495E+02  0.7546771E-02  0.1302642E+00
         -3   -1    0    0    0  501 -0.00000000000E+00  0.00000000000E+00  0.12990533285E+03  0.12990533285E+03  0.00000000000E+00 0.  1.
         21   -1    0    0  501  502  0.00000000000E+00 -0.00000000000E+00 -0.33781696087E+03  0.33781696087E+03  0.00000000000E+00 0. -1.
         24    2    1    2    0    0  0.24965436552E+02  0.44508389516E+01  0.95465111953E+02  0.12693413544E+03  0.79722043071E+02 0.  0.
         23    2    1    2    0    0  0.37190633257E+01  0.11934095355E+02 -0.10184923845E+03  0.13657111571E+03  0.90122961608E+02 0.  0.
        -11    1    3    3    0    0  0.21733340701E+02  0.15679771524E+02  0.10712538995E+03  0.11042663856E+03  0.00000000000E+00 0.  1.
         12    1    3    3    0    0  0.32320958512E+01 -0.11228932572E+02 -0.11660277996E+02  0.16507496880E+02  0.00000000000E+00 0. -1.
        -13    1    4    4    0    0 -0.25061525155E+02 -0.11321260928E+02 -0.95052002841E+02  0.98950160365E+02  0.00000000000E+00 0. -1.
         13    1    4    4    0    0  0.28780588480E+02  0.23255356283E+02 -0.67972356109E+01  0.37620955345E+02  0.00000000000E+00 0.  1.
         -4    1    1    2    0  502 -0.28684499878E+02 -0.16384934307E+02 -0.20152750152E+03  0.20421704257E+03  0.00000000000E+00 0.  1.
<scales pt_clust_5="13000.00000" pt_clust_6="13000.00000" pt_clust_7="13000.00000" pt_clust_8="13000.00000" pt_clust_9="33.03432"></scales>
<clustering>
<clus scale="   33.034">  2  9  1 -1</clus>
<clus scale="   79.722">  5  6 -1 -1</clus>
<clus scale="   82.641">  1  5  2 -1</clus>
<clus scale="   90.123">  7  8 -1 -1</clus>
<clus scale="   33.034">  2  5  1 -1</clus>
</clustering>
</event>
<event>
 9    2  0.1033155E-004  0.3033135E+03  0.7546771E-02  0.1084004E+00
          2   -1    0    0  502    0 -0.00000000000E+00  0.00000000000E+00  0.15617395515E+04  0.15617395515E+04  0.00000000000E+00 0. -1.
         21   -1    0    0  501  502  0.00000000000E+00 -0.00000000000E+00 -0.30041141472E+03  0.30041141472E+03  0.00000000000E+00 0.  1.
         24    2    1    2    0    0  0.27606949748E+03 -0.92619425038E+02  0.14539283986E+04  0.14849567710E+04  0.79975608951E+02 0.  0.
         23    2    1    2    0    0 -0.25490113908E+03  0.48388677261E+02 -0.16746429886E+03  0.32209178977E+03  0.91557494796E+02 0.  0.
        -13    1    3    3    0    0  0.59953136792E+02  0.82837436726E+01  0.21915071590E+03  0.22735442661E+03  0.00000000000E+00 0.  1.
         14    1    3    3    0    0  0.21611636069E+03 -0.10090316871E+03  0.12347776827E+04  0.12576023444E+04  0.00000000000E+00 0. -1.
        -13    1    4    4    0    0 -0.71136627874E+02  0.55297455776E+02 -0.41546216636E+02  0.99218529305E+02  0.00000000000E+00 0. -1.
         13    1    4    4    0    0 -0.18376451121E+03 -0.69087785155E+01 -0.12591808223E+03  0.22287326047E+03  0.00000000000E+00 0.  1.
          1    1    1    2  501    0 -0.21168358394E+02  0.44230747777E+02 -0.25135963025E+02  0.55102405422E+02  0.00000000000E+00 0. -1.
<scales pt_clust_5="13000.00000" pt_clust_6="13000.00000" pt_clust_7="13000.00000" pt_clust_8="13000.00000" pt_clust_9="49.03528"></scales>
<clustering>
<clus scale="   49.035">  2  9  1 -1</clus>
<clus scale="   79.976">  5  6 -1 -1</clus>
<clus scale="   91.557">  7  8 -1 -1</clus>
<clus scale="  300.021">  1  5  2 -1</clus>
<clus scale="   49.035">  2  5  1 -1</clus>
</clustering>
</event>
<event>
 9    2  0.1033155E-004  0.8805792E+02  0.7546771E-02  0.1310524E+00
         21   -1    0    0  501  502  0.00000000000E+00  0.00000000000E+00  0.38330348510E+03  0.38330348510E+03  0.00000000000E+00 0. -1.
          2   -1    0    0  502    0 -0.00000000000E+00 -0.00000000000E+00 -0.70811547208E+02  0.70811547208E+02  0.00000000000E+00 0. -1.
         23    2    1    2    0    0 -0.10291718606E+02 -0.32114117406E+01  0.20869163100E+02  0.88404594486E+02  0.85226860322E+02 0.  0.
         24    2    1    2    0    0  0.77750565968E+02  0.21246509967E+02  0.26927614472E+03  0.29239377716E+03  0.80547589103E+02 0.  0.
        -13    1    4    4    0    0 -0.12867081586E+02  0.19435183023E+02  0.53967399913E+02  0.58785783835E+02  0.00000000000E+00 0.  1.
         14    1    4    4    0    0  0.90617647553E+02  0.18113269440E+01  0.21530874481E+03  0.23360799332E+03  0.00000000000E+00 0. -1.
        -11    1    3    3    0    0  0.26720525218E+02  0.12139910319E+02 -0.16452776534E+02  0.33646065835E+02  0.00000000000E+00 0.  1.
         11    1    3    3    0    0 -0.37012243824E+02 -0.15351322060E+02  0.37321939634E+02  0.54758528650E+02  0.00000000000E+00 0. -1.
          1    1    1    2  501    0 -0.67458847362E+02 -0.18035098227E+02  0.22346630071E+02  0.73316660664E+02  0.00000000000E+00 0. -1.
<scales pt_clust_5="13000.00000" pt_clust_6="13000.00000" pt_clust_7="13000.00000" pt_clust_8="13000.00000" pt_clust_9="69.82812"></scales>
<clustering>
<clus scale="   69.828">  1  9  2 -1</clus>
<clus scale="   80.548">  5  6 -1 -1</clus>
<clus scale="   83.537">  1  5  2 -1</clus>
<clus scale="   85.227">  7  8 -1 -1</clus>
<clus scale="   69.828">  1  5  2 -1</clus>
</clustering>
</event>
<event>
 9    2  0.1033155E-004  0.9075398E+02  0.7546771E-02  0.1306563E+00
         21   -1    0    0  501  502  0.00000000000E+00  0.00000000000E+00  0.13596128163E+03  0.13596128163E+03  0.00000000000E+00 0.  1.
          4   -1    0    0  502    0 -0.00000000000E+00 -0.00000000000E+00 -0.13458012808E+03  0.13458012808E+03  0.00000000000E+00 0. -1.
         24    2    1    2    0    0 -0.12857976083E+02  0.58617335504E+01 -0.88316803052E+02  0.12070962397E+03  0.81063358847E+02 0.  0.
         23    2    1    2    0    0  0.66408999769E+01  0.15378596139E+02  0.89125750533E+02  0.12769288197E+03  0.89896996197E+02 0.  0.
        -13    1    3    3    0    0  0.34253676448E+02 -0.27873039781E+01 -0.38208346899E+02  0.51390282996E+02  0.00000000000E+00 0.  1.
         14    1    3    3    0    0 -0.47111652532E+02  0.86490375284E+01 -0.50108456153E+02  0.69319340970E+02  0.00000000000E+00 0. -1.
        -11    1    4    4    0    0 -0.38362991122E+02  0.12356507365E+02  0.65156484667E+02  0.76614423291E+02  0.00000000000E+00 0.  1.
         11    1    4    4    0    0  0.45003891098E+02  0.30220887747E+01  0.23969265866E+02  0.51078458676E+02  0.00000000000E+00 0. -1.
          3    1    1    2  501    0  0.62170761066E+01 -0.21240329690E+02  0.57220606844E+00  0.22138903777E+02  0.00000000000E+00 0. -1.
<scales pt_clust_5="13000.00000" pt_clust_6="13000.00000" pt_clust_7="13000.00000" pt_clust_8="13000.00000" pt_clust_9="22.13151"></scales>
<clustering>
<clus scale="   22.132">  1  9  2 -1</clus>
<clus scale="   81.063">  5  6 -1 -1</clus>
<clus scale="   82.013">  2  5  1 -1</clus>
<clus scale="   89.897">  7  8 -1 -1</clus>
<clus scale="   22.132">  1  5  2 -1</clus>
</clustering>
</event>
<event>
 9    2  0.1033155E-004  0.1464576E+03  0.7546771E-02  0.1205227E+00
         21   -1    0    0  501  502  0.00000000000E+00  0.00000000000E+00  0.20963514707E+03  0.20963514707E+03  0.00000000000E+00 0. -1.
          2   -1    0    0  502    0 -0.00000000000E+00 -0.00000000000E+00 -0.26765996442E+03  0.26765996442E+03  0.00000000000E+00 0. -1.
         23    2    1    2    0    0  0.25096134067E+02 -0.12780072675E+03 -0.17971485717E+03  0.23762831983E+03  0.84893738258E+02 0.  0.
         24    2    1    2    0    0  0.22093063801E+01  0.93943655255E+02  0.17348413674E+02  0.12662227248E+03  0.83077921464E+02 0.  0.
        -11    1    4    4    0    0  0.38710906070E+02  0.61794470472E+02  0.25609615629E+02  0.77284818964E+02  0.00000000000E+00 0.  1.
         12    1    4    4    0    0 -0.36501599690E+02  0.32149184783E+02 -0.82612019544E+01  0.49337453520E+02  0.00000000000E+00 0. -1.
        -11    1    3    3    0    0  0.10080223768E+02 -0.28046177847E+02 -0.11256720547E+03  0.11644558708E+03  0.00000000000E+00 0.  1.
         11    1    3    3    0    0  0.15015910299E+02 -0.99754548900E+02 -0.67147651706E+02  0.12118273275E+03  0.00000000000E+00 0. -1.
          1    1    1    2  501    0 -0.27305440447E+02  0.33857071491E+02  0.10434162615E+03  0.11304451917E+03  0.00000000000E+00 0. -1.
<scales pt_clust_5="13000.00000" pt_clust_6="13000.00000" pt_clust_7="13000.00000" pt_clust_8="13000.00000" pt_clust_9="43.49584"></scales>
<clustering>
<clus scale="   43.496">  1  9  2 -1</clus>
<clus scale="   83.078">  5  6 -1 -1</clus>
<clus scale="   84.894">  7  8 -1 -1</clus>
<clus scale="  145.413">  1  5  2 -1</clus>
<clus scale="   43.496">  1  5  2 -1</clus>
</clustering>
</event>
<event>
 9    2  0.1033155E-004  0.9577329E+02  0.7546771E-02  0.1291652E+00
         21   -1    0    0  501  502  0.00000000000E+00  0.00000000000E+00  0.18571822629E+03  0.18571822629E+03  0.00000000000E+00 0. -1.
         -1   -1    0    0    0  501 -0.00000000000E+00 -0.00000000000E+00 -0.94661070492E+02  0.94661070492E+02  0.00000000000E+00 0.  1.
         23    2    1    2    0    0 -0.39888085435E+02 -0.76118007851E+01  0.57764411308E+02  0.10988826416E+03  0.84200383105E+02 0.  0.
         24    2    1    2    0    0  0.38269100529E+02  0.41529407407E+02  0.70207238494E+02  0.12033422832E+03  0.79762487632E+02 0.  0.
        -13    1    4    4    0    0  0.36881063562E+02  0.32571382592E+02 -0.34105082189E+00  0.49205935913E+02  0.00000000000E+00 0.  1.
         14    1    4    4    0    0  0.13880369675E+01  0.89580248149E+01  0.70548289316E+02  0.71128292406E+02  0.00000000000E+00 0. -1.
        -13    1    3    3    0    0  0.22666643068E+02  0.62786131901E+01 -0.14359251251E+00  0.23520593326E+02  0.00000000000E+00 0.  1.
         13    1    3    3    0    0 -0.62554728503E+02 -0.13890413975E+02  0.57908003820E+02  0.86367670832E+02  0.00000000000E+00 0. -1.
         -2    1    1    2    0  502  0.16189849057E+01 -0.33917606622E+02 -0.36914494001E+02  0.50156804308E+02  0.00000000000E+00 0.  1.
<scales pt_clust_5="13000.00000" pt_clust_6="13000.00000" pt_clust_7="13000.00000" pt_clust_8="13000.00000" pt_clust_9="33.95624"></scales>
<clustering>
<clus scale="   33.956">  1  9  2 -1</clus>
<clus scale="   79.762">  5  6 -1 -1</clus>
<clus scale="   84.200">  7  8 -1 -1</clus>
<clus scale="   91.896">  1  5  2 -1</clus>
<clus scale="   33.956">  1  5  2 -1</clus>
</clustering>
</event>
<event>
 9    2  0.1033155E-004  0.9262460E+02  0.7546771E-02  0.1303380E+00
          2   -1    0    0  502    0 -0.00000000000E+00  0.00000000000E+00  0.12801540661E+03  0.12801540661E+03  0.00000000000E+00 0. -1.
         21   -1    0    0  501  502  0.00000000000E+00 -0.00000000000E+00 -0.60833134156E+03  0.60833134156E+03  0.00000000000E+00 0. -1.
         24    2    1    2    0    0  0.33254889446E+02 -0.17723868333E+02  0.52696932452E+02  0.10286530545E+03  0.79901697076E+02 0.  0.
         23    2    1    2    0    0  0.36551869701E+02  0.69786784012E+01 -0.25426691232E+01  0.98329993135E+02  0.90981213736E+02 0.  0.
        -11    1    3    3    0    0  0.91948452491E+00  0.29453125359E+02  0.87584571572E+01  0.30741545455E+02  0.00000000000E+00 0.  1.
         12    1    3    3    0    0  0.32335404921E+02 -0.47176993692E+02  0.43938475295E+02  0.72123759999E+02  0.00000000000E+00 0. -1.
        -13    1    4    4    0    0  0.90833368890E+01  0.25753968014E+02 -0.39870316879E+02  0.48326142465E+02  0.00000000000E+00 0.  1.
         13    1    4    4    0    0  0.27468532812E+02 -0.18775289613E+02  0.37327647756E+02  0.50003850671E+02  0.00000000000E+00 0. -1.
          1    1    1    2  501    0 -0.69806759147E+02  0.10745189931E+02 -0.53047019828E+03  0.53515144958E+03  0.00000000000E+00 0. -1.
<scales pt_clust_5="13000.00000" pt_clust_6="13000.00000" pt_clust_7="13000.00000" pt_clust_8="13000.00000" pt_clust_9="70.62891"></scales>
<clustering>
<clus scale="   70.629">  2  9  1 -1</clus>
<clus scale="   79.902">  5  6 -1 -1</clus>
<clus scale="   81.768">  1  5  2 -1</clus>
<clus scale="   90.981">  7  8 -1 -1</clus>
<clus scale="   70.629">  2  5  1 -1</clus>
</clustering>
</event>
<event>
 9    2  0.1033155E-004  0.1022192E+03  0.7546771E-02  0.1277968E+00
         21   -1    0    0  501  502  0.00000000000E+00  0.00000000000E+00  0.28472763569E+02  0.28472763569E+02  0.00000000000E+00 0. -1.
          2   -1    0    0  502    0 -0.00000000000E+00 -0.00000000000E+00 -0.82455115239E+03  0.82455115239E+03  0.00000000000E+00 0. -1.
         24    2    1    2    0    0  0.28831041540E+02  0.29607904580E+02 -0.50787162440E+03  0.51673318159E+03  0.85858820861E+02 0.  0.
         23    2    1    2    0    0 -0.71974480860E+02 -0.29921497418E+02 -0.15218285377E+03  0.19358839043E+03  0.90781176591E+02 0.  0.
        -11    1    3    3    0    0  0.21001058868E+02 -0.28988262203E+02 -0.21419680216E+03  0.21716729467E+03  0.00000000000E+00 0.  1.
         12    1    3    3    0    0  0.78299826720E+01  0.58596166783E+02 -0.29367482223E+03  0.29956588692E+03  0.00000000000E+00 0. -1.
        -13    1    4    4    0    0 -0.20238088388E+02 -0.56599256891E+02 -0.62870230332E+02  0.86981158673E+02  0.00000000000E+00 0. -1.
         13    1    4    4    0    0 -0.51736392472E+02  0.26677759472E+02 -0.89312623438E+02  0.10660723175E+03  0.00000000000E+00 0.  1.
          1    1    1    2  501    0  0.43143439321E+02  0.31359283860E+00 -0.13602391066E+03  0.14270234395E+03  0.00000000000E+00 0. -1.
<scales pt_clust_5="13000.00000" pt_clust_6="13000.00000" pt_clust_7="13000.00000" pt_clust_8="13000.00000" pt_clust_9="43.14460"></scales>
<clustering>
<clus scale="   43.145">  1  9  2 -1</clus>
<clus scale="   85.859">  5  6 -1 -1</clus>
<clus scale="   90.781">  7  8 -1 -1</clus>
<clus scale="   97.874">  2  5  1 -1</clus>
<clus scale="   43.145">  1  5  2 -1</clus>
</clustering>
</event>
<event>
 9    2  0.1033155E-004  0.9744210E+02  0.7546771E-02  0.1292564E+00
          2   -1    0    0  502    0 -0.00000000000E+00  0.00000000000E+00  0.84704406392E+03  0.84704406392E+03  0.00000000000E+00 0. -1.
         21   -1    0    0  501  502  0.00000000000E+00 -0.00000000000E+00 -0.35108202151E+02  0.35108202151E+02  0.00000000000E+00 0. -1.
         24    2    1    2    0    0  0.34660669333E+02 -0.35192261730E+02  0.56356713961E+03  0.57129983689E+03  0.79597270654E+02 0.  0.
         23    2    1    2    0    0  0.37072886161E+01 -0.36733999181E+02  0.17515343365E+03  0.20128069160E+03  0.92043798300E+02 0.  0.
        -11    1    3    3    0    0  0.56367039153E+02 -0.16373984246E+02  0.26869269355E+03  0.27502929667E+03  0.00000000000E+00 0.  1.
         12    1    3    3    0    0 -0.21706369820E+02 -0.18818277484E+02  0.29487444606E+03  0.29627054021E+03  0.00000000000E+00 0. -1.
        -13    1    4    4    0    0 -0.39837088748E+02  0.33382319350E+01  0.68692257935E+02  0.79478070765E+02  0.00000000000E+00 0.  1.
         13    1    4    4    0    0  0.43544377364E+02 -0.40072231116E+02  0.10646117572E+03  0.12180262084E+03  0.00000000000E+00 0. -1.
          1    1    1    2  501    0 -0.38367957949E+02  0.71926260911E+02  0.73215288504E+02  0.10957173758E+03  0.00000000000E+00 0. -1.
<scales pt_clust_5="13000.00000" pt_clust_6="13000.00000" pt_clust_7="13000.00000" pt_clust_8="13000.00000" pt_clust_9="81.51986"></scales>
<clustering>
<clus scale="   79.597">  5  6 -1 -1</clus>
<clus scale="   81.520">  2  9  1 -1</clus>
<clus scale="   85.782">  1  5  2 -1</clus>
<clus scale="   92.044">  7  8 -1 -1</clus>
<clus scale="   81.520">  2  5  1 -1</clus>
</clustering>
</event>
<event>
 9    2  0.1033155E-004  0.9700736E+02  0.7546771E-02  0.1288472E+00
          4   -1    0    0  502    0 -0.00000000000E+00  0.00000000000E+00  0.57048304683E+03  0.57048304683E+03  0.00000000000E+00 0. -1.
         21   -1    0    0  501  502  0.00000000000E+00 -0.00000000000E+00 -0.53963436600E+02  0.53963436600E+02  0.00000000000E+00 0. -1.
         24    2    1    2    0    0  0.46974692163E+02 -0.13781712229E+00  0.44835370410E+03  0.45810820936E+03  0.81458251888E+02 0.  0.
         23    2    1    2    0    0 -0.43404902275E+02 -0.29782016251E+02  0.85483297224E+02  0.13158439856E+03  0.85065303184E+02 0.  0.
        -13    1    3    3    0    0  0.46401196219E+02  0.29814971982E+02  0.18473490503E+03  0.19279260541E+03  0.00000000000E+00 0.  1.
         14    1    3    3    0    0  0.57349594400E+00 -0.29952789104E+02  0.26361879907E+03  0.26531560395E+03  0.00000000000E+00 0. -1.
        -11    1    4    4    0    0 -0.28015341673E+01 -0.52773378105E+02  0.52101023499E+02  0.74211823047E+02  0.00000000000E+00 0. -1.
         11    1    4    4    0    0 -0.40603368108E+02  0.22991361854E+02  0.33382273725E+02  0.57372575510E+02  0.00000000000E+00 0.  1.
          3    1    1    2  501    0 -0.35697898875E+01  0.29919833373E+02 -0.17317391097E+02  0.34753875515E+02  0.00000000000E+00 0. -1.
<scales pt_clust_5="13000.00000" pt_clust_6="13000.00000" pt_clust_7="13000.00000" pt_clust_8="13000.00000" pt_clust_9="30.13204"></scales>
<clustering>
<clus scale="   30.132">  2  9  1 -1</clus>
<clus scale="   81.458">  5  6 -1 -1</clus>
<clus scale="   85.065">  7  8 -1 -1</clus>
<clus scale="   93.860">  1  5  2 -1</clus>
<clus scale="   30.132">  2  5  1 -1</clus>
</clustering>
</event>
<event>
 9    2  0.1033155E-004  0.1278829E+03  0.7546771E-02  0.1233976E+00
         21   -1    0    0  501  502  0.00000000000E+00  0.00000000000E+00  0.15304210195E+03  0.15304210195E+03  0.00000000000E+00 0.  1.
         -1   -1    0    0    0  501 -0.00000000000E+00 -0.00000000000E+00 -0.24250399451E+03  0.24250399451E+03  0.00000000000E+00 0.  1.
         24    2    1    2    0    0  0.77200638644E+02  0.29131834819E+02 -0.92796419064E+01  0.11973974988E+03  0.86272206078E+02 0.  0.
         23    2    1    2    0    0 -0.24229642348E+01  0.77802410995E+02  0.53862597052E+01  0.11976595603E+03  0.90861358772E+02 0.  0.
        -13    1    3    3    0    0  0.52345766562E+02 -0.15249919499E+02  0.23344390928E+02  0.59309357689E+02  0.00000000000E+00 0.  1.
         14    1    3    3    0    0  0.24854872082E+02  0.44381754319E+02 -0.32624032834E+02  0.60430392196E+02  0.00000000000E+00 0. -1.
        -13    1    4    4    0    0 -0.63430202781E+00  0.98240737153E+02  0.99584491416E+01  0.98746217572E+02  0.00000000000E+00 0.  1.
         13    1    4    4    0    0 -0.17886622070E+01 -0.20438326158E+02 -0.45721894363E+01  0.21019738459E+02  0.00000000000E+00 0. -1.
         -2    1    1    2    0  502 -0.74777674409E+02 -0.10693424581E+03 -0.85568510355E+02  0.15604039055E+03  0.00000000000E+00 0.  1.
<scales pt_clust_5="13000.00000" pt_clust_6="13000.00000" pt_clust_7="13000.00000" pt_clust_8="13000.00000" pt_clust_9="89.99030"></scales>
<clustering>
<clus scale="   86.272">  5  6 -1 -1</clus>
<clus scale="   90.861">  7  8 -1 -1</clus>
<clus scale="  119.380">  2  5  1 -1</clus>
<clus scale="   89.990">  1  9  2 -1</clus>
<clus scale="   89.990">  1  5  2 -1</clus>
</clustering>
</event>
<event>
 9    2  0.1033155E-004  0.1101544E+03  0.7546771E-02  0.1265007E+00
          2   -1    0    0  502    0 -0.00000000000E+00  0.00000000000E+00  0.94993385388E+02  0.94993385388E+02  0.00000000000E+00 0. -1.
         21   -1    0    0  501  502  0.00000000000E+00 -0.00000000000E+00 -0.25303828945E+03  0.25303828945E+03  0.00000000000E+00 0. -1.
         24    2    1    2    0    0 -0.58939315525E+02 -0.34277380360E+02  0.19333046946E+02  0.10687415368E+03  0.79997101835E+02 0.  0.
         23    2    1    2    0    0  0.48975541377E+02  0.28365711915E+01 -0.62170988931E+02  0.12132244538E+03  0.91908944603E+02 0.  0.
        -13    1    3    3    0    0 -0.55871695647E+02  0.13143049060E+02  0.13809706174E+02  0.59034685547E+02  0.00000000000E+00 0.  1.
         14    1    3    3    0    0 -0.30676198781E+01 -0.47420429420E+02  0.55233407720E+01  0.47839468134E+02  0.00000000000E+00 0. -1.
        -13    1    4    4    0    0  0.72628555405E+02 -0.11471126200E+02 -0.31385664553E+02  0.79947193421E+02  0.00000000000E+00 0.  1.
         13    1    4    4    0    0 -0.23653014028E+02  0.14307697391E+02 -0.30785324378E+02  0.41375251955E+02  0.00000000000E+00 0. -1.
          1    1    1    2  501    0  0.99637741483E+01  0.31440809169E+02 -0.11520696208E+03  0.11983507578E+03  0.00000000000E+00 0. -1.
<scales pt_clust_5="13000.00000" pt_clust_6="13000.00000" pt_clust_7="13000.00000" pt_clust_8="13000.00000" pt_clust_9="32.98183"></scales>
<clustering>
<clus scale="   32.982">  2  9  1 -1</clus>
<clus scale="   79.997">  5  6 -1 -1</clus>
<clus scale="   91.909">  7  8 -1 -1</clus>
<clus scale="  100.430">  1  5  2 -1</clus>
<clus scale="   32.982">  2  5  1 -1</clus>
</clustering>
</event>
<event>
 9    2  0.1033155E-004  0.1614339E+03  0.7546771E-02  0.1212088E+00
         21   -1    0    0  501  502  0.00000000000E+00  0.00000000000E+00  0.73134167670E+02  0.73134167670E+02  0.00000000000E+00 0.  1.
         -3   -1    0    0    0  501 -0.00000000000E+00 -0.00000000000E+00 -0.59548494538E+03  0.59548494538E+03  0.00000000000E+00 0.  1.
         24    2    1    2    0    0 -0.37737461766E+02  0.30536444099E+02 -0.85081205265E+02  0.12660258882E+03  0.80204822594E+02 0.  0.
         23    2    1    2    0    0  0.18095557774E+02  0.11036722209E+03 -0.34053061716E+03  0.36997561919E+03  0.91719597962E+02 0.  0.
        -11    1    3    3    0    0 -0.18924421646E+02  0.30133076128E+02  0.37687610122E+01  0.35781832976E+02  0.00000000000E+00 0.  1.
         12    1    3    3    0    0 -0.18813040120E+02  0.40336797152E+00 -0.88849966277E+02  0.90820755842E+02  0.00000000000E+00 0. -1.
        -13    1    4    4    0    0  0.26942657809E+02  0.39701889206E+01 -0.25360455327E+02  0.37213195298E+02  0.00000000000E+00 0. -1.
         13    1    4    4    0    0 -0.88471000348E+01  0.10639703317E+03 -0.31517016183E+03  0.33276242389E+03  0.00000000000E+00 0.  1.
         -4    1    1    2    0  502  0.19641903992E+02 -0.14090366619E+03 -0.96738955287E+02  0.17204090504E+03  0.00000000000E+00 0.  1.
<scales pt_clust_5="13000.00000" pt_clust_6="13000.00000" pt_clust_7="13000.00000" pt_clust_8="13000.00000" pt_clust_9="132.84730"></scales>
<clustering>
<clus scale="   80.205">  5  6 -1 -1</clus>
<clus scale="   91.720">  7  8 -1 -1</clus>
<clus scale="   93.752">  2  5  1 -1</clus>
<clus scale="  132.847">  1  9  2 -1</clus>
<clus scale="  132.847">  1  5  2 -1</clus>
</clustering>
</event>
<event>
 9    2  0.1033155E-004  0.8935567E+02  0.7546771E-02  0.1313692E+00
         21   -1    0    0  501  502  0.00000000000E+00  0.00000000000E+00  0.20737627701E+03  0.20737627701E+03  0.00000000000E+00 0. -1.
          2   -1    0    0  502    0 -0.00000000000E+00 -0.00000000000E+00 -0.16955564469E+03  0.16955564469E+03  0.00000000000E+00 0. -1.
         23    2    1    2    0    0 -0.19737481373E+02 -0.16234352026E+02 -0.70537333409E+02  0.11569902683E+03  0.88077392377E+02 0.  0.
         24    2    1    2    0    0 -0.18840599662E+02  0.13983486528E+02 -0.53864338273E+02  0.94471356593E+02  0.73979484912E+02 0.  0.
        -11    1    4    4    0    0 -0.21884218291E+02  0.12968431834E+02 -0.71840424141E+02  0.76211191929E+02  0.00000000000E+00 0.  1.
         12    1    4    4    0    0  0.30436186290E+01  0.10150546942E+01  0.17976085868E+02  0.18260164664E+02  0.00000000000E+00 0. -1.
        -13    1    3    3    0    0  0.23153123943E+02 -0.12507500006E+02  0.68054605248E+01  0.27181225095E+02  0.00000000000E+00 0.  1.
         13    1    3    3    0    0 -0.42890605315E+02 -0.37268520206E+01 -0.77342793933E+02  0.88517801734E+02  0.00000000000E+00 0. -1.
          1    1    1    2  501    0  0.38578081035E+02  0.22508654979E+01  0.16222230400E+03  0.16676153827E+03  0.00000000000E+00 0. -1.
<scales pt_clust_5="13000.00000" pt_clust_6="13000.00000" pt_clust_7="13000.00000" pt_clust_8="13000.00000" pt_clust_9="38.64369"></scales>
<clustering>
<clus scale="   38.644">  1  9  2 -1</clus>
<clus scale="   73.979">  5  6 -1 -1</clus>
<clus scale="   75.497">  1  5  2 -1</clus>
<clus scale="   88.077">  7  8 -1 -1</clus>
<clus scale="   38.644">  1  5  2 -1</clus>
</clustering>
</event>
<event>
 9    2  0.1033155E-004  0.1172334E+03  0.7546771E-02  0.1251873E+00
         21   -1    0    0  501  502  0.00000000000E+00  0.00000000000E+00  0.37177921814E+02  0.37177921814E+02  0.00000000000E+00 0.  1.
          2   -1    0    0  502    0 -0.00000000000E+00 -0.00000000000E+00 -0.65342571843E+03  0.65342571843E+03  0.00000000000E+00 0. -1.
         24    2    1    2    0    0  0.16590027561E+02  0.76155997577E+02 -0.48860226379E+03  0.50112127287E+03  0.79469446707E+02 0.  0.
         23    2    1    2    0    0 -0.20914070143E+02 -0.53928664760E+02 -0.12677543241E+03  0.16682163607E+03  0.91715586379E+02 0.  0.
        -11    1    3    3    0    0 -0.30894846327E+02  0.27259318151E+02 -0.14085522536E+03  0.14675747499E+03  0.00000000000E+00 0.  1.
         12    1    3    3    0    0  0.47484873888E+02  0.48896679426E+02 -0.34774703843E+03  0.35436379788E+03  0.00000000000E+00 0. -1.
        -13    1    4    4    0    0  0.10594996160E+02 -0.42858970569E+02 -0.98693853854E+01  0.45238811542E+02  0.00000000000E+00 0.  1.
         13    1    4    4    0    0 -0.31509066302E+02 -0.11069694191E+02 -0.11690604702E+03  0.12158282452E+03  0.00000000000E+00 0. -1.
          1    1    1    2  501    0  0.43240425813E+01 -0.22227332817E+02 -0.87010041129E+00  0.22660731302E+02  0.00000000000E+00 0. -1.
<scales pt_clust_5="13000.00000" pt_clust_6="13000.00000" pt_clust_7="13000.00000" pt_clust_8="13000.00000" pt_clust_9="22.64402"></scales>
<clustering>
<clus scale="   22.644">  1  9  2 -1</clus>
<clus scale="   79.469">  5  6 -1 -1</clus>
<clus scale="   91.716">  7  8 -1 -1</clus>
<clus scale="  107.923">  2  5  1 -1</clus>
<clus scale="   22.644">  1  5  2 -1</clus>
</clustering>
</event>
<event>
 9    2  0.1033155E-004  0.3641290E+03  0.7546771E-02  0.1087794E+00
          2   -1    0    0  502    0 -0.00000000000E+00  0.00000000000E+00  0.14935049814E+04  0.14935049814E+04  0.00000000000E+00 0. -1.
         21   -1    0    0  501  502  0.00000000000E+00 -0.00000000000E+00 -0.14807864365E+03  0.14807864365E+03  0.00000000000E+00 0. -1.
         24    2    1    2    0    0 -0.40502841270E+02  0.12842509796E+03  0.21722919515E+03  0.26787860886E+03  0.80230542334E+02 0.  0.
         23    2    1    2    0    0 -0.31696726512E+03 -0.14664883490E+03  0.83617520970E+03  0.91175935829E+03  0.10070758752E+03 0.  0.
        -13    1    3    3    0    0 -0.15049882496E+02  0.31987683832E+02  0.13210153709E+03  0.13674987013E+03  0.00000000000E+00 0.  1.
         14    1    3    3    0    0 -0.25452958774E+02  0.96437414128E+02  0.85127658068E+02  0.13112873873E+03  0.00000000000E+00 0. -1.
        -11    1    4    4    0    0 -0.76406952522E+02 -0.82419480298E+02  0.21649658178E+03  0.24392983222E+03  0.00000000000E+00 0.  1.
         11    1    4    4    0    0 -0.24056031259E+03 -0.64229354606E+02  0.61967862792E+03  0.66782952607E+03  0.00000000000E+00 0. -1.
          1    1    1    2  501    0  0.35747010639E+03  0.18223736945E+02  0.29202193285E+03  0.46194565786E+03  0.00000000000E+00 0. -1.
<scales pt_clust_5="13000.00000" pt_clust_6="13000.00000" pt_clust_7="13000.00000" pt_clust_8="13000.00000" pt_clust_9="349.92562"></scales>
<clustering>
<clus scale="   80.231">  5  6 -1 -1</clus>
<clus scale="  100.708">  7  8 -1 -1</clus>
<clus scale="  156.750">  1  5  2 -1</clus>
<clus scale="  349.926">  2  9  1 -1</clus>
<clus scale="  349.926">  2  5  1 -1</clus>
</clustering>
</event>
<event>
 9    2  0.1033155E-004  0.1828739E+03  0.7546771E-02  0.1165525E+00
          4   -1    0    0  502    0 -0.00000000000E+00  0.00000000000E+00  0.56073206024E+03  0.56073206024E+03  0.00000000000E+00 0. -1.
         21   -1    0    0  501  502  0.00000000000E+00 -0.00000000000E+00 -0.19299332008E+03  0.19299332008E+03  0.00000000000E+00 0.  1.
         24    2    1    2    0    0 -0.45907678614E+02  0.15114430979E+03  0.45029419656E+03  0.48387779638E+03  0.80129526644E+02 0.  0.
         23    2    1    2    0    0  0.61045330186E+02 -0.18906150657E+03 -0.65744534937E+02  0.22569478802E+03  0.84528148327E+02 0.  0.
        -11    1    3    3    0    0  0.21543078507E+02  0.20141212956E+02  0.65353789798E+02  0.71700003709E+02  0.00000000000E+00 0.  1.
         12    1    3    3    0    0 -0.67450757121E+02  0.13100309683E+03  0.38494040676E+03  0.41217779267E+03  0.00000000000E+00 0. -1.
        -13    1    4    4    0    0 -0.78447928659E+01 -0.11254497002E+03 -0.30468444250E+02  0.11685990393E+03  0.00000000000E+00 0.  1.
         13    1    4    4    0    0  0.68890123052E+02 -0.76516536554E+02 -0.35276090687E+02  0.10883488409E+03  0.00000000000E+00 0. -1.
          3    1    1    2  501    0 -0.15137651573E+02  0.37917196781E+02 -0.16810921464E+02  0.44152795918E+02  0.00000000000E+00 0. -1.
<scales pt_clust_5="13000.00000" pt_clust_6="13000.00000" pt_clust_7="13000.00000" pt_clust_8="13000.00000" pt_clust_9="40.82723"></scales>
<clustering>
<clus scale="   40.827">  2  9  1 -1</clus>
<clus scale="   80.130">  5  6 -1 -1</clus>
<clus scale="   84.528">  7  8 -1 -1</clus>
<clus scale="  180.883">  1  5  2 -1</clus>
<clus scale="   40.827">  2  5  1 -1</clus>
</clustering>
</event>
<event>
 9    2  0.1033155E-004  0.9584593E+02  0.7546771E-02  0.1295391E+00
         21   -1    0    0  501  502  0.00000000000E+00  0.00000000000E+00  0.27268479560E+02  0.27268479560E+02  0.00000000000E+00 0.  1.
          2   -1    0    0  502    0 -0.00000000000E+00 -0.00000000000E+00 -0.46357920312E+03  0.46357920312E+03  0.00000000000E+00 0. -1.
         24    2    1    2    0    0 -0.32842426757E+02 -0.10202595448E+02 -0.23663817350E+03  0.25239277277E+03  0.80757468013E+02 0.  0.
         23    2    1    2    0    0  0.13187807743E+02  0.33724945510E+01 -0.98685184606E+02  0.13534621819E+03  0.91621728456E+02 0.  0.
        -11    1    3    3    0    0  0.98412737387E+01  0.28501387703E+02 -0.80145494414E+02  0.85629901580E+02  0.00000000000E+00 0.  1.
         12    1    3    3    0    0 -0.42683700495E+02 -0.38703983151E+02 -0.15649267908E+03  0.16676287119E+03  0.00000000000E+00 0. -1.
        -11    1    4    4    0    0  0.34718181783E+02 -0.12527507200E+02 -0.42048732285E+01  0.37147968207E+02  0.00000000000E+00 0.  1.
         11    1    4    4    0    0 -0.21530374040E+02  0.15900001751E+02 -0.94480311378E+02  0.98198249985E+02  0.00000000000E+00 0. -1.
          1    1    1    2  501    0  0.19654619014E+02  0.68301008971E+01 -0.10098736546E+03  0.10310869173E+03  0.00000000000E+00 0. -1.
<scales pt_clust_5="13000.00000" pt_clust_6="13000.00000" pt_clust_7="13000.00000" pt_clust_8="13000.00000" pt_clust_9="20.80756"></scales>
<clustering>
<clus scale="   20.808">  1  9  2 -1</clus>
<clus scale="   80.757">  5  6 -1 -1</clus>
<clus scale="   85.520">  2  5  1 -1</clus>
<clus scale="   91.622">  7  8 -1 -1</clus>
<clus scale="   20.808">  1  5  2 -1</clus>
</clustering>
</event>
<event>
 9    2  0.1033155E-004  0.2362818E+03  0.7546771E-02  0.1123321E+00
          2   -1    0    0  502    0 -0.00000000000E+00  0.00000000000E+00  0.35701578792E+03  0.35701578792E+03  0.00000000000E+00 0. -1.
         21   -1    0    0  501  502  0.00000000000E+00 -0.00000000000E+00 -0.42742897127E+03  0.42742897127E+03  0.00000000000E+00 0. -1.
         24    2    1    2    0    0 -0.27296005937E+03 -0.12711912708E+02  0.14105685219E+03  0.31712576719E+03  0.77478577226E+02 0.  0.
         23    2    1    2    0    0  0.14028007725E+03  0.10300492592E+03  0.51427807070E+01  0.19773056857E+03  0.93714538444E+02 0.  0.
        -13    1    3    3    0    0 -0.73017742744E+02  0.26851597366E+02  0.57973913051E+02  0.97023572553E+02  0.00000000000E+00 0.  1.
         14    1    3    3    0    0 -0.19994231663E+03 -0.39563510074E+02  0.83082939137E+02  0.22010219463E+03  0.00000000000E+00 0. -1.
        -13    1    4    4    0    0  0.54647427018E+02 -0.76836923274E+01 -0.12768530408E+02  0.56642879308E+02  0.00000000000E+00 0.  1.
         13    1    4    4    0    0  0.85632650231E+02  0.11068861824E+03  0.17911311115E+02  0.14108768926E+03  0.00000000000E+00 0. -1.
          1    1    1    2  501    0  0.13267998212E+03 -0.90293013208E+02 -0.21661281625E+03  0.26958842344E+03  0.00000000000E+00 0. -1.
<scales pt_clust_5="13000.00000" pt_clust_6="13000.00000" pt_clust_7="13000.00000" pt_clust_8="13000.00000" pt_clust_9="160.48927"></scales>
<clustering>
<clus scale="   77.479">  5  6 -1 -1</clus>
<clus scale="   93.715">  7  8 -1 -1</clus>
<clus scale="  160.489">  2  9  1 -1</clus>
<clus scale="  230.325">  1  5  2 -1</clus>
<clus scale="  160.489">  2  5  1 -1</clus>
</clustering>
</event>
<event>
 9    2  0.1033155E-004  0.1010019E+03  0.7546771E-02  0.1285395E+00
         21   -1    0    0  501  502  0.00000000000E+00  0.00000000000E+00  0.51790681088E+02  0.51790681088E+02  0.00000000000E+00 0. -1.
          2   -1    0    0  502    0 -0.00000000000E+00 -0.00000000000E+00 -0.25921283119E+03  0.25921283119E+03  0.00000000000E+00 0. -1.
         23    2    1    2    0    0  0.79200120398E+01  0.46939182888E+02 -0.16271949866E+03  0.19283233505E+03  0.91873068500E+02 0.  0.
         24    2    1    2    0    0  0.11185460032E+02 -0.33074952537E+02 -0.40694145896E+02  0.94227408460E+02  0.77483701470E+02 0.  0.
        -13    1    4    4    0    0 -0.11580262716E+02 -0.38048354031E+02 -0.54251309067E+02  0.67268003275E+02  0.00000000000E+00 0.  1.
         14    1    4    4    0    0  0.22765722748E+02  0.49734014948E+01  0.13557163172E+02  0.26959405185E+02  0.00000000000E+00 0. -1.
        -11    1    3    3    0    0  0.41432994384E+02 -0.49129472530E+01 -0.64286512846E+02  0.76639322859E+02  0.00000000000E+00 0.  1.
         11    1    3    3    0    0 -0.33512982344E+02  0.51852130141E+02 -0.98432985813E+02  0.11619301219E+03  0.00000000000E+00 0. -1.
          1    1    1    2  501    0 -0.19105472072E+02 -0.13864230352E+02 -0.40085055515E+01  0.23943768774E+02  0.00000000000E+00 0. -1.
<scales pt_clust_5="13000.00000" pt_clust_6="13000.00000" pt_clust_7="13000.00000" pt_clust_8="13000.00000" pt_clust_9="23.60585"></scales>
<clustering>
<clus scale="   23.606">  1  9  2 -1</clus>
<clus scale="   77.484">  5  6 -1 -1</clus>
<clus scale="   88.116">  1  5  2 -1</clus>
<clus scale="   91.873">  7  8 -1 -1</clus>
<clus scale="   23.606">  1  5  2 -1</clus>
</clustering>
</event>
<event>
 9    2  0.1033155E-004  0.1298744E+03  0.7546771E-02  0.1250458E+00
          4   -1    0    0  502    0 -0.00000000000E+00  0.00000000000E+00  0.10771431387E+03  0.10771431387E+03  0.00000000000E+00 0. -1.
         21   -1    0    0  501  502  0.00000000000E+00 -0.00000000000E+00 -0.23878682821E+03  0.23878682821E+03  0.00000000000E+00 0. -1.
         24    2    1    2    0    0  0.23215687960E+01  0.12091344495E+02  0.63082812347E+01  0.81892263414E+02  0.80715290383E+02 0.  0.
         23    2    1    2    0    0  0.84659491236E+02 -0.49470332300E+02 -0.82126805331E+02  0.15499183176E+03  0.87539205643E+02 0.  0.
        -13    1    3    3    0    0 -0.29510319180E+02 -0.19313142417E+02 -0.53742449439E+01  0.35675466596E+02  0.00000000000E+00 0.  1.
         14    1    3    3    0    0  0.31831887976E+02  0.31404486911E+02  0.11682526179E+02  0.46216796819E+02  0.00000000000E+00 0. -1.
        -11    1    4    4    0    0  0.38131916170E+01  0.22641725149E+02 -0.11610293639E+02  0.25729109320E+02  0.00000000000E+00 0.  1.
         11    1    4    4    0    0  0.80846299618E+02 -0.72112057449E+02 -0.70516511692E+02  0.12926272244E+03  0.00000000000E+00 0. -1.
          3    1    1    2  501    0 -0.86981060031E+02  0.37378987805E+02 -0.55253990242E+02  0.10961704690E+03  0.00000000000E+00 0. -1.
<scales pt_clust_5="13000.00000" pt_clust_6="13000.00000" pt_clust_7="13000.00000" pt_clust_8="13000.00000" pt_clust_9="95.93878"></scales>
<clustering>
<clus scale="   80.715">  5  6 -1 -1</clus>
<clus scale="   81.649">  1  5  2 -1</clus>
<clus scale="   87.539">  7  8 -1 -1</clus>
<clus scale="   95.939">  2  9  1 -1</clus>
<clus scale="   95.939">  2  5  1 -1</clus>
</clustering>
</event>
<event>
 9    2  0.1033155E-004  0.1437724E+03  0.7546771E-02  0.1210218E+00
         -1   -1    0    0    0  501 -0.00000000000E+00  0.00000000000E+00  0.46953735518E+03  0.46953735518E+03  0.00000000000E+00 0.  1.
         21   -1    0    0  501  502  0.00000000000E+00 -0.00000000000E+00 -0.11186975521E+03  0.11186975521E+03  0.00000000000E+00 0. -1.
         24    2    1    2    0    0 -0.60921860175E+02 -0.91989214501E+02  0.14254814543E+03  0.19691351235E+03  0.79255718723E+02 0.  0.
         23    2    1    2    0    0  0.40200173492E+02  0.11798735098E+03 -0.13372802821E+02  0.15359534539E+03  0.88744742541E+02 0.  0.
        -13    1    3    3    0    0 -0.58808281063E+01 -0.76557028437E+02  0.65173581436E+02  0.10071324868E+03  0.00000000000E+00 0.  1.
         14    1    3    3    0    0 -0.55041032069E+02 -0.15432186065E+02  0.77374563992E+02  0.96200263673E+02  0.00000000000E+00 0. -1.
        -11    1    4    4    0    0 -0.17459789356E+02  0.69383295499E+02  0.14856467962E+02  0.73072570634E+02  0.00000000000E+00 0.  1.
         11    1    4    4    0    0  0.57659962848E+02  0.48604055484E+02 -0.28229270784E+02  0.80522774754E+02  0.00000000000E+00 0. -1.
         -2    1    1    2    0  502  0.20721686683E+02 -0.25998136482E+02  0.22849225737E+03  0.23089825265E+03  0.00000000000E+00 0.  1.
<scales pt_clust_5="13000.00000" pt_clust_6="13000.00000" pt_clust_7="13000.00000" pt_clust_8="13000.00000" pt_clust_9="33.24594"></scales>
<clustering>
<clus scale="   33.246">  2  9  1 -1</clus>
<clus scale="   79.256">  5  6 -1 -1</clus>
<clus scale="   88.745">  7  8 -1 -1</clus>
<clus scale="  138.117">  1  5  2 -1</clus>
<clus scale="   33.246">  2  5  1 -1</clus>
</clustering>
</event>
<event>
 9    2  0.1033155E-004  0.1253314E+03  0.7546771E-02  0.1242665E+00
         -1   -1    0    0    0  501 -0.00000000000E+00  0.00000000000E+00  0.23486308640E+03  0.23486308640E+03  0.00000000000E+00 0.  1.
         21   -1    0    0  501  502  0.00000000000E+00 -0.00000000000E+00 -0.16378706197E+03  0.16378706197E+03  0.00000000000E+00 0.  1.
         23    2    1    2    0    0  0.37448005052E+02 -0.58828253516E+02  0.17649558516E+03  0.21659739451E+03  0.10440604979E+03 0.  0.
         24    2    1    2    0    0 -0.15481991952E+02  0.69428971742E+02 -0.44234701751E+02  0.11618570650E+03  0.80512951529E+02 0.  0.
        -13    1    4    4    0    0  0.74832254976E+01  0.75761413822E+02 -0.13529421271E+02  0.77322931450E+02  0.00000000000E+00 0.  1.
         14    1    4    4    0    0 -0.22965217450E+02 -0.63324420797E+01 -0.30705280480E+02  0.38862775050E+02  0.00000000000E+00 0. -1.
        -13    1    3    3    0    0  0.61954039217E+02 -0.75419503965E+01  0.12581338141E+03  0.14044283867E+03  0.00000000000E+00 0.  1.
         13    1    3    3    0    0 -0.24506034166E+02 -0.51286303119E+02  0.50682203753E+02  0.76154555842E+02  0.00000000000E+00 0. -1.
         -2    1    1    2    0  502 -0.21966013099E+02 -0.10600718227E+02 -0.61184858985E+02  0.65867047357E+02  0.00000000000E+00 0.  1.
<scales pt_clust_5="13000.00000" pt_clust_6="13000.00000" pt_clust_7="13000.00000" pt_clust_8="13000.00000" pt_clust_9="24.39018"></scales>
<clustering>
<clus scale="   24.390">  2  9  1 -1</clus>
<clus scale="   80.513">  5  6 -1 -1</clus>
<clus scale="  104.406">  7  8 -1 -1</clus>
<clus scale="  106.253">  2  5  1 -1</clus>
<clus scale="   24.390">  2  5  1 -1</clus>
</clustering>
</event>
<event>
 9    2  0.1033155E-004  0.3041258E+03  0.7546771E-02  0.1083458E+00
         21   -1    0    0  501  502  0.00000000000E+00  0.00000000000E+00  0.18739090924E+03  0.18739090924E+03  0.00000000000E+00 0. -1.
          2   -1    0    0  502    0 -0.00000000000E+00 -0.00000000000E+00 -0.10241198309E+04  0.10241198309E+04  0.00000000000E+00 0. -1.
         23    2    1    2    0    0 -0.11542342010E+03  0.25192535417E+03 -0.55287958036E+03  0.62520927338E+03  0.91770666165E+02 0.  0.
         24    2    1    2    0    0  0.10618548126E+03 -0.32626391519E+03 -0.70677491478E+02  0.36035058995E+03  0.84461476948E+02 0.  0.
        -11    1    4    4    0    0  0.27902705415E+02 -0.14785816368E+03 -0.68960850968E+02  0.16551796429E+03  0.00000000000E+00 0.  1.
         12    1    4    4    0    0  0.78282775847E+02 -0.17840575151E+03 -0.17166405092E+01  0.19483262566E+03  0.00000000000E+00 0. -1.
        -13    1    3    3    0    0 -0.33676554203E+02  0.15039792429E+03 -0.22848844902E+03  0.27560953770E+03  0.00000000000E+00 0.  1.
         13    1    3    3    0    0 -0.81746865896E+02  0.10152742988E+03 -0.32439113134E+03  0.34959973569E+03  0.00000000000E+00 0. -1.
          1    1    1    2  501    0  0.92379388376E+01  0.74338561023E+02 -0.21317184979E+03  0.22595087677E+03  0.00000000000E+00 0. -1.
<scales pt_clust_5="13000.00000" pt_clust_6="13000.00000" pt_clust_7="13000.00000" pt_clust_8="13000.00000" pt_clust_9="74.91039"></scales>
<clustering>
<clus scale="   74.910">  1  9  2 -1</clus>
<clus scale="   84.461">  5  6 -1 -1</clus>
<clus scale="   91.771">  7  8 -1 -1</clus>
<clus scale="  302.001">  1  5  2 -1</clus>
<clus scale="   74.910">  1  5  2 -1</clus>
</clustering>
</event>
<event>
 9    2  0.1033155E-004  0.9455131E+02  0.7546771E-02  0.1298121E+00
         21   -1    0    0  501  502  0.00000000000E+00  0.00000000000E+00  0.19419817144E+02  0.19419817144E+02  0.00000000000E+00 0. -1.
         -1   -1    0    0    0  501 -0.00000000000E+00 -0.00000000000E+00 -0.61877303143E+03  0.61877303143E+03  0.00000000000E+00 0.  1.
         23    2    1    2    0    0 -0.27949873894E+01 -0.18697939927E+02 -0.38864493907E+03  0.39958000071E+03  0.90894792965E+02 0.  0.
         24    2    1    2    0    0  0.95849613701E+01  0.39293276493E+02 -0.17415915390E+03  0.19611449608E+03  0.80583196923E+02 0.  0.
        -11    1    4    4    0    0 -0.35226355450E+02  0.10891967015E+02 -0.78499859906E+02  0.86728075437E+02  0.00000000000E+00 0.  1.
         12    1    4    4    0    0  0.44811316820E+02  0.28401309477E+02 -0.95659293991E+02  0.10938642065E+03  0.00000000000E+00 0. -1.
        -13    1    3    3    0    0  0.24000660918E+02  0.27833679013E+02 -0.11546851752E+03  0.12117641665E+03  0.00000000000E+00 0. -1.
         13    1    3    3    0    0 -0.26795648307E+02 -0.46531618940E+02 -0.27317642154E+03  0.27840358406E+03  0.00000000000E+00 0.  1.
         -2    1    1    2    0  502 -0.67899739807E+01 -0.20595336566E+02 -0.36549121315E+02  0.42498351778E+02  0.00000000000E+00 0.  1.
<scales pt_clust_5="13000.00000" pt_clust_6="13000.00000" pt_clust_7="13000.00000" pt_clust_8="13000.00000" pt_clust_9="21.68575"></scales>
<clustering>
<clus scale="   21.686">  1  9  2 -1</clus>
<clus scale="   80.583">  5  6 -1 -1</clus>
<clus scale="   84.686">  1  5  2 -1</clus>
<clus scale="   90.895">  7  8 -1 -1</clus>
<clus scale="   21.686">  1  5  2 -1</clus>
</clustering>
</event>
<event>
 9    2  0.1033155E-004  0.9464252E+02  0.7546771E-02  0.1299335E+00
         21   -1    0    0  501  502  0.00000000000E+00  0.00000000000E+00  0.27997945525E+03  0.27997945525E+03  0.00000000000E+00 0. -1.
         -3   -1    0    0    0  501 -0.00000000000E+00 -0.00000000000E+00 -0.44693744594E+02  0.44693744594E+02  0.00000000000E+00 0.  1.
         23    2    1    2    0    0  0.11749925711E+02  0.23707989557E+02  0.39037895260E+02  0.10378675201E+03  0.92453248205E+02 0.  0.
         24    2    1    2    0    0 -0.35558192511E+01 -0.43586947717E+01  0.15971397562E+03  0.17874074772E+03  0.80050351756E+02 0.  0.
        -11    1    4    4    0    0 -0.93688978840E+01  0.31292388069E+02  0.30923445055E+02  0.44980543046E+02  0.00000000000E+00 0.  1.
         12    1    4    4    0    0  0.58130786329E+01 -0.35651082841E+02  0.12879053057E+03  0.13376020468E+03  0.00000000000E+00 0. -1.
        -13    1    3    3    0    0 -0.46514782959E+00  0.49819180521E+02 -0.61369112619E+01  0.50197896272E+02  0.00000000000E+00 0.  1.
         13    1    3    3    0    0  0.12215073540E+02 -0.26111190964E+02  0.45174806522E+02  0.53588855739E+02  0.00000000000E+00 0. -1.
         -4    1    1    2    0  502 -0.81941064595E+01 -0.19349294785E+02  0.36533839773E+02  0.42145700112E+02  0.00000000000E+00 0.  1.
<scales pt_clust_5="13000.00000" pt_clust_6="13000.00000" pt_clust_7="13000.00000" pt_clust_8="13000.00000" pt_clust_9="21.01282"></scales>
<clustering>
<clus scale="   21.013">  1  9  2 -1</clus>
<clus scale="   80.050">  5  6 -1 -1</clus>
<clus scale="   82.569">  1  5  2 -1</clus>
<clus scale="   92.453">  7  8 -1 -1</clus>
<clus scale="   21.013">  1  5  2 -1</clus>
</clustering>
</event>
<event>
 9    2  0.1033155E-004  0.3820561E+03  0.7546771E-02  0.1101004E+00
         21   -1    0    0  501  502  0.00000000000E+00  0.00000000000E+00  0.33971887811E+03  0.33971887811E+03  0.00000000000E+00 0.  1.
          4   -1    0    0  502    0 -0.00000000000E+00 -0.00000000000E+00 -0.60659363081E+03  0.60659363081E+03  0.00000000000E+00 0. -1.
         24    2    1    2    0    0 -0.52755901959E+02 -0.23841143143E+02 -0.16884923991E+02  0.97451309833E+02  0.76551106015E+02 0.  0.
         23    2    1    2    0    0  0.22361917427E+03 -0.30108191000E+03  0.30732659410E+02  0.38672013446E+03  0.89174628734E+02 0.  0.
        -13    1    3    3    0    0 -0.63823971843E+02  0.50490198869E+01 -0.46834785325E+01  0.64194446448E+02  0.00000000000E+00 0.  1.
         14    1    3    3    0    0  0.11068069885E+02 -0.28890163030E+02 -0.12201445459E+02  0.33256863384E+02  0.00000000000E+00 0. -1.
        -13    1    4    4    0    0  0.19598402476E+03 -0.29927266002E+03  0.26637886271E+02  0.35872474124E+03  0.00000000000E+00 0.  1.
         13    1    4    4    0    0  0.27635149511E+02 -0.18092499777E+01  0.40947731387E+01  0.27995393211E+02  0.00000000000E+00 0. -1.
          3    1    1    2  501    0 -0.17086327231E+03  0.32492305314E+03 -0.28072248812E+03  0.46214106464E+03  0.00000000000E+00 0. -1.
<scales pt_clust_5="13000.00000" pt_clust_6="13000.00000" pt_clust_7="13000.00000" pt_clust_8="13000.00000" pt_clust_9="371.50358"></scales>
<clustering>
<clus scale="   76.551">  5  6 -1 -1</clus>
<clus scale="   89.175">  7  8 -1 -1</clus>
<clus scale="   95.977">  2  5  1 -1</clus>
<clus scale="  371.504">  1  9  2 -1</clus>
<clus scale="  371.504">  1  5  2 -1</clus>
</clustering>
</event>
<event>
 9    2  0.1033155E-004  0.1606519E+03  0.7546771E-02  0.1204378E+00
         21   -1    0    0  501  502  0.00000000000E+00  0.00000000000E+00  0.10497974162E+03  0.10497974162E+03  0.00000000000E+00 0. -1.
          2   -1    0    0  502    0 -0.00000000000E+00 -0.00000000000E+00 -0.55476188018E+03  0.55476188018E+03  0.00000000000E+00 0. -1.
         24    2    1    2    0    0  0.17531150056E+02  0.76833176385E+02 -0.30662672751E+03  0.32651308793E+03  0.79875956025E+02 0.  0.
         23    2    1    2    0    0  0.98811686889E+02  0.29285155859E+02 -0.92549938003E+02  0.16782699202E+03  0.94757788098E+02 0.  0.
        -11    1    3    3    0    0 -0.25044353424E+02  0.15079852715E+01 -0.55775698585E+02  0.61158991250E+02  0.00000000000E+00 0.  1.
         12    1    3    3    0    0  0.42575503480E+02  0.75325191113E+02 -0.25085102892E+03  0.26535409668E+03  0.00000000000E+00 0. -1.
        -13    1    4    4    0    0  0.60114194749E+02 -0.94142714053E+01 -0.95257179473E+02  0.11303218638E+03  0.00000000000E+00 0.  1.
         13    1    4    4    0    0  0.38697492140E+02  0.38699427264E+02  0.27072414695E+01  0.54794805638E+02  0.00000000000E+00 0. -1.
          1    1    1    2  501    0 -0.11634283694E+03 -0.10611833224E+03 -0.50605473040E+02  0.16540154186E+03  0.00000000000E+00 0. -1.
<scales pt_clust_5="13000.00000" pt_clust_6="13000.00000" pt_clust_7="13000.00000" pt_clust_8="13000.00000" pt_clust_9="129.73057"></scales>
<clustering>
<clus scale="   79.876">  5  6 -1 -1</clus>
<clus scale="   94.758">  7  8 -1 -1</clus>
<clus scale="  112.209">  2  5  1 -1</clus>
<clus scale="  129.731">  1  9  2 -1</clus>
<clus scale="  129.731">  1  5  2 -1</clus>
</clustering>
</event>
<event>
 9    2  0.1033155E-004  0.1042703E+03  0.7546771E-02  0.1277246E+00
         21   -1    0    0  501  502  0.00000000000E+00  0.00000000000E+00  0.20242596472E+02  0.20242596472E+02  0.00000000000E+00 0. -1.
          2   -1    0    0  502    0 -0.00000000000E+00 -0.00000000000E+00 -0.85776793646E+03  0.85776793646E+03  0.00000000000E+00 0. -1.
         24    2    1    2    0    0 -0.57848635783E+01 -0.46180890007E+02 -0.51025398552E+03  0.51842536598E+03  0.78991082432E+02 0.  0.
         23    2    1    2    0    0  0.40767116928E+02  0.52307854190E+02 -0.26059487001E+03  0.28404013853E+03  0.91493412811E+02 0.  0.
        -11    1    3    3    0    0 -0.30286776122E+02 -0.19504578610E+02 -0.95100123760E+02  0.10169439972E+03  0.00000000000E+00 0.  1.
         12    1    3    3    0    0  0.24501912544E+02 -0.26676311397E+02 -0.41515386176E+03  0.41673096626E+03  0.00000000000E+00 0. -1.
        -11    1    4    4    0    0  0.19738036120E+02  0.77354543192E+02 -0.17274041961E+03  0.19029600098E+03  0.00000000000E+00 0. -1.
         11    1    4    4    0    0  0.21029080809E+02 -0.25046689002E+02 -0.87854450406E+02  0.93744137554E+02  0.00000000000E+00 0.  1.
          1    1    1    2  501    0 -0.34982253350E+02 -0.61269641822E+01 -0.66676484452E+02  0.75545028416E+02  0.00000000000E+00 0. -1.
<scales pt_clust_5="13000.00000" pt_clust_6="13000.00000" pt_clust_7="13000.00000" pt_clust_8="13000.00000" pt_clust_9="35.51475"></scales>
<clustering>
<clus scale="   35.515">  1  9  2 -1</clus>
<clus scale="   78.991">  5  6 -1 -1</clus>
<clus scale="   91.493">  7  8 -1 -1</clus>
<clus scale="   93.492">  2  5  1 -1</clus>
<clus scale="   35.515">  1  5  2 -1</clus>
</clustering>
</event>
<event>
 9    2  0.1033155E-004  0.1276483E+03  0.7546771E-02  0.1240228E+00
          4   -1    0    0  502    0 -0.00000000000E+00  0.00000000000E+00  0.43052377103E+03  0.43052377103E+03  0.00000000000E+00 0. -1.
         21   -1    0    0  501  502  0.00000000000E+00 -0.00000000000E+00 -0.68695971764E+02  0.68695971764E+02  0.00000000000E+00 0.  1.
         24    2    1    2    0    0 -0.43774506065E+02  0.53614429694E+02  0.71657185228E+02  0.12766832256E+03  0.79835668339E+02 0.  0.
         23    2    1    2    0    0 -0.67790409766E+02 -0.19773624895E+02  0.17549379999E+03  0.20801945946E+03  0.86530259334E+02 0.  0.
        -13    1    3    3    0    0 -0.63683143138E+02  0.30414285491E+02  0.31721462560E+02  0.77374560863E+02  0.00000000000E+00 0.  1.
         14    1    3    3    0    0  0.19908637072E+02  0.23200144202E+02  0.39935722668E+02  0.50293761701E+02  0.00000000000E+00 0. -1.
        -13    1    4    4    0    0 -0.56990570104E+02  0.23959230301E+02  0.13023583939E+03  0.14416429398E+03  0.00000000000E+00 0.  1.
         13    1    4    4    0    0 -0.10799839662E+02 -0.43732855196E+02  0.45257960597E+02  0.63855165474E+02  0.00000000000E+00 0. -1.
          3    1    1    2  501    0  0.11156491583E+03 -0.33840804799E+02  0.11467681405E+03  0.16353196077E+03  0.00000000000E+00 0. -1.
<scales pt_clust_5="13000.00000" pt_clust_6="13000.00000" pt_clust_7="13000.00000" pt_clust_8="13000.00000" pt_clust_9="93.84351"></scales>
<clustering>
<clus scale="   79.836">  5  6 -1 -1</clus>
<clus scale="   86.530">  7  8 -1 -1</clus>
<clus scale="  105.662">  1  5  2 -1</clus>
<clus scale="   93.844">  2  9  1 -1</clus>
<clus scale="   93.844">  2  5  1 -1</clus>
</clustering>
</event>
<event>
 9    2  0.1033155E-004  0.1224150E+03  0.7546771E-02  0.1259292E+00
          2   -1    0    0  502    0 -0.00000000000E+00  0.00000000000E+00  0.10657749776E+03  0.10657749776E+03  0.00000000000E+00 0. -1.
         21   -1    0    0  501  502  0.00000000000E+00 -0.00000000000E+00 -0.41398791038E+03  0.41398791038E+03  0.00000000000E+00 0. -1.
         24    2    1    2    0    0 -0.40105297359E+01  0.18164578989E+02  0.45664555291E+02  0.93719343293E+02  0.79699607394E+02 0.  0.
         23    2    1    2    0    0 -0.70150710604E+02  0.27443000528E+02 -0.82061132013E+02  0.14219111560E+03  0.88374450448E+02 0.  0.
        -11    1    3    3    0    0 -0.35407125371E+02 -0.62146019321E+00  0.44820291349E+02  0.57121880715E+02  0.00000000000E+00 0.  1.
         12    1    3    3    0    0  0.31396595635E+02  0.18786039182E+02  0.84426394233E+00  0.36597462579E+02  0.00000000000E+00 0. -1.
        -13    1    4    4    0    0 -0.22957442709E+01 -0.26105360458E+02 -0.35146990779E+02  0.43841432996E+02  0.00000000000E+00 0.  1.
         13    1    4    4    0    0 -0.67854966333E+02  0.53548360986E+02 -0.46914141234E+02  0.98349682603E+02  0.00000000000E+00 0. -1.
          1    1    1    2  501    0  0.74161240340E+02 -0.45607579517E+02 -0.27101383590E+03  0.28465494924E+03  0.00000000000E+00 0. -1.
<scales pt_clust_5="13000.00000" pt_clust_6="13000.00000" pt_clust_7="13000.00000" pt_clust_8="13000.00000" pt_clust_9="84.70774"></scales>
<clustering>
<clus scale="   79.700">  5  6 -1 -1</clus>
<clus scale="   81.842">  1  5  2 -1</clus>
<clus scale="   84.708">  2  9  1 -1</clus>
<clus scale="   88.374">  7  8 -1 -1</clus>
<clus scale="   84.708">  2  5  1 -1</clus>
</clustering>
</event>
<event>
 9    2  0.1033155E-004  0.1062944E+03  0.7546771E-02  0.1271196E+00
         -3   -1    0    0    0  501 -0.00000000000E+00  0.00000000000E+00  0.69591666722E+03  0.69591666722E+03  0.00000000000E+00 0.  1.
         21   -1    0    0  501  502  0.00000000000E+00 -0.00000000000E+00 -0.22707260974E+02  0.22707260974E+02  0.00000000000E+00 0. -1.
         23    2    1    2    0    0 -0.23462139604E+02  0.34191420677E+02  0.45977134242E+03  0.47079593176E+03  0.92409938924E+02 0.  0.
         24    2    1    2    0    0  0.16640486611E+02 -0.13338731362E+02  0.15826076383E+03  0.18844867313E+03  0.10005801061E+03 0.  0.
        -11    1    4    4    0    0  0.32583866093E-01 -0.52594132132E+02  0.52011624217E+02  0.73968593674E+02  0.00000000000E+00 0.  1.
         12    1    4    4    0    0  0.16607902745E+02  0.39255400769E+02  0.10624913962E+03  0.11448007946E+03  0.00000000000E+00 0. -1.
        -11    1    3    3    0    0 -0.57364897808E+02  0.33480793218E+02  0.33354262078E+03  0.34009171541E+03  0.00000000000E+00 0. -1.
         11    1    3    3    0    0  0.33902758204E+02  0.71062745912E+00  0.12622872163E+03  0.13070421635E+03  0.00000000000E+00 0.  1.
         -4    1    1    2    0  502  0.68216529930E+01 -0.20852689315E+02  0.55177299998E+02  0.59379323306E+02  0.00000000000E+00 0.  1.
<scales pt_clust_5="13000.00000" pt_clust_6="13000.00000" pt_clust_7="13000.00000" pt_clust_8="13000.00000" pt_clust_9="21.94014"></scales>
<clustering>
<clus scale="   21.940">  2  9  1 -1</clus>
<clus scale="   92.410">  7  8 -1 -1</clus>
<clus scale="   99.129">  1  7  2 -1</clus>
<clus scale="  100.058">  5  6 -1 -1</clus>
<clus scale="   21.940">  2  5  1 -1</clus>
</clustering>
</event>
<event>
 9    2  0.1033155E-004  0.1098790E+03  0.7546771E-02  0.1268516E+00
          4   -1    0    0  502    0 -0.00000000000E+00  0.00000000000E+00  0.10357729900E+03  0.10357729900E+03  0.00000000000E+00 0. -1.
         21   -1    0    0  501  502  0.00000000000E+00 -0.00000000000E+00 -0.39646961658E+03  0.39646961658E+03  0.00000000000E+00 0.  1.
         24    2    1    2    0    0 -0.47600150640E+02 -0.18454193836E+02  0.47667308984E+02  0.10584418607E+03  0.79526648158E+02 0.  0.
         23    2    1    2    0    0  0.20996846299E+02  0.73048490331E+02 -0.15040612999E+03  0.19458653459E+03  0.97288056891E+02 0.  0.
        -13    1    3    3    0    0  0.34793591247E+01  0.22614061354E+02 -0.28993371041E+01  0.23063127855E+02  0.00000000000E+00 0.  1.
         14    1    3    3    0    0 -0.51079509764E+02 -0.41068255189E+02  0.50566646088E+02  0.82781058212E+02  0.00000000000E+00 0. -1.
        -11    1    4    4    0    0 -0.16688226661E+02  0.47677472332E+02 -0.16431516009E+02  0.53119045506E+02  0.00000000000E+00 0.  1.
         11    1    4    4    0    0  0.37685072960E+02  0.25371017998E+02 -0.13397461398E+03  0.14146748909E+03  0.00000000000E+00 0. -1.
          3    1    1    2  501    0  0.26603304341E+02 -0.54594296495E+02 -0.19015349658E+03  0.19961619492E+03  0.00000000000E+00 0. -1.
<scales pt_clust_5="13000.00000" pt_clust_6="13000.00000" pt_clust_7="13000.00000" pt_clust_8="13000.00000" pt_clust_9="60.73115"></scales>
<clustering>
<clus scale="   60.731">  2  9  1 -1</clus>
<clus scale="   79.527">  5  6 -1 -1</clus>
<clus scale="   94.514">  1  5  2 -1</clus>
<clus scale="   97.288">  7  8 -1 -1</clus>
<clus scale="   60.731">  2  5  1 -1</clus>
</clustering>
</event>
<event>
 9    2  0.1033155E-004  0.1301377E+03  0.7546771E-02  0.1229807E+00
          2   -1    0    0  502    0 -0.00000000000E+00  0.00000000000E+00  0.91084931750E+03  0.91084931750E+03  0.00000000000E+00 0. -1.
         21   -1    0    0  501  502  0.00000000000E+00 -0.00000000000E+00 -0.23747676258E+02  0.23747676258E+02  0.00000000000E+00 0. -1.
         23    2    1    2    0    0  0.96307485465E+02 -0.55138379683E+01  0.60739048267E+03  0.62167160297E+03  0.90812165081E+02 0.  0.
         24    2    1    2    0    0 -0.87161190111E+02 -0.12928430338E+02  0.24239187012E+03  0.27030495826E+03  0.80911892734E+02 0.  0.
        -13    1    4    4    0    0 -0.87455591988E+02 -0.21475342597E+02  0.24527161137E+03  0.26128114026E+03  0.00000000000E+00 0.  1.
         14    1    4    4    0    0  0.29440187710E+00  0.85469122591E+01 -0.28797412509E+01  0.90238180003E+01  0.00000000000E+00 0. -1.
        -11    1    3    3    0    0  0.73356013525E+02  0.33980893913E+02  0.46956418209E+03  0.47647279773E+03  0.00000000000E+00 0.  1.
         11    1    3    3    0    0  0.22951471940E+02 -0.39494731881E+02  0.13782630058E+03  0.14519880524E+03  0.00000000000E+00 0. -1.
          1    1    1    2  501    0 -0.91462953541E+01  0.18442268306E+02  0.37319288444E+02  0.42620432529E+02  0.00000000000E+00 0. -1.
<scales pt_clust_5="13000.00000" pt_clust_6="13000.00000" pt_clust_7="13000.00000" pt_clust_8="13000.00000" pt_clust_9="20.58572"></scales>
<clustering>
<clus scale="   20.586">  2  9  1 -1</clus>
<clus scale="   80.912">  5  6 -1 -1</clus>
<clus scale="   90.812">  7  8 -1 -1</clus>
<clus scale="  123.433">  2  5  1 -1</clus>
<clus scale="   20.586">  2  5  1 -1</clus>
</clustering>
</event>
<event>
 9    2  0.1033155E-004  0.1096119E+03  0.7546771E-02  0.1264323E+00
         -3   -1    0    0    0  501 -0.00000000000E+00  0.00000000000E+00  0.17948635966E+03  0.17948635966E+03  0.00000000000E+00 0.  1.
         21   -1    0    0  501  502  0.00000000000E+00 -0.00000000000E+00 -0.19242416915E+03  0.19242416915E+03  0.00000000000E+00 0.  1.
         24    2    1    2    0    0 -0.45837416547E+02 -0.43434192943E+02  0.13421545119E+03  0.16930879709E+03  0.81633838342E+02 0.  0.
         23    2    1    2    0    0  0.29036175919E+02  0.62424761671E+02 -0.12890149518E+03  0.17135992750E+03  0.89491222537E+02 0.  0.
        -11    1    3    3    0    0 -0.75400873469E+01 -0.42406594390E+02  0.12155427170E+03  0.12895973454E+03  0.00000000000E+00 0.  1.
         12    1    3    3    0    0 -0.38297329200E+02 -0.10275985525E+01  0.12661179493E+02  0.40349062551E+02  0.00000000000E+00 0. -1.
        -13    1    4    4    0    0  0.38469360451E+02  0.14948438786E+02 -0.11317402621E+03  0.12046454966E+03  0.00000000000E+00 0.  1.
         13    1    4    4    0    0 -0.94331845313E+01  0.47476322885E+02 -0.15727468963E+02  0.50895377836E+02  0.00000000000E+00 0. -1.
         -4    1    1    2    0  502  0.16801240627E+02 -0.18990568728E+02 -0.18251765504E+02  0.31241804225E+02  0.00000000000E+00 0.  1.
<scales pt_clust_5="13000.00000" pt_clust_6="13000.00000" pt_clust_7="13000.00000" pt_clust_8="13000.00000" pt_clust_9="25.35593"></scales>
<clustering>
<clus scale="   25.356">  2  9  1 -1</clus>
<clus scale="   81.634">  5  6 -1 -1</clus>
<clus scale="   89.491">  7  8 -1 -1</clus>
<clus scale="  103.297">  1  5  2 -1</clus>
<clus scale="   25.356">  2  5  1 -1</clus>
</clustering>
</event>
<event>
 9    2  0.1033155E-004  0.9340934E+02  0.7546771E-02  0.1299900E+00
         21   -1    0    0  501  502  0.00000000000E+00  0.00000000000E+00  0.25458700767E+03  0.25458700767E+03  0.00000000000E+00 0. -1.
          4   -1    0    0  502    0 -0.00000000000E+00 -0.00000000000E+00 -0.87298812858E+02  0.87298812858E+02  0.00000000000E+00 0. -1.
         23    2    1    2    0    0  0.19725866642E+01 -0.30071568885E+02 -0.26086438335E+02  0.99700120191E+02  0.91386111351E+02 0.  0.
         24    2    1    2    0    0  0.31017647017E+01 -0.30092448857E+01  0.54160128254E+02  0.99004808965E+02  0.82764462221E+02 0.  0.
        -13    1    4    4    0    0 -0.13885598222E+02  0.36857484472E+02  0.22761578088E+02  0.45490366416E+02  0.00000000000E+00 0.  1.
         14    1    4    4    0    0  0.16987362924E+02 -0.39866729358E+02  0.31398550166E+02  0.53514442549E+02  0.00000000000E+00 0. -1.
        -13    1    3    3    0    0 -0.19566779298E+02 -0.57838935921E+02 -0.17665203629E+02  0.63563045709E+02  0.00000000000E+00 0. -1.
         13    1    3    3    0    0  0.21539365962E+02  0.27767367036E+02 -0.84212347058E+01  0.36137074482E+02  0.00000000000E+00 0.  1.
          3    1    1    2  501    0 -0.50743513658E+01  0.33080813771E+02  0.13921450489E+03  0.14318089137E+03  0.00000000000E+00 0. -1.
<scales pt_clust_5="13000.00000" pt_clust_6="13000.00000" pt_clust_7="13000.00000" pt_clust_8="13000.00000" pt_clust_9="33.46773"></scales>
<clustering>
<clus scale="   33.468">  1  9  2 -1</clus>
<clus scale="   82.764">  5  6 -1 -1</clus>
<clus scale="   84.993">  1  5  2 -1</clus>
<clus scale="   91.386">  7  8 -1 -1</clus>
<clus scale="   33.468">  1  5  2 -1</clus>
</clustering>
</event>
<event>
 9    2  0.1033155E-004  0.1033845E+03  0.7546771E-02  0.1277771E+00
         21   -1    0    0  501  502  0.00000000000E+00  0.00000000000E+00  0.16507296071E+03  0.16507296071E+03  0.00000000000E+00 0.  1.
          2   -1    0    0  502    0 -0.00000000000E+00 -0.00000000000E+00 -0.18125295057E+03  0.18125295057E+03  0.00000000000E+00 0. -1.
         23    2    1    2    0    0 -0.61603225439E+02  0.24750789844E+02 -0.93709977773E+01  0.11263679352E+03  0.90507859727E+02 0.  0.
         24    2    1    2    0    0  0.28568834211E+02  0.60021090245E+02  0.60214679108E+02  0.12068595339E+03  0.80750122006E+02 0.  0.
        -13    1    4    4    0    0  0.42768732576E+02  0.39800131355E+02  0.72484918956E+02  0.93098219199E+02  0.00000000000E+00 0.  1.
         14    1    4    4    0    0 -0.14199898365E+02  0.20220958890E+02 -0.12270239848E+02  0.27587734194E+02  0.00000000000E+00 0. -1.
        -13    1    3    3    0    0  0.21467903729E+02  0.65419375935E+00  0.10471470078E+02  0.23894571467E+02  0.00000000000E+00 0.  1.
         13    1    3    3    0    0 -0.83071129168E+02  0.24096596085E+02 -0.19842467855E+02  0.88742222052E+02  0.00000000000E+00 0. -1.
          1    1    1    2  501    0  0.33034391229E+02 -0.84771880089E+02 -0.67023671189E+02  0.11300316437E+03  0.00000000000E+00 0. -1.
<scales pt_clust_5="13000.00000" pt_clust_6="13000.00000" pt_clust_7="13000.00000" pt_clust_8="13000.00000" pt_clust_9="90.98105"></scales>
<clustering>
<clus scale="   80.750">  5  6 -1 -1</clus>
<clus scale="   90.508">  7  8 -1 -1</clus>
<clus scale="   90.981">  1  9  2 -1</clus>
<clus scale="   94.959">  1  5  2 -1</clus>
<clus scale="   90.981">  1  5  2 -1</clus>
</clustering>
</event>
<event>
 9    2  0.1033155E-004  0.1057488E+03  0.7546771E-02  0.1275755E+00
          2   -1    0    0  502    0 -0.00000000000E+00  0.00000000000E+00  0.81887879528E+03  0.81887879528E+03  0.00000000000E+00 0. -1.
         21   -1    0    0  501  502  0.00000000000E+00 -0.00000000000E+00 -0.47631239416E+02  0.47631239416E+02  0.00000000000E+00 0. -1.
         24    2    1    2    0    0 -0.44284748069E+02  0.14439425835E+02  0.36487873647E+03  0.37635217312E+03  0.79591644983E+02 0.  0.
         23    2    1    2    0    0 -0.47196239900E+02  0.67412995127E-01  0.36014941668E+02  0.10839718487E+03  0.90693903103E+02 0.  0.
        -11    1    3    3    0    0  0.95587665926E+01 -0.24047998328E+02  0.92966693015E+02  0.96501203373E+02  0.00000000000E+00 0.  1.
         12    1    3    3    0    0 -0.53843514661E+02  0.38487424164E+02  0.27191204346E+03  0.27985096974E+03  0.00000000000E+00 0. -1.
        -13    1    4    4    0    0  0.93503981561E+01 -0.31204990971E+02 -0.33264025067E+01  0.32745173092E+02  0.00000000000E+00 0.  1.
         13    1    4    4    0    0 -0.56546638056E+02  0.31272403966E+02  0.39341344174E+02  0.75652011782E+02  0.00000000000E+00 0. -1.
          1    1    1    2  501    0  0.91480987969E+02 -0.14506838831E+02  0.37035387772E+03  0.38176067670E+03  0.00000000000E+00 0. -1.
<scales pt_clust_5="13000.00000" pt_clust_6="13000.00000" pt_clust_7="13000.00000" pt_clust_8="13000.00000" pt_clust_9="54.38232"></scales>
<clustering>
<clus scale="   79.592">  5  6 -1 -1</clus>
<clus scale="   90.694">  7  8 -1 -1</clus>
<clus scale="   92.220">  1  5  2 -1</clus>
<clus scale="   54.382">  2  9  1 -1</clus>
<clus scale="   54.382">  2  5  1 -1</clus>
</clustering>
</event>
<event>
 9    2  0.1033155E-004  0.1165403E+03  0.7546771E-02  0.1253507E+00
         21   -1    0    0  501  502  0.00000000000E+00  0.00000000000E+00  0.94169169650E+02  0.94169169650E+02  0.00000000000E+00 0. -1.
          4   -1    0    0  502    0 -0.00000000000E+00 -0.00000000000E+00 -0.70206843064E+03  0.70206843064E+03  0.00000000000E+00 0. -1.
         24    2    1    2    0    0 -0.20517004349E+02 -0.66504553688E+02 -0.55684224838E+03  0.56634030242E+03  0.76316744205E+02 0.  0.
         23    2    1    2    0    0  0.55052920980E+02  0.10130483438E+03 -0.86024841929E+02  0.16967655260E+03  0.89979806057E+02 0.  0.
        -13    1    3    3    0    0 -0.42923183306E+02 -0.55078210709E+02 -0.28885659088E+03  0.29717694906E+03  0.00000000000E+00 0.  1.
         14    1    3    3    0    0  0.22406178956E+02 -0.11426342979E+02 -0.26798565749E+03  0.26916335336E+03  0.00000000000E+00 0. -1.
        -13    1    4    4    0    0  0.48262265513E+02  0.91763087542E+01 -0.51186388421E+02  0.70947144230E+02  0.00000000000E+00 0. -1.
         13    1    4    4    0    0  0.67906554671E+01  0.92128525623E+02 -0.34838453509E+02  0.98729408374E+02  0.00000000000E+00 0.  1.
          3    1    1    2  501    0 -0.34535916631E+02 -0.34800280689E+02  0.34967829311E+02  0.60220745265E+02  0.00000000000E+00 0. -1.
<scales pt_clust_5="13000.00000" pt_clust_6="13000.00000" pt_clust_7="13000.00000" pt_clust_8="13000.00000" pt_clust_9="49.02845"></scales>
<clustering>
<clus scale="   49.028">  1  9  2 -1</clus>
<clus scale="   76.317">  5  6 -1 -1</clus>
<clus scale="   89.980">  7  8 -1 -1</clus>
<clus scale="  106.346">  2  5  1 -1</clus>
<clus scale="   49.028">  1  5  2 -1</clus>
</clustering>
</event>
<event>
 9    2  0.1033155E-004  0.2464035E+03  0.7546771E-02  0.1139543E+00
          2   -1    0    0  502    0 -0.00000000000E+00  0.00000000000E+00  0.48502111518E+03  0.48502111518E+03  0.00000000000E+00 0. -1.
         21   -1    0    0  501  502  0.00000000000E+00 -0.00000000000E+00 -0.57887873604E+03  0.57887873604E+03  0.00000000000E+00 0. -1.
         23    2    1    2    0    0  0.95495568289E+02  0.40211468013E+02 -0.22746999329E+03  0.26527786629E+03  0.88844711558E+02 0.  0.
         24    2    1    2    0    0 -0.29100811349E+03  0.69250929564E+02  0.36270564196E+03  0.47816777922E+03  0.87221723301E+02 0.  0.
        -13    1    4    4    0    0 -0.28174202324E+02 -0.10716103515E+02  0.11474792525E+02  0.32253548869E+02  0.00000000000E+00 0.  1.
         14    1    4    4    0    0 -0.26283391117E+03  0.79967033079E+02  0.35123084943E+03  0.44591423035E+03  0.00000000000E+00 0. -1.
        -11    1    3    3    0    0  0.17907763165E+02 -0.13688753972E+02 -0.43158929804E+01  0.22949877976E+02  0.00000000000E+00 0. -1.
         11    1    3    3    0    0  0.77587805124E+02  0.53900221986E+02 -0.22315410031E+03  0.24232798831E+03  0.00000000000E+00 0.  1.
          1    1    1    2  501    0  0.19551254520E+03 -0.10946239758E+03 -0.22909326953E+03  0.32045420571E+03  0.00000000000E+00 0. -1.
<scales pt_clust_5="13000.00000" pt_clust_6="13000.00000" pt_clust_7="13000.00000" pt_clust_8="13000.00000" pt_clust_9="230.44969"></scales>
<clustering>
<clus scale="   87.222">  5  6 -1 -1</clus>
<clus scale="   88.845">  7  8 -1 -1</clus>
<clus scale="  136.491">  1  7  2 -1</clus>
<clus scale="  230.450">  2  9  1 -1</clus>
<clus scale="  230.450">  2  5  1 -1</clus>
</clustering>
</event>
<event>
 9    2  0.1033155E-004  0.9696209E+02  0.7546771E-02  0.1292802E+00
          2   -1    0    0  502    0 -0.00000000000E+00  0.00000000000E+00  0.31367068040E+02  0.31367068040E+02  0.00000000000E+00 0. -1.
         21   -1    0    0  501  502  0.00000000000E+00 -0.00000000000E+00 -0.50631804757E+03  0.50631804757E+03  0.00000000000E+00 0.  1.
         23    2    1    2    0    0  0.12745055587E+02 -0.35865916258E+02 -0.82177649012E+02  0.12888184269E+03  0.91698216924E+02 0.  0.
         24    2    1    2    0    0  0.10068192762E+02  0.17971967278E+02 -0.26555683005E+03  0.27832463214E+03  0.80745345086E+02 0.  0.
        -11    1    4    4    0    0  0.44503126927E+02  0.92469031579E+01 -0.11553869098E+03  0.12415805507E+03  0.00000000000E+00 0.  1.
         12    1    4    4    0    0 -0.34434934166E+02  0.87250641203E+01 -0.15001813907E+03  0.15416657707E+03  0.00000000000E+00 0. -1.
        -13    1    3    3    0    0  0.15342298526E+02 -0.62268025624E+02 -0.30985015040E+02  0.71223340950E+02  0.00000000000E+00 0. -1.
         13    1    3    3    0    0 -0.25972429388E+01  0.26402109365E+02 -0.51192633972E+02  0.57658501739E+02  0.00000000000E+00 0.  1.
          1    1    1    2  501    0 -0.22813248349E+02  0.17893948980E+02 -0.12721650047E+03  0.13047864079E+03  0.00000000000E+00 0. -1.
<scales pt_clust_5="13000.00000" pt_clust_6="13000.00000" pt_clust_7="13000.00000" pt_clust_8="13000.00000" pt_clust_9="28.99375"></scales>
<clustering>
<clus scale="   28.994">  2  9  1 -1</clus>
<clus scale="   80.745">  5  6 -1 -1</clus>
<clus scale="   86.677">  2  5  1 -1</clus>
<clus scale="   91.698">  7  8 -1 -1</clus>
<clus scale="   28.994">  2  5  1 -1</clus>
</clustering>
</event>
<event>
 9    2  0.1033155E-004  0.1284787E+03  0.7546771E-02  0.1231036E+00
          2   -1    0    0  502    0 -0.00000000000E+00  0.00000000000E+00  0.11824869050E+03  0.11824869050E+03  0.00000000000E+00 0. -1.
         21   -1    0    0  501  502  0.00000000000E+00 -0.00000000000E+00 -0.27179488757E+03  0.27179488757E+03  0.00000000000E+00 0.  1.
         23    2    1    2    0    0  0.61719506492E+02  0.81029272051E+02  0.33565635585E+01  0.13318141744E+03  0.85737873909E+02 0.  0.
         24    2    1    2    0    0 -0.82701859883E+02 -0.42836036806E+02 -0.35900323442E+02  0.12825200482E+03  0.80530862660E+02 0.  0.
        -13    1    4    4    0    0 -0.32627405189E+02  0.23355625228E+02 -0.11460098353E+02  0.41729685518E+02  0.00000000000E+00 0.  1.
         14    1    4    4    0    0 -0.50074454695E+02 -0.66191662034E+02 -0.24440225090E+02  0.86522319307E+02  0.00000000000E+00 0. -1.
        -11    1    3    3    0    0  0.42018226076E+02  0.53294731422E+02 -0.39452642544E+02  0.78500768937E+02  0.00000000000E+00 0.  1.
         11    1    3    3    0    0  0.19701280416E+02  0.27734540628E+02  0.42809206102E+02  0.54680648506E+02  0.00000000000E+00 0. -1.
          1    1    1    2  501    0  0.20982353391E+02 -0.38193235245E+02 -0.12100243718E+03  0.12861015580E+03  0.00000000000E+00 0. -1.
<scales pt_clust_5="13000.00000" pt_clust_6="13000.00000" pt_clust_7="13000.00000" pt_clust_8="13000.00000" pt_clust_9="43.57731"></scales>
<clustering>
<clus scale="   43.577">  2  9  1 -1</clus>
<clus scale="   80.531">  5  6 -1 -1</clus>
<clus scale="   85.738">  7  8 -1 -1</clus>
<clus scale="  125.064">  2  5  1 -1</clus>
<clus scale="   43.577">  2  5  1 -1</clus>
</clustering>
</event>
<event>
 9    2  0.1033155E-004  0.9719719E+02  0.7546771E-02  0.1298014E+00
         21   -1    0    0  501  502  0.00000000000E+00  0.00000000000E+00  0.14620082259E+03  0.14620082259E+03  0.00000000000E+00 0. -1.
          2   -1    0    0  502    0 -0.00000000000E+00 -0.00000000000E+00 -0.16842913396E+03  0.16842913396E+03  0.00000000000E+00 0. -1.
         24    2    1    2    0    0 -0.23219324281E+02 -0.14049298461E+01  0.31439657726E+02  0.82889973783E+02  0.73083410073E+02 0.  0.
         23    2    1    2    0    0  0.28566755877E+02 -0.29513090239E+02  0.56994481380E+02  0.11671521615E+03  0.93204016740E+02 0.  0.
        -13    1    3    3    0    0  0.13248766884E+02 -0.23825357554E+02  0.29310040912E+02  0.40028189877E+02  0.00000000000E+00 0.  1.
         14    1    3    3    0    0 -0.36468091166E+02  0.22420427708E+02  0.21296168137E+01  0.42861783906E+02  0.00000000000E+00 0. -1.
        -13    1    4    4    0    0  0.31934456157E+02 -0.48504447504E+01  0.77822244999E+02  0.84259350347E+02  0.00000000000E+00 0. -1.
         13    1    4    4    0    0 -0.33677002805E+01 -0.24662645489E+02 -0.20827763618E+02  0.32455865803E+02  0.00000000000E+00 0.  1.
          1    1    1    2  501    0 -0.53474315952E+01  0.30918020085E+02 -0.11066245047E+03  0.11502476662E+03  0.00000000000E+00 0. -1.
<scales pt_clust_5="13000.00000" pt_clust_6="13000.00000" pt_clust_7="13000.00000" pt_clust_8="13000.00000" pt_clust_9="31.37706"></scales>
<clustering>
<clus scale="   31.377">  1  9  2 -1</clus>
<clus scale="   73.083">  5  6 -1 -1</clus>
<clus scale="   78.112">  2  5  1 -1</clus>
<clus scale="   93.204">  7  8 -1 -1</clus>
<clus scale="   31.377">  1  5  2 -1</clus>
</clustering>
</event>
<event>
 9    2  0.1033155E-004  0.1415450E+03  0.7546771E-02  0.1214462E+00
         -3   -1    0    0    0  501 -0.00000000000E+00  0.00000000000E+00  0.14281802798E+03  0.14281802798E+03  0.00000000000E+00 0.  1.
         21   -1    0    0  501  502  0.00000000000E+00 -0.00000000000E+00 -0.36922244066E+03  0.36922244066E+03  0.00000000000E+00 0.  1.
         23    2    1    2    0    0 -0.34544901367E+02  0.10702677139E+03  0.35528839715E+02  0.15027432293E+03  0.93123539858E+02 0.  0.
         24    2    1    2    0    0 -0.27735101877E+02 -0.10417820850E+03 -0.52410352372E+02  0.14316431876E+03  0.78274147265E+02 0.  0.
        -11    1    4    4    0    0 -0.31789566796E+02 -0.41199903155E+01 -0.52794693360E+01  0.32487284801E+02  0.00000000000E+00 0.  1.
         12    1    4    4    0    0  0.40544649187E+01 -0.10005821818E+03 -0.47130883037E+02  0.11067703396E+03  0.00000000000E+00 0. -1.
        -11    1    3    3    0    0  0.27672001776E+02  0.63452225522E+02  0.24949843176E+02  0.73582737653E+02  0.00000000000E+00 0.  1.
         11    1    3    3    0    0 -0.62216903143E+02  0.43574545865E+02  0.10578996538E+02  0.76691585274E+02  0.00000000000E+00 0. -1.
         -4    1    1    2    0  502  0.62280003244E+02 -0.28485628909E+01 -0.20952290001E+03  0.21860182695E+03  0.00000000000E+00 0.  1.
<scales pt_clust_5="13000.00000" pt_clust_6="13000.00000" pt_clust_7="13000.00000" pt_clust_8="13000.00000" pt_clust_9="62.34511"></scales>
<clustering>
<clus scale="   62.345">  2  9  1 -1</clus>
<clus scale="   78.274">  5  6 -1 -1</clus>
<clus scale="   93.124">  7  8 -1 -1</clus>
<clus scale="  132.249">  2  5  1 -1</clus>
<clus scale="   62.345">  2  5  1 -1</clus>
</clustering>
</event>
<event>
 9    2  0.1033155E-004  0.1109742E+03  0.7546771E-02  0.1263590E+00
         21   -1    0    0  501  502  0.00000000000E+00  0.00000000000E+00  0.71072614967E+02  0.71072614967E+02  0.00000000000E+00 0. -1.
          2   -1    0    0  502    0 -0.00000000000E+00 -0.00000000000E+00 -0.97397935806E+03  0.97397935806E+03  0.00000000000E+00 0. -1.
         24    2    1    2    0    0 -0.65270629846E+02  0.23191326745E+01 -0.85881485316E+03  0.86501983930E+03  0.80191875326E+02 0.  0.
         23    2    1    2    0    0  0.22306536491E+02 -0.38728952899E+02 -0.63167226861E+02  0.12057242631E+03  0.92466740369E+02 0.  0.
        -11    1    3    3    0    0 -0.37113919960E+02  0.34772938443E+02 -0.27769944617E+03  0.28231822949E+03  0.00000000000E+00 0.  1.
         12    1    3    3    0    0 -0.28156709886E+02 -0.32453805768E+02 -0.58111540700E+03  0.58270160981E+03  0.00000000000E+00 0. -1.
        -11    1    4    4    0    0 -0.25244455615E+02  0.30917453089E+01 -0.49702428934E+02  0.55831647570E+02  0.00000000000E+00 0. -1.
         11    1    4    4    0    0  0.47550992106E+02 -0.41820698208E+02 -0.13464797927E+02  0.64740778742E+02  0.00000000000E+00 0.  1.
          1    1    1    2  501    0  0.42964093355E+02  0.36409820225E+02  0.19075336935E+02  0.59459707415E+02  0.00000000000E+00 0. -1.
<scales pt_clust_5="13000.00000" pt_clust_6="13000.00000" pt_clust_7="13000.00000" pt_clust_8="13000.00000" pt_clust_9="56.31686"></scales>
<clustering>
<clus scale="   56.317">  1  9  2 -1</clus>
<clus scale="   80.192">  5  6 -1 -1</clus>
<clus scale="   92.467">  7  8 -1 -1</clus>
<clus scale="  100.975">  2  5  1 -1</clus>
<clus scale="   56.317">  1  5  2 -1</clus>
</clustering>
</event>
<event>
 9    2  0.1033155E-004  0.1995686E+03  0.7546771E-02  0.1164645E+00
          2   -1    0    0  502    0 -0.00000000000E+00  0.00000000000E+00  0.42300193654E+03  0.42300193654E+03  0.00000000000E+00 0. -1.
         21   -1    0    0  501  502  0.00000000000E+00 -0.00000000000E+00 -0.36695140691E+03  0.36695140691E+03  0.00000000000E+00 0. -1.
         23    2    1    2    0    0  0.43195724495E+02  0.99710366478E+02 -0.91687036375E+02  0.16905781199E+03  0.91465858976E+02 0.  0.
         24    2    1    2    0    0 -0.10706178242E+03 -0.25783030674E+03  0.28108976537E+03  0.40441551405E+03  0.81251212156E+02 0.  0.
        -13    1    4    4    0    0 -0.21720367617E+02 -0.45262663128E+02  0.13125663165E+02  0.51891869077E+02  0.00000000000E+00 0.  1.
         14    1    4    4    0    0 -0.85341414804E+02 -0.21256764361E+03  0.26796410220E+03  0.35252364497E+03  0.00000000000E+00 0. -1.
        -13    1    3    3    0    0  0.49071092348E+02  0.63324820758E+02 -0.11666828232E+02  0.80957519165E+02  0.00000000000E+00 0.  1.
         13    1    3    3    0    0 -0.58753678535E+01  0.36385545720E+02 -0.80020208144E+02  0.88100292827E+02  0.00000000000E+00 0. -1.
          1    1    1    2  501    0  0.63866057926E+02  0.15811994026E+03 -0.13335219936E+03  0.21648001741E+03  0.00000000000E+00 0. -1.
<scales pt_clust_5="13000.00000" pt_clust_6="13000.00000" pt_clust_7="13000.00000" pt_clust_8="13000.00000" pt_clust_9="182.27960"></scales>
<clustering>
<clus scale="   81.251">  5  6 -1 -1</clus>
<clus scale="   91.466">  7  8 -1 -1</clus>
<clus scale="  142.035">  1  7  2 -1</clus>
<clus scale="  182.280">  2  9  1 -1</clus>
<clus scale="  182.280">  2  5  1 -1</clus>
</clustering>
</event>
<event>
 9    2  0.1033155E-004  0.1077400E+03  0.7546771E-02  0.1268134E+00
          2   -1    0    0  502    0 -0.00000000000E+00  0.00000000000E+00  0.28236395942E+03  0.28236395942E+03  0.00000000000E+00 0. -1.
         21   -1    0    0  501  502  0.00000000000E+00 -0.00000000000E+00 -0.34961719605E+03  0.34961719605E+03  0.00000000000E+00 0. -1.
         23    2    1    2    0    0  0.42398411914E+02  0.23670065828E+02  0.19780417274E+03  0.22209839065E+03  0.88562447044E+02 0.  0.
         24    2    1    2    0    0  0.60915932692E+02 -0.26458457916E+02 -0.28573953254E+03  0.30448172522E+03  0.81555132778E+02 0.  0.
        -11    1    4    4    0    0  0.17361241450E+02  0.21595110763E+02 -0.16609127158E+03  0.16838667408E+03  0.00000000000E+00 0.  1.
         12    1    4    4    0    0  0.43554691242E+02 -0.48053568679E+02 -0.11964826097E+03  0.13609505114E+03  0.00000000000E+00 0. -1.
        -11    1    3    3    0    0  0.29551482037E+02 -0.24442068545E+02  0.14298188383E+03  0.14803554948E+03  0.00000000000E+00 0. -1.
         11    1    3    3    0    0  0.12846929877E+02  0.48112134373E+02  0.54822288913E+02  0.74062841174E+02  0.00000000000E+00 0.  1.
          1    1    1    2  501    0 -0.10331434461E+03  0.27883920879E+01  0.20682123171E+02  0.10540103961E+03  0.00000000000E+00 0. -1.
<scales pt_clust_5="13000.00000" pt_clust_6="13000.00000" pt_clust_7="13000.00000" pt_clust_8="13000.00000" pt_clust_9="70.40367"></scales>
<clustering>
<clus scale="   81.555">  5  6 -1 -1</clus>
<clus scale="   88.562">  7  8 -1 -1</clus>
<clus scale="  101.001">  1  7  2 -1</clus>
<clus scale="   70.404">  2  9  1 -1</clus>
<clus scale="   70.404">  2  5  1 -1</clus>
</clustering>
</event>
<event>
 9    2  0.3666237E-004  0.9220058E+02  0.7546771E-02  0.1305341E+00
         21   -1    0    0  501  502  0.00000000000E+00  0.00000000000E+00  0.42954379147E+03  0.42954379147E+03  0.00000000000E+00 0.  1.
         -3   -1    0    0    0  501 -0.00000000000E+00 -0.00000000000E+00 -0.13311437684E+03  0.13311437684E+03  0.00000000000E+00 0.  1.
         23    2    1    2    0    0  0.53979208701E+01 -0.65327548637E+01 -0.10226662147E+03  0.13786127061E+03  0.92062226943E+02 0.  0.
         24    2    1    2    0    0  0.65867119134E+01 -0.29971509674E+02  0.14602312410E+03  0.16921952543E+03  0.79817409447E+02 0.  0.
        -11    1    4    4    0    0 -0.10874832336E+02 -0.54217066864E+02  0.10179532794E+03  0.11584490109E+03  0.00000000000E+00 0.  1.
         12    1    4    4    0    0  0.17461544250E+02  0.24245557190E+02  0.44227796153E+02  0.53374624341E+02  0.00000000000E+00 0. -1.
        -13    1    3    3    0    0 -0.51817167111E+01 -0.47876221544E+02 -0.41286442593E+02  0.63431483661E+02  0.00000000000E+00 0.  1.
         13    1    3    3    0    0  0.10579637581E+02  0.41343466680E+02 -0.60980178880E+02  0.74429786945E+02  0.00000000000E+00 0. -1.
         -4    1    1    2    0  502 -0.11984632784E+02  0.36504264538E+02  0.25267291201E+03  0.25557737227E+03  0.00000000000E+00 0.  1.
<scales pt_clust_5="13000.00000" pt_clust_6="13000.00000" pt_clust_7="13000.00000" pt_clust_8="13000.00000" pt_clust_9="38.42125"></scales>
<clustering>
<clus scale="   38.421">  1  9  2 -1</clus>
<clus scale="   79.817">  5  6 -1 -1</clus>
<clus scale="   79.977">  1  5  2 -1</clus>
<clus scale="   92.062">  7  8 -1 -1</clus>
<clus scale="   38.421">  1  5  2 -1</clus>
</clustering>
</event>
<event>
 9    2  0.1033155E-004  0.9416822E+02  0.7546771E-02  0.1298396E+00
         21   -1    0    0  501  502  0.00000000000E+00  0.00000000000E+00  0.12628415095E+03  0.12628415095E+03  0.00000000000E+00 0.  1.
          2   -1    0    0  502    0 -0.00000000000E+00 -0.00000000000E+00 -0.77459882486E+03  0.77459882486E+03  0.00000000000E+00 0. -1.
         24    2    1    2    0    0  0.21663327055E+02  0.16004516773E+02 -0.71467750071E+03  0.71970848735E+03  0.80566323270E+02 0.  0.
         23    2    1    2    0    0 -0.46154416675E+02 -0.55880534020E+02  0.68599252042E+02  0.13432460244E+03  0.89913164656E+02 0.  0.
        -11    1    3    3    0    0 -0.19650577736E+02  0.46816658573E+01 -0.54180135835E+02  0.57823440918E+02  0.00000000000E+00 0.  1.
         12    1    3    3    0    0  0.41313904791E+02  0.11322850915E+02 -0.66049736487E+03  0.66188504643E+03  0.00000000000E+00 0. -1.
        -13    1    4    4    0    0 -0.82096456482E+01 -0.48492381947E+02  0.80098686835E+02  0.93993132841E+02  0.00000000000E+00 0.  1.
         13    1    4    4    0    0 -0.37944771027E+02 -0.73881520729E+01 -0.11499434793E+02  0.40331469598E+02  0.00000000000E+00 0. -1.
          1    1    1    2  501    0  0.24491089621E+02  0.39876017247E+02 -0.22364252450E+01  0.46849886021E+02  0.00000000000E+00 0. -1.
<scales pt_clust_5="13000.00000" pt_clust_6="13000.00000" pt_clust_7="13000.00000" pt_clust_8="13000.00000" pt_clust_9="46.79648"></scales>
<clustering>
<clus scale="   46.796">  1  9  2 -1</clus>
<clus scale="   80.566">  5  6 -1 -1</clus>
<clus scale="   85.289">  2  5  1 -1</clus>
<clus scale="   89.913">  7  8 -1 -1</clus>
<clus scale="   46.796">  1  5  2 -1</clus>
</clustering>
</event>
<event>
 9    2  0.1033155E-004  0.1761657E+03  0.7546771E-02  0.1198166E+00
         21   -1    0    0  501  502  0.00000000000E+00  0.00000000000E+00  0.58574617365E+03  0.58574617365E+03  0.00000000000E+00 0.  1.
          4   -1    0    0  502    0 -0.00000000000E+00 -0.00000000000E+00 -0.10858383837E+03  0.10858383837E+03  0.00000000000E+00 0. -1.
         23    2    1    2    0    0  0.11908590129E+02 -0.29344149501E+02  0.26107895267E+03  0.27864184370E+03  0.92066084433E+02 0.  0.
         24    2    1    2    0    0 -0.12334915151E+03  0.12494963140E+03  0.64669042162E+02  0.20477181196E+03  0.83198475905E+02 0.  0.
        -13    1    4    4    0    0 -0.47287626966E+01  0.46430800751E+02 -0.39412362182E+01  0.46837098522E+02  0.00000000000E+00 0.  1.
         14    1    4    4    0    0 -0.11862038881E+03  0.78518830653E+02  0.68610278380E+02  0.15793471344E+03  0.00000000000E+00 0. -1.
        -13    1    3    3    0    0  0.48276519941E+02 -0.34088960906E+02  0.18448096727E+03  0.19371604714E+03  0.00000000000E+00 0.  1.
         13    1    3    3    0    0 -0.36367929812E+02  0.47448114045E+01  0.76597985399E+02  0.84925796560E+02  0.00000000000E+00 0. -1.
          3    1    1    2  501    0  0.11144056138E+03 -0.95605481902E+02  0.15141434045E+03  0.21091635637E+03  0.00000000000E+00 0. -1.
<scales pt_clust_5="13000.00000" pt_clust_6="13000.00000" pt_clust_7="13000.00000" pt_clust_8="13000.00000" pt_clust_9="155.28153"></scales>
<clustering>
<clus scale="   83.198">  5  6 -1 -1</clus>
<clus scale="   92.066">  7  8 -1 -1</clus>
<clus scale="   97.361">  2  7  1 -1</clus>
<clus scale="  155.282">  1  9  2 -1</clus>
<clus scale="  155.282">  1  5  2 -1</clus>
</clustering>
</event>
<event>
 9    2  0.1033155E-004  0.1331006E+03  0.7546771E-02  0.1225491E+00
          2   -1    0    0  502    0 -0.00000000000E+00  0.00000000000E+00  0.19084864259E+03  0.19084864259E+03  0.00000000000E+00 0. -1.
         21   -1    0    0  501  502  0.00000000000E+00 -0.00000000000E+00 -0.26018480988E+03  0.26018480988E+03  0.00000000000E+00 0.  1.
         24    2    1    2    0    0  0.76138324175E+02 -0.60596239100E+02  0.14075345360E+03  0.18891065638E+03  0.80042193819E+02 0.  0.
         23    2    1    2    0    0 -0.64702639275E+02  0.77958259006E+02 -0.17956157483E+03  0.22518803982E+03  0.90572470681E+02 0.  0.
        -13    1    3    3    0    0  0.22250145886E+02 -0.21500723176E+02 -0.23991229405E+01  0.31033947218E+02  0.00000000000E+00 0.  1.
         14    1    3    3    0    0  0.53888178289E+02 -0.39095515924E+02  0.14315257654E+03  0.15787670916E+03  0.00000000000E+00 0. -1.
        -13    1    4    4    0    0 -0.42623243246E+02  0.90606537457E+02 -0.17132914957E+03  0.19844385349E+03  0.00000000000E+00 0.  1.
         13    1    4    4    0    0 -0.22079396029E+02 -0.12648278451E+02 -0.82324252593E+01  0.26744186329E+02  0.00000000000E+00 0. -1.
          1    1    1    2  501    0 -0.11435684900E+02 -0.17362019906E+02 -0.30528046067E+02  0.36934756274E+02  0.00000000000E+00 0. -1.
<scales pt_clust_5="13000.00000" pt_clust_6="13000.00000" pt_clust_7="13000.00000" pt_clust_8="13000.00000" pt_clust_9="20.78977"></scales>
<clustering>
<clus scale="   20.790">  2  9  1 -1</clus>
<clus scale="   80.042">  5  6 -1 -1</clus>
<clus scale="   90.572">  7  8 -1 -1</clus>
<clus scale="  126.171">  1  5  2 -1</clus>
<clus scale="   20.790">  2  5  1 -1</clus>
</clustering>
</event>
<event>
 9    2  0.1033155E-004  0.9523336E+02  0.7546771E-02  0.1295924E+00
          2   -1    0    0  502    0 -0.00000000000E+00  0.00000000000E+00  0.10179697062E+03  0.10179697062E+03  0.00000000000E+00 0. -1.
         21   -1    0    0  501  502  0.00000000000E+00 -0.00000000000E+00 -0.11392353380E+03  0.11392353380E+03  0.00000000000E+00 0.  1.
         24    2    1    2    0    0 -0.37880308070E+02  0.13509781501E+02  0.25851126555E+02  0.93155682515E+02  0.79951663553E+02 0.  0.
         23    2    1    2    0    0  0.13407800482E+02 -0.15661245554E+02 -0.27650205033E+02  0.95915443582E+02  0.89499691358E+02 0.  0.
        -11    1    3    3    0    0  0.80772681097E+01  0.18660206284E+02  0.39934872591E+02  0.44813386477E+02  0.00000000000E+00 0.  1.
         12    1    3    3    0    0 -0.45957576179E+02 -0.51504247834E+01 -0.14083746037E+02  0.48342296037E+02  0.00000000000E+00 0. -1.
        -13    1    4    4    0    0 -0.31556445784E+02 -0.26180454113E+02 -0.28147638799E+02  0.49734444986E+02  0.00000000000E+00 0.  1.
         13    1    4    4    0    0  0.44964246266E+02  0.10519208559E+02  0.49743376605E+00  0.46180998596E+02  0.00000000000E+00 0. -1.
          1    1    1    2  501    0  0.24472507588E+02  0.21514640531E+01 -0.10327484701E+02  0.26649378332E+02  0.00000000000E+00 0. -1.
<scales pt_clust_5="13000.00000" pt_clust_6="13000.00000" pt_clust_7="13000.00000" pt_clust_8="13000.00000" pt_clust_9="24.56690"></scales>
<clustering>
<clus scale="   24.567">  2  9  1 -1</clus>
<clus scale="   79.952">  5  6 -1 -1</clus>
<clus scale="   86.322">  1  5  2 -1</clus>
<clus scale="   89.500">  7  8 -1 -1</clus>
<clus scale="   24.567">  2  5  1 -1</clus>
</clustering>
</event>
<event>
 9    2  0.1033155E-004  0.9237823E+02  0.7546771E-02  0.1301887E+00
         21   -1    0    0  501  502  0.00000000000E+00  0.00000000000E+00  0.95249156562E+02  0.95249156562E+02  0.00000000000E+00 0. -1.
         -1   -1    0    0    0  501 -0.00000000000E+00 -0.00000000000E+00 -0.24657180861E+03  0.24657180861E+03  0.00000000000E+00 0.  1.
         24    2    1    2    0    0 -0.14498986199E+02 -0.14033171858E+02 -0.15209460589E+03  0.17322958921E+03  0.80427426442E+02 0.  0.
         23    2    1    2    0    0  0.54703144647E+02  0.41945390440E+02  0.23567480552E+02  0.11459968826E+03  0.88463623018E+02 0.  0.
        -13    1    3    3    0    0 -0.31447925076E+02 -0.39321420143E+02 -0.11275831835E+03  0.12348920775E+03  0.00000000000E+00 0.  1.
         14    1    3    3    0    0  0.16948938877E+02  0.25288248285E+02 -0.39336287539E+02  0.49740381460E+02  0.00000000000E+00 0. -1.
        -11    1    4    4    0    0  0.74879278151E+02  0.26980227877E+02  0.35064552784E+02  0.86973339907E+02  0.00000000000E+00 0. -1.
         11    1    4    4    0    0 -0.20176133504E+02  0.14965162563E+02 -0.11497072231E+02  0.27626348358E+02  0.00000000000E+00 0.  1.
         -2    1    1    2    0  502 -0.40204158448E+02 -0.27912218582E+02 -0.22795526717E+02  0.53991687702E+02  0.00000000000E+00 0.  1.
<scales pt_clust_5="13000.00000" pt_clust_6="13000.00000" pt_clust_7="13000.00000" pt_clust_8="13000.00000" pt_clust_9="48.94350"></scales>
<clustering>
<clus scale="   48.944">  1  9  2 -1</clus>
<clus scale="   80.427">  5  6 -1 -1</clus>
<clus scale="   84.714">  2  5  1 -1</clus>
<clus scale="   88.464">  7  8 -1 -1</clus>
<clus scale="   48.944">  1  5  2 -1</clus>
</clustering>
</event>
<event>
 9    2  0.1033155E-004  0.1057010E+03  0.7546771E-02  0.1272891E+00
         21   -1    0    0  501  502  0.00000000000E+00  0.00000000000E+00  0.22551080702E+03  0.22551080702E+03  0.00000000000E+00 0. -1.
         -1   -1    0    0    0  501 -0.00000000000E+00 -0.00000000000E+00 -0.83406308775E+02  0.83406308775E+02  0.00000000000E+00 0.  1.
         23    2    1    2    0    0 -0.31248660366E+01  0.42898346771E+02  0.12510962802E+02  0.10177847819E+03  0.91390926730E+02 0.  0.
         24    2    1    2    0    0 -0.29203213017E+02 -0.66879620760E+02  0.55697288596E+02  0.12299078264E+03  0.81846400863E+02 0.  0.
        -11    1    4    4    0    0  0.15827541528E+02 -0.58277467751E+02  0.16316654440E+02  0.62554036883E+02  0.00000000000E+00 0.  1.
         12    1    4    4    0    0 -0.45030754545E+02 -0.86021530093E+01  0.39380634156E+02  0.60436745758E+02  0.00000000000E+00 0. -1.
        -11    1    3    3    0    0 -0.22325235335E+02  0.32508436228E+02  0.46756057605E+02  0.61166522555E+02  0.00000000000E+00 0. -1.
         11    1    3    3    0    0  0.19200369298E+02  0.10389910542E+02 -0.34245094802E+02  0.40611955633E+02  0.00000000000E+00 0.  1.
         -2    1    1    2    0  502  0.32328079054E+02  0.23981273990E+02  0.73896246848E+02  0.84147854968E+02  0.00000000000E+00 0.  1.
<scales pt_clust_5="13000.00000" pt_clust_6="13000.00000" pt_clust_7="13000.00000" pt_clust_8="13000.00000" pt_clust_9="40.25179"></scales>
<clustering>
<clus scale="   40.252">  1  9  2 -1</clus>
<clus scale="   81.846">  5  6 -1 -1</clus>
<clus scale="   91.391">  7  8 -1 -1</clus>
<clus scale="   97.567">  1  5  2 -1</clus>
<clus scale="   40.252">  1  5  2 -1</clus>
</clustering>
</event>
<event>
 9    2  0.1033155E-004  0.1436257E+03  0.7546771E-02  0.1213325E+00
          2   -1    0    0  502    0 -0.00000000000E+00  0.00000000000E+00  0.29061115993E+03  0.29061115993E+03  0.00000000000E+00 0. -1.
         21   -1    0    0  501  502  0.00000000000E+00 -0.00000000000E+00 -0.16320857046E+03  0.16320857046E+03  0.00000000000E+00 0.  1.
         23    2    1    2    0    0  0.12339985484E+03  0.21931279315E+02  0.18841177141E+03  0.24370362534E+03  0.90465220994E+02 0.  0.
         24    2    1    2    0    0 -0.73338386067E+02  0.49347232676E+02 -0.53571452339E+02  0.12269701818E+03  0.66113459448E+02 0.  0.
        -13    1    4    4    0    0 -0.78635882736E+02  0.29143339093E+02 -0.25395204931E+02  0.87623357049E+02  0.00000000000E+00 0.  1.
         14    1    4    4    0    0  0.52974966694E+01  0.20203893583E+02 -0.28176247408E+02  0.35073661128E+02  0.00000000000E+00 0. -1.
        -13    1    3    3    0    0  0.55212622231E+02  0.12917964496E+02  0.17297415115E+02  0.59283286262E+02  0.00000000000E+00 0.  1.
         13    1    3    3    0    0  0.68187232613E+02  0.90133148197E+01  0.17111435629E+03  0.18442033907E+03  0.00000000000E+00 0. -1.
          1    1    1    2  501    0 -0.50061468777E+02 -0.71278511991E+02 -0.74377295999E+01  0.87419086872E+02  0.00000000000E+00 0. -1.
<scales pt_clust_5="13000.00000" pt_clust_6="13000.00000" pt_clust_7="13000.00000" pt_clust_8="13000.00000" pt_clust_9="87.10211"></scales>
<clustering>
<clus scale="   66.113">  5  6 -1 -1</clus>
<clus scale="   87.102">  2  9  1 -1</clus>
<clus scale="   90.465">  7  8 -1 -1</clus>
<clus scale="  129.674">  2  5  1 -1</clus>
<clus scale="   87.102">  2  5  1 -1</clus>
</clustering>
</event>
<event>
 9    2  0.1033155E-004  0.9200520E+02  0.7546771E-02  0.1303118E+00
         21   -1    0    0  501  502  0.00000000000E+00  0.00000000000E+00  0.21552613966E+03  0.21552613966E+03  0.00000000000E+00 0. -1.
          2   -1    0    0  502    0 -0.00000000000E+00 -0.00000000000E+00 -0.11208698697E+03  0.11208698697E+03  0.00000000000E+00 0. -1.
         24    2    1    2    0    0  0.28814783842E+01  0.68569294628E-01 -0.60169654941E+02  0.10292194665E+03  0.83451974854E+02 0.  0.
         23    2    1    2    0    0 -0.22013558515E+02  0.19029311089E+02  0.50941138277E+02  0.10882587351E+03  0.91658931579E+02 0.  0.
        -11    1    3    3    0    0 -0.93736155672E+01  0.31905760866E+02  0.56849556292E+00  0.33259065418E+02  0.00000000000E+00 0.  1.
         12    1    3    3    0    0  0.12255093951E+02 -0.31837191572E+02 -0.60738150504E+02  0.69662881232E+02  0.00000000000E+00 0. -1.
        -11    1    4    4    0    0  0.29538657271E+02  0.30791431143E+02  0.16646145035E+02  0.45801076949E+02  0.00000000000E+00 0.  1.
         11    1    4    4    0    0 -0.51552215786E+02 -0.11762120054E+02  0.34294993243E+02  0.63024796565E+02  0.00000000000E+00 0. -1.
          1    1    1    2  501    0  0.19132080130E+02 -0.19097880383E+02  0.11266766935E+03  0.11586530647E+03  0.00000000000E+00 0. -1.
<scales pt_clust_5="13000.00000" pt_clust_6="13000.00000" pt_clust_7="13000.00000" pt_clust_8="13000.00000" pt_clust_9="27.03268"></scales>
<clustering>
<clus scale="   27.033">  1  9  2 -1</clus>
<clus scale="   83.452">  5  6 -1 -1</clus>
<clus scale="   83.832">  2  5  1 -1</clus>
<clus scale="   91.659">  7  8 -1 -1</clus>
<clus scale="   27.033">  1  5  2 -1</clus>
</clustering>
</event>
<event>
 9    2  0.1033155E-004  0.4321632E+03  0.7546771E-02  0.1049054E+00
         21   -1    0    0  501  502  0.00000000000E+00  0.00000000000E+00  0.28244574725E+03  0.28244574725E+03  0.00000000000E+00 0.  1.
          2   -1    0    0  502    0 -0.00000000000E+00 -0.00000000000E+00 -0.19520510920E+04  0.19520510920E+04  0.00000000000E+00 0. -1.
         23    2    1    2    0    0  0.24577611500E+03 -0.60590407990E+02 -0.11842715118E+04  0.12152350373E+04  0.10109444141E+03 0.  0.
         24    2    1    2    0    0  0.25944609308E+03 -0.12563998852E+03 -0.35671294850E+03  0.46566034600E+03  0.80608611716E+02 0.  0.
        -13    1    4    4    0    0  0.92346800679E+02 -0.54576970457E+01 -0.12854169366E+03  0.15836882604E+03  0.00000000000E+00 0.  1.
         14    1    4    4    0    0  0.16709929240E+03 -0.12018229148E+03 -0.22817125483E+03  0.30729151996E+03  0.00000000000E+00 0. -1.
        -13    1    3    3    0    0  0.28077375305E+02 -0.44049862642E+02 -0.17556535770E+03  0.18317184344E+03  0.00000000000E+00 0.  1.
         13    1    3    3    0    0  0.21769873970E+03 -0.16540545348E+02 -0.10087061541E+04  0.10320631939E+04  0.00000000000E+00 0. -1.
          1    1    1    2  501    0 -0.50522220808E+03  0.18623039651E+03 -0.12862088452E+03  0.55360145597E+03  0.00000000000E+00 0. -1.
<scales pt_clust_5="13000.00000" pt_clust_6="13000.00000" pt_clust_7="13000.00000" pt_clust_8="13000.00000" pt_clust_9="424.57898"></scales>
<clustering>
<clus scale="   80.609">  5  6 -1 -1</clus>
<clus scale="  101.094">  7  8 -1 -1</clus>
<clus scale="  272.575">  2  7  1 -1</clus>
<clus scale="  424.579">  1  9  2 -1</clus>
<clus scale="  424.579">  1  5  2 -1</clus>
</clustering>
</event>
<event>
 9    2  0.1033155E-004  0.9279656E+02  0.7546771E-02  0.1299972E+00
         21   -1    0    0  501  502  0.00000000000E+00  0.00000000000E+00  0.99997517985E+02  0.99997517985E+02  0.00000000000E+00 0.  1.
          4   -1    0    0  502    0 -0.00000000000E+00 -0.00000000000E+00 -0.28759863035E+03  0.28759863035E+03  0.00000000000E+00 0. -1.
         23    2    1    2    0    0 -0.25677581807E+02  0.20451040040E+02 -0.23613056072E+03  0.25391200650E+03  0.87384678811E+02 0.  0.
         24    2    1    2    0    0  0.34075305107E+02  0.12955963420E+02  0.25290182409E+02  0.92131607402E+02  0.80744388969E+02 0.  0.
        -13    1    4    4    0    0  0.48352250943E+02  0.36452651432E+02  0.12602030810E+02  0.61851007657E+02  0.00000000000E+00 0.  1.
         14    1    4    4    0    0 -0.14276945836E+02 -0.23496688012E+02  0.12688151599E+02  0.30280599745E+02  0.00000000000E+00 0. -1.
        -13    1    3    3    0    0  0.28111656292E+02  0.60236605779E+00 -0.35707812703E+02  0.45449707946E+02  0.00000000000E+00 0.  1.
         13    1    3    3    0    0 -0.53789238099E+02  0.19848673982E+02 -0.20042274802E+03  0.20846229855E+03  0.00000000000E+00 0. -1.
          3    1    1    2  501    0 -0.83977233002E+01 -0.33407003460E+02  0.23239265943E+02  0.41552534439E+02  0.00000000000E+00 0. -1.
<scales pt_clust_5="13000.00000" pt_clust_6="13000.00000" pt_clust_7="13000.00000" pt_clust_8="13000.00000" pt_clust_9="34.44633"></scales>
<clustering>
<clus scale="   34.446">  1  9  2 -1</clus>
<clus scale="   80.744">  5  6 -1 -1</clus>
<clus scale="   86.572">  1  5  2 -1</clus>
<clus scale="   87.385">  7  8 -1 -1</clus>
<clus scale="   34.446">  1  5  2 -1</clus>
</clustering>
</event>
<event>
 9    2  0.1033155E-004  0.1281853E+03  0.7546771E-02  0.1254522E+00
          2   -1    0    0  502    0 -0.00000000000E+00  0.00000000000E+00  0.74363027492E+03  0.74363027492E+03  0.00000000000E+00 0. -1.
         21   -1    0    0  501  502  0.00000000000E+00 -0.00000000000E+00 -0.52793067058E+02  0.52793067058E+02  0.00000000000E+00 0.  1.
         24    2    1    2    0    0  0.21786315186E+01 -0.42369588531E+02  0.43405921755E+03  0.44106894496E+03  0.65836778468E+02 0.  0.
         23    2    1    2    0    0 -0.87088570743E+02 -0.12289914040E+02  0.73673618223E+02  0.14625018836E+03  0.90696496254E+02 0.  0.
        -13    1    3    3    0    0  0.26424557835E+02 -0.25412955757E+02  0.11645260730E+03  0.12208720377E+03  0.00000000000E+00 0.  1.
         14    1    3    3    0    0 -0.24245926316E+02 -0.16956632774E+02  0.31760661026E+03  0.31898174120E+03  0.00000000000E+00 0. -1.
        -11    1    4    4    0    0 -0.27166353115E+02  0.37262902380E+02  0.41711975653E+02  0.62180572112E+02  0.00000000000E+00 0. -1.
         11    1    4    4    0    0 -0.59922217628E+02 -0.49552816420E+02  0.31961642571E+02  0.84069616251E+02  0.00000000000E+00 0.  1.
          1    1    1    2  501    0  0.84909939224E+02  0.54659502572E+02  0.18310437209E+03  0.20910420866E+03  0.00000000000E+00 0. -1.
<scales pt_clust_5="13000.00000" pt_clust_6="13000.00000" pt_clust_7="13000.00000" pt_clust_8="13000.00000" pt_clust_9="90.58493"></scales>
<clustering>
<clus scale="   65.837">  5  6 -1 -1</clus>
<clus scale="   78.322">  1  5  2 -1</clus>
<clus scale="   90.585">  2  9  1 -1</clus>
<clus scale="   90.696">  7  8 -1 -1</clus>
<clus scale="   90.585">  2  5  1 -1</clus>
</clustering>
</event>
<event>
 9    2  0.1033155E-004  0.9037576E+02  0.7546771E-02  0.1308662E+00
          2   -1    0    0  502    0 -0.00000000000E+00  0.00000000000E+00  0.15977320753E+03  0.15977320753E+03  0.00000000000E+00 0. -1.
         21   -1    0    0  501  502  0.00000000000E+00 -0.00000000000E+00 -0.11913637498E+03  0.11913637498E+03  0.00000000000E+00 0. -1.
         24    2    1    2    0    0  0.19537295815E+02  0.19300845983E+02  0.29467658732E+02  0.89208950500E+02  0.79596892871E+02 0.  0.
         23    2    1    2    0    0  0.35560182991E+02  0.30875927702E+02  0.40763914046E+02  0.10951778198E+03  0.90081065472E+02 0.  0.
        -11    1    3    3    0    0 -0.28520133405E+02 -0.70401744973E+01  0.11264746666E+02  0.31461986330E+02  0.00000000000E+00 0.  1.
         12    1    3    3    0    0  0.48057429220E+02  0.26341020480E+02  0.18202912067E+02  0.57746964170E+02  0.00000000000E+00 0. -1.
        -13    1    4    4    0    0  0.36765816344E+02  0.54167720355E+02  0.52022648895E+02  0.83619514337E+02  0.00000000000E+00 0.  1.
         13    1    4    4    0    0 -0.12056333530E+01 -0.23291792652E+02 -0.11258734849E+02  0.25898267648E+02  0.00000000000E+00 0. -1.
          1    1    1    2  501    0 -0.55097478805E+02 -0.50176773685E+02 -0.29594740234E+02  0.80182850022E+02  0.00000000000E+00 0. -1.
<scales pt_clust_5="13000.00000" pt_clust_6="13000.00000" pt_clust_7="13000.00000" pt_clust_8="13000.00000" pt_clust_9="74.52141"></scales>
<clustering>
<clus scale="   74.521">  2  9  1 -1</clus>
<clus scale="   79.597">  5  6 -1 -1</clus>
<clus scale="   79.930">  1  5  2 -1</clus>
<clus scale="   90.081">  7  8 -1 -1</clus>
<clus scale="   74.521">  2  5  1 -1</clus>
</clustering>
</event>
<event>
 9    2  0.1033155E-004  0.1228551E+03  0.7546771E-02  0.1241834E+00
         21   -1    0    0  501  502  0.00000000000E+00  0.00000000000E+00  0.14125638647E+02  0.14125638647E+02  0.00000000000E+00 0.  1.
          2   -1    0    0  502    0 -0.00000000000E+00 -0.00000000000E+00 -0.14546836341E+04  0.14546836341E+04  0.00000000000E+00 0. -1.
         24    2    1    2    0    0 -0.40835532899E+02 -0.57919420791E+02 -0.69153693018E+03  0.69970429418E+03  0.79627717789E+02 0.  0.
         23    2    1    2    0    0  0.51718011382E+02  0.89411940335E+02 -0.65637961027E+03  0.67065374033E+03  0.90956027106E+02 0.  0.
        -13    1    3    3    0    0  0.10672108641E+02 -0.40716903781E+02 -0.16158960605E+03  0.16698191800E+03  0.00000000000E+00 0.  1.
         14    1    3    3    0    0 -0.51507641540E+02 -0.17202517010E+02 -0.52994732414E+03  0.53272237618E+03  0.00000000000E+00 0. -1.
        -11    1    4    4    0    0 -0.96510797084E+01  0.72195826011E+02 -0.39106356042E+03  0.39778900050E+03  0.00000000000E+00 0.  1.
         11    1    4    4    0    0  0.61369091090E+02  0.17216114324E+02 -0.26531604985E+03  0.27286473983E+03  0.00000000000E+00 0. -1.
          1    1    1    2  501    0 -0.10882478483E+02 -0.31492519545E+02 -0.92641455021E+02  0.98451238254E+02  0.00000000000E+00 0. -1.
<scales pt_clust_5="13000.00000" pt_clust_6="13000.00000" pt_clust_7="13000.00000" pt_clust_8="13000.00000" pt_clust_9="33.31977"></scales>
<clustering>
<clus scale="   33.320">  1  9  2 -1</clus>
<clus scale="   79.628">  5  6 -1 -1</clus>
<clus scale="   90.956">  7  8 -1 -1</clus>
<clus scale="  114.721">  2  5  1 -1</clus>
<clus scale="   33.320">  1  5  2 -1</clus>
</clustering>
</event>
<event>
 9    2  0.1033155E-004  0.1110299E+03  0.7546771E-02  0.1262738E+00
         21   -1    0    0  501  502  0.00000000000E+00  0.00000000000E+00  0.19182499867E+03  0.19182499867E+03  0.00000000000E+00 0.  1.
         -3   -1    0    0    0  501 -0.00000000000E+00 -0.00000000000E+00 -0.18880571533E+03  0.18880571533E+03  0.00000000000E+00 0.  1.
         23    2    1    2    0    0 -0.60472322226E+02  0.70238319877E+02 -0.98668281625E+02  0.16420839702E+03  0.92944308697E+02 0.  0.
         24    2    1    2    0    0  0.51397121488E+01 -0.23709565297E+02 -0.64787331079E+01  0.86320161803E+02  0.82587143209E+02 0.  0.
        -13    1    4    4    0    0 -0.75606224950E+01  0.21487091138E+02  0.21787250862E+02  0.31520507582E+02  0.00000000000E+00 0.  1.
         14    1    4    4    0    0  0.12700334644E+02 -0.45196656435E+02 -0.28265983970E+02  0.54799654221E+02  0.00000000000E+00 0. -1.
        -13    1    3    3    0    0 -0.46792294779E+02  0.92234227365E+02 -0.89366504087E+02  0.13668593052E+03  0.00000000000E+00 0.  1.
         13    1    3    3    0    0 -0.13680027447E+02 -0.21995907488E+02 -0.93017775373E+01  0.27522466505E+02  0.00000000000E+00 0. -1.
         -4    1    1    2    0  502  0.55332610077E+02 -0.46528754580E+02  0.10816629808E+03  0.13010215517E+03  0.00000000000E+00 0.  1.
<scales pt_clust_5="13000.00000" pt_clust_6="13000.00000" pt_clust_7="13000.00000" pt_clust_8="13000.00000" pt_clust_9="72.29539"></scales>
<clustering>
<clus scale="   72.295">  1  9  2 -1</clus>
<clus scale="   82.587">  5  6 -1 -1</clus>
<clus scale="   92.944">  7  8 -1 -1</clus>
<clus scale="  102.517">  1  5  2 -1</clus>
<clus scale="   72.295">  1  5  2 -1</clus>
</clustering>
</event>
<event>
 9    2  0.1033155E-004  0.1510348E+03  0.7546771E-02  0.1219988E+00
         21   -1    0    0  501  502  0.00000000000E+00  0.00000000000E+00  0.12209851023E+03  0.12209851023E+03  0.00000000000E+00 0. -1.
          2   -1    0    0  502    0 -0.00000000000E+00 -0.00000000000E+00 -0.31542591536E+03  0.31542591536E+03  0.00000000000E+00 0. -1.
         24    2    1    2    0    0  0.49404823488E+02  0.11310088972E+02 -0.29222651188E+02  0.10118712579E+03  0.82559774628E+02 0.  0.
         23    2    1    2    0    0 -0.12643020200E+03  0.78580632565E+02 -0.12726598220E+03  0.21236010086E+03  0.82101585989E+02 0.  0.
        -13    1    3    3    0    0  0.13702069769E+02 -0.28154598745E+02  0.12346754669E+02  0.33658141620E+02  0.00000000000E+00 0.  1.
         14    1    3    3    0    0  0.35702753719E+02  0.39464687717E+02 -0.41569405856E+02  0.67528984170E+02  0.00000000000E+00 0. -1.
        -13    1    4    4    0    0  0.16409701505E+01  0.29715611620E+02 -0.40022302078E+02  0.49874793439E+02  0.00000000000E+00 0.  1.
         13    1    4    4    0    0 -0.12807117215E+03  0.48865020945E+02 -0.87243680122E+02  0.16248530743E+03  0.00000000000E+00 0. -1.
          1    1    1    2  501    0  0.77025378511E+02 -0.89890721537E+02 -0.36838771744E+02  0.12397719894E+03  0.00000000000E+00 0. -1.
<scales pt_clust_5="13000.00000" pt_clust_6="13000.00000" pt_clust_7="13000.00000" pt_clust_8="13000.00000" pt_clust_9="126.77078"></scales>
<clustering>
<clus scale="   82.102">  7  8 -1 -1</clus>
<clus scale="   82.560">  5  6 -1 -1</clus>
<clus scale="   96.876">  2  5  1 -1</clus>
<clus scale="  126.771">  1  9  2 -1</clus>
<clus scale="  126.771">  1  5  2 -1</clus>
</clustering>
</event>
<event>
 9    2  0.1033155E-004  0.3266337E+03  0.7546771E-02  0.1099639E+00
         21   -1    0    0  501  502  0.00000000000E+00  0.00000000000E+00  0.93957322120E+02  0.93957322120E+02  0.00000000000E+00 0.  1.
         -3   -1    0    0    0  501 -0.00000000000E+00 -0.00000000000E+00 -0.17932840662E+04  0.17932840662E+04  0.00000000000E+00 0.  1.
         24    2    1    2    0    0  0.85840277803E+02 -0.10791240020E+03 -0.31696667158E+03  0.35466740552E+03  0.79419507903E+02 0.  0.
         23    2    1    2    0    0  0.25838323918E+03  0.54556522713E+01 -0.82690713159E+03  0.87112467681E+03  0.91055674436E+02 0.  0.
        -11    1    3    3    0    0  0.53848728117E+02 -0.11437927005E+03 -0.25598289971E+03  0.28549877037E+03  0.00000000000E+00 0.  1.
         12    1    3    3    0    0  0.31991549685E+02  0.64668698582E+01 -0.60983771867E+02  0.69168635148E+02  0.00000000000E+00 0. -1.
        -13    1    4    4    0    0  0.20455054380E+03 -0.20676238829E+02 -0.53492029959E+03  0.57306906978E+03  0.00000000000E+00 0.  1.
         13    1    4    4    0    0  0.53832695378E+02  0.26131891101E+02 -0.29198683199E+03  0.29805560703E+03  0.00000000000E+00 0. -1.
         -4    1    1    2    0  502 -0.34422351698E+03  0.10245674792E+03 -0.55545294096E+03  0.66144930604E+03  0.00000000000E+00 0.  1.
<scales pt_clust_5="13000.00000" pt_clust_6="13000.00000" pt_clust_7="13000.00000" pt_clust_8="13000.00000" pt_clust_9="313.68524"></scales>
<clustering>
<clus scale="   79.420">  5  6 -1 -1</clus>
<clus scale="   91.056">  7  8 -1 -1</clus>
<clus scale="  159.126">  2  5  1 -1</clus>
<clus scale="  313.685">  1  9  2 -1</clus>
<clus scale="  313.685">  1  5  2 -1</clus>
</clustering>
</event>
<event>
 9    2  0.1033155E-004  0.1637450E+03  0.7546771E-02  0.1186358E+00
         21   -1    0    0  501  502  0.00000000000E+00  0.00000000000E+00  0.36647145364E+03  0.36647145364E+03  0.00000000000E+00 0.  1.
          2   -1    0    0  502    0 -0.00000000000E+00 -0.00000000000E+00 -0.26700219255E+03  0.26700219255E+03  0.00000000000E+00 0. -1.
         24    2    1    2    0    0 -0.13131272513E+03  0.37411563998E+02 -0.21596001019E+03  0.26770327662E+03  0.79897818560E+02 0.  0.
         23    2    1    2    0    0  0.12520113328E+03 -0.85250996660E+01  0.26364052606E+03  0.30615616398E+03  0.92072084060E+02 0.  0.
        -11    1    3    3    0    0 -0.28936576637E+02 -0.21344714315E+02 -0.27247262754E+02  0.45114694105E+02  0.00000000000E+00 0.  1.
         12    1    3    3    0    0 -0.10237614849E+03  0.58756278313E+02 -0.18871274744E+03  0.22258858251E+03  0.00000000000E+00 0. -1.
        -13    1    4    4    0    0  0.67882191484E+02  0.40687011944E+02  0.15178452975E+03  0.17117817715E+03  0.00000000000E+00 0.  1.
         13    1    4    4    0    0  0.57318941799E+02 -0.49212111610E+02  0.11185599630E+03  0.13497798682E+03  0.00000000000E+00 0. -1.
          1    1    1    2  501    0  0.61115918479E+01 -0.28886464332E+02  0.51788745220E+02  0.59614205589E+02  0.00000000000E+00 0. -1.
<scales pt_clust_5="13000.00000" pt_clust_6="13000.00000" pt_clust_7="13000.00000" pt_clust_8="13000.00000" pt_clust_9="29.52591"></scales>
<clustering>
<clus scale="   29.526">  1  9  2 -1</clus>
<clus scale="   79.898">  5  6 -1 -1</clus>
<clus scale="   92.072">  7  8 -1 -1</clus>
<clus scale="  157.222">  2  5  1 -1</clus>
<clus scale="   29.526">  1  5  2 -1</clus>
</clustering>
</event>
<event>
 9    2  0.1033155E-004  0.1284176E+03  0.7546771E-02  0.1230862E+00
          2   -1    0    0  502    0 -0.00000000000E+00  0.00000000000E+00  0.71022077049E+03  0.71022077049E+03  0.00000000000E+00 0. -1.
         21   -1    0    0  501  502  0.00000000000E+00 -0.00000000000E+00 -0.47215401463E+02  0.47215401463E+02  0.00000000000E+00 0. -1.
         24    2    1    2    0    0  0.97603578301E+02 -0.19547614452E+02  0.38198115367E+03  0.40418458976E+03  0.86873546678E+02 0.  0.
         23    2    1    2    0    0 -0.82009296961E+02 -0.33304878278E+02  0.26822585968E+03  0.29667980914E+03  0.90769254974E+02 0.  0.
        -13    1    3    3    0    0  0.61270154958E+02 -0.20465631538E+02  0.94823957483E+02  0.11473646707E+03  0.00000000000E+00 0.  1.
         14    1    3    3    0    0  0.36333423343E+02  0.91801708648E+00  0.28715719618E+03  0.28944812269E+03  0.00000000000E+00 0. -1.
        -11    1    4    4    0    0 -0.40948449821E+02 -0.63005746447E+02  0.14189634610E+03  0.16056485501E+03  0.00000000000E+00 0. -1.
         11    1    4    4    0    0 -0.41060847140E+02  0.29700868169E+02  0.12632951358E+03  0.13611495413E+03  0.00000000000E+00 0.  1.
          1    1    1    2  501    0 -0.15594281340E+02  0.52852492730E+02  0.12798355683E+02  0.56571773054E+02  0.00000000000E+00 0. -1.
<scales pt_clust_5="13000.00000" pt_clust_6="13000.00000" pt_clust_7="13000.00000" pt_clust_8="13000.00000" pt_clust_9="55.10506"></scales>
<clustering>
<clus scale="   55.105">  2  9  1 -1</clus>
<clus scale="   86.874">  5  6 -1 -1</clus>
<clus scale="   90.769">  7  8 -1 -1</clus>
<clus scale="  125.694">  1  5  2 -1</clus>
<clus scale="   55.105">  2  5  1 -1</clus>
</clustering>
</event>
<event>
 9    2  0.1033155E-004  0.9430200E+02  0.7546771E-02  0.1298948E+00
         21   -1    0    0  501  502  0.00000000000E+00  0.00000000000E+00  0.31422320438E+02  0.31422320438E+02  0.00000000000E+00 0.  1.
          2   -1    0    0  502    0 -0.00000000000E+00 -0.00000000000E+00 -0.54306942276E+03  0.54306942276E+03  0.00000000000E+00 0. -1.
         24    2    1    2    0    0 -0.37281305273E+02 -0.70881333427E+01 -0.23623819370E+03  0.25218047665E+03  0.79664115422E+02 0.  0.
         23    2    1    2    0    0  0.18343861749E+00 -0.35441799222E+02 -0.10601000409E+03  0.14375865320E+03  0.90400633966E+02 0.  0.
        -13    1    3    3    0    0 -0.58354189473E+01  0.34343276461E+02 -0.73604933652E+02  0.81432174294E+02  0.00000000000E+00 0.  1.
         14    1    3    3    0    0 -0.31445886326E+02 -0.41431409804E+02 -0.16263326004E+03  0.17074830236E+03  0.00000000000E+00 0. -1.
        -11    1    4    4    0    0 -0.35610614046E+02 -0.45875214771E+02 -0.77390363894E+02  0.96757013114E+02  0.00000000000E+00 0.  1.
         11    1    4    4    0    0  0.35794052663E+02  0.10433415549E+02 -0.28619640199E+02  0.47001640091E+02  0.00000000000E+00 0. -1.
          1    1    1    2  501    0  0.37097866656E+02  0.42529932565E+02 -0.16939890453E+03  0.17855261334E+03  0.00000000000E+00 0. -1.
<scales pt_clust_5="13000.00000" pt_clust_6="13000.00000" pt_clust_7="13000.00000" pt_clust_8="13000.00000" pt_clust_9="56.43625"></scales>
<clustering>
<clus scale="   56.436">  1  9  2 -1</clus>
<clus scale="   79.664">  5  6 -1 -1</clus>
<clus scale="   84.065">  2  5  1 -1</clus>
<clus scale="   90.401">  7  8 -1 -1</clus>
<clus scale="   56.436">  1  5  2 -1</clus>
</clustering>
</event>
<event>
 9    2  0.1033155E-004  0.1375514E+03  0.7546771E-02  0.1226628E+00
          2   -1    0    0  502    0 -0.00000000000E+00  0.00000000000E+00  0.44436125243E+03  0.44436125243E+03  0.00000000000E+00 0. -1.
         21   -1    0    0  501  502  0.00000000000E+00 -0.00000000000E+00 -0.11505106465E+03  0.11505106465E+03  0.00000000000E+00 0.  1.
         24    2    1    2    0    0  0.71890625644E+02 -0.32372450571E+02  0.27431804458E+03  0.29616740297E+03  0.79047475560E+02 0.  0.
         23    2    1    2    0    0 -0.82647595442E+01 -0.72032457250E+02  0.75215225831E+02  0.13931909482E+03  0.92171030358E+02 0.  0.
        -11    1    3    3    0    0  0.57755655554E+02 -0.32168278785E+02  0.27417243589E+03  0.28203020851E+03  0.00000000000E+00 0.  1.
         12    1    3    3    0    0  0.14134970090E+02 -0.20417178620E+00  0.14560868845E+00  0.14137194469E+02  0.00000000000E+00 0. -1.
        -11    1    4    4    0    0  0.39280808519E+02 -0.16102443450E+02  0.38186656572E+02  0.57100712282E+02  0.00000000000E+00 0. -1.
         11    1    4    4    0    0 -0.47545568063E+02 -0.55930013800E+02  0.37028569259E+02  0.82218382540E+02  0.00000000000E+00 0.  1.
          1    1    1    2  501    0 -0.63625866100E+02  0.10440490782E+03 -0.20223082627E+02  0.12392581928E+03  0.00000000000E+00 0. -1.
<scales pt_clust_5="13000.00000" pt_clust_6="13000.00000" pt_clust_7="13000.00000" pt_clust_8="13000.00000" pt_clust_9="102.10232"></scales>
<clustering>
<clus scale="   79.047">  5  6 -1 -1</clus>
<clus scale="   92.171">  7  8 -1 -1</clus>
<clus scale="  111.646">  1  5  2 -1</clus>
<clus scale="  102.102">  2  9  1 -1</clus>
<clus scale="  102.102">  2  5  1 -1</clus>
</clustering>
</event>
<event>
 9    2  0.1033155E-004  0.1819275E+03  0.7546771E-02  0.1167107E+00
         21   -1    0    0  501  502  0.00000000000E+00  0.00000000000E+00  0.36710111339E+03  0.36710111339E+03  0.00000000000E+00 0.  1.
         -1   -1    0    0    0  501 -0.00000000000E+00 -0.00000000000E+00 -0.26641015224E+03  0.26641015224E+03  0.00000000000E+00 0.  1.
         24    2    1    2    0    0 -0.10892544497E+03  0.15275488723E+03 -0.33293211398E+02  0.20382827757E+03  0.72379007166E+02 0.  0.
         23    2    1    2    0    0 -0.25032753459E+02 -0.11763191954E+03  0.22177700862E+03  0.26571346695E+03  0.83394830346E+02 0.  0.
        -11    1    3    3    0    0 -0.85080507393E+02  0.14029526311E+03 -0.50762036375E+02  0.17175051070E+03  0.00000000000E+00 0.  1.
         12    1    3    3    0    0 -0.23844937577E+02  0.12459624118E+02  0.17468824977E+02  0.32077766869E+02  0.00000000000E+00 0. -1.
        -13    1    4    4    0    0  0.15768242827E+02 -0.16353595345E+02  0.98271662111E+02  0.10086325960E+03  0.00000000000E+00 0.  1.
         13    1    4    4    0    0 -0.40800996286E+02 -0.10127832419E+03  0.12350534651E+03  0.16485020735E+03  0.00000000000E+00 0. -1.
         -2    1    1    2    0  502  0.13395819843E+03 -0.35122967693E+02 -0.87792836065E+02  0.16396952110E+03  0.00000000000E+00 0.  1.
<scales pt_clust_5="13000.00000" pt_clust_6="13000.00000" pt_clust_7="13000.00000" pt_clust_8="13000.00000" pt_clust_9="138.48625"></scales>
<clustering>
<clus scale="   72.379">  5  6 -1 -1</clus>
<clus scale="   83.395">  7  8 -1 -1</clus>
<clus scale="  138.486">  1  9  2 -1</clus>
<clus scale="  177.149">  2  5  1 -1</clus>
<clus scale="  138.486">  1  5  2 -1</clus>
</clustering>
</event>
<event>
 9    2  0.1033155E-004  0.1034825E+03  0.7546771E-02  0.1281227E+00
          2   -1    0    0  502    0 -0.00000000000E+00  0.00000000000E+00  0.11539761836E+04  0.11539761836E+04  0.00000000000E+00 0. -1.
         21   -1    0    0  501  502  0.00000000000E+00 -0.00000000000E+00 -0.15458171702E+02  0.15458171702E+02  0.00000000000E+00 0.  1.
         23    2    1    2    0    0  0.34872492308E+02 -0.72351015767E+01  0.51814017684E+03  0.52829397684E+03  0.96730789809E+02 0.  0.
         24    2    1    2    0    0 -0.34141018080E+02 -0.44958138528E+02  0.28055736468E+03  0.29733429728E+03  0.80674693238E+02 0.  0.
        -11    1    4    4    0    0 -0.57180254443E+02 -0.21620420091E+02  0.13605782401E+03  0.14916016739E+03  0.00000000000E+00 0.  1.
         12    1    4    4    0    0  0.23039236363E+02 -0.23337718438E+02  0.14449954067E+03  0.14817412989E+03  0.00000000000E+00 0. -1.
        -13    1    3    3    0    0  0.68328186212E+02  0.97654360487E-01  0.31975720101E+03  0.32697617370E+03  0.00000000000E+00 0.  1.
         13    1    3    3    0    0 -0.33455693904E+02 -0.73327559372E+01  0.19838297582E+03  0.20131780314E+03  0.00000000000E+00 0. -1.
          1    1    1    2  501    0 -0.73147422772E+00  0.52193240105E+02  0.33982047040E+03  0.34380608120E+03  0.00000000000E+00 0. -1.
<scales pt_clust_5="13000.00000" pt_clust_6="13000.00000" pt_clust_7="13000.00000" pt_clust_8="13000.00000" pt_clust_9="52.19839"></scales>
<clustering>
<clus scale="   52.198">  2  9  1 -1</clus>
<clus scale="   80.675">  5  6 -1 -1</clus>
<clus scale="   88.658">  2  5  1 -1</clus>
<clus scale="   96.731">  7  8 -1 -1</clus>
<clus scale="   52.198">  2  5  1 -1</clus>
</clustering>
</event>
<event>
 9    2  0.1033155E-004  0.9040056E+02  0.7546771E-02  0.1307475E+00
         21   -1    0    0  501  502  0.00000000000E+00  0.00000000000E+00  0.16351359773E+03  0.16351359773E+03  0.00000000000E+00 0.  1.
          2   -1    0    0  502    0 -0.00000000000E+00 -0.00000000000E+00 -0.34444215727E+03  0.34444215727E+03  0.00000000000E+00 0. -1.
         24    2    1    2    0    0 -0.12229875755E+02 -0.55623176443E+01 -0.30818262477E+03  0.31876044192E+03  0.80319237318E+02 0.  0.
         23    2    1    2    0    0  0.36517739270E+02 -0.95453053756E+01  0.54834983309E+02  0.11133220235E+03  0.89237468309E+02 0.  0.
        -11    1    3    3    0    0  0.32174376107E+02  0.30006453500E+01 -0.17894421304E+03  0.18183846054E+03  0.00000000000E+00 0.  1.
         12    1    3    3    0    0 -0.44404251861E+02 -0.85629629944E+01 -0.12923841173E+03  0.13692198138E+03  0.00000000000E+00 0. -1.
        -11    1    4    4    0    0  0.61918133369E+02  0.11734736869E+02  0.42319151534E+02  0.75910933836E+02  0.00000000000E+00 0.  1.
         11    1    4    4    0    0 -0.25400394099E+02 -0.21280042245E+02  0.12515831776E+02  0.35421268517E+02  0.00000000000E+00 0. -1.
          1    1    1    2  501    0 -0.24287863515E+02  0.15107623020E+02  0.72419081914E+02  0.77863110731E+02  0.00000000000E+00 0. -1.
<scales pt_clust_5="13000.00000" pt_clust_6="13000.00000" pt_clust_7="13000.00000" pt_clust_8="13000.00000" pt_clust_9="28.60316"></scales>
<clustering>
<clus scale="   28.603">  1  9  2 -1</clus>
<clus scale="   80.319">  5  6 -1 -1</clus>
<clus scale="   81.610">  2  5  1 -1</clus>
<clus scale="   89.237">  7  8 -1 -1</clus>
<clus scale="   28.603">  1  5  2 -1</clus>
</clustering>
</event>
<event>
 9    2  0.1033155E-004  0.1010784E+03  0.7546771E-02  0.1280251E+00
          2   -1    0    0  502    0 -0.00000000000E+00  0.00000000000E+00  0.11569915499E+04  0.11569915499E+04  0.00000000000E+00 0. -1.
         21   -1    0    0  501  502  0.00000000000E+00 -0.00000000000E+00 -0.43420182167E+02  0.43420182167E+02  0.00000000000E+00 0.  1.
         24    2    1    2    0    0 -0.35174206188E+01  0.52161902090E+02  0.10376483227E+04  0.10422171714E+04  0.82276087642E+02 0.  0.
         23    2    1    2    0    0  0.29544962130E+02 -0.37710352251E+02  0.80672127041E+02  0.12804768699E+03  0.87139213953E+02 0.  0.
        -13    1    3    3    0    0 -0.27837649432E+02  0.16016668823E+02  0.14534895985E+03  0.14885492446E+03  0.00000000000E+00 0.  1.
         14    1    3    3    0    0  0.24320228813E+02  0.36145233267E+02  0.89229936283E+03  0.89336224698E+03  0.00000000000E+00 0. -1.
        -13    1    4    4    0    0 -0.22170049028E+02 -0.39344467841E+02  0.23394344085E+02  0.50860530461E+02  0.00000000000E+00 0.  1.
         13    1    4    4    0    0  0.51715011158E+02  0.16341155908E+01  0.57277782956E+02  0.77187156530E+02  0.00000000000E+00 0. -1.
          1    1    1    2  501    0 -0.26027541511E+02 -0.14451549840E+02 -0.47490819975E+01  0.30146873631E+02  0.00000000000E+00 0. -1.
<scales pt_clust_5="13000.00000" pt_clust_6="13000.00000" pt_clust_7="13000.00000" pt_clust_8="13000.00000" pt_clust_9="29.77046"></scales>
<clustering>
<clus scale="   29.770">  2  9  1 -1</clus>
<clus scale="   82.276">  5  6 -1 -1</clus>
<clus scale="   87.139">  7  8 -1 -1</clus>
<clus scale="   96.917">  1  5  2 -1</clus>
<clus scale="   29.770">  2  5  1 -1</clus>
</clustering>
</event>
<event>
 9    2  0.1033155E-004  0.4934583E+03  0.7546771E-02  0.1015713E+00
         21   -1    0    0  501  502  0.00000000000E+00  0.00000000000E+00  0.34210609433E+03  0.34210609433E+03  0.00000000000E+00 0. -1.
          2   -1    0    0  502    0 -0.00000000000E+00 -0.00000000000E+00 -0.17227392195E+04  0.17227392195E+04  0.00000000000E+00 0. -1.
         24    2    1    2    0    0  0.17618048417E+03  0.54175892395E+03 -0.75383019229E+03  0.94835697885E+03  0.81109221767E+02 0.  0.
         23    2    1    2    0    0 -0.31333304690E+03 -0.20388788974E+03  0.54243321304E+01  0.38663973708E+03  0.98554518155E+02 0.  0.
        -11    1    3    3    0    0  0.98446001056E+02  0.28296404032E+03 -0.46195936067E+03  0.55060577017E+03  0.00000000000E+00 0.  1.
         12    1    3    3    0    0  0.77734483116E+02  0.25879488363E+03 -0.29187083162E+03  0.39775120868E+03  0.00000000000E+00 0. -1.
        -13    1    4    4    0    0 -0.11517622074E+03 -0.13052758082E+03  0.17749569407E+02  0.17498016571E+03  0.00000000000E+00 0.  1.
         13    1    4    4    0    0 -0.19815682616E+03 -0.73360308924E+02 -0.12325237277E+02  0.21165957137E+03  0.00000000000E+00 0. -1.
          1    1    1    2  501    0  0.13715256273E+03 -0.33787103421E+03 -0.63222726500E+03  0.72984859788E+03  0.00000000000E+00 0. -1.
<scales pt_clust_5="13000.00000" pt_clust_6="13000.00000" pt_clust_7="13000.00000" pt_clust_8="13000.00000" pt_clust_9="364.64749"></scales>
<clustering>
<clus scale="   81.109">  5  6 -1 -1</clus>
<clus scale="   98.555">  7  8 -1 -1</clus>
<clus scale="  364.647">  1  9  2 -1</clus>
<clus scale="  490.272">  2  5  1 -1</clus>
<clus scale="  364.647">  1  5  2 -1</clus>
</clustering>
</event>
<event>
 9    2  0.1033155E-004  0.1392654E+03  0.7546771E-02  0.1237494E+00
         21   -1    0    0  501  502  0.00000000000E+00  0.00000000000E+00  0.35561367884E+02  0.35561367884E+02  0.00000000000E+00 0. -1.
          2   -1    0    0  502    0 -0.00000000000E+00 -0.00000000000E+00 -0.95866358434E+03  0.95866358434E+03  0.00000000000E+00 0. -1.
         24    2    1    2    0    0 -0.12766362655E+02 -0.25885655867E+02 -0.23630076677E+03  0.25147013562E+03  0.81031657641E+02 0.  0.
         23    2    1    2    0    0 -0.29608805246E+02  0.10732334182E+03 -0.19530534064E+03  0.24275863986E+03  0.91611135216E+02 0.  0.
        -13    1    3    3    0    0 -0.23337011279E+02 -0.52111033260E+02 -0.14296287673E+03  0.15394336623E+03  0.00000000000E+00 0.  1.
         14    1    3    3    0    0  0.10570648624E+02  0.26225377393E+02 -0.93337890039E+02  0.97526769396E+02  0.00000000000E+00 0. -1.
        -11    1    4    4    0    0  0.22531689970E+02  0.17305935599E+02 -0.97592265441E+01  0.30040222413E+02  0.00000000000E+00 0.  1.
         11    1    4    4    0    0 -0.52140495216E+02  0.90017406222E+02 -0.18554611410E+03  0.21271841745E+03  0.00000000000E+00 0. -1.
          1    1    1    2  501    0  0.42375167901E+02 -0.81437685955E+02 -0.49149610904E+03  0.49999617674E+03  0.00000000000E+00 0. -1.
<scales pt_clust_5="13000.00000" pt_clust_6="13000.00000" pt_clust_7="13000.00000" pt_clust_8="13000.00000" pt_clust_9="104.89161"></scales>
<clustering>
<clus scale="   81.032">  5  6 -1 -1</clus>
<clus scale="   86.018">  2  5  1 -1</clus>
<clus scale="   91.611">  7  8 -1 -1</clus>
<clus scale="  104.892">  1  9  2 -1</clus>
<clus scale="  104.892">  1  5  2 -1</clus>
</clustering>
</event>
<event>
 9    2  0.1033155E-004  0.9123454E+02  0.7546771E-02  0.1304381E+00
         21   -1    0    0  501  502  0.00000000000E+00  0.00000000000E+00  0.12113402466E+03  0.12113402466E+03  0.00000000000E+00 0. -1.
         -1   -1    0    0    0  501 -0.00000000000E+00 -0.00000000000E+00 -0.95157839979E+02  0.95157839979E+02  0.00000000000E+00 0.  1.
         23    2    1    2    0    0 -0.10850498728E+02  0.92749924065E+01 -0.25753025805E+02  0.93426461048E+02  0.88665249558E+02 0.  0.
         24    2    1    2    0    0  0.27336733859E+02 -0.24335845604E+02  0.42651252793E+02  0.98760745046E+02  0.81209759252E+02 0.  0.
        -11    1    4    4    0    0  0.27979777246E+02 -0.50734449495E+02  0.43324942284E+02  0.72345718078E+02  0.00000000000E+00 0.  1.
         12    1    4    4    0    0 -0.64304338704E+00  0.26398603891E+02 -0.67368949009E+00  0.26415026968E+02  0.00000000000E+00 0. -1.
        -11    1    3    3    0    0 -0.26634315643E+02 -0.20014003423E+02 -0.44226362488E+02  0.55370734524E+02  0.00000000000E+00 0. -1.
         11    1    3    3    0    0  0.15783816915E+02  0.29288995829E+02  0.18473336683E+02  0.38055726524E+02  0.00000000000E+00 0.  1.
         -2    1    1    2    0  502 -0.16486235131E+02  0.15060853198E+02  0.90779576971E+01  0.24104658550E+02  0.00000000000E+00 0.  1.
<scales pt_clust_5="13000.00000" pt_clust_6="13000.00000" pt_clust_7="13000.00000" pt_clust_8="13000.00000" pt_clust_9="22.32992"></scales>
<clustering>
<clus scale="   22.330">  1  9  2 -1</clus>
<clus scale="   81.210">  5  6 -1 -1</clus>
<clus scale="   84.007">  1  5  2 -1</clus>
<clus scale="   88.665">  7  8 -1 -1</clus>
<clus scale="   22.330">  1  5  2 -1</clus>
</clustering>
</event>
<event>
 9    2  0.1033155E-004  0.1230722E+03  0.7546771E-02  0.1256752E+00
          2   -1    0    0  502    0 -0.00000000000E+00  0.00000000000E+00  0.43695892897E+03  0.43695892897E+03  0.00000000000E+00 0. -1.
         21   -1    0    0  501  502  0.00000000000E+00 -0.00000000000E+00 -0.82349820751E+02  0.82349820751E+02  0.00000000000E+00 0. -1.
         24    2    1    2    0    0 -0.18497698013E+02 -0.23344186159E+02  0.31032694148E+03  0.32132858429E+03  0.77859698269E+02 0.  0.
         23    2    1    2    0    0  0.59755610601E+02  0.27367147981E+02  0.66515003660E+02  0.15094083497E+03  0.11848711390E+03 0.  0.
        -13    1    3    3    0    0 -0.13028545846E+01  0.26325785741E+02  0.59865031424E+02  0.65410751504E+02  0.00000000000E+00 0.  1.
         14    1    3    3    0    0 -0.17194843429E+02 -0.49669971900E+02  0.25046191005E+03  0.25591783278E+03  0.00000000000E+00 0. -1.
        -13    1    4    4    0    0  0.88100685021E+02  0.31450830138E+02  0.18989722171E+02  0.95454151118E+02  0.00000000000E+00 0. -1.
         13    1    4    4    0    0 -0.28345074420E+02 -0.40836821570E+01  0.47525281489E+02  0.55486683848E+02  0.00000000000E+00 0.  1.
          1    1    1    2  501    0 -0.41257912588E+02 -0.40229618216E+01 -0.22232836921E+02  0.47039330464E+02  0.00000000000E+00 0. -1.
<scales pt_clust_5="13000.00000" pt_clust_6="13000.00000" pt_clust_7="13000.00000" pt_clust_8="13000.00000" pt_clust_9="41.45358"></scales>
<clustering>
<clus scale="   41.454">  2  9  1 -1</clus>
<clus scale="   77.860">  5  6 -1 -1</clus>
<clus scale="   84.674">  1  5  2 -1</clus>
<clus scale="  118.487">  7  8 -1 -1</clus>
<clus scale="   41.454">  2  5  1 -1</clus>
</clustering>
</event>
<event>
 9    2  0.1033155E-004  0.9500841E+02  0.7546771E-02  0.1297571E+00
          2   -1    0    0  502    0 -0.00000000000E+00  0.00000000000E+00  0.40381767552E+03  0.40381767552E+03  0.00000000000E+00 0. -1.
         21   -1    0    0  501  502  0.00000000000E+00 -0.00000000000E+00 -0.98032838077E+02  0.98032838077E+02  0.00000000000E+00 0.  1.
         24    2    1    2    0    0  0.25287464572E+02 -0.60158189441E+01  0.35821268904E+03  0.36813725085E+03  0.80827340270E+02 0.  0.
         23    2    1    2    0    0  0.16535505351E+01 -0.86324430427E+01 -0.39024994403E+02  0.10024646644E+03  0.91919261002E+02 0.  0.
        -13    1    3    3    0    0 -0.10763783660E+02 -0.36273862047E+02  0.15897317597E+03  0.16341396141E+03  0.00000000000E+00 0.  1.
         14    1    3    3    0    0  0.36051248232E+02  0.30258043103E+02  0.19923951307E+03  0.20472328944E+03  0.00000000000E+00 0. -1.
        -13    1    4    4    0    0  0.33313618950E+02 -0.49520514059E+00 -0.54657670176E+02  0.64011743803E+02  0.00000000000E+00 0.  1.
         13    1    4    4    0    0 -0.31660068415E+02 -0.81372379021E+01  0.15632675773E+02  0.36234722636E+02  0.00000000000E+00 0. -1.
          1    1    1    2  501    0 -0.26941015107E+02  0.14648261987E+02 -0.13402857190E+02  0.33466796308E+02  0.00000000000E+00 0. -1.
<scales pt_clust_5="13000.00000" pt_clust_6="13000.00000" pt_clust_7="13000.00000" pt_clust_8="13000.00000" pt_clust_9="30.66578"></scales>
<clustering>
<clus scale="   30.666">  2  9  1 -1</clus>
<clus scale="   80.827">  5  6 -1 -1</clus>
<clus scale="   84.324">  1  5  2 -1</clus>
<clus scale="   91.919">  7  8 -1 -1</clus>
<clus scale="   30.666">  2  5  1 -1</clus>
</clustering>
</event>
<event>
 9    2  0.1033155E-004  0.9197412E+02  0.7546771E-02  0.1304714E+00
          2   -1    0    0  502    0 -0.00000000000E+00  0.00000000000E+00  0.87560643340E+02  0.87560643340E+02  0.00000000000E+00 0. -1.
         21   -1    0    0  501  502  0.00000000000E+00 -0.00000000000E+00 -0.19663682030E+03  0.19663682030E+03  0.00000000000E+00 0.  1.
         23    2    1    2    0    0 -0.22084498407E+02  0.11180750642E+02  0.22317607178E+02  0.96464230751E+02  0.90523687338E+02 0.  0.
         24    2    1    2    0    0 -0.25262462995E+02 -0.17066283132E+02 -0.94471068695E+02  0.12740362853E+03  0.79858948684E+02 0.  0.
        -13    1    4    4    0    0 -0.11566318887E+02 -0.46607303830E+02 -0.34386161456E+02  0.59062920708E+02  0.00000000000E+00 0.  1.
         14    1    4    4    0    0 -0.13696144108E+02  0.29541020697E+02 -0.60084907239E+02  0.68340707819E+02  0.00000000000E+00 0. -1.
        -13    1    3    3    0    0  0.15934249286E+02 -0.32343787987E+02  0.84849302277E+01  0.37040720331E+02  0.00000000000E+00 0.  1.
         13    1    3    3    0    0 -0.38018747693E+02  0.43524538629E+02  0.13832676951E+02  0.59423510420E+02  0.00000000000E+00 0. -1.
          1    1    1    2  501    0  0.47346961402E+02  0.58855324905E+01 -0.36922715439E+02  0.60329604359E+02  0.00000000000E+00 0. -1.
<scales pt_clust_5="13000.00000" pt_clust_6="13000.00000" pt_clust_7="13000.00000" pt_clust_8="13000.00000" pt_clust_9="47.71136"></scales>
<clustering>
<clus scale="   47.711">  2  9  1 -1</clus>
<clus scale="   79.859">  5  6 -1 -1</clus>
<clus scale="   81.499">  2  5  1 -1</clus>
<clus scale="   90.524">  7  8 -1 -1</clus>
<clus scale="   47.711">  2  5  1 -1</clus>
</clustering>
</event>
<event>
 9    2  0.1033155E-004  0.1206930E+03  0.7546771E-02  0.1245291E+00
         21   -1    0    0  501  502  0.00000000000E+00  0.00000000000E+00  0.36541538047E+02  0.36541538047E+02  0.00000000000E+00 0.  1.
          2   -1    0    0  502    0 -0.00000000000E+00 -0.00000000000E+00 -0.82277051974E+03  0.82277051974E+03  0.00000000000E+00 0. -1.
         24    2    1    2    0    0  0.19138650263E+02  0.91258818280E+02 -0.55952403951E+03  0.57300541072E+03  0.81077679269E+02 0.  0.
         23    2    1    2    0    0  0.29850512163E+02 -0.46739351560E+02 -0.15789838224E+03  0.19082752032E+03  0.91693093188E+02 0.  0.
        -11    1    3    3    0    0  0.12886875843E+02  0.95708367755E+02 -0.34273672819E+03  0.35608233328E+03  0.00000000000E+00 0.  1.
         12    1    3    3    0    0  0.62517744193E+01 -0.44495494746E+01 -0.21678731133E+03  0.21692307744E+03  0.00000000000E+00 0. -1.
        -13    1    4    4    0    0 -0.17100571007E+02  0.16115186692E+02 -0.65653057570E+02  0.69731289528E+02  0.00000000000E+00 0.  1.
         13    1    4    4    0    0  0.46951083170E+02 -0.62854538252E+02 -0.92245324669E+02  0.12109623080E+03  0.00000000000E+00 0. -1.
          1    1    1    2  501    0 -0.48989162426E+02 -0.44519466720E+02 -0.68806559937E+02  0.95479126738E+02  0.00000000000E+00 0. -1.
<scales pt_clust_5="13000.00000" pt_clust_6="13000.00000" pt_clust_7="13000.00000" pt_clust_8="13000.00000" pt_clust_9="66.19608"></scales>
<clustering>
<clus scale="   66.196">  1  9  2 -1</clus>
<clus scale="   81.078">  5  6 -1 -1</clus>
<clus scale="   91.693">  7  8 -1 -1</clus>
<clus scale="  112.840">  2  5  1 -1</clus>
<clus scale="   66.196">  1  5  2 -1</clus>
</clustering>
</event>
<event>
 9    2  0.1033155E-004  0.4338123E+03  0.7546771E-02  0.1091876E+00
          2   -1    0    0  502    0 -0.00000000000E+00  0.00000000000E+00  0.11811379673E+04  0.11811379673E+04  0.00000000000E+00 0. -1.
         21   -1    0    0  501  502  0.00000000000E+00 -0.00000000000E+00 -0.22402963417E+03  0.22402963417E+03  0.00000000000E+00 0. -1.
         24    2    1    2    0    0  0.18582731203E+02  0.42457424329E+01  0.12448289528E+03  0.14973434260E+03  0.81000234011E+02 0.  0.
         23    2    1    2    0    0  0.37242564685E+03 -0.18005474590E+03  0.67863986272E+03  0.79990289241E+03  0.90399115373E+02 0.  0.
        -11    1    3    3    0    0  0.34854124411E+02  0.59845751782E+01  0.12817064752E+03  0.13295991883E+03  0.00000000000E+00 0.  1.
         12    1    3    3    0    0 -0.16271393207E+02 -0.17388327453E+01 -0.36877522467E+01  0.16774423771E+02  0.00000000000E+00 0. -1.
        -13    1    4    4    0    0  0.32996091059E+03 -0.18579307370E+03  0.58413683508E+03  0.69613871523E+03  0.00000000000E+00 0. -1.
         13    1    4    4    0    0  0.42464736262E+02  0.57383278000E+01  0.94503027640E+02  0.10376417718E+03  0.00000000000E+00 0.  1.
          1    1    1    2  501    0 -0.39100837805E+03  0.17580900347E+03  0.15398557511E+03  0.45553036644E+03  0.00000000000E+00 0. -1.
<scales pt_clust_5="13000.00000" pt_clust_6="13000.00000" pt_clust_7="13000.00000" pt_clust_8="13000.00000" pt_clust_9="424.28896"></scales>
<clustering>
<clus scale="   81.000">  5  6 -1 -1</clus>
<clus scale="   83.213">  1  5  2 -1</clus>
<clus scale="   90.399">  7  8 -1 -1</clus>
<clus scale="  424.289">  2  9  1 -1</clus>
<clus scale="  424.289">  2  5  1 -1</clus>
</clustering>
</event>
<event>
 9    2  0.1033155E-004  0.1015493E+03  0.7546771E-02  0.1281974E+00
         21   -1    0    0  501  502  0.00000000000E+00  0.00000000000E+00  0.83023046259E+02  0.83023046259E+02  0.00000000000E+00 0.  1.
          2   -1    0    0  502    0 -0.00000000000E+00 -0.00000000000E+00 -0.40978887217E+03  0.40978887217E+03  0.00000000000E+00 0. -1.
         24    2    1    2    0    0  0.12853167786E+02 -0.39256072726E+02 -0.28199659585E+03  0.29623454515E+03  0.80787266944E+02 0.  0.
         23    2    1    2    0    0 -0.38005558208E+01  0.59381547173E+02 -0.93290995296E+02  0.14327309384E+03  0.91012950973E+02 0.  0.
        -11    1    3    3    0    0  0.33262222887E+02 -0.32324105789E+00 -0.49627575362E+02  0.59744256564E+02  0.00000000000E+00 0.  1.
         12    1    3    3    0    0 -0.20409055101E+02 -0.38932831668E+02 -0.23236902049E+03  0.23649028858E+03  0.00000000000E+00 0. -1.
        -11    1    4    4    0    0  0.16245443689E+02  0.72777151729E+02 -0.39630903491E+02  0.84445466225E+02  0.00000000000E+00 0.  1.
         11    1    4    4    0    0 -0.20045999510E+02 -0.13395604557E+02 -0.53660091805E+02  0.58827627611E+02  0.00000000000E+00 0. -1.
          1    1    1    2  501    0 -0.90526119656E+01 -0.20125474447E+02  0.48521765237E+02  0.53304279442E+02  0.00000000000E+00 0. -1.
<scales pt_clust_5="13000.00000" pt_clust_6="13000.00000" pt_clust_7="13000.00000" pt_clust_8="13000.00000" pt_clust_9="22.06773"></scales>
<clustering>
<clus scale="   22.068">  1  9  2 -1</clus>
<clus scale="   80.787">  5  6 -1 -1</clus>
<clus scale="   91.013">  7  8 -1 -1</clus>
<clus scale="   92.496">  2  5  1 -1</clus>
<clus scale="   22.068">  1  5  2 -1</clus>
</clustering>
</event>
<event>
 9    2  0.1033155E-004  0.1620566E+03  0.7546771E-02  0.1212594E+00
          2   -1    0    0  502    0 -0.00000000000E+00  0.00000000000E+00  0.25406087284E+03  0.25406087284E+03  0.00000000000E+00 0. -1.
         21   -1    0    0  501  502  0.00000000000E+00 -0.00000000000E+00 -0.19958364033E+03  0.19958364033E+03  0.00000000000E+00 0. -1.
         24    2    1    2    0    0 -0.64458950056E+01  0.49419638891E+02  0.37465307627E+02  0.99044158908E+02  0.76956129500E+02 0.  0.
         23    2    1    2    0    0 -0.12395556667E+03 -0.11228967606E+01  0.10882077899E+03  0.18796907809E+03  0.90134172052E+02 0.  0.
        -11    1    3    3    0    0 -0.69578276515E+01  0.62001221045E+02  0.50981780381E+02  0.80571115839E+02  0.00000000000E+00 0.  1.
         12    1    3    3    0    0  0.51193264591E+00 -0.12581582154E+02 -0.13516472754E+02  0.18473043069E+02  0.00000000000E+00 0. -1.
        -11    1    4    4    0    0 -0.36880965875E+02 -0.85170977339E+01 -0.11228290842E+02  0.39481908678E+02  0.00000000000E+00 0.  1.
         11    1    4    4    0    0 -0.87074600799E+02  0.73942009733E+01  0.12004906983E+03  0.14848716941E+03  0.00000000000E+00 0. -1.
          1    1    1    2  501    0  0.13040146168E+03 -0.48296742130E+02 -0.91808854107E+02  0.16663127618E+03  0.00000000000E+00 0. -1.
<scales pt_clust_5="13000.00000" pt_clust_6="13000.00000" pt_clust_7="13000.00000" pt_clust_8="13000.00000" pt_clust_9="134.67807"></scales>
<clustering>
<clus scale="   76.956">  5  6 -1 -1</clus>
<clus scale="   90.134">  7  8 -1 -1</clus>
<clus scale="   91.685">  1  5  2 -1</clus>
<clus scale="  134.678">  2  9  1 -1</clus>
<clus scale="  134.678">  2  5  1 -1</clus>
</clustering>
</event>
<event>
 9    2  0.1033155E-004  0.1450906E+03  0.7546771E-02  0.1225946E+00
          2   -1    0    0  502    0 -0.00000000000E+00  0.00000000000E+00  0.39219115857E+03  0.39219115857E+03  0.00000000000E+00 0. -1.
         21   -1    0    0  501  502  0.00000000000E+00 -0.00000000000E+00 -0.16651914979E+03  0.16651914979E+03  0.00000000000E+00 0. -1.
         24    2    1    2    0    0  0.38883396617E+02  0.37062972006E+02 -0.46361610978E+02  0.10704792147E+03  0.80151581966E+02 0.  0.
         23    2    1    2    0    0  0.42007358757E+02  0.93710722959E+02 -0.14323362065E+01  0.13792889701E+03  0.92065255428E+02 0.  0.
        -13    1    3    3    0    0 -0.10087397535E+02  0.42397713344E+02 -0.36416945614E+02  0.56793623002E+02  0.00000000000E+00 0.  1.
         14    1    3    3    0    0  0.48970794153E+02 -0.53347413373E+01 -0.99446653638E+01  0.50254298466E+02  0.00000000000E+00 0. -1.
        -13    1    4    4    0    0  0.34006961233E+02 -0.32822458361E+01 -0.18910741964E+02  0.39049490542E+02  0.00000000000E+00 0.  1.
         13    1    4    4    0    0  0.80003975245E+01  0.96992968795E+02  0.17478405757E+02  0.98879406471E+02  0.00000000000E+00 0. -1.
          1    1    1    2  501    0 -0.80890755374E+02 -0.13077369497E+03  0.27346595596E+03  0.31373348988E+03  0.00000000000E+00 0. -1.
<scales pt_clust_5="13000.00000" pt_clust_6="13000.00000" pt_clust_7="13000.00000" pt_clust_8="13000.00000" pt_clust_9="112.13961"></scales>
<clustering>
<clus scale="   80.152">  5  6 -1 -1</clus>
<clus scale="   92.065">  7  8 -1 -1</clus>
<clus scale="   96.488">  1  5  2 -1</clus>
<clus scale="  112.140">  2  9  1 -1</clus>
<clus scale="  112.140">  2  5  1 -1</clus>
</clustering>
</event>
<event>
 9    2  0.1033155E-004  0.1361845E+03  0.7546771E-02  0.1238299E+00
         21   -1    0    0  501  502  0.00000000000E+00  0.00000000000E+00  0.12545563025E+03  0.12545563025E+03  0.00000000000E+00 0.  1.
          2   -1    0    0  502    0 -0.00000000000E+00 -0.00000000000E+00 -0.61162013403E+03  0.61162013403E+03  0.00000000000E+00 0. -1.
         24    2    1    2    0    0  0.40988601470E+02  0.13645425757E+01 -0.48239639182E+03  0.49081068985E+03  0.80665525493E+02 0.  0.
         23    2    1    2    0    0 -0.38972704456E+01 -0.92740679054E+02 -0.41482952073E+02  0.14068205346E+03  0.97234677891E+02 0.  0.
        -11    1    3    3    0    0  0.10876422739E+02 -0.33565003345E+02 -0.10878626266E+03  0.11436501635E+03  0.00000000000E+00 0.  1.
         12    1    3    3    0    0  0.30112178731E+02  0.34929545920E+02 -0.37361012916E+03  0.37644567350E+03  0.00000000000E+00 0. -1.
        -13    1    4    4    0    0 -0.23709542579E+02 -0.99835137440E+02 -0.10389354723E+02  0.10313649096E+03  0.00000000000E+00 0.  1.
         13    1    4    4    0    0  0.19812272133E+02  0.70944583865E+01 -0.31093597349E+02  0.37545562494E+02  0.00000000000E+00 0. -1.
          1    1    1    2  501    0 -0.37091331025E+02  0.91376136478E+02  0.37714840100E+02  0.10558302098E+03  0.00000000000E+00 0. -1.
<scales pt_clust_5="13000.00000" pt_clust_6="13000.00000" pt_clust_7="13000.00000" pt_clust_8="13000.00000" pt_clust_9="95.35005"></scales>
<clustering>
<clus scale="   80.666">  5  6 -1 -1</clus>
<clus scale="   90.492">  2  5  1 -1</clus>
<clus scale="   95.350">  1  9  2 -1</clus>
<clus scale="   97.235">  7  8 -1 -1</clus>
<clus scale="   95.350">  1  5  2 -1</clus>
</clustering>
</event>
<event>
 9    2  0.1033155E-004  0.1178737E+03  0.7546771E-02  0.1252772E+00
         21   -1    0    0  501  502  0.00000000000E+00  0.00000000000E+00  0.26837004992E+03  0.26837004992E+03  0.00000000000E+00 0. -1.
          2   -1    0    0  502    0 -0.00000000000E+00 -0.00000000000E+00 -0.11895625321E+03  0.11895625321E+03  0.00000000000E+00 0. -1.
         23    2    1    2    0    0  0.61489648862E+02 -0.47632659688E+02 -0.40818902888E+02  0.13263152894E+03  0.99373499734E+02 0.  0.
         24    2    1    2    0    0 -0.21348422632E+01  0.13995145139E+02  0.15863926885E+03  0.17951086423E+03  0.82808883063E+02 0.  0.
        -11    1    4    4    0    0 -0.23156764352E+02 -0.22874089520E+02  0.30804386883E+02  0.44814840822E+02  0.00000000000E+00 0.  1.
         12    1    4    4    0    0  0.21021922089E+02  0.36869234659E+02  0.12783488197E+03  0.13469602340E+03  0.00000000000E+00 0. -1.
        -13    1    3    3    0    0  0.36856196203E+00 -0.34010539578E+02  0.24673266025E+02  0.42019313377E+02  0.00000000000E+00 0.  1.
         13    1    3    3    0    0  0.61121086900E+02 -0.13622120110E+02 -0.65492168913E+02  0.90612215562E+02  0.00000000000E+00 0. -1.
          1    1    1    2  501    0 -0.59354806599E+02  0.33637514550E+02  0.31593430748E+02  0.75183909967E+02  0.00000000000E+00 0. -1.
<scales pt_clust_5="13000.00000" pt_clust_6="13000.00000" pt_clust_7="13000.00000" pt_clust_8="13000.00000" pt_clust_9="68.22372"></scales>
<clustering>
<clus scale="   68.224">  1  9  2 -1</clus>
<clus scale="   82.809">  5  6 -1 -1</clus>
<clus scale="   99.373">  7  8 -1 -1</clus>
<clus scale="  104.290">  1  5  2 -1</clus>
<clus scale="   68.224">  1  5  2 -1</clus>
</clustering>
</event>
<event>
 9    2  0.1033155E-004  0.9371984E+02  0.7546771E-02  0.1299208E+00
         21   -1    0    0  501  502  0.00000000000E+00  0.00000000000E+00  0.27540075678E+03  0.27540075678E+03  0.00000000000E+00 0.  1.
          2   -1    0    0  502    0 -0.00000000000E+00 -0.00000000000E+00 -0.15498009679E+03  0.15498009679E+03  0.00000000000E+00 0. -1.
         23    2    1    2    0    0  0.73545425374E+01 -0.23403114728E+02 -0.12867286067E+03  0.15928448516E+03  0.90625863101E+02 0.  0.
         24    2    1    2    0    0 -0.22108705168E+02  0.79272766181E+01  0.20872756242E+03  0.22541707918E+03  0.81817038032E+02 0.  0.
        -13    1    4    4    0    0  0.14470533804E+02  0.36136485936E+02  0.96276820743E+02  0.10384829405E+03  0.00000000000E+00 0.  1.
         14    1    4    4    0    0 -0.36579238972E+02 -0.28209209317E+02  0.11245074167E+03  0.12156878513E+03  0.00000000000E+00 0. -1.
        -11    1    3    3    0    0  0.28800860535E+02 -0.30395623579E+02 -0.16730643736E+02  0.45092105076E+02  0.00000000000E+00 0.  1.
         11    1    3    3    0    0 -0.21446317998E+02  0.69925088515E+01 -0.11194221694E+03  0.11419238008E+03  0.00000000000E+00 0. -1.
          1    1    1    2  501    0  0.14754162631E+02  0.15475838109E+02  0.40365958246E+02  0.45679289238E+02  0.00000000000E+00 0. -1.
<scales pt_clust_5="13000.00000" pt_clust_6="13000.00000" pt_clust_7="13000.00000" pt_clust_8="13000.00000" pt_clust_9="21.38193"></scales>
<clustering>
<clus scale="   21.382">  1  9  2 -1</clus>
<clus scale="   81.817">  5  6 -1 -1</clus>
<clus scale="   85.231">  1  5  2 -1</clus>
<clus scale="   90.626">  7  8 -1 -1</clus>
<clus scale="   21.382">  1  5  2 -1</clus>
</clustering>
</event>
<event>
 9    2  0.1033155E-004  0.9138072E+02  0.7546771E-02  0.1305876E+00
         21   -1    0    0  501  502  0.00000000000E+00  0.00000000000E+00  0.15153635300E+03  0.15153635300E+03  0.00000000000E+00 0.  1.
         -3   -1    0    0    0  501 -0.00000000000E+00 -0.00000000000E+00 -0.87345244387E+02  0.87345244387E+02  0.00000000000E+00 0.  1.
         23    2    1    2    0    0 -0.12810750445E+02 -0.45299072304E+01 -0.79718207681E+00  0.91819889500E+02  0.90805403044E+02 0.  0.
         24    2    1    2    0    0 -0.27616410725E+02  0.14894558902E+02  0.27198115897E+02  0.90760032285E+02  0.80703977138E+02 0.  0.
        -11    1    4    4    0    0  0.18969664143E+02  0.20596255007E+02  0.33214187738E+02  0.43442331258E+02  0.00000000000E+00 0.  1.
         12    1    4    4    0    0 -0.46586074869E+02 -0.57016961050E+01 -0.60160718407E+01  0.47317701028E+02  0.00000000000E+00 0. -1.
        -13    1    3    3    0    0  0.32176641896E+02  0.21699286151E+02  0.61126632427E+01  0.39288165585E+02  0.00000000000E+00 0.  1.
         13    1    3    3    0    0 -0.44987392341E+02 -0.26229193381E+02 -0.69098453195E+01  0.52531723914E+02  0.00000000000E+00 0. -1.
         -4    1    1    2    0  502  0.40427161171E+02 -0.10364651672E+02  0.37790174791E+02  0.56301675599E+02  0.00000000000E+00 0.  1.
<scales pt_clust_5="13000.00000" pt_clust_6="13000.00000" pt_clust_7="13000.00000" pt_clust_8="13000.00000" pt_clust_9="41.73465"></scales>
<clustering>
<clus scale="   41.735">  1  9  2 -1</clus>
<clus scale="   80.704">  5  6 -1 -1</clus>
<clus scale="   81.351">  1  5  2 -1</clus>
<clus scale="   90.805">  7  8 -1 -1</clus>
<clus scale="   41.735">  1  5  2 -1</clus>
</clustering>
</event>
<event>
 9    2  0.1033155E-004  0.1718781E+03  0.7546771E-02  0.1191522E+00
         21   -1    0    0  501  502  0.00000000000E+00  0.00000000000E+00  0.41876568743E+02  0.41876568743E+02  0.00000000000E+00 0. -1.
          2   -1    0    0  502    0 -0.00000000000E+00 -0.00000000000E+00 -0.12045043401E+04  0.12045043401E+04  0.00000000000E+00 0. -1.
         24    2    1    2    0    0 -0.89509448459E+02 -0.14983916305E+02 -0.23205184099E+03  0.26182344905E+03  0.80417675006E+02 0.  0.
         23    2    1    2    0    0 -0.45186683599E+02 -0.84238555685E+02 -0.56254849538E+03  0.58028980113E+03  0.10553422670E+03 0.  0.
        -11    1    3    3    0    0 -0.51659508517E+02 -0.23819903251E+01 -0.20993360918E+03  0.21620938685E+03  0.00000000000E+00 0.  1.
         12    1    3    3    0    0 -0.37849939942E+02 -0.12601925980E+02 -0.22118231812E+02  0.45614062202E+02  0.00000000000E+00 0. -1.
        -11    1    4    4    0    0 -0.20968060604E+02  0.17670544090E+02 -0.48843195482E+02  0.56013975389E+02  0.00000000000E+00 0.  1.
         11    1    4    4    0    0 -0.24218622995E+02 -0.10190909978E+03 -0.51370529990E+03  0.52427582574E+03  0.00000000000E+00 0. -1.
          1    1    1    2  501    0  0.13469613206E+03  0.99222471991E+02 -0.36802743504E+03  0.40426765871E+03  0.00000000000E+00 0. -1.
<scales pt_clust_5="13000.00000" pt_clust_6="13000.00000" pt_clust_7="13000.00000" pt_clust_8="13000.00000" pt_clust_9="135.66359"></scales>
<clustering>
<clus scale="   80.418">  5  6 -1 -1</clus>
<clus scale="  105.534">  7  8 -1 -1</clus>
<clus scale="  121.258">  2  5  1 -1</clus>
<clus scale="  135.664">  1  9  2 -1</clus>
<clus scale="  135.664">  1  5  2 -1</clus>
</clustering>
</event>
<event>
 9    2  0.1033155E-004  0.1172155E+03  0.7546771E-02  0.1250615E+00
         21   -1    0    0  501  502  0.00000000000E+00  0.00000000000E+00  0.13219842621E+03  0.13219842621E+03  0.00000000000E+00 0.  1.
          2   -1    0    0  502    0 -0.00000000000E+00 -0.00000000000E+00 -0.15332246815E+03  0.15332246815E+03  0.00000000000E+00 0. -1.
         24    2    1    2    0    0  0.48617504257E+02 -0.46909348715E+02 -0.37284619353E+02  0.11316280041E+03  0.82773956290E+02 0.  0.
         23    2    1    2    0    0 -0.79322953213E+02  0.32145102314E+02 -0.15195976344E+02  0.12605430327E+03  0.91287081055E+02 0.  0.
        -13    1    3    3    0    0  0.49678998470E+02  0.14156365869E+01  0.36344985726E+01  0.49831882322E+02  0.00000000000E+00 0.  1.
         14    1    3    3    0    0 -0.10614942128E+01 -0.48324985302E+02 -0.40919117925E+02  0.63330918090E+02  0.00000000000E+00 0. -1.
        -11    1    4    4    0    0 -0.56487825789E+01  0.31936611240E+02  0.26069002373E+02  0.41610680923E+02  0.00000000000E+00 0. -1.
         11    1    4    4    0    0 -0.73674170634E+02  0.20849107352E+00 -0.41264978718E+02  0.84443622351E+02  0.00000000000E+00 0.  1.
          1    1    1    2  501    0  0.30705448956E+02  0.14764246401E+02  0.31356553752E+02  0.46303790672E+02  0.00000000000E+00 0. -1.
<scales pt_clust_5="13000.00000" pt_clust_6="13000.00000" pt_clust_7="13000.00000" pt_clust_8="13000.00000" pt_clust_9="34.07063"></scales>
<clustering>
<clus scale="   34.071">  1  9  2 -1</clus>
<clus scale="   82.774">  5  6 -1 -1</clus>
<clus scale="   91.287">  7  8 -1 -1</clus>
<clus scale="  110.714">  2  5  1 -1</clus>
<clus scale="   34.071">  1  5  2 -1</clus>
</clustering>
</event>
<event>
 9    2  0.1033155E-004  0.2113597E+03  0.7546771E-02  0.1141312E+00
          4   -1    0    0  502    0 -0.00000000000E+00  0.00000000000E+00  0.40841947654E+03  0.40841947654E+03  0.00000000000E+00 0. -1.
         21   -1    0    0  501  502  0.00000000000E+00 -0.00000000000E+00 -0.15939894061E+03  0.15939894061E+03  0.00000000000E+00 0. -1.
         24    2    1    2    0    0  0.20796026175E+03  0.49830796372E+02  0.15120410395E+03  0.27386352177E+03  0.80049789348E+02 0.  0.
         23    2    1    2    0    0 -0.15876101206E+03 -0.13983403549E+02  0.52914547921E+01  0.18320078419E+03  0.90188321353E+02 0.  0.
        -13    1    3    3    0    0  0.35456424227E+02  0.31322488321E+02  0.64276601091E+02  0.79810636768E+02  0.00000000000E+00 0.  1.
         14    1    3    3    0    0  0.17250383752E+03  0.18508308051E+02  0.86927502856E+02  0.19405288500E+03  0.00000000000E+00 0. -1.
        -13    1    4    4    0    0 -0.80028711225E+02  0.35762572308E+02  0.17149038623E+02  0.89317667480E+02  0.00000000000E+00 0. -1.
         13    1    4    4    0    0 -0.78732300837E+02 -0.49745975856E+02 -0.11857583831E+02  0.93883116711E+02  0.00000000000E+00 0.  1.
          3    1    1    2  501    0 -0.49199249683E+02 -0.35847392823E+02  0.92524977190E+02  0.11075411119E+03  0.00000000000E+00 0. -1.
<scales pt_clust_5="13000.00000" pt_clust_6="13000.00000" pt_clust_7="13000.00000" pt_clust_8="13000.00000" pt_clust_9="60.87368"></scales>
<clustering>
<clus scale="   60.874">  2  9  1 -1</clus>
<clus scale="   80.050">  5  6 -1 -1</clus>
<clus scale="   90.188">  7  8 -1 -1</clus>
<clus scale="  207.236">  1  5  2 -1</clus>
<clus scale="   60.874">  2  5  1 -1</clus>
</clustering>
</event>
<event>
 9    2  0.1033155E-004  0.1012246E+03  0.7546771E-02  0.1284464E+00
         21   -1    0    0  501  502  0.00000000000E+00  0.00000000000E+00  0.28469162314E+03  0.28469162314E+03  0.00000000000E+00 0. -1.
          2   -1    0    0  502    0 -0.00000000000E+00 -0.00000000000E+00 -0.96144296552E+02  0.96144296552E+02  0.00000000000E+00 0. -1.
         24    2    1    2    0    0 -0.24804784140E+02  0.16864159435E+02  0.15238293367E+02  0.87175887210E+02  0.80422338541E+02 0.  0.
         23    2    1    2    0    0  0.80832143766E+02 -0.26245161570E+01  0.19579430560E+03  0.23163245843E+03  0.93688111002E+02 0.  0.
        -13    1    3    3    0    0 -0.32760062336E+02 -0.26150351384E+02  0.46964297444E+01  0.42179604243E+02  0.00000000000E+00 0.  1.
         14    1    3    3    0    0  0.79552781959E+01  0.43014510819E+02  0.10541863622E+02  0.44996282967E+02  0.00000000000E+00 0. -1.
        -11    1    4    4    0    0  0.94247981173E+02  0.18679018669E+02  0.13382553479E+03  0.16474483741E+03  0.00000000000E+00 0. -1.
         11    1    4    4    0    0 -0.13415837406E+02 -0.21303534826E+02  0.61968770816E+02  0.66887621021E+02  0.00000000000E+00 0.  1.
          1    1    1    2  501    0 -0.56027359626E+02 -0.14239643278E+02 -0.22485272386E+02  0.62027574043E+02  0.00000000000E+00 0. -1.
<scales pt_clust_5="13000.00000" pt_clust_6="13000.00000" pt_clust_7="13000.00000" pt_clust_8="13000.00000" pt_clust_9="57.80861"></scales>
<clustering>
<clus scale="   57.809">  1  9  2 -1</clus>
<clus scale="   80.422">  5  6 -1 -1</clus>
<clus scale="   89.088">  2  5  1 -1</clus>
<clus scale="   93.688">  7  8 -1 -1</clus>
<clus scale="   57.809">  1  5  2 -1</clus>
</clustering>
</event>
<event>
 9    2  0.1033155E-004  0.9904924E+02  0.7546771E-02  0.1287412E+00
         21   -1    0    0  501  502  0.00000000000E+00  0.00000000000E+00  0.73058910711E+02  0.73058910711E+02  0.00000000000E+00 0. -1.
          2   -1    0    0  502    0 -0.00000000000E+00 -0.00000000000E+00 -0.50317178426E+03  0.50317178426E+03  0.00000000000E+00 0. -1.
         24    2    1    2    0    0 -0.27472834420E+02  0.23079951780E+02 -0.41401123686E+03  0.42347920996E+03  0.81497829525E+02 0.  0.
         23    2    1    2    0    0  0.35295247876E+02 -0.42012275080E+02 -0.46300614407E+02  0.11626037276E+03  0.91443652592E+02 0.  0.
        -11    1    3    3    0    0  0.23840445843E+02  0.27014720460E+02 -0.21052749019E+03  0.21358835667E+03  0.00000000000E+00 0.  1.
         12    1    3    3    0    0 -0.51313280263E+02 -0.39347686799E+01 -0.20348374667E+03  0.20989085329E+03  0.00000000000E+00 0. -1.
        -13    1    4    4    0    0 -0.25376435643E+02 -0.33075657937E+02 -0.42564073610E+01  0.41905603892E+02  0.00000000000E+00 0. -1.
         13    1    4    4    0    0  0.60671683520E+02 -0.89366171432E+01 -0.42044207046E+02  0.74354768866E+02  0.00000000000E+00 0.  1.
          1    1    1    2  501    0 -0.78224134556E+01  0.18932323300E+02  0.30198977721E+02  0.36491112249E+02  0.00000000000E+00 0. -1.
<scales pt_clust_5="13000.00000" pt_clust_6="13000.00000" pt_clust_7="13000.00000" pt_clust_8="13000.00000" pt_clust_9="20.48470"></scales>
<clustering>
<clus scale="   20.485">  1  9  2 -1</clus>
<clus scale="   81.498">  5  6 -1 -1</clus>
<clus scale="   89.948">  2  5  1 -1</clus>
<clus scale="   91.444">  7  8 -1 -1</clus>
<clus scale="   20.485">  1  5  2 -1</clus>
</clustering>
</event>
<event>
 9    2  0.1033155E-004  0.9898620E+02  0.7546771E-02  0.1286808E+00
          2   -1    0    0  502    0 -0.00000000000E+00  0.00000000000E+00  0.67604366133E+02  0.67604366133E+02  0.00000000000E+00 0. -1.
         21   -1    0    0  501  502  0.00000000000E+00 -0.00000000000E+00 -0.30898043096E+03  0.30898043096E+03  0.00000000000E+00 0.  1.
         24    2    1    2    0    0 -0.34254520917E+02  0.17297998686E+02  0.63565460066E+01  0.90309479706E+02  0.81503395548E+02 0.  0.
         23    2    1    2    0    0  0.54229336984E+02 -0.15535620920E+02 -0.24358596185E+03  0.26579864895E+03  0.90181064900E+02 0.  0.
        -11    1    3    3    0    0  0.11586751300E+02  0.36588412734E+02  0.12106668060E+02  0.40243461128E+02  0.00000000000E+00 0.  1.
         12    1    3    3    0    0 -0.45841272217E+02 -0.19290414047E+02 -0.57501220536E+01  0.50066018578E+02  0.00000000000E+00 0. -1.
        -13    1    4    4    0    0  0.14551514767E+02 -0.21693834887E+02 -0.87410487326E+01  0.27545870599E+02  0.00000000000E+00 0. -1.
         13    1    4    4    0    0  0.39677822217E+02  0.61582139667E+01 -0.23484491312E+03  0.23825277835E+03  0.00000000000E+00 0.  1.
          1    1    1    2  501    0 -0.19974816068E+02 -0.17623777663E+01 -0.41466489791E+01  0.20476668432E+02  0.00000000000E+00 0. -1.
<scales pt_clust_5="13000.00000" pt_clust_6="13000.00000" pt_clust_7="13000.00000" pt_clust_8="13000.00000" pt_clust_9="20.05242"></scales>
<clustering>
<clus scale="   20.052">  2  9  1 -1</clus>
<clus scale="   81.503">  5  6 -1 -1</clus>
<clus scale="   90.181">  7  8 -1 -1</clus>
<clus scale="   91.151">  1  5  2 -1</clus>
<clus scale="   20.052">  2  5  1 -1</clus>
</clustering>
</event>
<event>
 9    2  0.1033155E-004  0.9467527E+02  0.7546771E-02  0.1297230E+00
         21   -1    0    0  501  502  0.00000000000E+00  0.00000000000E+00  0.36445704463E+03  0.36445704463E+03  0.00000000000E+00 0.  1.
         -1   -1    0    0    0  501 -0.00000000000E+00 -0.00000000000E+00 -0.40103123003E+02  0.40103123003E+02  0.00000000000E+00 0.  1.
         24    2    1    2    0    0  0.39985495820E-01 -0.35530593110E+02  0.56185933445E+02  0.10486074376E+03  0.81095572136E+02 0.  0.
         23    2    1    2    0    0 -0.13452520033E+02  0.12756261938E+02  0.13268160131E+03  0.16165911356E+03  0.90474135290E+02 0.  0.
        -11    1    3    3    0    0 -0.22546435668E+02  0.67259488498E+01  0.51620432659E+02  0.56729614992E+02  0.00000000000E+00 0.  1.
         12    1    3    3    0    0  0.22586421164E+02 -0.42256541960E+02  0.45655007859E+01  0.48131128771E+02  0.00000000000E+00 0. -1.
        -13    1    4    4    0    0 -0.48768302332E+02 -0.10709901767E+02  0.73518817906E+02  0.88871063313E+02  0.00000000000E+00 0.  1.
         13    1    4    4    0    0  0.35315782299E+02  0.23466163704E+02  0.59162783401E+02  0.72788050243E+02  0.00000000000E+00 0. -1.
         -2    1    1    2    0  502  0.13412534537E+02  0.22774331172E+02  0.13548638687E+03  0.13804031031E+03  0.00000000000E+00 0.  1.
<scales pt_clust_5="13000.00000" pt_clust_6="13000.00000" pt_clust_7="13000.00000" pt_clust_8="13000.00000" pt_clust_9="26.43040"></scales>
<clustering>
<clus scale="   26.430">  1  9  2 -1</clus>
<clus scale="   81.096">  5  6 -1 -1</clus>
<clus scale="   85.757">  2  5  1 -1</clus>
<clus scale="   90.474">  7  8 -1 -1</clus>
<clus scale="   26.430">  1  5  2 -1</clus>
</clustering>
</event>
<event>
 9    2  0.1033155E-004  0.1141019E+03  0.7546771E-02  0.1255870E+00
          2   -1    0    0  502    0 -0.00000000000E+00  0.00000000000E+00  0.10871879539E+04  0.10871879539E+04  0.00000000000E+00 0. -1.
         21   -1    0    0  501  502  0.00000000000E+00 -0.00000000000E+00 -0.20699794657E+02  0.20699794657E+02  0.00000000000E+00 0.  1.
         24    2    1    2    0    0 -0.77149410115E+02  0.20112042853E+02  0.47425239431E+03  0.48809635562E+03  0.83463723293E+02 0.  0.
         23    2    1    2    0    0  0.29639417172E+02 -0.65310565890E+02  0.41194741633E+03  0.42794772076E+03  0.91074764966E+02 0.  0.
        -13    1    3    3    0    0 -0.55693635079E+02  0.74601052638E+01  0.11512498148E+03  0.12810618845E+03  0.00000000000E+00 0.  1.
         14    1    3    3    0    0 -0.21455775036E+02  0.12651937589E+02  0.35912741283E+03  0.35999016717E+03  0.00000000000E+00 0. -1.
        -13    1    4    4    0    0 -0.31280795786E+02 -0.29290836275E+02  0.19850739663E+03  0.20308034812E+03  0.00000000000E+00 0.  1.
         13    1    4    4    0    0  0.60920212959E+02 -0.36019729616E+02  0.21344001969E+03  0.22486737263E+03  0.00000000000E+00 0. -1.
          1    1    1    2  501    0  0.47509992942E+02  0.45198523038E+02  0.18028834856E+03  0.19184367214E+03  0.00000000000E+00 0. -1.
<scales pt_clust_5="13000.00000" pt_clust_6="13000.00000" pt_clust_7="13000.00000" pt_clust_8="13000.00000" pt_clust_9="65.57519"></scales>
<clustering>
<clus scale="   65.575">  2  9  1 -1</clus>
<clus scale="   83.464">  5  6 -1 -1</clus>
<clus scale="   91.075">  7  8 -1 -1</clus>
<clus scale="  108.124">  1  5  2 -1</clus>
<clus scale="   65.575">  2  5  1 -1</clus>
</clustering>
</event>
<event>
 9    2  0.1033155E-004  0.1078368E+03  0.7546771E-02  0.1270501E+00
         21   -1    0    0  501  502  0.00000000000E+00  0.00000000000E+00  0.23014218187E+03  0.23014218187E+03  0.00000000000E+00 0. -1.
         -1   -1    0    0    0  501 -0.00000000000E+00 -0.00000000000E+00 -0.85681051871E+02  0.85681051871E+02  0.00000000000E+00 0.  1.
         23    2    1    2    0    0 -0.36784560245E+01  0.43538837158E+02  0.59276357783E+02  0.11932191799E+03  0.93887550510E+02 0.  0.
         24    2    1    2    0    0 -0.39155183909E+02 -0.61577256369E+02  0.10018028545E+03  0.14766515400E+03  0.80274660919E+02 0.  0.
        -11    1    4    4    0    0  0.19807489785E+02 -0.36818199248E+01  0.42066084942E+02  0.46641697566E+02  0.00000000000E+00 0.  1.
         12    1    4    4    0    0 -0.58962673694E+02 -0.57895436444E+02  0.58114200505E+02  0.10102345644E+03  0.00000000000E+00 0. -1.
        -11    1    3    3    0    0 -0.41883072713E+02  0.48300582920E+02  0.28332052810E+02  0.69927414558E+02  0.00000000000E+00 0.  1.
         11    1    3    3    0    0  0.38204616688E+02 -0.47617457620E+01  0.30944304973E+02  0.49394503432E+02  0.00000000000E+00 0. -1.
         -2    1    1    2    0  502  0.42833639934E+02  0.18038419210E+02 -0.14995513228E+02  0.48836161751E+02  0.00000000000E+00 0.  1.
<scales pt_clust_5="13000.00000" pt_clust_6="13000.00000" pt_clust_7="13000.00000" pt_clust_8="13000.00000" pt_clust_9="46.47696"></scales>
<clustering>
<clus scale="   46.477">  1  9  2 -1</clus>
<clus scale="   80.275">  5  6 -1 -1</clus>
<clus scale="   93.888">  7  8 -1 -1</clus>
<clus scale="   96.218">  1  5  2 -1</clus>
<clus scale="   46.477">  1  5  2 -1</clus>
</clustering>
</event>
<event>
 9    2  0.1033155E-004  0.1333941E+03  0.7546771E-02  0.1224614E+00
          2   -1    0    0  502    0 -0.00000000000E+00  0.00000000000E+00  0.57348244920E+03  0.57348244920E+03  0.00000000000E+00 0. -1.
         21   -1    0    0  501  502  0.00000000000E+00 -0.00000000000E+00 -0.69253937830E+02  0.69253937830E+02  0.00000000000E+00 0. -1.
         23    2    1    2    0    0  0.28340794799E+02  0.73284664754E+02  0.19567343728E+03  0.22883019457E+03  0.88889375932E+02 0.  0.
         24    2    1    2    0    0 -0.21760271184E+02 -0.15509132790E+03  0.13426139660E+03  0.22125645994E+03  0.80009181075E+02 0.  0.
        -11    1    4    4    0    0 -0.26655438386E+02 -0.63945011402E+02  0.14675181590E+02  0.70815519722E+02  0.00000000000E+00 0.  1.
         12    1    4    4    0    0  0.48951672024E+01 -0.91146316497E+02  0.11958621501E+03  0.15044094022E+03  0.00000000000E+00 0. -1.
        -13    1    3    3    0    0 -0.69124561222E+01  0.51508171443E+02  0.17493899975E+03  0.18249528051E+03  0.00000000000E+00 0.  1.
         13    1    3    3    0    0  0.35253250921E+02  0.21776493310E+02  0.20734437527E+02  0.46334914061E+02  0.00000000000E+00 0. -1.
          1    1    1    2  501    0 -0.65805236156E+01  0.81806663146E+02  0.17429367749E+03  0.19264973252E+03  0.00000000000E+00 0. -1.
<scales pt_clust_5="13000.00000" pt_clust_6="13000.00000" pt_clust_7="13000.00000" pt_clust_8="13000.00000" pt_clust_9="82.07095"></scales>
<clustering>
<clus scale="   80.009">  5  6 -1 -1</clus>
<clus scale="   82.071">  2  9  1 -1</clus>
<clus scale="   88.889">  7  8 -1 -1</clus>
<clus scale="  127.648">  2  5  1 -1</clus>
<clus scale="   82.071">  2  5  1 -1</clus>
</clustering>
</event>
<event>
 9    2  0.1033155E-004  0.9005444E+02  0.7546771E-02  0.1307547E+00
         21   -1    0    0  501  502  0.00000000000E+00  0.00000000000E+00  0.10234691973E+03  0.10234691973E+03  0.00000000000E+00 0. -1.
          4   -1    0    0  502    0 -0.00000000000E+00 -0.00000000000E+00 -0.44165341824E+03  0.44165341824E+03  0.00000000000E+00 0. -1.
         23    2    1    2    0    0  0.21795519469E+02 -0.46582850143E+01 -0.35089796905E+03  0.36262219792E+03  0.88705859181E+02 0.  0.
         24    2    1    2    0    0  0.33455865287E+02  0.29942825987E+02 -0.40772184756E+02  0.10116607160E+03  0.80971200079E+02 0.  0.
        -13    1    4    4    0    0  0.13147298645E+02  0.36716973953E+02  0.14721634620E+02  0.41685898861E+02  0.00000000000E+00 0.  1.
         14    1    4    4    0    0  0.20308566641E+02 -0.67741479660E+01 -0.55493819376E+02  0.59480172735E+02  0.00000000000E+00 0. -1.
        -11    1    3    3    0    0  0.32648386120E+02  0.36420145255E+02 -0.18102627663E+03  0.18751761765E+03  0.00000000000E+00 0.  1.
         11    1    3    3    0    0 -0.10852866651E+02 -0.41078430269E+02 -0.16987169242E+03  0.17510458027E+03  0.00000000000E+00 0. -1.
          3    1    1    2  501    0 -0.55251384755E+02 -0.25284540973E+02  0.52363655292E+02  0.80212068450E+02  0.00000000000E+00 0. -1.
<scales pt_clust_5="13000.00000" pt_clust_6="13000.00000" pt_clust_7="13000.00000" pt_clust_8="13000.00000" pt_clust_9="60.76202"></scales>
<clustering>
<clus scale="   60.762">  1  9  2 -1</clus>
<clus scale="   80.971">  5  6 -1 -1</clus>
<clus scale="   82.446">  1  5  2 -1</clus>
<clus scale="   88.706">  7  8 -1 -1</clus>
<clus scale="   60.762">  1  5  2 -1</clus>
</clustering>
</event>
<event>
 9    2  0.1033155E-004  0.2151146E+03  0.7546771E-02  0.1138523E+00
         21   -1    0    0  501  502  0.00000000000E+00  0.00000000000E+00  0.48132456086E+03  0.48132456086E+03  0.00000000000E+00 0. -1.
          2   -1    0    0  502    0 -0.00000000000E+00 -0.00000000000E+00 -0.43567975637E+03  0.43567975637E+03  0.00000000000E+00 0. -1.
         24    2    1    2    0    0 -0.90069142770E+02  0.18796467894E+03 -0.37074504065E+03  0.43257345710E+03  0.78897019048E+02 0.  0.
         23    2    1    2    0    0  0.29947658530E+02 -0.84695417622E+02  0.22392007026E+03  0.25788340938E+03  0.91068539845E+02 0.  0.
        -11    1    3    3    0    0 -0.14403381438E+02  0.31508133136E+02 -0.17326978370E+02  0.38735565441E+02  0.00000000000E+00 0.  1.
         12    1    3    3    0    0 -0.75665761332E+02  0.15645654580E+03 -0.35341806228E+03  0.39383789166E+03  0.00000000000E+00 0. -1.
        -11    1    4    4    0    0 -0.24266636334E+02 -0.46252988995E+02  0.14819163049E+03  0.15712723499E+03  0.00000000000E+00 0. -1.
         11    1    4    4    0    0  0.54214294864E+02 -0.38442428628E+02  0.75728439775E+02  0.10075617439E+03  0.00000000000E+00 0.  1.
          1    1    1    2  501    0  0.60121484240E+02 -0.10326926132E+03  0.19246977487E+03  0.22654745075E+03  0.00000000000E+00 0. -1.
<scales pt_clust_5="13000.00000" pt_clust_6="13000.00000" pt_clust_7="13000.00000" pt_clust_8="13000.00000" pt_clust_9="119.49533"></scales>
<clustering>
<clus scale="   78.897">  5  6 -1 -1</clus>
<clus scale="   91.069">  7  8 -1 -1</clus>
<clus scale="  119.495">  1  9  2 -1</clus>
<clus scale="  210.251">  2  5  1 -1</clus>
<clus scale="  119.495">  1  5  2 -1</clus>
</clustering>
</event>
<event>
 9    2  0.1033155E-004  0.1204120E+03  0.7546771E-02  0.1247215E+00
         21   -1    0    0  501  502  0.00000000000E+00  0.00000000000E+00  0.68510666877E+02  0.68510666877E+02  0.00000000000E+00 0. -1.
         -3   -1    0    0    0  501 -0.00000000000E+00 -0.00000000000E+00 -0.36100287312E+03  0.36100287312E+03  0.00000000000E+00 0.  1.
         23    2    1    2    0    0 -0.81226309432E+02  0.21281637466E+02 -0.24113174931E+03  0.26443880179E+03  0.68794897557E+02 0.  0.
         24    2    1    2    0    0  0.90513180967E+02  0.28688488571E+00 -0.62353324930E+02  0.13914617700E+03  0.85328794737E+02 0.  0.
        -11    1    4    4    0    0  0.39004622459E+02 -0.28577320098E+02 -0.63837595015E+02  0.80082846693E+02  0.00000000000E+00 0.  1.
         12    1    4    4    0    0  0.51508558508E+02  0.28864204983E+02  0.14842700852E+01  0.59063330304E+02  0.00000000000E+00 0. -1.
        -13    1    3    3    0    0 -0.55210271066E+02  0.23462244816E+02 -0.22691707970E+03  0.23471261581E+03  0.00000000000E+00 0.  1.
         13    1    3    3    0    0 -0.26016038366E+02 -0.21806073499E+01 -0.14214669614E+02  0.29726185979E+02  0.00000000000E+00 0. -1.
         -4    1    1    2    0  502 -0.92868715350E+01 -0.21568522352E+02  0.10992868000E+02  0.25928561206E+02  0.00000000000E+00 0.  1.
<scales pt_clust_5="13000.00000" pt_clust_6="13000.00000" pt_clust_7="13000.00000" pt_clust_8="13000.00000" pt_clust_9="23.48291"></scales>
<clustering>
<clus scale="   23.483">  1  9  2 -1</clus>
<clus scale="   68.795">  7  8 -1 -1</clus>
<clus scale="   85.329">  5  6 -1 -1</clus>
<clus scale="  109.320">  2  7  1 -1</clus>
<clus scale="   23.483">  1  5  2 -1</clus>
</clustering>
</event>
<event>
 9    2  0.1033155E-004  0.9454541E+02  0.7546771E-02  0.1297969E+00
         21   -1    0    0  501  502  0.00000000000E+00  0.00000000000E+00  0.18845146343E+03  0.18845146343E+03  0.00000000000E+00 0. -1.
          2   -1    0    0  502    0 -0.00000000000E+00 -0.00000000000E+00 -0.34104372100E+03  0.34104372100E+03  0.00000000000E+00 0. -1.
         23    2    1    2    0    0 -0.15927494785E+02  0.30966765594E+02 -0.25574504095E+03  0.27335435989E+03  0.90024743463E+02 0.  0.
         24    2    1    2    0    0 -0.69214404301E+01 -0.17932051335E+02 -0.53011836828E+02  0.97776162385E+02  0.79877770901E+02 0.  0.
        -11    1    4    4    0    0 -0.36128070238E+02  0.14088649507E+02 -0.26558313021E+02  0.47000760574E+02  0.00000000000E+00 0.  1.
         12    1    4    4    0    0  0.29206629808E+02 -0.32020700842E+02 -0.26453523808E+02  0.50775401810E+02  0.00000000000E+00 0. -1.
        -11    1    3    3    0    0 -0.49928673108E+02  0.29218187026E+01 -0.10508760837E+03  0.11638219304E+03  0.00000000000E+00 0.  1.
         11    1    3    3    0    0  0.34001178323E+02  0.28044946892E+02 -0.15065743258E+03  0.15697216685E+03  0.00000000000E+00 0. -1.
          1    1    1    2  501    0  0.22848935215E+02 -0.13034714259E+02  0.15616462021E+03  0.15836466216E+03  0.00000000000E+00 0. -1.
<scales pt_clust_5="13000.00000" pt_clust_6="13000.00000" pt_clust_7="13000.00000" pt_clust_8="13000.00000" pt_clust_9="26.30547"></scales>
<clustering>
<clus scale="   26.305">  1  9  2 -1</clus>
<clus scale="   79.878">  5  6 -1 -1</clus>
<clus scale="   84.940">  1  5  2 -1</clus>
<clus scale="   90.025">  7  8 -1 -1</clus>
<clus scale="   26.305">  1  5  2 -1</clus>
</clustering>
</event>
<event>
 9    2  0.1033155E-004  0.1232196E+03  0.7546771E-02  0.1241090E+00
         21   -1    0    0  501  502  0.00000000000E+00  0.00000000000E+00  0.67634814307E+02  0.67634814307E+02  0.00000000000E+00 0.  1.
          2   -1    0    0  502    0 -0.00000000000E+00 -0.00000000000E+00 -0.46496919824E+03  0.46496919824E+03  0.00000000000E+00 0. -1.
         23    2    1    2    0    0  0.21406462720E+02  0.83809691328E+02 -0.25929984611E+03  0.28813740938E+03  0.91128785173E+02 0.  0.
         24    2    1    2    0    0 -0.38439298419E+02 -0.61923262077E+02 -0.49761071098E+01  0.10854868948E+03  0.80286899901E+02 0.  0.
        -11    1    4    4    0    0 -0.25226138610E+02 -0.86513400910E+01  0.32535520352E+02  0.42068561173E+02  0.00000000000E+00 0.  1.
         12    1    4    4    0    0 -0.13213159808E+02 -0.53271921986E+02 -0.37511627462E+02  0.66480128302E+02  0.00000000000E+00 0. -1.
        -11    1    3    3    0    0  0.42853957324E+02  0.64368789470E+01 -0.67536260376E+02  0.80243638592E+02  0.00000000000E+00 0. -1.
         11    1    3    3    0    0 -0.21447494604E+02  0.77372812381E+02 -0.19176358573E+03  0.20789377079E+03  0.00000000000E+00 0.  1.
          1    1    1    2  501    0  0.17032835698E+02 -0.21886429251E+02 -0.13305843072E+03  0.13591791369E+03  0.00000000000E+00 0. -1.
<scales pt_clust_5="13000.00000" pt_clust_6="13000.00000" pt_clust_7="13000.00000" pt_clust_8="13000.00000" pt_clust_9="27.73327"></scales>
<clustering>
<clus scale="   27.733">  1  9  2 -1</clus>
<clus scale="   80.287">  5  6 -1 -1</clus>
<clus scale="   91.129">  7  8 -1 -1</clus>
<clus scale="  115.432">  1  5  2 -1</clus>
<clus scale="   27.733">  1  5  2 -1</clus>
</clustering>
</event>
<event>
 9    2  0.1033155E-004  0.8308786E+02  0.7546771E-02  0.1329375E+00
          2   -1    0    0  502    0 -0.00000000000E+00  0.00000000000E+00  0.20514988763E+03  0.20514988763E+03  0.00000000000E+00 0. -1.
         21   -1    0    0  501  502  0.00000000000E+00 -0.00000000000E+00 -0.74282586709E+02  0.74282586709E+02  0.00000000000E+00 0. -1.
         24    2    1    2    0    0  0.23941232692E+02  0.18671544665E+02  0.14778080654E+03  0.17028448976E+03  0.78967281001E+02 0.  0.
         23    2    1    2    0    0  0.67812659713E+01 -0.14626671222E+02 -0.31374808392E+02  0.74952046175E+02  0.66132484793E+02 0.  0.
        -13    1    3    3    0    0 -0.22626503426E+02 -0.88908119069E+01  0.19868756640E+02  0.31397017121E+02  0.00000000000E+00 0.  1.
         14    1    3    3    0    0  0.46567736118E+02  0.27562356572E+02  0.12791204990E+03  0.13888747264E+03  0.00000000000E+00 0. -1.
        -13    1    4    4    0    0  0.28183421634E+02 -0.30271559103E+02 -0.16309526910E+02  0.44459793225E+02  0.00000000000E+00 0.  1.
         13    1    4    4    0    0 -0.21402155663E+02  0.15644887881E+02 -0.15065281482E+02  0.30492252950E+02  0.00000000000E+00 0. -1.
          1    1    1    2  501    0 -0.30722498663E+02 -0.40448734434E+01  0.14461302772E+02  0.34195938401E+02  0.00000000000E+00 0. -1.
<scales pt_clust_5="13000.00000" pt_clust_6="13000.00000" pt_clust_7="13000.00000" pt_clust_8="13000.00000" pt_clust_9="30.98763"></scales>
<clustering>
<clus scale="   30.988">  2  9  1 -1</clus>
<clus scale="   66.132">  7  8 -1 -1</clus>
<clus scale="   71.002">  2  7  1 -1</clus>
<clus scale="   78.967">  5  6 -1 -1</clus>
<clus scale="   30.988">  2  5  1 -1</clus>
</clustering>
</event>
<event>
 9    2  0.1033155E-004  0.2493723E+03  0.7546771E-02  0.1138199E+00
         21   -1    0    0  501  502  0.00000000000E+00  0.00000000000E+00  0.10459095080E+03  0.10459095080E+03  0.00000000000E+00 0. -1.
          2   -1    0    0  502    0 -0.00000000000E+00 -0.00000000000E+00 -0.12181417071E+04  0.12181417071E+04  0.00000000000E+00 0. -1.
         23    2    1    2    0    0  0.81306084406E+02 -0.53150214210E+02 -0.70021819555E+02  0.15298722441E+03  0.95217703111E+02 0.  0.
         24    2    1    2    0    0 -0.29002881436E+03  0.68973337796E+02 -0.73202696739E+03  0.79444685082E+03  0.80051753952E+02 0.  0.
        -13    1    4    4    0    0 -0.23510102677E+02 -0.16039727872E+02 -0.55790746183E+02  0.62630704593E+02  0.00000000000E+00 0.  1.
         14    1    4    4    0    0 -0.26651871169E+03  0.85013065668E+02 -0.67623622121E+03  0.73181614623E+03  0.00000000000E+00 0. -1.
        -11    1    3    3    0    0  0.53431659894E+02 -0.77227326890E+02 -0.68288090882E+02  0.11611315883E+03  0.00000000000E+00 0. -1.
         11    1    3    3    0    0  0.27874424512E+02  0.24077112680E+02 -0.17337286735E+01  0.36874065575E+02  0.00000000000E+00 0.  1.
          1    1    1    2  501    0  0.20872272996E+03 -0.15823123585E+02 -0.31150196940E+03  0.37529858270E+03  0.00000000000E+00 0. -1.
<scales pt_clust_5="13000.00000" pt_clust_6="13000.00000" pt_clust_7="13000.00000" pt_clust_8="13000.00000" pt_clust_9="236.17418"></scales>
<clustering>
<clus scale="   80.052">  5  6 -1 -1</clus>
<clus scale="   95.218">  7  8 -1 -1</clus>
<clus scale="  136.022">  2  7  1 -1</clus>
<clus scale="  236.174">  1  9  2 -1</clus>
<clus scale="  236.174">  1  5  2 -1</clus>
</clustering>
</event>
<event>
 9    2  0.1033155E-004  0.1061835E+03  0.7546771E-02  0.1274908E+00
          2   -1    0    0  502    0 -0.00000000000E+00  0.00000000000E+00  0.13930607072E+03  0.13930607072E+03  0.00000000000E+00 0. -1.
         21   -1    0    0  501  502  0.00000000000E+00 -0.00000000000E+00 -0.10064701944E+03  0.10064701944E+03  0.00000000000E+00 0. -1.
         24    2    1    2    0    0 -0.27028222477E+02  0.23000314170E+02  0.33171284160E+02  0.94151969187E+02  0.80651844038E+02 0.  0.
         23    2    1    2    0    0  0.54091461560E+02 -0.35270226080E+02  0.45644055367E+00  0.11566337230E+03  0.95957971488E+02 0.  0.
        -11    1    3    3    0    0  0.20387050214E+02 -0.16400817495E+02  0.13484042700E+02  0.29435319574E+02  0.00000000000E+00 0.  1.
         12    1    3    3    0    0 -0.47415272691E+02  0.39401131664E+02  0.19687241460E+02  0.64716649613E+02  0.00000000000E+00 0. -1.
        -13    1    4    4    0    0  0.52358822240E+02  0.64005932685E+01  0.33470402481E+02  0.62471447100E+02  0.00000000000E+00 0. -1.
         13    1    4    4    0    0  0.17326393197E+01 -0.41670819349E+02 -0.33013961927E+02  0.53191925199E+02  0.00000000000E+00 0.  1.
          1    1    1    2  501    0 -0.27063239083E+02  0.12269911911E+02  0.50313265671E+01  0.30137748671E+02  0.00000000000E+00 0. -1.
<scales pt_clust_5="13000.00000" pt_clust_6="13000.00000" pt_clust_7="13000.00000" pt_clust_8="13000.00000" pt_clust_9="29.71482"></scales>
<clustering>
<clus scale="   29.715">  2  9  1 -1</clus>
<clus scale="   80.652">  5  6 -1 -1</clus>
<clus scale="   92.584">  1  5  2 -1</clus>
<clus scale="   95.958">  7  8 -1 -1</clus>
<clus scale="   29.715">  2  5  1 -1</clus>
</clustering>
</event>
<event>
 9    2  0.1033155E-004  0.1404427E+03  0.7546771E-02  0.1214821E+00
         21   -1    0    0  501  502  0.00000000000E+00  0.00000000000E+00  0.68780254322E+02  0.68780254322E+02  0.00000000000E+00 0.  1.
          2   -1    0    0  502    0 -0.00000000000E+00 -0.00000000000E+00 -0.80322060167E+03  0.80322060167E+03  0.00000000000E+00 0. -1.
         24    2    1    2    0    0 -0.99323616233E+02 -0.26343057395E+02 -0.58168466237E+03  0.59625062328E+03  0.81231902051E+02 0.  0.
         23    2    1    2    0    0  0.13123986824E+03 -0.82283187680E+01 -0.16220981739E+03  0.22775848537E+03  0.90941159860E+02 0.  0.
        -13    1    3    3    0    0 -0.78260439068E+02  0.19399062240E+02 -0.35787422128E+03  0.36684462405E+03  0.00000000000E+00 0.  1.
         14    1    3    3    0    0 -0.21063177165E+02 -0.45742119635E+02 -0.22381044109E+03  0.22940599923E+03  0.00000000000E+00 0. -1.
        -13    1    4    4    0    0  0.97901782864E+02 -0.46451272135E+02 -0.12080731619E+03  0.16228643633E+03  0.00000000000E+00 0.  1.
         13    1    4    4    0    0  0.33338085375E+02  0.38222953367E+02 -0.41402501197E+02  0.65472049043E+02  0.00000000000E+00 0. -1.
          1    1    1    2  501    0 -0.31916252007E+02  0.34571376163E+02  0.94541324209E+01  0.47991747330E+02  0.00000000000E+00 0. -1.
<scales pt_clust_5="13000.00000" pt_clust_6="13000.00000" pt_clust_7="13000.00000" pt_clust_8="13000.00000" pt_clust_9="47.05133"></scales>
<clustering>
<clus scale="   47.051">  1  9  2 -1</clus>
<clus scale="   81.232">  5  6 -1 -1</clus>
<clus scale="   90.941">  7  8 -1 -1</clus>
<clus scale="  134.360">  2  5  1 -1</clus>
<clus scale="   47.051">  1  5  2 -1</clus>
</clustering>
</event>
<event>
 9    2  0.1033155E-004  0.1040709E+03  0.7546771E-02  0.1276729E+00
          2   -1    0    0  502    0 -0.00000000000E+00  0.00000000000E+00  0.17431235265E+03  0.17431235265E+03  0.00000000000E+00 0. -1.
         21   -1    0    0  501  502  0.00000000000E+00 -0.00000000000E+00 -0.23805702951E+03  0.23805702951E+03  0.00000000000E+00 0.  1.
         24    2    1    2    0    0  0.35513276433E+02 -0.28216552371E+02  0.10175071590E+03  0.13721567559E+03  0.80109717324E+02 0.  0.
         23    2    1    2    0    0 -0.38019339410E+02  0.65578979948E+02 -0.13937574176E+02  0.11903835268E+03  0.90718248739E+02 0.  0.
        -11    1    3    3    0    0  0.43195922512E+02  0.16282578492E+02  0.42750878391E+02  0.62917785142E+02  0.00000000000E+00 0.  1.
         12    1    3    3    0    0 -0.76826460789E+01 -0.44499130863E+02  0.58999837513E+02  0.74297890447E+02  0.00000000000E+00 0. -1.
        -13    1    4    4    0    0  0.26960540514E+02  0.40237248933E+02 -0.72056347329E+01  0.48967623165E+02  0.00000000000E+00 0. -1.
         13    1    4    4    0    0 -0.64979879924E+02  0.25341731015E+02 -0.67319394436E+01  0.70070729513E+02  0.00000000000E+00 0.  1.
          1    1    1    2  501    0  0.25060629768E+01 -0.37362427577E+02 -0.15155781859E+03  0.15611535390E+03  0.00000000000E+00 0. -1.
<scales pt_clust_5="13000.00000" pt_clust_6="13000.00000" pt_clust_7="13000.00000" pt_clust_8="13000.00000" pt_clust_9="37.44638"></scales>
<clustering>
<clus scale="   37.446">  2  9  1 -1</clus>
<clus scale="   80.110">  5  6 -1 -1</clus>
<clus scale="   90.718">  7  8 -1 -1</clus>
<clus scale="   94.966">  1  5  2 -1</clus>
<clus scale="   37.446">  2  5  1 -1</clus>
</clustering>
</event>
<event>
 9    2  0.1033155E-004  0.1232140E+03  0.7546771E-02  0.1243097E+00
          2   -1    0    0  502    0 -0.00000000000E+00  0.00000000000E+00  0.19544625295E+04  0.19544625295E+04  0.00000000000E+00 0. -1.
         21   -1    0    0  501  502  0.00000000000E+00 -0.00000000000E+00 -0.18351372906E+02  0.18351372906E+02  0.00000000000E+00 0.  1.
         24    2    1    2    0    0 -0.55498372956E+02 -0.49602810607E+02  0.14856773257E+04  0.14896873891E+04  0.79943061615E+02 0.  0.
         23    2    1    2    0    0  0.75622278676E+02  0.58218892951E+02  0.27808025942E+03  0.30938831348E+03  0.96355224631E+02 0.  0.
        -13    1    3    3    0    0 -0.23978648637E+02 -0.44258885491E+01  0.10052066215E+03  0.10343581391E+03  0.00000000000E+00 0.  1.
         14    1    3    3    0    0 -0.31519724318E+02 -0.45176922058E+02  0.13851566635E+04  0.13862515752E+04  0.00000000000E+00 0. -1.
        -11    1    4    4    0    0  0.85876152346E+02  0.23608653814E+02  0.13431200202E+03  0.16115767423E+03  0.00000000000E+00 0.  1.
         11    1    4    4    0    0 -0.10253873670E+02  0.34610239137E+02  0.14376825739E+03  0.14823063925E+03  0.00000000000E+00 0. -1.
          1    1    1    2  501    0 -0.20123905720E+02 -0.86160823439E+01  0.17235357145E+03  0.17373819973E+03  0.00000000000E+00 0. -1.
<scales pt_clust_5="13000.00000" pt_clust_6="13000.00000" pt_clust_7="13000.00000" pt_clust_8="13000.00000" pt_clust_9="21.89084"></scales>
<clustering>
<clus scale="   21.891">  2  9  1 -1</clus>
<clus scale="   79.943">  5  6 -1 -1</clus>
<clus scale="   96.355">  7  8 -1 -1</clus>
<clus scale="  110.852">  1  5  2 -1</clus>
<clus scale="   21.891">  2  5  1 -1</clus>
</clustering>
</event>
<event>
 9    2  0.1033155E-004  0.2037384E+03  0.7546771E-02  0.1148305E+00
          2   -1    0    0  502    0 -0.00000000000E+00  0.00000000000E+00  0.16295633205E+03  0.16295633205E+03  0.00000000000E+00 0. -1.
         21   -1    0    0  501  502  0.00000000000E+00 -0.00000000000E+00 -0.62255712366E+03  0.62255712366E+03  0.00000000000E+00 0.  1.
         24    2    1    2    0    0  0.10758089980E+03 -0.14818682900E+03  0.73692803497E+02  0.21126316743E+03  0.75289510114E+02 0.  0.
         23    2    1    2    0    0 -0.89553521415E+02  0.13781333644E+03 -0.44677284901E+03  0.48526469831E+03  0.94146162508E+02 0.  0.
        -13    1    3    3    0    0  0.77240615056E+02 -0.56223686955E+02  0.61595827660E+02  0.11367172724E+03  0.00000000000E+00 0.  1.
         14    1    3    3    0    0  0.30340284745E+02 -0.91963142043E+02  0.12096975837E+02  0.97591440184E+02  0.00000000000E+00 0. -1.
        -13    1    4    4    0    0 -0.78597546674E+02  0.70243503352E+02 -0.16898702985E+03  0.19916912502E+03  0.00000000000E+00 0. -1.
         13    1    4    4    0    0 -0.10955974741E+02  0.67569833091E+02 -0.27778581916E+03  0.28609557328E+03  0.00000000000E+00 0.  1.
          1    1    1    2  501    0 -0.18027378387E+02  0.10373492554E+02 -0.86520746096E+02  0.88985589981E+02  0.00000000000E+00 0. -1.
<scales pt_clust_5="13000.00000" pt_clust_6="13000.00000" pt_clust_7="13000.00000" pt_clust_8="13000.00000" pt_clust_9="20.79894"></scales>
<clustering>
<clus scale="   20.799">  2  9  1 -1</clus>
<clus scale="   75.290">  5  6 -1 -1</clus>
<clus scale="   94.146">  7  8 -1 -1</clus>
<clus scale="  195.741">  1  5  2 -1</clus>
<clus scale="   20.799">  2  5  1 -1</clus>
</clustering>
</event>
<event>
 9    2  0.1033155E-004  0.1079736E+03  0.7546771E-02  0.1269482E+00
         21   -1    0    0  501  502  0.00000000000E+00  0.00000000000E+00  0.19434265302E+03  0.19434265302E+03  0.00000000000E+00 0.  1.
         -1   -1    0    0    0  501 -0.00000000000E+00 -0.00000000000E+00 -0.13855251586E+03  0.13855251586E+03  0.00000000000E+00 0.  1.
         23    2    1    2    0    0  0.35025811188E+02  0.38666076982E+02 -0.60106557164E+02  0.12219946972E+03  0.92725612568E+02 0.  0.
         24    2    1    2    0    0 -0.59181589481E+02 -0.42182099508E+02  0.13949696952E+03  0.17674224530E+03  0.80601654555E+02 0.  0.
        -11    1    4    4    0    0 -0.75060461376E+02 -0.44323980911E+02  0.13389137677E+03  0.15976729615E+03  0.00000000000E+00 0.  1.
         12    1    4    4    0    0  0.15878871895E+02  0.21418814039E+01  0.56055927470E+01  0.16974949150E+02  0.00000000000E+00 0. -1.
        -13    1    3    3    0    0  0.26252313544E+02  0.60209505358E+02 -0.93233272616E+01  0.66342240941E+02  0.00000000000E+00 0.  1.
         13    1    3    3    0    0  0.87734976439E+01 -0.21543428375E+02 -0.50783229902E+02  0.55857228775E+02  0.00000000000E+00 0. -1.
         -2    1    1    2    0  502  0.24155778294E+02  0.35160225251E+01 -0.23600275200E+02  0.33953453858E+02  0.00000000000E+00 0.  1.
<scales pt_clust_5="13000.00000" pt_clust_6="13000.00000" pt_clust_7="13000.00000" pt_clust_8="13000.00000" pt_clust_9="24.41034"></scales>
<clustering>
<clus scale="   24.410">  1  9  2 -1</clus>
<clus scale="   80.602">  5  6 -1 -1</clus>
<clus scale="   92.726">  7  8 -1 -1</clus>
<clus scale="   97.759">  1  5  2 -1</clus>
<clus scale="   24.410">  1  5  2 -1</clus>
</clustering>
</event>
<event>
 9    2  0.1033155E-004  0.1296391E+03  0.7546771E-02  0.1230831E+00
         21   -1    0    0  501  502  0.00000000000E+00  0.00000000000E+00  0.11087638346E+03  0.11087638346E+03  0.00000000000E+00 0.  1.
         -1   -1    0    0    0  501 -0.00000000000E+00 -0.00000000000E+00 -0.61089095581E+03  0.61089095581E+03  0.00000000000E+00 0.  1.
         23    2    1    2    0    0  0.86275314447E+02  0.18489835822E+02 -0.24473976211E+03  0.27574365997E+03  0.91387695812E+02 0.  0.
         24    2    1    2    0    0 -0.12151379439E+03  0.98276318135E+02 -0.14874998436E+02  0.17645336436E+03  0.80564801753E+02 0.  0.
        -13    1    4    4    0    0 -0.10070794601E+03  0.82658422639E+02 -0.43892727857E+02  0.13748118701E+03  0.00000000000E+00 0.  1.
         14    1    4    4    0    0 -0.20805848381E+02  0.15617895495E+02  0.29017729421E+02  0.38972177349E+02  0.00000000000E+00 0. -1.
        -11    1    3    3    0    0  0.80173229119E+02 -0.21594729576E+02 -0.19227776265E+03  0.20943929197E+03  0.00000000000E+00 0.  1.
         11    1    3    3    0    0  0.61020853275E+01  0.40084565397E+02 -0.52461999463E+02  0.66304368001E+02  0.00000000000E+00 0. -1.
         -2    1    1    2    0  502  0.35238479945E+02 -0.11676615396E+03 -0.24039981181E+03  0.26957031494E+03  0.00000000000E+00 0.  1.
<scales pt_clust_5="13000.00000" pt_clust_6="13000.00000" pt_clust_7="13000.00000" pt_clust_8="13000.00000" pt_clust_9="121.96762"></scales>
<clustering>
<clus scale="   80.565">  5  6 -1 -1</clus>
<clus scale="   91.388">  7  8 -1 -1</clus>
<clus scale="  121.968">  1  9  2 -1</clus>
<clus scale="  122.251">  1  5  2 -1</clus>
<clus scale="  121.968">  1  5  2 -1</clus>
</clustering>
</event>
<event>
 9    2  0.1033155E-004  0.1255523E+03  0.7546771E-02  0.1237398E+00
         21   -1    0    0  501  502  0.00000000000E+00  0.00000000000E+00  0.19598070470E+03  0.19598070470E+03  0.00000000000E+00 0. -1.
          2   -1    0    0  502    0 -0.00000000000E+00 -0.00000000000E+00 -0.56245355089E+03  0.56245355089E+03  0.00000000000E+00 0. -1.
         24    2    1    2    0    0 -0.70415668977E+02  0.28307469418E+02 -0.38667832392E+03  0.40233885984E+03  0.81220395773E+02 0.  0.
         23    2    1    2    0    0  0.11539862447E+03 -0.10865137003E+03 -0.96639132884E+02  0.20732956742E+03  0.92328028155E+02 0.  0.
        -11    1    3    3    0    0 -0.36758462415E+02  0.25680616722E+02 -0.65424722456E+02  0.79316284222E+02  0.00000000000E+00 0.  1.
         12    1    3    3    0    0 -0.33657206562E+02  0.26268526962E+01 -0.32125360146E+03  0.32302257562E+03  0.00000000000E+00 0. -1.
        -11    1    4    4    0    0  0.22457307788E+02 -0.76783526476E+02 -0.19315030116E+02  0.82298912505E+02  0.00000000000E+00 0. -1.
         11    1    4    4    0    0  0.92941316686E+02 -0.31867843554E+02 -0.77324102767E+02  0.12503065492E+03  0.00000000000E+00 0.  1.
          1    1    1    2  501    0 -0.44982955497E+02  0.80343900612E+02  0.11684461061E+03  0.14876582833E+03  0.00000000000E+00 0. -1.
<scales pt_clust_5="13000.00000" pt_clust_6="13000.00000" pt_clust_7="13000.00000" pt_clust_8="13000.00000" pt_clust_9="92.07936"></scales>
<clustering>
<clus scale="   81.220">  5  6 -1 -1</clus>
<clus scale="   92.079">  1  9  2 -1</clus>
<clus scale="   92.328">  7  8 -1 -1</clus>
<clus scale="  117.625">  2  5  1 -1</clus>
<clus scale="   92.079">  1  5  2 -1</clus>
</clustering>
</event>
<event>
 9    2  0.1033155E-004  0.1729764E+03  0.7546771E-02  0.1175966E+00
         21   -1    0    0  501  502  0.00000000000E+00  0.00000000000E+00  0.12638368014E+03  0.12638368014E+03  0.00000000000E+00 0. -1.
          2   -1    0    0  502    0 -0.00000000000E+00 -0.00000000000E+00 -0.41439263554E+03  0.41439263554E+03  0.00000000000E+00 0. -1.
         23    2    1    2    0    0 -0.13821091138E+03  0.68923133988E+01 -0.16606691069E+03  0.23444199716E+03  0.90747293043E+02 0.  0.
         24    2    1    2    0    0  0.14992469716E+03 -0.92505507547E+02 -0.92180368869E+02  0.21494181808E+03  0.81658318690E+02 0.  0.
        -11    1    4    4    0    0  0.27087468425E+02 -0.34597728875E+02 -0.61723035879E+02  0.75765869276E+02  0.00000000000E+00 0.  1.
         12    1    4    4    0    0  0.12283722873E+03 -0.57907778672E+02 -0.30457332990E+02  0.13917594881E+03  0.00000000000E+00 0. -1.
        -13    1    3    3    0    0 -0.76048623595E+02 -0.93516940085E+01 -0.14965503853E+03  0.16812934868E+03  0.00000000000E+00 0. -1.
         13    1    3    3    0    0 -0.62162287785E+02  0.16244007407E+02 -0.16411872162E+02  0.66312648471E+02  0.00000000000E+00 0.  1.
          1    1    1    2  501    0 -0.11713785776E+02  0.85613194149E+02 -0.29761675832E+02  0.91392500446E+02  0.00000000000E+00 0. -1.
<scales pt_clust_5="13000.00000" pt_clust_6="13000.00000" pt_clust_7="13000.00000" pt_clust_8="13000.00000" pt_clust_9="86.41083"></scales>
<clustering>
<clus scale="   81.658">  5  6 -1 -1</clus>
<clus scale="   86.411">  1  9  2 -1</clus>
<clus scale="   90.747">  7  8 -1 -1</clus>
<clus scale="  168.386">  1  5  2 -1</clus>
<clus scale="   86.411">  1  5  2 -1</clus>
</clustering>
</event>
<event>
 9    2  0.1033155E-004  0.9653172E+02  0.7546771E-02  0.1289504E+00
          2   -1    0    0  502    0 -0.00000000000E+00  0.00000000000E+00  0.27862336157E+03  0.27862336157E+03  0.00000000000E+00 0. -1.
         21   -1    0    0  501  502  0.00000000000E+00 -0.00000000000E+00 -0.11217002299E+03  0.11217002299E+03  0.00000000000E+00 0. -1.
         24    2    1    2    0    0  0.43349967177E+02  0.18399331730E+02  0.21287899352E+03  0.23264659196E+03  0.81173984803E+02 0.  0.
         23    2    1    2    0    0 -0.52484280979E+02  0.26323570090E+02 -0.18777176011E+02  0.10478002369E+03  0.84727450886E+02 0.  0.
        -11    1    3    3    0    0 -0.12783781836E+02  0.26437080941E+02  0.12234268559E+03  0.12581763407E+03  0.00000000000E+00 0.  1.
         12    1    3    3    0    0  0.56133749012E+02 -0.80377492106E+01  0.90536307931E+02  0.10682895789E+03  0.00000000000E+00 0. -1.
        -13    1    4    4    0    0 -0.51413916645E+02  0.15993666032E+01  0.22902589356E+02  0.56306992439E+02  0.00000000000E+00 0.  1.
         13    1    4    4    0    0 -0.10703643344E+01  0.24724203486E+02 -0.41679765366E+02  0.48473031253E+02  0.00000000000E+00 0. -1.
          1    1    1    2  501    0  0.91343138027E+01 -0.44722901820E+02 -0.27648478929E+02  0.53366768901E+02  0.00000000000E+00 0. -1.
<scales pt_clust_5="13000.00000" pt_clust_6="13000.00000" pt_clust_7="13000.00000" pt_clust_8="13000.00000" pt_clust_9="45.64618"></scales>
<clustering>
<clus scale="   45.646">  2  9  1 -1</clus>
<clus scale="   81.174">  5  6 -1 -1</clus>
<clus scale="   84.727">  7  8 -1 -1</clus>
<clus scale="   93.428">  1  5  2 -1</clus>
<clus scale="   45.646">  2  5  1 -1</clus>
</clustering>
</event>
<event>
 9    2  0.1033155E-004  0.1898323E+03  0.7546771E-02  0.1192376E+00
         21   -1    0    0  501  502  0.00000000000E+00  0.00000000000E+00  0.10208692943E+04  0.10208692943E+04  0.00000000000E+00 0. -1.
          4   -1    0    0  502    0 -0.00000000000E+00 -0.00000000000E+00 -0.50681549810E+02  0.50681549810E+02  0.00000000000E+00 0. -1.
         24    2    1    2    0    0 -0.65901555409E+01 -0.24017293955E+02  0.18504240850E+03  0.20504239661E+03  0.84743323658E+02 0.  0.
         23    2    1    2    0    0 -0.16666803168E+03  0.56774490491E+02  0.41910058142E+03  0.46020782517E+03  0.71724259761E+02 0.  0.
        -11    1    3    3    0    0  0.13240595178E+02 -0.51600187423E+02  0.12811275928E+03  0.13874715057E+03  0.00000000000E+00 0.  1.
         12    1    3    3    0    0 -0.19830750719E+02  0.27582893468E+02  0.56929649224E+02  0.66295246035E+02  0.00000000000E+00 0. -1.
        -11    1    4    4    0    0 -0.28693204485E+02  0.34974324658E+02  0.15466489448E+03  0.16114506803E+03  0.00000000000E+00 0.  1.
         11    1    4    4    0    0 -0.13797482720E+03  0.21800165833E+02  0.26443568695E+03  0.29906275713E+03  0.00000000000E+00 0. -1.
          3    1    1    2  501    0  0.17325818723E+03 -0.32757196537E+02  0.36604475459E+03  0.40630062235E+03  0.00000000000E+00 0. -1.
<scales pt_clust_5="13000.00000" pt_clust_6="13000.00000" pt_clust_7="13000.00000" pt_clust_8="13000.00000" pt_clust_9="175.76108"></scales>
<clustering>
<clus scale="   71.724">  7  8 -1 -1</clus>
<clus scale="   84.743">  5  6 -1 -1</clus>
<clus scale="   88.327">  2  5  1 -1</clus>
<clus scale="  175.761">  1  9  2 -1</clus>
<clus scale="  175.761">  1  5  2 -1</clus>
</clustering>
</event>
<event>
 9    2  0.1033155E-004  0.9874773E+02  0.7546771E-02  0.1289046E+00
         21   -1    0    0  501  502  0.00000000000E+00  0.00000000000E+00  0.33188598230E+02  0.33188598230E+02  0.00000000000E+00 0.  1.
          2   -1    0    0  502    0 -0.00000000000E+00 -0.00000000000E+00 -0.81142043916E+03  0.81142043916E+03  0.00000000000E+00 0. -1.
         24    2    1    2    0    0 -0.27150851302E+02 -0.17748627006E+02 -0.51920387436E+03  0.52639917292E+03  0.80444040220E+02 0.  0.
         23    2    1    2    0    0  0.69326391250E+02 -0.10586572176E+01 -0.99887000015E+02  0.15250429020E+03  0.92048229092E+02 0.  0.
        -11    1    3    3    0    0 -0.10328618236E+02  0.29910547509E+02 -0.12387973128E+03  0.12785737768E+03  0.00000000000E+00 0.  1.
         12    1    3    3    0    0 -0.16822233067E+02 -0.47659174515E+02 -0.39532414309E+03  0.39854179524E+03  0.00000000000E+00 0. -1.
        -11    1    4    4    0    0  0.76712368908E+02 -0.31508825793E+02 -0.80967275856E+02  0.11590208543E+03  0.00000000000E+00 0.  1.
         11    1    4    4    0    0 -0.73859776586E+01  0.30450168575E+02 -0.18919724158E+02  0.36602204776E+02  0.00000000000E+00 0. -1.
          1    1    1    2  501    0 -0.42175539947E+02  0.18807284224E+02 -0.15914096655E+03  0.16570557427E+03  0.00000000000E+00 0. -1.
<scales pt_clust_5="13000.00000" pt_clust_6="13000.00000" pt_clust_7="13000.00000" pt_clust_8="13000.00000" pt_clust_9="46.17892"></scales>
<clustering>
<clus scale="   46.179">  1  9  2 -1</clus>
<clus scale="   80.444">  5  6 -1 -1</clus>
<clus scale="   88.031">  2  5  1 -1</clus>
<clus scale="   92.048">  7  8 -1 -1</clus>
<clus scale="   46.179">  1  5  2 -1</clus>
</clustering>
</event>
<event>
 9    2  0.1033155E-004  0.2203946E+03  0.7546771E-02  0.1172210E+00
         -3   -1    0    0    0  501 -0.00000000000E+00  0.00000000000E+00  0.18310342504E+03  0.18310342504E+03  0.00000000000E+00 0.  1.
         21   -1    0    0  501  502  0.00000000000E+00 -0.00000000000E+00 -0.86017714513E+03  0.86017714513E+03  0.00000000000E+00 0.  1.
         24    2    1    2    0    0 -0.31058062164E+02  0.22094201573E+02  0.53780757568E+02  0.10369307615E+03  0.80044532527E+02 0.  0.
         23    2    1    2    0    0  0.14261067260E+02  0.17702673141E+03 -0.24010573188E+02  0.20504029318E+03  0.99615121997E+02 0.  0.
        -13    1    3    3    0    0 -0.47074605960E+02 -0.18585614594E+01  0.57835332428E+02  0.74594895630E+02  0.00000000000E+00 0.  1.
         14    1    3    3    0    0  0.16016543796E+02  0.23952763033E+02 -0.40545748599E+01  0.29098180516E+02  0.00000000000E+00 0. -1.
        -13    1    4    4    0    0  0.24006142318E+02  0.37476544788E+01 -0.19953268562E+02  0.31439985836E+02  0.00000000000E+00 0. -1.
         13    1    4    4    0    0 -0.97450750577E+01  0.17327907693E+03 -0.40573046260E+01  0.17360030735E+03  0.00000000000E+00 0.  1.
         -4    1    1    2    0  502  0.16796994904E+02 -0.19912093298E+03 -0.70684390447E+03  0.73454720085E+03  0.00000000000E+00 0.  1.
<scales pt_clust_5="13000.00000" pt_clust_6="13000.00000" pt_clust_7="13000.00000" pt_clust_8="13000.00000" pt_clust_9="196.59758"></scales>
<clustering>
<clus scale="   80.045">  5  6 -1 -1</clus>
<clus scale="   88.656">  1  5  2 -1</clus>
<clus scale="   99.615">  7  8 -1 -1</clus>
<clus scale="  196.598">  2  9  1 -1</clus>
<clus scale="  196.598">  2  5  1 -1</clus>
</clustering>
</event>
<event>
 9    2  0.1033155E-004  0.2927280E+03  0.7546771E-02  0.1132502E+00
         21   -1    0    0  501  502  0.00000000000E+00  0.00000000000E+00  0.11488922866E+03  0.11488922866E+03  0.00000000000E+00 0.  1.
          2   -1    0    0  502    0 -0.00000000000E+00 -0.00000000000E+00 -0.10345331893E+04  0.10345331893E+04  0.00000000000E+00 0. -1.
         24    2    1    2    0    0  0.35620979408E+02  0.27978799865E+02 -0.25157024585E+03  0.26947677863E+03  0.85313997713E+02 0.  0.
         23    2    1    2    0    0 -0.19436664292E+03  0.20050245156E+03 -0.35892994732E+03  0.46404452500E+03  0.92341697708E+02 0.  0.
        -13    1    3    3    0    0  0.38534718631E+02 -0.21203488491E+02 -0.84062205799E+02  0.94873425721E+02  0.00000000000E+00 0.  1.
         14    1    3    3    0    0 -0.29137392235E+01  0.49182288355E+02 -0.16750804005E+03  0.17460335291E+03  0.00000000000E+00 0. -1.
        -13    1    4    4    0    0 -0.71713578845E+02  0.11869476653E+03 -0.22802739000E+03  0.26688532290E+03  0.00000000000E+00 0.  1.
         13    1    4    4    0    0 -0.12265306407E+03  0.81807685038E+02 -0.13090255732E+03  0.19715920210E+03  0.00000000000E+00 0. -1.
          1    1    1    2  501    0  0.15874566351E+03 -0.22848125143E+03 -0.30914376744E+03  0.41590111431E+03  0.00000000000E+00 0. -1.
<scales pt_clust_5="13000.00000" pt_clust_6="13000.00000" pt_clust_7="13000.00000" pt_clust_8="13000.00000" pt_clust_9="277.78170"></scales>
<clustering>
<clus scale="   85.314">  5  6 -1 -1</clus>
<clus scale="   92.342">  7  8 -1 -1</clus>
<clus scale="   96.593">  2  5  1 -1</clus>
<clus scale="  277.782">  1  9  2 -1</clus>
<clus scale="  277.782">  1  5  2 -1</clus>
</clustering>
</event>
<event>
 9    2  0.1033155E-004  0.9254892E+02  0.7546771E-02  0.1302027E+00
          2   -1    0    0  502    0 -0.00000000000E+00  0.00000000000E+00  0.54449183414E+03  0.54449183414E+03  0.00000000000E+00 0. -1.
         21   -1    0    0  501  502  0.00000000000E+00 -0.00000000000E+00 -0.40694661633E+02  0.40694661633E+02  0.00000000000E+00 0. -1.
         24    2    1    2    0    0 -0.22187396352E+02 -0.90429979615E+01  0.45276668713E+03  0.46057212806E+03  0.80962681501E+02 0.  0.
         23    2    1    2    0    0  0.15420149197E+02 -0.11064186571E+02  0.35781575337E+02  0.98487298207E+02  0.89773211755E+02 0.  0.
        -13    1    3    3    0    0 -0.33976881465E+02  0.20256313225E+02  0.12091540306E+03  0.12722138734E+03  0.00000000000E+00 0.  1.
         14    1    3    3    0    0  0.11789485113E+02 -0.29299311186E+02  0.33185128407E+03  0.33335074072E+03  0.00000000000E+00 0. -1.
        -11    1    4    4    0    0 -0.20152831049E+02 -0.25044498314E+02 -0.14552059706E+02  0.35286342071E+02  0.00000000000E+00 0. -1.
         11    1    4    4    0    0  0.35572980245E+02  0.13980311743E+02  0.50333635043E+02  0.63200956136E+02  0.00000000000E+00 0.  1.
          1    1    1    2  501    0  0.67672471552E+01  0.20107184532E+02  0.15248910038E+02  0.26127069511E+02  0.00000000000E+00 0. -1.
<scales pt_clust_5="13000.00000" pt_clust_6="13000.00000" pt_clust_7="13000.00000" pt_clust_8="13000.00000" pt_clust_9="21.21543"></scales>
<clustering>
<clus scale="   21.215">  2  9  1 -1</clus>
<clus scale="   80.963">  5  6 -1 -1</clus>
<clus scale="   84.030">  1  5  2 -1</clus>
<clus scale="   89.773">  7  8 -1 -1</clus>
<clus scale="   21.215">  2  5  1 -1</clus>
</clustering>
</event>
<event>
 9    2  0.1033155E-004  0.1088767E+03  0.7546771E-02  0.1266074E+00
         21   -1    0    0  501  502  0.00000000000E+00  0.00000000000E+00  0.57742240900E+02  0.57742240900E+02  0.00000000000E+00 0.  1.
         -1   -1    0    0    0  501 -0.00000000000E+00 -0.00000000000E+00 -0.39957154807E+03  0.39957154807E+03  0.00000000000E+00 0.  1.
         23    2    1    2    0    0  0.75932690051E+02 -0.28207598777E+01 -0.26830898142E+03  0.29271829934E+03  0.88997545743E+02 0.  0.
         24    2    1    2    0    0 -0.30173590418E+02  0.32950575128E+02 -0.53211255604E+02  0.10616468187E+03  0.80270268429E+02 0.  0.
        -11    1    4    4    0    0 -0.39593089408E+02  0.52564426579E+02 -0.24679527077E+02  0.70283075681E+02  0.00000000000E+00 0.  1.
         12    1    4    4    0    0  0.94194989902E+01 -0.19613851451E+02 -0.28531728527E+02  0.35881606189E+02  0.00000000000E+00 0. -1.
        -11    1    3    3    0    0  0.44980849879E+02  0.24927251850E+02 -0.54605210188E+02  0.75009157576E+02  0.00000000000E+00 0. -1.
         11    1    3    3    0    0  0.30951840172E+02 -0.27748011728E+02 -0.21370377124E+03  0.21770914176E+03  0.00000000000E+00 0.  1.
         -2    1    1    2    0  502 -0.45759099633E+02 -0.30129815250E+02 -0.20309070146E+02  0.58430807768E+02  0.00000000000E+00 0.  1.
<scales pt_clust_5="13000.00000" pt_clust_6="13000.00000" pt_clust_7="13000.00000" pt_clust_8="13000.00000" pt_clust_9="54.78778"></scales>
<clustering>
<clus scale="   54.788">  1  9  2 -1</clus>
<clus scale="   80.270">  5  6 -1 -1</clus>
<clus scale="   88.998">  7  8 -1 -1</clus>
<clus scale="  101.867">  1  5  2 -1</clus>
<clus scale="   54.788">  1  5  2 -1</clus>
</clustering>
</event>
<event>
 9    2  0.1033155E-004  0.3087572E+03  0.7546771E-02  0.1081348E+00
          2   -1    0    0  502    0 -0.00000000000E+00  0.00000000000E+00  0.46147416383E+03  0.46147416383E+03  0.00000000000E+00 0. -1.
         21   -1    0    0  501  502  0.00000000000E+00 -0.00000000000E+00 -0.27345750561E+03  0.27345750561E+03  0.00000000000E+00 0.  1.
         24    2    1    2    0    0  0.91700216313E+02 -0.29617112737E+03  0.18699428012E+03  0.37096752281E+03  0.80769894311E+02 0.  0.
         23    2    1    2    0    0 -0.13572583690E+03  0.23953041234E+03  0.15087946858E+02  0.29085965914E+03  0.92603314923E+02 0.  0.
        -11    1    3    3    0    0  0.63789080386E+02 -0.27565563918E+03  0.14982861608E+03  0.32016197836E+03  0.00000000000E+00 0.  1.
         12    1    3    3    0    0  0.27911135927E+02 -0.20515488188E+02  0.37165664034E+02  0.50805544456E+02  0.00000000000E+00 0. -1.
        -11    1    4    4    0    0 -0.11912425634E+03  0.12167366135E+03  0.21696417346E+02  0.17165605973E+03  0.00000000000E+00 0. -1.
         11    1    4    4    0    0 -0.16601580564E+02  0.11785675099E+03 -0.66084704885E+01  0.11920359941E+03  0.00000000000E+00 0.  1.
          1    1    1    2  501    0  0.44025620589E+02  0.56640715032E+02 -0.14065568752E+02  0.73104487495E+02  0.00000000000E+00 0. -1.
<scales pt_clust_5="13000.00000" pt_clust_6="13000.00000" pt_clust_7="13000.00000" pt_clust_8="13000.00000" pt_clust_9="71.73859"></scales>
<clustering>
<clus scale="   71.739">  2  9  1 -1</clus>
<clus scale="   80.770">  5  6 -1 -1</clus>
<clus scale="   92.603">  7  8 -1 -1</clus>
<clus scale="  305.417">  1  5  2 -1</clus>
<clus scale="   71.739">  2  5  1 -1</clus>
</clustering>
</event>
<event>
 9    2  0.1033155E-004  0.1237195E+03  0.7546771E-02  0.1239469E+00
          2   -1    0    0  502    0 -0.00000000000E+00  0.00000000000E+00  0.10428415968E+03  0.10428415968E+03  0.00000000000E+00 0. -1.
         21   -1    0    0  501  502  0.00000000000E+00 -0.00000000000E+00 -0.37477335152E+03  0.37477335152E+03  0.00000000000E+00 0. -1.
         23    2    1    2    0    0  0.12085246280E+02  0.66718442525E+02 -0.39979641718E+02  0.11997218723E+03  0.90540323652E+02 0.  0.
         24    2    1    2    0    0  0.56430745587E+02 -0.13347093814E+03 -0.19625705339E+03  0.25748035192E+03  0.82343064339E+02 0.  0.
        -11    1    4    4    0    0 -0.21063166376E+00 -0.10143387807E+03 -0.12507318920E+03  0.16103471254E+03  0.00000000000E+00 0.  1.
         12    1    4    4    0    0  0.56641377251E+02 -0.32037060070E+02 -0.71183864191E+02  0.96445639383E+02  0.00000000000E+00 0. -1.
        -11    1    3    3    0    0  0.91341250059E+01 -0.20598227726E+02 -0.20495116926E+02  0.30459301419E+02  0.00000000000E+00 0.  1.
         11    1    3    3    0    0  0.29511212737E+01  0.87316670251E+02 -0.19484524792E+02  0.89512885815E+02  0.00000000000E+00 0. -1.
          1    1    1    2  501    0 -0.68515991867E+02  0.66752495614E+02 -0.34252496727E+02  0.10160497204E+03  0.00000000000E+00 0. -1.
<scales pt_clust_5="13000.00000" pt_clust_6="13000.00000" pt_clust_7="13000.00000" pt_clust_8="13000.00000" pt_clust_9="95.65744"></scales>
<clustering>
<clus scale="   82.343">  5  6 -1 -1</clus>
<clus scale="   90.540">  7  8 -1 -1</clus>
<clus scale="   95.657">  2  9  1 -1</clus>
<clus scale="  117.853">  2  5  1 -1</clus>
<clus scale="   95.657">  2  5  1 -1</clus>
</clustering>
</event>
<event>
 9    2  0.1033155E-004  0.1171457E+03  0.7546771E-02  0.1248391E+00
         21   -1    0    0  501  502  0.00000000000E+00  0.00000000000E+00  0.13722775509E+03  0.13722775509E+03  0.00000000000E+00 0.  1.
          2   -1    0    0  502    0 -0.00000000000E+00 -0.00000000000E+00 -0.30878256825E+03  0.30878256825E+03  0.00000000000E+00 0. -1.
         24    2    1    2    0    0 -0.31502844611E+01  0.85093379517E+02 -0.22300130931E+03  0.25188496055E+03  0.80409215064E+02 0.  0.
         23    2    1    2    0    0  0.57550583847E+02 -0.68137380239E+02  0.62008891223E+02  0.13617311801E+03  0.82117252705E+02 0.  0.
        -13    1    3    3    0    0 -0.32576604671E+02  0.26106742959E+02 -0.41846478150E+02  0.59109431848E+02  0.00000000000E+00 0.  1.
         14    1    3    3    0    0  0.29426320210E+02  0.58986636558E+02 -0.18115483116E+03  0.19277552870E+03  0.00000000000E+00 0. -1.
        -11    1    4    4    0    0  0.78840406429E+02 -0.55671020980E+02  0.50938325593E+02  0.10913196267E+03  0.00000000000E+00 0.  1.
         11    1    4    4    0    0 -0.21289822582E+02 -0.12466359259E+02  0.11070565630E+02  0.27041155339E+02  0.00000000000E+00 0. -1.
          1    1    1    2  501    0 -0.54400299386E+02 -0.16955999278E+02 -0.10562395072E+02  0.57952244775E+02  0.00000000000E+00 0. -1.
<scales pt_clust_5="13000.00000" pt_clust_6="13000.00000" pt_clust_7="13000.00000" pt_clust_8="13000.00000" pt_clust_9="56.98156"></scales>
<clustering>
<clus scale="   56.982">  1  9  2 -1</clus>
<clus scale="   80.409">  5  6 -1 -1</clus>
<clus scale="   82.117">  7  8 -1 -1</clus>
<clus scale="  115.955">  2  5  1 -1</clus>
<clus scale="   56.982">  1  5  2 -1</clus>
</clustering>
</event>
<event>
 9    2  0.1033155E-004  0.9949080E+02  0.7546771E-02  0.1286571E+00
          2   -1    0    0  502    0 -0.00000000000E+00  0.00000000000E+00  0.34882297688E+03  0.34882297688E+03  0.00000000000E+00 0. -1.
         21   -1    0    0  501  502  0.00000000000E+00 -0.00000000000E+00 -0.99899332289E+02  0.99899332289E+02  0.00000000000E+00 0.  1.
         24    2    1    2    0    0 -0.44787235867E+02  0.41279883330E+00  0.26080466330E+03  0.27650327548E+03  0.80180559076E+02 0.  0.
         23    2    1    2    0    0  0.27129137604E+02 -0.16583256524E+02  0.48318142712E+02  0.10743299220E+03  0.90532924359E+02 0.  0.
        -13    1    3    3    0    0  0.45124040101E+01  0.32227898195E+02  0.78106192505E+02  0.84614280825E+02  0.00000000000E+00 0.  1.
         14    1    3    3    0    0 -0.49299639877E+02 -0.31815099361E+02  0.18269847079E+03  0.19188899465E+03  0.00000000000E+00 0. -1.
        -13    1    4    4    0    0  0.20879903162E+02 -0.49092795433E+02  0.51531647099E+02  0.74172660544E+02  0.00000000000E+00 0. -1.
         13    1    4    4    0    0  0.62492344416E+01  0.32509538909E+02 -0.32135043871E+01  0.33260331652E+02  0.00000000000E+00 0.  1.
          1    1    1    2  501    0  0.17658098263E+02  0.16170457691E+02 -0.60199161421E+02  0.64786041491E+02  0.00000000000E+00 0. -1.
<scales pt_clust_5="13000.00000" pt_clust_6="13000.00000" pt_clust_7="13000.00000" pt_clust_8="13000.00000" pt_clust_9="23.94352"></scales>
<clustering>
<clus scale="   23.944">  2  9  1 -1</clus>
<clus scale="   80.181">  5  6 -1 -1</clus>
<clus scale="   90.173">  1  5  2 -1</clus>
<clus scale="   90.533">  7  8 -1 -1</clus>
<clus scale="   23.944">  2  5  1 -1</clus>
</clustering>
</event>
<event>
 9    2  0.1033155E-004  0.9110187E+02  0.7546771E-02  0.1306297E+00
          2   -1    0    0  502    0 -0.00000000000E+00  0.00000000000E+00  0.68090020731E+03  0.68090020731E+03  0.00000000000E+00 0. -1.
         21   -1    0    0  501  502  0.00000000000E+00 -0.00000000000E+00 -0.69550222601E+02  0.69550222601E+02  0.00000000000E+00 0. -1.
         24    2    1    2    0    0  0.88868191153E+01 -0.24390668333E+02  0.58491648704E+03  0.59193184838E+03  0.87075461884E+02 0.  0.
         23    2    1    2    0    0  0.10612313299E+02  0.36040685622E+02  0.69201835277E+02  0.11009266111E+03  0.76941197096E+02 0.  0.
        -13    1    3    3    0    0  0.23449627670E+02 -0.49579828681E+02  0.26037280062E+03  0.26608652682E+03  0.00000000000E+00 0.  1.
         14    1    3    3    0    0 -0.14562808555E+02  0.25189160348E+02  0.32454368642E+03  0.32584532156E+03  0.00000000000E+00 0. -1.
        -13    1    4    4    0    0 -0.19755400195E+02 -0.99005016013E+01  0.57941964971E+00  0.22105010652E+02  0.00000000000E+00 0. -1.
         13    1    4    4    0    0  0.30367713494E+02  0.45941187223E+02  0.68622415627E+02  0.87987650456E+02  0.00000000000E+00 0.  1.
          1    1    1    2  501    0 -0.19499132414E+02 -0.11650017289E+02 -0.42768337602E+02  0.48425920425E+02  0.00000000000E+00 0. -1.
<scales pt_clust_5="13000.00000" pt_clust_6="13000.00000" pt_clust_7="13000.00000" pt_clust_8="13000.00000" pt_clust_9="22.71429"></scales>
<clustering>
<clus scale="   22.714">  2  9  1 -1</clus>
<clus scale="   76.941">  7  8 -1 -1</clus>
<clus scale="   81.470">  2  7  1 -1</clus>
<clus scale="   87.075">  5  6 -1 -1</clus>
<clus scale="   22.714">  2  5  1 -1</clus>
</clustering>
</event>
<event>
 9    2  0.1033155E-004  0.9738071E+02  0.7546771E-02  0.1289785E+00
         21   -1    0    0  501  502  0.00000000000E+00  0.00000000000E+00  0.87637188309E+02  0.87637188309E+02  0.00000000000E+00 0. -1.
          2   -1    0    0  502    0 -0.00000000000E+00 -0.00000000000E+00 -0.47794483514E+03  0.47794483514E+03  0.00000000000E+00 0. -1.
         24    2    1    2    0    0 -0.80978491673E+01 -0.33759353248E+02 -0.29134593018E+03  0.30514074878E+03  0.83804274627E+02 0.  0.
         23    2    1    2    0    0 -0.46706117548E+02  0.37287879528E+02  0.35947574639E+02  0.11478262527E+03  0.91164552134E+02 0.  0.
        -11    1    3    3    0    0  0.13401904009E+02 -0.43550902540E+02 -0.26828414284E+03  0.27212620866E+03  0.00000000000E+00 0.  1.
         12    1    3    3    0    0 -0.21499753176E+02  0.97915492929E+01 -0.23061787340E+02  0.33014540122E+02  0.00000000000E+00 0. -1.
        -11    1    4    4    0    0  0.21314317603E+02 -0.12197958436E+02  0.44252038851E+01  0.24953411677E+02  0.00000000000E+00 0.  1.
         11    1    4    4    0    0 -0.68020435151E+02  0.49485837964E+02  0.31522370754E+02  0.89829213595E+02  0.00000000000E+00 0. -1.
          1    1    1    2  501    0  0.54803966715E+02 -0.35285262806E+01 -0.13490929129E+03  0.14565864939E+03  0.00000000000E+00 0. -1.
<scales pt_clust_5="13000.00000" pt_clust_6="13000.00000" pt_clust_7="13000.00000" pt_clust_8="13000.00000" pt_clust_9="54.91747"></scales>
<clustering>
<clus scale="   54.917">  1  9  2 -1</clus>
<clus scale="   83.804">  5  6 -1 -1</clus>
<clus scale="   90.527">  2  5  1 -1</clus>
<clus scale="   91.165">  7  8 -1 -1</clus>
<clus scale="   54.917">  1  5  2 -1</clus>
</clustering>
</event>
<event>
 9    2  0.1033155E-004  0.1509333E+03  0.7546771E-02  0.1203789E+00
         21   -1    0    0  501  502  0.00000000000E+00  0.00000000000E+00  0.25197995784E+03  0.25197995784E+03  0.00000000000E+00 0.  1.
          2   -1    0    0  502    0 -0.00000000000E+00 -0.00000000000E+00 -0.19284655570E+03  0.19284655570E+03  0.00000000000E+00 0. -1.
         24    2    1    2    0    0  0.68564191016E+02  0.91954035224E+02 -0.93542032692E+02  0.16836664054E+03  0.80253478952E+02 0.  0.
         23    2    1    2    0    0 -0.60205651396E+02 -0.68210834029E+02  0.18835085260E+03  0.23279821682E+03  0.10218379392E+03 0.  0.
        -13    1    3    3    0    0  0.22084096989E+02 -0.12633710093E+02 -0.19469072206E+02  0.32036896590E+02  0.00000000000E+00 0.  1.
         14    1    3    3    0    0  0.46480094027E+02  0.10458774532E+03 -0.74072960485E+02  0.13632974395E+03  0.00000000000E+00 0. -1.
        -13    1    4    4    0    0 -0.33584239891E+02 -0.23315403825E+02  0.38596869329E+01  0.41065878875E+02  0.00000000000E+00 0. -1.
         13    1    4    4    0    0 -0.26621411505E+02 -0.44895430204E+02  0.18449116567E+03  0.19173233794E+03  0.00000000000E+00 0.  1.
          1    1    1    2  501    0 -0.83585396202E+01 -0.23743201195E+02 -0.35675417771E+02  0.43661656184E+02  0.00000000000E+00 0. -1.
<scales pt_clust_5="13000.00000" pt_clust_6="13000.00000" pt_clust_7="13000.00000" pt_clust_8="13000.00000" pt_clust_9="25.17152"></scales>
<clustering>
<clus scale="   25.172">  1  9  2 -1</clus>
<clus scale="   80.253">  5  6 -1 -1</clus>
<clus scale="  102.184">  7  8 -1 -1</clus>
<clus scale="  137.040">  2  5  1 -1</clus>
<clus scale="   25.172">  1  5  2 -1</clus>
</clustering>
</event>
<event>
 9    2  0.1033155E-004  0.1014711E+03  0.7546771E-02  0.1280997E+00
         21   -1    0    0  501  502  0.00000000000E+00  0.00000000000E+00  0.26059691843E+02  0.26059691843E+02  0.00000000000E+00 0. -1.
         -1   -1    0    0    0  501 -0.00000000000E+00 -0.00000000000E+00 -0.70380007870E+03  0.70380007870E+03  0.00000000000E+00 0.  1.
         23    2    1    2    0    0 -0.13187332253E+02  0.54086154850E+02 -0.43598280385E+03  0.44851972042E+03  0.89385213940E+02 0.  0.
         24    2    1    2    0    0  0.29661606324E+02 -0.29182111368E+02 -0.23293083753E+03  0.25020286137E+03  0.81322138759E+02 0.  0.
        -11    1    4    4    0    0  0.64277831113E+01 -0.55577898236E+02 -0.15165278775E+03  0.16164401381E+03  0.00000000000E+00 0.  1.
         12    1    4    4    0    0  0.23233823213E+02  0.26395786868E+02 -0.81278049783E+02  0.88558847565E+02  0.00000000000E+00 0. -1.
        -13    1    3    3    0    0  0.35652905412E+02  0.23891846355E+02 -0.25679346389E+03  0.26035520561E+03  0.00000000000E+00 0. -1.
         13    1    3    3    0    0 -0.48840237664E+02  0.30194308496E+02 -0.17918933996E+03  0.18816451481E+03  0.00000000000E+00 0.  1.
         -2    1    1    2    0  502 -0.16474274072E+02 -0.24904043482E+02 -0.88267454785E+01  0.31137188757E+02  0.00000000000E+00 0.  1.
<scales pt_clust_5="13000.00000" pt_clust_6="13000.00000" pt_clust_7="13000.00000" pt_clust_8="13000.00000" pt_clust_9="29.85989"></scales>
<clustering>
<clus scale="   29.860">  1  9  2 -1</clus>
<clus scale="   81.322">  5  6 -1 -1</clus>
<clus scale="   89.385">  7  8 -1 -1</clus>
<clus scale="   94.446">  1  5  2 -1</clus>
<clus scale="   29.860">  1  5  2 -1</clus>
</clustering>
</event>
<event>
 9    2  0.1033155E-004  0.1790395E+03  0.7546771E-02  0.1189800E+00
         21   -1    0    0  501  502  0.00000000000E+00  0.00000000000E+00  0.15041695060E+03  0.15041695060E+03  0.00000000000E+00 0. -1.
          2   -1    0    0  502    0 -0.00000000000E+00 -0.00000000000E+00 -0.61015987834E+03  0.61015987834E+03  0.00000000000E+00 0. -1.
         24    2    1    2    0    0  0.61294087121E+02  0.45421448489E+02 -0.29564296647E+03  0.31594796515E+03  0.81229797239E+02 0.  0.
         23    2    1    2    0    0  0.95609776083E+02 -0.83577180016E+02 -0.22272162132E+03  0.27284067687E+03  0.93331345471E+02 0.  0.
        -11    1    3    3    0    0  0.28721768102E+02 -0.36661752757E+01 -0.22902193029E+02  0.36917357024E+02  0.00000000000E+00 0.  1.
         12    1    3    3    0    0  0.32572319019E+02  0.49087623765E+02 -0.27274077345E+03  0.27903060813E+03  0.00000000000E+00 0. -1.
        -13    1    4    4    0    0  0.38320564470E+02  0.13254068113E+02 -0.90900830595E+02  0.99534401017E+02  0.00000000000E+00 0.  1.
         13    1    4    4    0    0  0.57289211613E+02 -0.96831248129E+02 -0.13182079073E+03  0.17330627585E+03  0.00000000000E+00 0. -1.
          1    1    1    2  501    0 -0.15690386320E+03  0.38155731527E+02  0.58621660056E+02  0.17178818692E+03  0.00000000000E+00 0. -1.
<scales pt_clust_5="13000.00000" pt_clust_6="13000.00000" pt_clust_7="13000.00000" pt_clust_8="13000.00000" pt_clust_9="152.78871"></scales>
<clustering>
<clus scale="   81.230">  5  6 -1 -1</clus>
<clus scale="   93.331">  7  8 -1 -1</clus>
<clus scale="  111.438">  2  5  1 -1</clus>
<clus scale="  152.789">  1  9  2 -1</clus>
<clus scale="  152.789">  1  5  2 -1</clus>
</clustering>
</event>
<event>
 9    2  0.1033155E-004  0.2093359E+03  0.7546771E-02  0.1172924E+00
          2   -1    0    0  502    0 -0.00000000000E+00  0.00000000000E+00  0.35560940464E+03  0.35560940464E+03  0.00000000000E+00 0. -1.
         21   -1    0    0  501  502  0.00000000000E+00 -0.00000000000E+00 -0.14638731698E+04  0.14638731698E+04  0.00000000000E+00 0.  1.
         24    2    1    2    0    0  0.51392828937E+02  0.32293357869E+02  0.31737751287E+03  0.33330237580E+03  0.81718444735E+02 0.  0.
         23    2    1    2    0    0 -0.22011407158E+03 -0.51988556503E+02 -0.71453892766E+03  0.75507055484E+03  0.91720494554E+02 0.  0.
        -11    1    3    3    0    0 -0.30239734133E+01  0.35021001777E+02  0.54606917549E+02  0.64942516312E+02  0.00000000000E+00 0.  1.
         12    1    3    3    0    0  0.54416802351E+02 -0.27276439086E+01  0.26277059532E+03  0.26835985949E+03  0.00000000000E+00 0. -1.
        -11    1    4    4    0    0 -0.16056808379E+03 -0.41679661571E+02 -0.62785588537E+03  0.64940150640E+03  0.00000000000E+00 0.  1.
         11    1    4    4    0    0 -0.59545987787E+02 -0.10308894932E+02 -0.86683042293E+02  0.10566904844E+03  0.00000000000E+00 0. -1.
          1    1    1    2  501    0  0.16872124264E+03  0.19695198634E+02 -0.71110235038E+03  0.73110964382E+03  0.00000000000E+00 0. -1.
<scales pt_clust_5="13000.00000" pt_clust_6="13000.00000" pt_clust_7="13000.00000" pt_clust_8="13000.00000" pt_clust_9="188.17245"></scales>
<clustering>
<clus scale="   81.718">  5  6 -1 -1</clus>
<clus scale="   91.720">  7  8 -1 -1</clus>
<clus scale="  101.794">  1  5  2 -1</clus>
<clus scale="  188.172">  2  9  1 -1</clus>
<clus scale="  188.172">  2  5  1 -1</clus>
</clustering>
</event>
<event>
 9    2  0.1033155E-004  0.1249777E+03  0.7546771E-02  0.1238128E+00
         21   -1    0    0  501  502  0.00000000000E+00  0.00000000000E+00  0.84017058049E+02  0.84017058049E+02  0.00000000000E+00 0. -1.
          2   -1    0    0  502    0 -0.00000000000E+00 -0.00000000000E+00 -0.54048589189E+03  0.54048589189E+03  0.00000000000E+00 0. -1.
         24    2    1    2    0    0 -0.84610144468E+02 -0.12146500195E+02 -0.42044072440E+03  0.43670847325E+03  0.81470693249E+02 0.  0.
         23    2    1    2    0    0  0.83968601526E+02 -0.31373322799E+02 -0.55783804778E+02  0.13999621240E+03  0.91935277154E+02 0.  0.
        -13    1    3    3    0    0  0.46941229369E+01 -0.22593435553E+02 -0.44060251353E+02  0.49737348839E+02  0.00000000000E+00 0.  1.
         14    1    3    3    0    0 -0.89304267405E+02  0.10446935358E+02 -0.37638047305E+03  0.38697112441E+03  0.00000000000E+00 0. -1.
        -13    1    4    4    0    0  0.19473775556E+02  0.31203403963E+02 -0.60106275443E+01  0.37269397591E+02  0.00000000000E+00 0.  1.
         13    1    4    4    0    0  0.64494825970E+02 -0.62576726762E+02 -0.49773177234E+02  0.10272681481E+03  0.00000000000E+00 0. -1.
          1    1    1    2  501    0  0.64154294183E+00  0.43519822993E+02  0.19755695339E+02  0.47798264289E+02  0.00000000000E+00 0. -1.
<scales pt_clust_5="13000.00000" pt_clust_6="13000.00000" pt_clust_7="13000.00000" pt_clust_8="13000.00000" pt_clust_9="43.52455"></scales>
<clustering>
<clus scale="   43.525">  1  9  2 -1</clus>
<clus scale="   81.471">  5  6 -1 -1</clus>
<clus scale="   91.935">  7  8 -1 -1</clus>
<clus scale="  117.494">  2  5  1 -1</clus>
<clus scale="   43.525">  1  5  2 -1</clus>
</clustering>
</event>
<event>
 9    2  0.1033155E-004  0.2512315E+03  0.7546771E-02  0.1113044E+00
          2   -1    0    0  502    0 -0.00000000000E+00  0.00000000000E+00  0.57207014794E+03  0.57207014794E+03  0.00000000000E+00 0. -1.
         21   -1    0    0  501  502  0.00000000000E+00 -0.00000000000E+00 -0.85541974267E+03  0.85541974267E+03  0.00000000000E+00 0. -1.
         24    2    1    2    0    0 -0.50457970822E+02 -0.22435498701E+03  0.47593757902E+03  0.53475259362E+03  0.81009815702E+02 0.  0.
         23    2    1    2    0    0  0.80056500898E+02  0.27590754425E+03 -0.28475771939E+03  0.41449892317E+03  0.90489680308E+02 0.  0.
        -13    1    3    3    0    0 -0.21468755138E+02 -0.62988902638E+02  0.68199703450E+02  0.95287506282E+02  0.00000000000E+00 0.  1.
         14    1    3    3    0    0 -0.28989215684E+02 -0.16136608437E+03  0.40773787557E+03  0.43946508734E+03  0.00000000000E+00 0. -1.
        -11    1    4    4    0    0  0.46375905527E+02  0.23361753946E+03 -0.26653416007E+03  0.35744697206E+03  0.00000000000E+00 0.  1.
         11    1    4    4    0    0  0.33680595371E+02  0.42290004797E+02 -0.18223559323E+02  0.57051951103E+02  0.00000000000E+00 0. -1.
          1    1    1    2  501    0 -0.29598530076E+02 -0.51552557244E+02 -0.47452945437E+03  0.47823837383E+03  0.00000000000E+00 0. -1.
<scales pt_clust_5="13000.00000" pt_clust_6="13000.00000" pt_clust_7="13000.00000" pt_clust_8="13000.00000" pt_clust_9="59.44526"></scales>
<clustering>
<clus scale="   59.445">  2  9  1 -1</clus>
<clus scale="   81.010">  5  6 -1 -1</clus>
<clus scale="   90.490">  7  8 -1 -1</clus>
<clus scale="  247.975">  1  5  2 -1</clus>
<clus scale="   59.445">  2  5  1 -1</clus>
</clustering>
</event>
<event>
 9    2  0.1033155E-004  0.9417250E+02  0.7546771E-02  0.1301463E+00
         21   -1    0    0  501  502  0.00000000000E+00  0.00000000000E+00  0.35079226476E+03  0.35079226476E+03  0.00000000000E+00 0. -1.
          2   -1    0    0  502    0 -0.00000000000E+00 -0.00000000000E+00 -0.60163379314E+02  0.60163379314E+02  0.00000000000E+00 0. -1.
         24    2    1    2    0    0 -0.22087001317E+02 -0.39992675700E+02  0.31049443841E+02  0.92787736113E+02  0.74553646949E+02 0.  0.
         23    2    1    2    0    0  0.33402805591E+02 -0.25115971368E+02  0.79955349208E+02  0.12677303363E+03  0.89061690701E+02 0.  0.
        -13    1    3    3    0    0 -0.17754834541E+02 -0.45837972742E+02 -0.10784741649E+02  0.50325585413E+02  0.00000000000E+00 0.  1.
         14    1    3    3    0    0 -0.43321667754E+01  0.58452970423E+01  0.41834185490E+02  0.42462150700E+02  0.00000000000E+00 0. -1.
        -11    1    4    4    0    0  0.39587001899E+02 -0.16415221400E+01 -0.35795433138E+01  0.39782388623E+02  0.00000000000E+00 0. -1.
         11    1    4    4    0    0 -0.61841963079E+01 -0.23474449228E+02  0.83534892522E+02  0.86990645010E+02  0.00000000000E+00 0.  1.
          1    1    1    2  501    0 -0.11315804274E+02  0.65108647068E+02  0.17962409240E+03  0.19139487433E+03  0.00000000000E+00 0. -1.
<scales pt_clust_5="13000.00000" pt_clust_6="13000.00000" pt_clust_7="13000.00000" pt_clust_8="13000.00000" pt_clust_9="66.08467"></scales>
<clustering>
<clus scale="   66.085">  1  9  2 -1</clus>
<clus scale="   74.554">  5  6 -1 -1</clus>
<clus scale="   80.590">  2  5  1 -1</clus>
<clus scale="   89.062">  7  8 -1 -1</clus>
<clus scale="   66.085">  1  5  2 -1</clus>
</clustering>
</event>
<event>
 9    2  0.1033155E-004  0.1504245E+03  0.7546771E-02  0.1213973E+00
          2   -1    0    0  502    0 -0.00000000000E+00  0.00000000000E+00  0.58266357973E+03  0.58266357973E+03  0.00000000000E+00 0. -1.
         21   -1    0    0  501  502  0.00000000000E+00 -0.00000000000E+00 -0.66921664813E+02  0.66921664813E+02  0.00000000000E+00 0.  1.
         23    2    1    2    0    0  0.57058268365E+02 -0.24088719301E+02  0.13575409566E+03  0.17556779396E+03  0.92514665871E+02 0.  0.
         24    2    1    2    0    0 -0.13363009590E+03 -0.60757711092E+02  0.20779628990E+03  0.26734842943E+03  0.82142453301E+02 0.  0.
        -13    1    4    4    0    0 -0.10002817228E+03 -0.81231194786E+02  0.15801675756E+03  0.20389565451E+03  0.00000000000E+00 0.  1.
         14    1    4    4    0    0 -0.33601923625E+02  0.20473483694E+02  0.49779532338E+02  0.63452774924E+02  0.00000000000E+00 0. -1.
        -13    1    3    3    0    0  0.20392328317E+02 -0.12336808099E+02 -0.92297551927E+01  0.25558408972E+02  0.00000000000E+00 0.  1.
         13    1    3    3    0    0  0.36665940048E+02 -0.11751911202E+02  0.14498385085E+03  0.15000938499E+03  0.00000000000E+00 0. -1.
          1    1    1    2  501    0  0.76571827537E+02  0.84846430393E+02  0.17219152936E+03  0.20666902115E+03  0.00000000000E+00 0. -1.
<scales pt_clust_5="13000.00000" pt_clust_6="13000.00000" pt_clust_7="13000.00000" pt_clust_8="13000.00000" pt_clust_9="126.01647"></scales>
<clustering>
<clus scale="   82.142">  5  6 -1 -1</clus>
<clus scale="   92.515">  7  8 -1 -1</clus>
<clus scale="  111.332">  1  7  2 -1</clus>
<clus scale="  126.016">  2  9  1 -1</clus>
<clus scale="  126.016">  2  5  1 -1</clus>
</clustering>
</event>
<event>
 9    2  0.1033155E-004  0.9621946E+02  0.7546771E-02  0.1298542E+00
         -3   -1    0    0    0  501 -0.00000000000E+00  0.00000000000E+00  0.17043009654E+03  0.17043009654E+03  0.00000000000E+00 0.  1.
         21   -1    0    0  501  502  0.00000000000E+00 -0.00000000000E+00 -0.15731604778E+03  0.15731604778E+03  0.00000000000E+00 0. -1.
         23    2    1    2    0    0  0.40645008330E+02  0.17134831622E+02 -0.38554505865E+02  0.10995782381E+03  0.93051888415E+02 0.  0.
         24    2    1    2    0    0 -0.10369651146E+01  0.42881483055E+02 -0.44372779861E+02  0.97810434856E+02  0.75881754648E+02 0.  0.
        -11    1    4    4    0    0 -0.27687845455E+02 -0.85223844541E+01 -0.11058174945E+02  0.31008564234E+02  0.00000000000E+00 0.  1.
         12    1    4    4    0    0  0.26650880341E+02  0.51403867509E+02 -0.33314604915E+02  0.66801870621E+02  0.00000000000E+00 0. -1.
        -11    1    3    3    0    0  0.67288483117E+02  0.72178837500E+01 -0.78746505731E+01  0.68131108370E+02  0.00000000000E+00 0.  1.
         11    1    3    3    0    0 -0.26643474787E+02  0.99169478719E+01 -0.30679855292E+02  0.41826715440E+02  0.00000000000E+00 0. -1.
         -4    1    1    2    0  502 -0.39608043216E+02 -0.60016314677E+02  0.96041334491E+02  0.11997788565E+03  0.00000000000E+00 0.  1.
<scales pt_clust_5="13000.00000" pt_clust_6="13000.00000" pt_clust_7="13000.00000" pt_clust_8="13000.00000" pt_clust_9="71.90800"></scales>
<clustering>
<clus scale="   71.908">  2  9  1 -1</clus>
<clus scale="   75.882">  5  6 -1 -1</clus>
<clus scale="   79.734">  2  5  1 -1</clus>
<clus scale="   93.052">  7  8 -1 -1</clus>
<clus scale="   71.908">  2  5  1 -1</clus>
</clustering>
</event>
<event>
 9    2  0.1033155E-004  0.9071821E+02  0.7546771E-02  0.1307099E+00
         21   -1    0    0  501  502  0.00000000000E+00  0.00000000000E+00  0.15203000210E+03  0.15203000210E+03  0.00000000000E+00 0.  1.
         -3   -1    0    0    0  501 -0.00000000000E+00 -0.00000000000E+00 -0.10404181615E+03  0.10404181615E+03  0.00000000000E+00 0.  1.
         23    2    1    2    0    0  0.15895818377E+02  0.81391184170E+00  0.37096710551E+02  0.99248655816E+02  0.90668573681E+02 0.  0.
         24    2    1    2    0    0  0.14387047461E+02 -0.40753217786E+01  0.57844359939E+02  0.10085654626E+03  0.81255630974E+02 0.  0.
        -13    1    4    4    0    0  0.13367405556E+02 -0.31429451587E+02 -0.28523426102E+01  0.34272931254E+02  0.00000000000E+00 0.  1.
         14    1    4    4    0    0  0.10196419043E+01  0.27354129809E+02  0.60696702550E+02  0.66583615009E+02  0.00000000000E+00 0. -1.
        -11    1    3    3    0    0  0.47225163614E+02 -0.20774138913E+02  0.10035383966E+02  0.52559393616E+02  0.00000000000E+00 0. -1.
         11    1    3    3    0    0 -0.31329345237E+02  0.21588050754E+02  0.27061326585E+02  0.46689262201E+02  0.00000000000E+00 0.  1.
         -4    1    1    2    0  502 -0.30282865838E+02  0.32614099369E+01 -0.46952884542E+02  0.55966616165E+02  0.00000000000E+00 0.  1.
<scales pt_clust_5="13000.00000" pt_clust_6="13000.00000" pt_clust_7="13000.00000" pt_clust_8="13000.00000" pt_clust_9="30.45800"></scales>
<clustering>
<clus scale="   30.458">  1  9  2 -1</clus>
<clus scale="   81.256">  5  6 -1 -1</clus>
<clus scale="   81.311">  1  5  2 -1</clus>
<clus scale="   90.669">  7  8 -1 -1</clus>
<clus scale="   30.458">  1  5  2 -1</clus>
</clustering>
</event>
<event>
 9    2  0.1033155E-004  0.1264941E+03  0.7546771E-02  0.1235003E+00
         -1   -1    0    0    0  501 -0.00000000000E+00  0.00000000000E+00  0.42521207465E+03  0.42521207465E+03  0.00000000000E+00 0.  1.
         21   -1    0    0  501  502  0.00000000000E+00 -0.00000000000E+00 -0.58948716539E+02  0.58948716539E+02  0.00000000000E+00 0.  1.
         24    2    1    2    0    0 -0.17137847029E+02  0.89421308194E+02  0.25882087851E+03  0.28647194845E+03  0.82389647015E+02 0.  0.
         23    2    1    2    0    0 -0.19575988547E+02 -0.84114372736E+02  0.63953972331E+02  0.14052837081E+03  0.90552003826E+02 0.  0.
        -13    1    3    3    0    0 -0.28056298900E+02  0.99961071811E+02  0.24439436781E+03  0.26553338548E+03  0.00000000000E+00 0.  1.
         14    1    3    3    0    0  0.10918451871E+02 -0.10539763617E+02  0.14426510704E+02  0.20938562975E+02  0.00000000000E+00 0. -1.
        -13    1    4    4    0    0  0.29946779566E+02 -0.37756837515E+02  0.53310769872E+02  0.71863944853E+02  0.00000000000E+00 0. -1.
         13    1    4    4    0    0 -0.49522768113E+02 -0.46357535221E+02  0.10643202460E+02  0.68664425956E+02  0.00000000000E+00 0.  1.
         -2    1    1    2    0  502  0.36713835576E+02 -0.53069354581E+01  0.43488507262E+02  0.57160471923E+02  0.00000000000E+00 0.  1.
<scales pt_clust_5="13000.00000" pt_clust_6="13000.00000" pt_clust_7="13000.00000" pt_clust_8="13000.00000" pt_clust_9="37.09543"></scales>
<clustering>
<clus scale="   37.095">  2  9  1 -1</clus>
<clus scale="   82.390">  5  6 -1 -1</clus>
<clus scale="   90.552">  7  8 -1 -1</clus>
<clus scale="  120.785">  1  5  2 -1</clus>
<clus scale="   37.095">  2  5  1 -1</clus>
</clustering>
</event>
<event>
 9    2  0.1033155E-004  0.1368387E+03  0.7546771E-02  0.1220311E+00
          2   -1    0    0  502    0 -0.00000000000E+00  0.00000000000E+00  0.48428096606E+03  0.48428096606E+03  0.00000000000E+00 0. -1.
         21   -1    0    0  501  502  0.00000000000E+00 -0.00000000000E+00 -0.10252177624E+03  0.10252177624E+03  0.00000000000E+00 0.  1.
         23    2    1    2    0    0  0.39706908088E+02 -0.13544174949E+03  0.12270438472E+03  0.20783110721E+03  0.90643792074E+02 0.  0.
         24    2    1    2    0    0  0.25114423593E+02  0.61970799061E+02  0.15571375149E+01  0.10346331506E+03  0.78937435203E+02 0.  0.
        -13    1    4    4    0    0  0.29871497959E+02  0.70559136891E+02  0.22899951044E+02  0.79970656787E+02  0.00000000000E+00 0.  1.
         14    1    4    4    0    0 -0.47570743660E+01 -0.85883378303E+01 -0.21342813529E+02  0.23492658269E+02  0.00000000000E+00 0. -1.
        -13    1    3    3    0    0 -0.19477768086E+02 -0.58580877402E+02  0.81974219332E+02  0.10262005302E+03  0.00000000000E+00 0. -1.
         13    1    3    3    0    0  0.59184676174E+02 -0.76860872088E+02  0.40730165387E+02  0.10521105419E+03  0.00000000000E+00 0.  1.
          1    1    1    2  501    0 -0.64821331681E+02  0.73470950429E+02  0.25749766758E+03  0.27550832003E+03  0.00000000000E+00 0. -1.
<scales pt_clust_5="13000.00000" pt_clust_6="13000.00000" pt_clust_7="13000.00000" pt_clust_8="13000.00000" pt_clust_9="97.97854"></scales>
<clustering>
<clus scale="   78.937">  5  6 -1 -1</clus>
<clus scale="   90.644">  7  8 -1 -1</clus>
<clus scale="   97.979">  2  9  1 -1</clus>
<clus scale="  129.382">  2  5  1 -1</clus>
<clus scale="   97.979">  2  5  1 -1</clus>
</clustering>
</event>
<event>
 9    2  0.1033155E-004  0.1420545E+03  0.7546771E-02  0.1212954E+00
         21   -1    0    0  501  502  0.00000000000E+00  0.00000000000E+00  0.10238328252E+03  0.10238328252E+03  0.00000000000E+00 0. -1.
         -3   -1    0    0    0  501 -0.00000000000E+00 -0.00000000000E+00 -0.55019948487E+03  0.55019948487E+03  0.00000000000E+00 0.  1.
         23    2    1    2    0    0 -0.10327090321E+03 -0.95088752255E+01 -0.31667773839E+03  0.34554153115E+03  0.91426810086E+02 0.  0.
         24    2    1    2    0    0  0.12563373653E+03  0.79112085345E+02 -0.14457957775E+02  0.16934939298E+03  0.80172480049E+02 0.  0.
        -11    1    4    4    0    0  0.47594821879E+02  0.97536870964E+01  0.28640450335E+02  0.56397489989E+02  0.00000000000E+00 0.  1.
         12    1    4    4    0    0  0.78038914652E+02  0.69358398249E+02 -0.43098408110E+02  0.11295190299E+03  0.00000000000E+00 0. -1.
        -13    1    3    3    0    0 -0.83552472080E+02 -0.30101172527E+02 -0.29919531305E+03  0.31209763141E+03  0.00000000000E+00 0.  1.
         13    1    3    3    0    0 -0.19718431134E+02  0.20592297302E+02 -0.17482425336E+02  0.33443899745E+02  0.00000000000E+00 0. -1.
         -4    1    1    2    0  502 -0.22362833318E+02 -0.69603210120E+02 -0.11668050619E+03  0.13769184325E+03  0.00000000000E+00 0.  1.
<scales pt_clust_5="13000.00000" pt_clust_6="13000.00000" pt_clust_7="13000.00000" pt_clust_8="13000.00000" pt_clust_9="73.10751"></scales>
<clustering>
<clus scale="   73.108">  1  9  2 -1</clus>
<clus scale="   80.172">  5  6 -1 -1</clus>
<clus scale="   91.427">  7  8 -1 -1</clus>
<clus scale="  135.086">  1  5  2 -1</clus>
<clus scale="   73.108">  1  5  2 -1</clus>
</clustering>
</event>
<event>
 9    2  0.1514422E-004  0.1189020E+03  0.7546771E-02  0.1251442E+00
          2   -1    0    0  502    0 -0.00000000000E+00  0.00000000000E+00  0.74335219485E+03  0.74335219485E+03  0.00000000000E+00 0. -1.
         21   -1    0    0  501  502  0.00000000000E+00 -0.00000000000E+00 -0.12256855520E+03  0.12256855520E+03  0.00000000000E+00 0. -1.
         24    2    1    2    0    0 -0.63410111703E+02 -0.64918015957E+02  0.52839630615E+03  0.54212774982E+03  0.80403045366E+02 0.  0.
         23    2    1    2    0    0 -0.35101279044E+02  0.36071525227E+02  0.16455554661E+03  0.19831445578E+03  0.98574036798E+02 0.  0.
        -11    1    3    3    0    0 -0.20582278770E+02 -0.23479564088E+01  0.22513518630E+02  0.30594143553E+02  0.00000000000E+00 0.  1.
         12    1    3    3    0    0 -0.42827832934E+02 -0.62570059548E+02  0.50588278752E+03  0.51153360626E+03  0.00000000000E+00 0. -1.
        -13    1    4    4    0    0  0.25147949964E+02  0.36742339849E+02  0.39583639515E+02  0.59575862917E+02  0.00000000000E+00 0.  1.
         13    1    4    4    0    0 -0.60249229009E+02 -0.67081462175E+00  0.12497190709E+03  0.13873859287E+03  0.00000000000E+00 0. -1.
          1    1    1    2  501    0  0.98511390748E+02  0.28846490729E+02 -0.72168213113E+02  0.12547854445E+03  0.00000000000E+00 0. -1.
<scales pt_clust_5="13000.00000" pt_clust_6="13000.00000" pt_clust_7="13000.00000" pt_clust_8="13000.00000" pt_clust_9="102.64801"></scales>
<clustering>
<clus scale="   80.403">  5  6 -1 -1</clus>
<clus scale="   98.574">  7  8 -1 -1</clus>
<clus scale="  102.648">  2  9  1 -1</clus>
<clus scale="  104.334">  1  5  2 -1</clus>
<clus scale="  102.648">  2  5  1 -1</clus>
</clustering>
</event>
<event>
 9    2  0.1033155E-004  0.9920583E+02  0.7546771E-02  0.1290097E+00
         21   -1    0    0  501  502  0.00000000000E+00  0.00000000000E+00  0.23986727324E+02  0.23986727324E+02  0.00000000000E+00 0. -1.
          2   -1    0    0  502    0 -0.00000000000E+00 -0.00000000000E+00 -0.47541881475E+03  0.47541881475E+03  0.00000000000E+00 0. -1.
         23    2    1    2    0    0  0.37943953789E+02  0.58970580618E+01 -0.23452588885E+03  0.25525464711E+03  0.93155909154E+02 0.  0.
         24    2    1    2    0    0 -0.24063335088E+02 -0.21029908367E+02 -0.13059542072E+03  0.15543096987E+03  0.77989238614E+02 0.  0.
        -13    1    4    4    0    0  0.73200844288E+01 -0.40504994249E+02 -0.97520528741E+02  0.10585127170E+03  0.00000000000E+00 0.  1.
         14    1    4    4    0    0 -0.31383419517E+02  0.19475085882E+02 -0.33074891977E+02  0.49579698164E+02  0.00000000000E+00 0. -1.
        -13    1    3    3    0    0 -0.82458258025E+01  0.41564154782E+02 -0.95707327147E+02  0.10466835757E+03  0.00000000000E+00 0.  1.
         13    1    3    3    0    0  0.46189779592E+02 -0.35667096720E+02 -0.13881856170E+03  0.15058628955E+03  0.00000000000E+00 0. -1.
          1    1    1    2  501    0 -0.13880618701E+02  0.15132850305E+02 -0.86310777863E+02  0.88719925097E+02  0.00000000000E+00 0. -1.
<scales pt_clust_5="13000.00000" pt_clust_6="13000.00000" pt_clust_7="13000.00000" pt_clust_8="13000.00000" pt_clust_9="20.53473"></scales>
<clustering>
<clus scale="   20.535">  1  9  2 -1</clus>
<clus scale="   77.989">  5  6 -1 -1</clus>
<clus scale="   85.124">  1  5  2 -1</clus>
<clus scale="   93.156">  7  8 -1 -1</clus>
<clus scale="   20.535">  1  5  2 -1</clus>
</clustering>
</event>
<event>
 9    2  0.1033155E-004  0.8952374E+02  0.7546771E-02  0.1311946E+00
          2   -1    0    0  502    0 -0.00000000000E+00  0.00000000000E+00  0.17908143629E+04  0.17908143629E+04  0.00000000000E+00 0. -1.
         21   -1    0    0  501  502  0.00000000000E+00 -0.00000000000E+00 -0.12012006572E+02  0.12012006572E+02  0.00000000000E+00 0. -1.
         24    2    1    2    0    0 -0.18398502631E+02 -0.33487246287E+00  0.98884953831E+03  0.99199766309E+03  0.76794121653E+02 0.  0.
         23    2    1    2    0    0 -0.39440434479E+02 -0.32015947153E+02  0.31391684065E+03  0.33020185536E+03  0.88932073489E+02 0.  0.
        -11    1    3    3    0    0  0.22651077503E+02 -0.39482309297E+01  0.12068780648E+03  0.12285848149E+03  0.00000000000E+00 0.  1.
         12    1    3    3    0    0 -0.41049580133E+02  0.36133584668E+01  0.86816173182E+03  0.86913918160E+03  0.00000000000E+00 0. -1.
        -11    1    4    4    0    0 -0.21498348035E+02  0.25665883997E+02  0.18277299633E+03  0.18581411345E+03  0.00000000000E+00 0.  1.
         11    1    4    4    0    0 -0.17942086444E+02 -0.57681831151E+02  0.13114384432E+03  0.14438774191E+03  0.00000000000E+00 0. -1.
          1    1    1    2  501    0  0.57838937110E+02  0.32350819616E+02  0.47603597738E+03  0.48062685104E+03  0.00000000000E+00 0. -1.
<scales pt_clust_5="13000.00000" pt_clust_6="13000.00000" pt_clust_7="13000.00000" pt_clust_8="13000.00000" pt_clust_9="66.27158"></scales>
<clustering>
<clus scale="   66.272">  2  9  1 -1</clus>
<clus scale="   76.794">  5  6 -1 -1</clus>
<clus scale="   77.479">  1  5  2 -1</clus>
<clus scale="   88.932">  7  8 -1 -1</clus>
<clus scale="   66.272">  2  5  1 -1</clus>
</clustering>
</event>
<event>
 9    2  0.1033155E-004  0.1261597E+03  0.7546771E-02  0.1242869E+00
          4   -1    0    0  502    0 -0.00000000000E+00  0.00000000000E+00  0.12345219103E+04  0.12345219103E+04  0.00000000000E+00 0. -1.
         21   -1    0    0  501  502  0.00000000000E+00 -0.00000000000E+00 -0.26391524915E+02  0.26391524915E+02  0.00000000000E+00 0. -1.
         23    2    1    2    0    0  0.80881204758E+01 -0.50865710983E+02  0.18515671102E+03  0.21224040812E+03  0.90056898424E+02 0.  0.
         24    2    1    2    0    0  0.27338860721E+02 -0.66232696912E+02  0.51611714096E+03  0.52726085465E+03  0.80578670914E+02 0.  0.
        -13    1    4    4    0    0 -0.22619756869E+02 -0.37004427988E+02  0.13560402398E+03  0.14237075686E+03  0.00000000000E+00 0.  1.
         14    1    4    4    0    0  0.49958617590E+02 -0.29228268924E+02  0.38051311698E+03  0.38489009779E+03  0.00000000000E+00 0. -1.
        -13    1    3    3    0    0  0.47144811431E+02 -0.42916056671E+02  0.10861809111E+03  0.12594566639E+03  0.00000000000E+00 0.  1.
         13    1    3    3    0    0 -0.39056690955E+02 -0.79496543115E+01  0.76538619912E+02  0.86294741729E+02  0.00000000000E+00 0. -1.
          3    1    1    2  501    0 -0.35426981197E+02  0.11709840789E+03  0.50685653343E+03  0.52141217248E+03  0.00000000000E+00 0. -1.
<scales pt_clust_5="13000.00000" pt_clust_6="13000.00000" pt_clust_7="13000.00000" pt_clust_8="13000.00000" pt_clust_9="97.07401"></scales>
<clustering>
<clus scale="   80.579">  5  6 -1 -1</clus>
<clus scale="   90.057">  7  8 -1 -1</clus>
<clus scale="  103.745">  1  7  2 -1</clus>
<clus scale="   97.074">  2  9  1 -1</clus>
<clus scale="   97.074">  2  5  1 -1</clus>
</clustering>
</event>
<event>
 9    2  0.1033155E-004  0.9560978E+02  0.7546771E-02  0.1297532E+00
          4   -1    0    0  502    0 -0.00000000000E+00  0.00000000000E+00  0.33647564250E+02  0.33647564250E+02  0.00000000000E+00 0. -1.
         21   -1    0    0  501  502  0.00000000000E+00 -0.00000000000E+00 -0.41181685894E+03  0.41181685894E+03  0.00000000000E+00 0. -1.
         24    2    1    2    0    0  0.17087313654E+02  0.69007614766E+01 -0.12186637709E+03  0.14532017250E+03  0.76986634391E+02 0.  0.
         23    2    1    2    0    0 -0.40150782443E+02 -0.35973227247E+02 -0.23447039194E+03  0.25708857701E+03  0.90620159601E+02 0.  0.
        -11    1    3    3    0    0 -0.29010497846E+02  0.28462733830E+01 -0.26837237843E+02  0.39622564184E+02  0.00000000000E+00 0.  1.
         12    1    3    3    0    0  0.46097811500E+02  0.40544880936E+01 -0.95029139246E+02  0.10569760832E+03  0.00000000000E+00 0. -1.
        -13    1    4    4    0    0 -0.41177192514E+02  0.18504592468E+02 -0.14933865269E+03  0.15601286586E+03  0.00000000000E+00 0. -1.
         13    1    4    4    0    0  0.10264100706E+01 -0.54477819714E+02 -0.85131739248E+02  0.10107571116E+03  0.00000000000E+00 0.  1.
          3    1    1    2  501    0  0.23063468789E+02  0.29072465770E+02 -0.21832525660E+02  0.43055673670E+02  0.00000000000E+00 0. -1.
<scales pt_clust_5="13000.00000" pt_clust_6="13000.00000" pt_clust_7="13000.00000" pt_clust_8="13000.00000" pt_clust_9="37.10975"></scales>
<clustering>
<clus scale="   37.110">  2  9  1 -1</clus>
<clus scale="   76.987">  5  6 -1 -1</clus>
<clus scale="   82.802">  1  5  2 -1</clus>
<clus scale="   90.620">  7  8 -1 -1</clus>
<clus scale="   37.110">  2  5  1 -1</clus>
</clustering>
</event>
<event>
 9    2  0.1033155E-004  0.1530612E+03  0.7546771E-02  0.1198683E+00
         21   -1    0    0  501  502  0.00000000000E+00  0.00000000000E+00  0.11281806685E+03  0.11281806685E+03  0.00000000000E+00 0.  1.
          2   -1    0    0  502    0 -0.00000000000E+00 -0.00000000000E+00 -0.53971706839E+03  0.53971706839E+03  0.00000000000E+00 0. -1.
         23    2    1    2    0    0  0.58306428864E+02 -0.89113152112E+02 -0.19871663809E+03  0.24324085456E+03  0.91307269960E+02 0.  0.
         24    2    1    2    0    0 -0.76187523293E+02  0.16821429898E+03 -0.41297397159E+02  0.20557212774E+03  0.80335767896E+02 0.  0.
        -13    1    4    4    0    0 -0.92575035870E+02  0.14100087450E+03 -0.27349516197E+02  0.17087826050E+03  0.00000000000E+00 0.  1.
         14    1    4    4    0    0  0.16387512577E+02  0.27213424480E+02 -0.13947880961E+02  0.34693867234E+02  0.00000000000E+00 0. -1.
        -13    1    3    3    0    0  0.64299963089E+02 -0.34664967953E+02 -0.16081831931E+03  0.17663147251E+03  0.00000000000E+00 0. -1.
         13    1    3    3    0    0 -0.59935342246E+01 -0.54448184158E+02 -0.37898318784E+02  0.66609382052E+02  0.00000000000E+00 0.  1.
          1    1    1    2  501    0  0.17881094429E+02 -0.79101146867E+02 -0.18688496629E+03  0.20372215294E+03  0.00000000000E+00 0. -1.
<scales pt_clust_5="13000.00000" pt_clust_6="13000.00000" pt_clust_7="13000.00000" pt_clust_8="13000.00000" pt_clust_9="81.09705"></scales>
<clustering>
<clus scale="   80.336">  5  6 -1 -1</clus>
<clus scale="   81.097">  1  9  2 -1</clus>
<clus scale="   91.307">  7  8 -1 -1</clus>
<clus scale="  146.781">  1  5  2 -1</clus>
<clus scale="   81.097">  1  5  2 -1</clus>
</clustering>
</event>
<event>
 9    2  0.1033155E-004  0.1165573E+03  0.7546771E-02  0.1253777E+00
         21   -1    0    0  501  502  0.00000000000E+00  0.00000000000E+00  0.40794212073E+02  0.40794212073E+02  0.00000000000E+00 0.  1.
          2   -1    0    0  502    0 -0.00000000000E+00 -0.00000000000E+00 -0.69471605092E+03  0.69471605092E+03  0.00000000000E+00 0. -1.
         23    2    1    2    0    0 -0.27602468946E+02  0.46865051972E+02 -0.38548452519E+03  0.40087509778E+03  0.95625809648E+02 0.  0.
         24    2    1    2    0    0  0.86480148387E+02 -0.67189727995E+02 -0.17157318525E+03  0.21947296237E+03  0.82083784645E+02 0.  0.
        -11    1    4    4    0    0  0.21594844418E+02 -0.48924383925E+02 -0.26890540573E+02  0.59858448194E+02  0.00000000000E+00 0.  1.
         12    1    4    4    0    0  0.64885303969E+02 -0.18265344070E+02 -0.14468264467E+03  0.15961451417E+03  0.00000000000E+00 0. -1.
        -13    1    3    3    0    0 -0.47854462914E+00 -0.26344048207E+02 -0.51049390658E+02  0.57448047552E+02  0.00000000000E+00 0.  1.
         13    1    3    3    0    0 -0.27123924317E+02  0.73209100179E+02 -0.33443513453E+03  0.34342705023E+03  0.00000000000E+00 0. -1.
          1    1    1    2  501    0 -0.58877679441E+02  0.20324676023E+02 -0.96864128416E+02  0.11516220285E+03  0.00000000000E+00 0. -1.
<scales pt_clust_5="13000.00000" pt_clust_6="13000.00000" pt_clust_7="13000.00000" pt_clust_8="13000.00000" pt_clust_9="62.28703"></scales>
<clustering>
<clus scale="   62.287">  1  9  2 -1</clus>
<clus scale="   82.084">  5  6 -1 -1</clus>
<clus scale="   95.626">  7  8 -1 -1</clus>
<clus scale="  105.731">  1  5  2 -1</clus>
<clus scale="   62.287">  1  5  2 -1</clus>
</clustering>
</event>
<event>
 9    2  0.1033155E-004  0.1188446E+03  0.7546771E-02  0.1248657E+00
         21   -1    0    0  501  502  0.00000000000E+00  0.00000000000E+00  0.41291696109E+03  0.41291696109E+03  0.00000000000E+00 0. -1.
          2   -1    0    0  502    0 -0.00000000000E+00 -0.00000000000E+00 -0.70753880203E+02  0.70753880203E+02  0.00000000000E+00 0. -1.
         24    2    1    2    0    0 -0.69047462783E+02  0.40592607241E+02  0.95638161083E+02  0.14907675079E+03  0.81620511469E+02 0.  0.
         23    2    1    2    0    0  0.19866982219E+02 -0.76083876847E+02  0.24550735302E+03  0.27393615344E+03  0.92648272917E+02 0.  0.
        -11    1    3    3    0    0 -0.27395893155E+02 -0.76464137986E+01  0.77887293369E+02  0.82918231252E+02  0.00000000000E+00 0.  1.
         12    1    3    3    0    0 -0.41651569628E+02  0.48239021039E+02  0.17750867715E+02  0.66158519542E+02  0.00000000000E+00 0. -1.
        -13    1    4    4    0    0 -0.22877960590E+02 -0.89791686604E+01  0.12205486990E+02  0.27440853909E+02  0.00000000000E+00 0.  1.
         13    1    4    4    0    0  0.42744942809E+02 -0.67104708186E+02  0.23330186603E+03  0.24649529953E+03  0.00000000000E+00 0. -1.
          1    1    1    2  501    0  0.49180480564E+02  0.35491269606E+02  0.10175667853E+01  0.60657937065E+02  0.00000000000E+00 0. -1.
<scales pt_clust_5="13000.00000" pt_clust_6="13000.00000" pt_clust_7="13000.00000" pt_clust_8="13000.00000" pt_clust_9="60.64943"></scales>
<clustering>
<clus scale="   60.649">  1  9  2 -1</clus>
<clus scale="   81.621">  5  6 -1 -1</clus>
<clus scale="   92.648">  7  8 -1 -1</clus>
<clus scale="  110.464">  2  5  1 -1</clus>
<clus scale="   60.649">  1  5  2 -1</clus>
</clustering>
</event>
<event>
 9    2  0.1033155E-004  0.1143332E+03  0.7546771E-02  0.1256514E+00
         21   -1    0    0  501  502  0.00000000000E+00  0.00000000000E+00  0.23549941432E+03  0.23549941432E+03  0.00000000000E+00 0. -1.
          2   -1    0    0  502    0 -0.00000000000E+00 -0.00000000000E+00 -0.25697794032E+03  0.25697794032E+03  0.00000000000E+00 0. -1.
         24    2    1    2    0    0 -0.60580122542E+02 -0.39984318522E+02 -0.20639283746E+03  0.23347990271E+03  0.81524012661E+02 0.  0.
         23    2    1    2    0    0  0.61634247504E-01  0.56596349345E+02  0.71930691304E+02  0.12975448145E+03  0.91973096868E+02 0.  0.
        -11    1    3    3    0    0 -0.33559349269E+02 -0.50524044444E+02 -0.64048005949E+02  0.88210294503E+02  0.00000000000E+00 0.  1.
         12    1    3    3    0    0 -0.27020773273E+02  0.10539725922E+02 -0.14234483152E+03  0.14526960821E+03  0.00000000000E+00 0. -1.
        -13    1    4    4    0    0 -0.24687329750E+02 -0.12094618992E+02  0.43380285953E+02  0.51357504497E+02  0.00000000000E+00 0. -1.
         13    1    4    4    0    0  0.24748963998E+02  0.68690968337E+02  0.28550405351E+02  0.78396976956E+02  0.00000000000E+00 0.  1.
          1    1    1    2  501    0  0.60518488294E+02 -0.16612030823E+02  0.11298362016E+03  0.12924297048E+03  0.00000000000E+00 0. -1.
<scales pt_clust_5="13000.00000" pt_clust_6="13000.00000" pt_clust_7="13000.00000" pt_clust_8="13000.00000" pt_clust_9="62.75705"></scales>
<clustering>
<clus scale="   62.757">  1  9  2 -1</clus>
<clus scale="   81.524">  5  6 -1 -1</clus>
<clus scale="   91.973">  7  8 -1 -1</clus>
<clus scale="  106.109">  2  5  1 -1</clus>
<clus scale="   62.757">  1  5  2 -1</clus>
</clustering>
</event>
<event>
 9    2  0.1033155E-004  0.1746850E+03  0.7546771E-02  0.1201643E+00
          2   -1    0    0  502    0 -0.00000000000E+00  0.00000000000E+00  0.99068821070E+03  0.99068821070E+03  0.00000000000E+00 0. -1.
         21   -1    0    0  501  502  0.00000000000E+00 -0.00000000000E+00 -0.46775303273E+02  0.46775303273E+02  0.00000000000E+00 0. -1.
         23    2    1    2    0    0  0.15713194273E+02 -0.17464291335E+02  0.14356872419E+03  0.17083817785E+03  0.89564493519E+02 0.  0.
         24    2    1    2    0    0 -0.16084767842E+03 -0.24516539491E+02  0.45742106002E+03  0.49189519711E+03  0.79081112972E+02 0.  0.
        -13    1    4    4    0    0 -0.26293608531E+02 -0.31501284891E+02  0.16339417089E+03  0.16846762265E+03  0.00000000000E+00 0.  1.
         14    1    4    4    0    0 -0.13455406989E+03  0.69847454008E+01  0.29402688913E+03  0.32342757447E+03  0.00000000000E+00 0. -1.
        -11    1    3    3    0    0  0.36386705437E+02 -0.27221464644E+02  0.28766661249E+02  0.53782164975E+02  0.00000000000E+00 0.  1.
         11    1    3    3    0    0 -0.20673511165E+02  0.97571733087E+01  0.11480206294E+03  0.11705601287E+03  0.00000000000E+00 0. -1.
          1    1    1    2  501    0  0.14513448415E+03  0.41980830826E+02  0.34292312322E+03  0.37473013901E+03  0.00000000000E+00 0. -1.
<scales pt_clust_5="13000.00000" pt_clust_6="13000.00000" pt_clust_7="13000.00000" pt_clust_8="13000.00000" pt_clust_9="155.75949"></scales>
<clustering>
<clus scale="   79.081">  5  6 -1 -1</clus>
<clus scale="   89.564">  7  8 -1 -1</clus>
<clus scale="   92.594">  1  7  2 -1</clus>
<clus scale="  155.759">  2  9  1 -1</clus>
<clus scale="  155.759">  2  5  1 -1</clus>
</clustering>
</event>
<event>
 9    2  0.1033155E-004  0.1579643E+03  0.7546771E-02  0.1192749E+00
          4   -1    0    0  502    0 -0.00000000000E+00  0.00000000000E+00  0.28260334685E+03  0.28260334685E+03  0.00000000000E+00 0. -1.
         21   -1    0    0  501  502  0.00000000000E+00 -0.00000000000E+00 -0.17225119990E+03  0.17225119990E+03  0.00000000000E+00 0.  1.
         23    2    1    2    0    0  0.27560516435E+02 -0.13544792009E+03  0.15021641376E+03  0.22253366004E+03  0.88603260464E+02 0.  0.
         24    2    1    2    0    0  0.23879594173E+01  0.12114188946E+03  0.37046358137E+02  0.14855443790E+03  0.77555970988E+02 0.  0.
        -11    1    4    4    0    0  0.32393359469E+02  0.10477888265E+03  0.29057892635E+02  0.11345618146E+03  0.00000000000E+00 0.  1.
         12    1    4    4    0    0 -0.30005400052E+02  0.16363006819E+02  0.79884655016E+01  0.35098256445E+02  0.00000000000E+00 0. -1.
        -11    1    3    3    0    0 -0.46125702661E+00 -0.12477461978E+03  0.85648258646E+02  0.15134246829E+03  0.00000000000E+00 0.  1.
         11    1    3    3    0    0  0.28021773461E+02 -0.10673300306E+02  0.64568155113E+02  0.71191191745E+02  0.00000000000E+00 0. -1.
          3    1    1    2  501    0 -0.29948475852E+02  0.14306030623E+02 -0.76910624947E+02  0.83766448819E+02  0.00000000000E+00 0. -1.
<scales pt_clust_5="13000.00000" pt_clust_6="13000.00000" pt_clust_7="13000.00000" pt_clust_8="13000.00000" pt_clust_9="33.18996"></scales>
<clustering>
<clus scale="   33.190">  2  9  1 -1</clus>
<clus scale="   77.556">  5  6 -1 -1</clus>
<clus scale="   88.603">  7  8 -1 -1</clus>
<clus scale="  152.043">  2  5  1 -1</clus>
<clus scale="   33.190">  2  5  1 -1</clus>
</clustering>
</event>
<event>
 9    2  0.1033155E-004  0.1927990E+03  0.7546771E-02  0.1169107E+00
         21   -1    0    0  501  502  0.00000000000E+00  0.00000000000E+00  0.48530244135E+02  0.48530244135E+02  0.00000000000E+00 0.  1.
          2   -1    0    0  502    0 -0.00000000000E+00 -0.00000000000E+00 -0.15703366706E+04  0.15703366706E+04  0.00000000000E+00 0. -1.
         24    2    1    2    0    0 -0.11257527190E+03 -0.16417708124E+02 -0.68936423089E+03  0.70387039780E+03  0.85251164721E+02 0.  0.
         23    2    1    2    0    0  0.13108645214E+03 -0.14550784422E+03 -0.45235507161E+03  0.50144026913E+03  0.91983922663E+02 0.  0.
        -13    1    3    3    0    0 -0.11681086904E+03 -0.35104625476E+02 -0.62136307328E+03  0.63322127467E+03  0.00000000000E+00 0.  1.
         14    1    3    3    0    0  0.42355971383E+01  0.18686917352E+02 -0.68001157609E+02  0.70649123133E+02  0.00000000000E+00 0. -1.
        -13    1    4    4    0    0  0.12527561188E+03 -0.11804204448E+03 -0.43646901302E+03  0.46918344230E+03  0.00000000000E+00 0. -1.
         13    1    4    4    0    0  0.58108402628E+01 -0.27465799741E+02 -0.15886058591E+02  0.32256826836E+02  0.00000000000E+00 0.  1.
          1    1    1    2  501    0 -0.18511180244E+02  0.16192555235E+03 -0.38008712401E+03  0.41355624785E+03  0.00000000000E+00 0. -1.
<scales pt_clust_5="13000.00000" pt_clust_6="13000.00000" pt_clust_7="13000.00000" pt_clust_8="13000.00000" pt_clust_9="169.44151"></scales>
<clustering>
<clus scale="   85.251">  5  6 -1 -1</clus>
<clus scale="   91.984">  7  8 -1 -1</clus>
<clus scale="  142.164">  2  5  1 -1</clus>
<clus scale="  169.442">  1  9  2 -1</clus>
<clus scale="  169.442">  1  5  2 -1</clus>
</clustering>
</event>
<event>
 9    2  0.1033155E-004  0.1023118E+03  0.7546771E-02  0.1280904E+00
          2   -1    0    0  502    0 -0.00000000000E+00  0.00000000000E+00  0.19771316378E+03  0.19771316378E+03  0.00000000000E+00 0. -1.
         21   -1    0    0  501  502  0.00000000000E+00 -0.00000000000E+00 -0.69309348024E+02  0.69309348024E+02  0.00000000000E+00 0.  1.
         24    2    1    2    0    0  0.53059331405E+02  0.17464344816E+02  0.10469050752E+03  0.14208694870E+03  0.78155630871E+02 0.  0.
         23    2    1    2    0    0 -0.29008963019E+02 -0.17433310242E+02  0.81152624642E+01  0.96269900466E+02  0.89758542822E+02 0.  0.
        -11    1    3    3    0    0  0.33211235934E+02  0.93769204148E+01 -0.72251114181E+00  0.34517167484E+02  0.00000000000E+00 0.  1.
         12    1    3    3    0    0  0.19848095471E+02  0.80874244008E+01  0.10541301866E+03  0.10756978122E+03  0.00000000000E+00 0. -1.
        -11    1    4    4    0    0 -0.88598581014E+00  0.34268725274E+02 -0.80941645319E+01  0.35222805145E+02  0.00000000000E+00 0.  1.
         11    1    4    4    0    0 -0.28122977209E+02 -0.51702035517E+02  0.16209426996E+02  0.61047095322E+02  0.00000000000E+00 0. -1.
          1    1    1    2  501    0 -0.24050368386E+02 -0.31034573180E-01  0.15598045771E+02  0.28665662639E+02  0.00000000000E+00 0. -1.
<scales pt_clust_5="13000.00000" pt_clust_6="13000.00000" pt_clust_7="13000.00000" pt_clust_8="13000.00000" pt_clust_9="24.05040"></scales>
<clustering>
<clus scale="   24.050">  2  9  1 -1</clus>
<clus scale="   78.156">  5  6 -1 -1</clus>
<clus scale="   89.759">  7  8 -1 -1</clus>
<clus scale="   92.301">  1  5  2 -1</clus>
<clus scale="   24.050">  2  5  1 -1</clus>
</clustering>
</event>
<event>
 9    2  0.1033155E-004  0.1204902E+03  0.7546771E-02  0.1245589E+00
         21   -1    0    0  501  502  0.00000000000E+00  0.00000000000E+00  0.17372793704E+03  0.17372793704E+03  0.00000000000E+00 0.  1.
          2   -1    0    0  502    0 -0.00000000000E+00 -0.00000000000E+00 -0.21392014939E+03  0.21392014939E+03  0.00000000000E+00 0. -1.
         23    2    1    2    0    0  0.76867384744E+02  0.77159094344E+01 -0.10551024121E+03  0.15921812476E+03  0.90828795850E+02 0.  0.
         24    2    1    2    0    0 -0.76370505276E+02 -0.72816815444E+02  0.88416815753E+02  0.15935081280E+03  0.80252137313E+02 0.  0.
        -13    1    4    4    0    0 -0.89326426210E+02 -0.76728450221E+02  0.71796454572E+02  0.13791735345E+03  0.00000000000E+00 0.  1.
         14    1    4    4    0    0  0.12955920934E+02  0.39116347768E+01  0.16620361181E+02  0.21433459349E+02  0.00000000000E+00 0. -1.
        -11    1    3    3    0    0 -0.15040455245E+02  0.17708836278E+02 -0.73327484495E+01  0.24363648662E+02  0.00000000000E+00 0.  1.
         11    1    3    3    0    0  0.91907839989E+02 -0.99929268437E+01 -0.98177492764E+02  0.13485447610E+03  0.00000000000E+00 0. -1.
          1    1    1    2  501    0 -0.49687946773E+00  0.65100906009E+02 -0.23098786887E+02  0.69079148866E+02  0.00000000000E+00 0. -1.
<scales pt_clust_5="13000.00000" pt_clust_6="13000.00000" pt_clust_7="13000.00000" pt_clust_8="13000.00000" pt_clust_9="65.10283"></scales>
<clustering>
<clus scale="   65.103">  1  9  2 -1</clus>
<clus scale="   80.252">  5  6 -1 -1</clus>
<clus scale="   90.829">  7  8 -1 -1</clus>
<clus scale="  112.732">  1  5  2 -1</clus>
<clus scale="   65.103">  1  5  2 -1</clus>
</clustering>
</event>
<event>
 9    2  0.1033155E-004  0.1095419E+03  0.7546771E-02  0.1269778E+00
         21   -1    0    0  501  502  0.00000000000E+00  0.00000000000E+00  0.47612650127E+02  0.47612650127E+02  0.00000000000E+00 0.  1.
          2   -1    0    0  502    0 -0.00000000000E+00 -0.00000000000E+00 -0.29892787826E+03  0.29892787826E+03  0.00000000000E+00 0. -1.
         23    2    1    2    0    0  0.27101528193E+02  0.48667493399E+02 -0.12942979377E+03  0.17214687023E+03  0.98891130397E+02 0.  0.
         24    2    1    2    0    0  0.30079629186E+01 -0.42266534013E+02 -0.72392312375E+02  0.11610881570E+03  0.80281395439E+02 0.  0.
        -11    1    4    4    0    0 -0.36779962307E+01 -0.20412506110E+02  0.15116287580E+02  0.25665155604E+02  0.00000000000E+00 0.  1.
         12    1    4    4    0    0  0.66859591493E+01 -0.21854027904E+02 -0.87508599955E+02  0.90443660096E+02  0.00000000000E+00 0. -1.
        -11    1    3    3    0    0 -0.31640065472E+02  0.15164816569E+02 -0.83018664251E+02  0.90128597120E+02  0.00000000000E+00 0. -1.
         11    1    3    3    0    0  0.58741593665E+02  0.33502676829E+02 -0.46411129516E+02  0.82018273110E+02  0.00000000000E+00 0.  1.
          1    1    1    2  501    0 -0.30109491111E+02 -0.64009593854E+01 -0.49493121993E+02  0.58284842461E+02  0.00000000000E+00 0. -1.
<scales pt_clust_5="13000.00000" pt_clust_6="13000.00000" pt_clust_7="13000.00000" pt_clust_8="13000.00000" pt_clust_9="30.78238"></scales>
<clustering>
<clus scale="   30.782">  1  9  2 -1</clus>
<clus scale="   80.281">  5  6 -1 -1</clus>
<clus scale="   93.086">  1  5  2 -1</clus>
<clus scale="   98.891">  7  8 -1 -1</clus>
<clus scale="   30.782">  1  5  2 -1</clus>
</clustering>
</event>
<event>
 9    2  0.1033155E-004  0.9189925E+02  0.7546771E-02  0.1305699E+00
          2   -1    0    0  502    0 -0.00000000000E+00  0.00000000000E+00  0.45209180304E+03  0.45209180304E+03  0.00000000000E+00 0. -1.
         21   -1    0    0  501  502  0.00000000000E+00 -0.00000000000E+00 -0.42354043391E+02  0.42354043391E+02  0.00000000000E+00 0.  1.
         24    2    1    2    0    0 -0.87278960876E+01 -0.51818132008E+01  0.34459192850E+03  0.35383388330E+03  0.79698133158E+02 0.  0.
         23    2    1    2    0    0 -0.99360682932E+01  0.18606424057E+02  0.70063880963E+02  0.11710130688E+03  0.91426714849E+02 0.  0.
        -13    1    3    3    0    0  0.17042827172E+02  0.22471663799E+02  0.55239558175E+02  0.62022918500E+02  0.00000000000E+00 0.  1.
         14    1    3    3    0    0 -0.25770723259E+02 -0.27653477000E+02  0.28935237032E+03  0.29181096480E+03  0.00000000000E+00 0. -1.
        -13    1    4    4    0    0  0.23093276170E+02  0.43024519027E+02  0.21110997049E+02  0.53198522894E+02  0.00000000000E+00 0.  1.
         13    1    4    4    0    0 -0.33029344463E+02 -0.24418094970E+02  0.48952883913E+02  0.63902783985E+02  0.00000000000E+00 0. -1.
          1    1    1    2  501    0  0.18663964381E+02 -0.13424610856E+02 -0.49180498166E+01  0.23510656244E+02  0.00000000000E+00 0. -1.
<scales pt_clust_5="13000.00000" pt_clust_6="13000.00000" pt_clust_7="13000.00000" pt_clust_8="13000.00000" pt_clust_9="22.99051"></scales>
<clustering>
<clus scale="   22.991">  2  9  1 -1</clus>
<clus scale="   79.698">  5  6 -1 -1</clus>
<clus scale="   80.240">  1  5  2 -1</clus>
<clus scale="   91.427">  7  8 -1 -1</clus>
<clus scale="   22.991">  2  5  1 -1</clus>
</clustering>
</event>
<event>
 9    2  0.1033155E-004  0.1777274E+03  0.7546771E-02  0.1170649E+00
         21   -1    0    0  501  502  0.00000000000E+00  0.00000000000E+00  0.21544845742E+03  0.21544845742E+03  0.00000000000E+00 0. -1.
          2   -1    0    0  502    0 -0.00000000000E+00 -0.00000000000E+00 -0.19379218153E+03  0.19379218153E+03  0.00000000000E+00 0. -1.
         24    2    1    2    0    0 -0.12691730526E+03  0.27302853413E+02  0.30336698781E+02  0.15850857595E+03  0.85739169441E+02 0.  0.
         23    2    1    2    0    0  0.17669051841E+03 -0.42001857601E+02 -0.95409234430E+01  0.19882663041E+03  0.80357354365E+02 0.  0.
        -13    1    3    3    0    0  0.76069790911E+01  0.19351221350E+02  0.30599734634E+01  0.21016644267E+02  0.00000000000E+00 0.  1.
         14    1    3    3    0    0 -0.13452428435E+03  0.79516320626E+01  0.27276725317E+02  0.13749193168E+03  0.00000000000E+00 0. -1.
        -11    1    4    4    0    0  0.15964901023E+03 -0.12574737244E+02  0.84289896696E+01  0.16036514069E+03  0.00000000000E+00 0. -1.
         11    1    4    4    0    0  0.17041508186E+02 -0.29427120357E+02 -0.17969913113E+02  0.38461489714E+02  0.00000000000E+00 0.  1.
          1    1    1    2  501    0 -0.49773213148E+02  0.14699004188E+02  0.86050055224E+00  0.51905432591E+02  0.00000000000E+00 0. -1.
<scales pt_clust_5="13000.00000" pt_clust_6="13000.00000" pt_clust_7="13000.00000" pt_clust_8="13000.00000" pt_clust_9="51.89833"></scales>
<clustering>
<clus scale="   51.898">  1  9  2 -1</clus>
<clus scale="   80.357">  7  8 -1 -1</clus>
<clus scale="   85.739">  5  6 -1 -1</clus>
<clus scale="  175.195">  1  7  2 -1</clus>
<clus scale="   51.898">  1  5  2 -1</clus>
</clustering>
</event>
<event>
 9    2  0.1033155E-004  0.9089494E+02  0.7546771E-02  0.1305684E+00
          2   -1    0    0  502    0 -0.00000000000E+00  0.00000000000E+00  0.29461765201E+03  0.29461765201E+03  0.00000000000E+00 0. -1.
         21   -1    0    0  501  502  0.00000000000E+00 -0.00000000000E+00 -0.67406140037E+02  0.67406140037E+02  0.00000000000E+00 0. -1.
         23    2    1    2    0    0 -0.49230794342E+01  0.28747142996E+02  0.16798291032E+03  0.19084115617E+03  0.85740619229E+02 0.  0.
         24    2    1    2    0    0  0.51379651015E+02 -0.90077070726E+01  0.73511599877E+02  0.11872443908E+03  0.77269203389E+02 0.  0.
        -13    1    4    4    0    0 -0.72173211803E+01  0.21581443648E+02  0.45635965902E+01  0.23209369849E+02  0.00000000000E+00 0.  1.
         14    1    4    4    0    0  0.58596972196E+02 -0.30589150721E+02  0.68948003287E+02  0.95515069228E+02  0.00000000000E+00 0. -1.
        -11    1    3    3    0    0  0.34498842699E+02  0.36265120939E+02  0.10183007743E+03  0.11346670795E+03  0.00000000000E+00 0.  1.
         11    1    3    3    0    0 -0.39421922133E+02 -0.75179779423E+01  0.66152832888E+02  0.77374448212E+02  0.00000000000E+00 0. -1.
          1    1    1    2  501    0 -0.46456571581E+02 -0.19739435924E+02 -0.14282998223E+02  0.52458196804E+02  0.00000000000E+00 0. -1.
<scales pt_clust_5="13000.00000" pt_clust_6="13000.00000" pt_clust_7="13000.00000" pt_clust_8="13000.00000" pt_clust_9="50.47631"></scales>
<clustering>
<clus scale="   50.476">  2  9  1 -1</clus>
<clus scale="   77.269">  5  6 -1 -1</clus>
<clus scale="   82.952">  2  5  1 -1</clus>
<clus scale="   85.741">  7  8 -1 -1</clus>
<clus scale="   50.476">  2  5  1 -1</clus>
</clustering>
</event>
<event>
 9    2  0.1033155E-004  0.1565445E+03  0.7546771E-02  0.1212490E+00
          2   -1    0    0  502    0 -0.00000000000E+00  0.00000000000E+00  0.85215412894E+03  0.85215412894E+03  0.00000000000E+00 0. -1.
         21   -1    0    0  501  502  0.00000000000E+00 -0.00000000000E+00 -0.13341574458E+03  0.13341574458E+03  0.00000000000E+00 0. -1.
         24    2    1    2    0    0 -0.60328557894E+02 -0.27541630252E+02  0.62939023647E+03  0.63759209614E+03  0.77417924281E+02 0.  0.
         23    2    1    2    0    0 -0.44305123981E+02  0.10872261640E+03  0.14155319946E+03  0.20562635552E+03  0.91985534067E+02 0.  0.
        -13    1    3    3    0    0  0.58899520411E+01 -0.24011152330E+02  0.69066909000E+02  0.73358468428E+02  0.00000000000E+00 0.  1.
         14    1    3    3    0    0 -0.66218509936E+02 -0.35304779215E+01  0.56032332747E+03  0.56423362771E+03  0.00000000000E+00 0. -1.
        -13    1    4    4    0    0  0.19413426182E+02  0.23835872643E+02  0.27106597874E+01  0.30860615957E+02  0.00000000000E+00 0.  1.
         13    1    4    4    0    0 -0.63718550163E+02  0.84886743759E+02  0.13884253967E+03  0.17476573956E+03  0.00000000000E+00 0. -1.
          1    1    1    2  501    0  0.10463368188E+03 -0.81180986150E+02 -0.52205051573E+02  0.14235142186E+03  0.00000000000E+00 0. -1.
<scales pt_clust_5="13000.00000" pt_clust_6="13000.00000" pt_clust_7="13000.00000" pt_clust_8="13000.00000" pt_clust_9="126.66819"></scales>
<clustering>
<clus scale="   77.418">  5  6 -1 -1</clus>
<clus scale="   91.986">  7  8 -1 -1</clus>
<clus scale="  101.939">  1  5  2 -1</clus>
<clus scale="  126.668">  2  9  1 -1</clus>
<clus scale="  126.668">  2  5  1 -1</clus>
</clustering>
</event>
<event>
 9    2  0.1033155E-004  0.1042011E+03  0.7546771E-02  0.1275813E+00
         21   -1    0    0  501  502  0.00000000000E+00  0.00000000000E+00  0.42757853406E+02  0.42757853406E+02  0.00000000000E+00 0.  1.
          4   -1    0    0  502    0 -0.00000000000E+00 -0.00000000000E+00 -0.53990025044E+03  0.53990025044E+03  0.00000000000E+00 0. -1.
         23    2    1    2    0    0 -0.12264930841E+02  0.43228037283E+02 -0.22464859361E+03  0.24639220333E+03  0.90680954540E+02 0.  0.
         24    2    1    2    0    0  0.72275058800E+02 -0.18188203679E+02 -0.23866905553E+03  0.26296977309E+03  0.81459736154E+02 0.  0.
        -13    1    4    4    0    0  0.73782603546E+02  0.29385572853E+01 -0.22716887210E+03  0.23886859181E+03  0.00000000000E+00 0.  1.
         14    1    4    4    0    0 -0.15075447452E+01 -0.21126760964E+02 -0.11500183433E+02  0.24101181278E+02  0.00000000000E+00 0. -1.
        -13    1    3    3    0    0 -0.48836771821E+02  0.20534773994E+02 -0.16152660229E+03  0.16999279535E+03  0.00000000000E+00 0. -1.
         13    1    3    3    0    0  0.36571840980E+02  0.22693263289E+02 -0.63121991324E+02  0.76399407983E+02  0.00000000000E+00 0.  1.
          3    1    1    2  501    0 -0.60010127959E+02 -0.25039833604E+02 -0.33824747889E+02  0.73296127417E+02  0.00000000000E+00 0. -1.
<scales pt_clust_5="13000.00000" pt_clust_6="13000.00000" pt_clust_7="13000.00000" pt_clust_8="13000.00000" pt_clust_9="65.02468"></scales>
<clustering>
<clus scale="   65.025">  1  9  2 -1</clus>
<clus scale="   81.460">  5  6 -1 -1</clus>
<clus scale="   90.681">  7  8 -1 -1</clus>
<clus scale="   96.284">  1  5  2 -1</clus>
<clus scale="   65.025">  1  5  2 -1</clus>
</clustering>
</event>
<event>
 9    2  0.1033155E-004  0.9103235E+02  0.7546771E-02  0.1307300E+00
         21   -1    0    0  501  502  0.00000000000E+00  0.00000000000E+00  0.40729615150E+02  0.40729615150E+02  0.00000000000E+00 0. -1.
          4   -1    0    0  502    0 -0.00000000000E+00 -0.00000000000E+00 -0.25994298794E+03  0.25994298794E+03  0.00000000000E+00 0. -1.
         24    2    1    2    0    0 -0.16449836015E+02  0.31547109410E+02 -0.12353529432E+03  0.14814028827E+03  0.73612219436E+02 0.  0.
         23    2    1    2    0    0  0.30340345723E+02 -0.96034151082E+01 -0.84637584714E+02  0.12431238424E+03  0.85307010078E+02 0.  0.
        -13    1    3    3    0    0 -0.44549513680E+02  0.83589199328E+01 -0.68252748534E+02  0.81932706498E+02  0.00000000000E+00 0.  1.
         14    1    3    3    0    0  0.28099677666E+02  0.23188189477E+02 -0.55282545784E+02  0.66207581774E+02  0.00000000000E+00 0. -1.
        -13    1    4    4    0    0  0.29832057194E+02  0.33945937691E+02 -0.56958824653E+02  0.72708912989E+02  0.00000000000E+00 0. -1.
         13    1    4    4    0    0  0.50828852951E+00 -0.43549352799E+02 -0.27678760061E+02  0.51603471249E+02  0.00000000000E+00 0.  1.
          3    1    1    2  501    0 -0.13890509708E+02 -0.21943694301E+02 -0.11040493760E+02  0.28219930581E+02  0.00000000000E+00 0. -1.
<scales pt_clust_5="13000.00000" pt_clust_6="13000.00000" pt_clust_7="13000.00000" pt_clust_8="13000.00000" pt_clust_9="25.97060"></scales>
<clustering>
<clus scale="   25.971">  1  9  2 -1</clus>
<clus scale="   73.612">  5  6 -1 -1</clus>
<clus scale="   80.177">  2  5  1 -1</clus>
<clus scale="   85.307">  7  8 -1 -1</clus>
<clus scale="   25.971">  1  5  2 -1</clus>
</clustering>
</event>
<event>
 9    2  0.1033155E-004  0.9936812E+02  0.7546771E-02  0.1283713E+00
          2   -1    0    0  502    0 -0.00000000000E+00  0.00000000000E+00  0.58183337571E+03  0.58183337571E+03  0.00000000000E+00 0. -1.
         21   -1    0    0  501  502  0.00000000000E+00 -0.00000000000E+00 -0.23978566443E+03  0.23978566443E+03  0.00000000000E+00 0. -1.
         24    2    1    2    0    0  0.26981970841E+01  0.51146003197E+02  0.53187137594E+03  0.54044394417E+03  0.81051232786E+02 0.  0.
         23    2    1    2    0    0  0.20052331239E+02 -0.42995043289E+02 -0.84382061766E+01  0.98186819739E+02  0.85549859798E+02 0.  0.
        -13    1    3    3    0    0  0.94237570956E+01  0.64856724949E+02  0.25961153947E+03  0.26775614539E+03  0.00000000000E+00 0.  1.
         14    1    3    3    0    0 -0.67255600115E+01 -0.13710721752E+02  0.27225983648E+03  0.27268779879E+03  0.00000000000E+00 0. -1.
        -11    1    4    4    0    0  0.24749471448E+02 -0.97532021421E+01  0.34574038118E+02  0.43623679358E+02  0.00000000000E+00 0. -1.
         11    1    4    4    0    0 -0.46971402086E+01 -0.33241841147E+02 -0.43012244295E+02  0.54563140381E+02  0.00000000000E+00 0.  1.
          1    1    1    2  501    0 -0.22750528323E+02 -0.81509599085E+01 -0.18138545848E+03  0.18298827623E+03  0.00000000000E+00 0. -1.
<scales pt_clust_5="13000.00000" pt_clust_6="13000.00000" pt_clust_7="13000.00000" pt_clust_8="13000.00000" pt_clust_9="24.16660"></scales>
<clustering>
<clus scale="   24.167">  2  9  1 -1</clus>
<clus scale="   81.051">  5  6 -1 -1</clus>
<clus scale="   85.550">  7  8 -1 -1</clus>
<clus scale="   95.522">  1  5  2 -1</clus>
<clus scale="   24.167">  2  5  1 -1</clus>
</clustering>
</event>
<event>
 9    2  0.1033155E-004  0.1282456E+03  0.7546771E-02  0.1232862E+00
          2   -1    0    0  502    0 -0.00000000000E+00  0.00000000000E+00  0.91128556449E+03  0.91128556449E+03  0.00000000000E+00 0. -1.
         21   -1    0    0  501  502  0.00000000000E+00 -0.00000000000E+00 -0.62208504574E+02  0.62208504574E+02  0.00000000000E+00 0. -1.
         23    2    1    2    0    0 -0.83424857559E+02 -0.50972024777E+02  0.70725147230E+03  0.71968607764E+03  0.90474035586E+02 0.  0.
         24    2    1    2    0    0  0.66629677775E+02  0.32601597814E+02  0.17866087169E+03  0.20935139683E+03  0.80037004803E+02 0.  0.
        -13    1    4    4    0    0  0.78835964571E+02  0.45689070783E+02  0.15269897735E+03  0.17781894776E+03  0.00000000000E+00 0.  1.
         14    1    4    4    0    0 -0.12206286797E+02 -0.13087472969E+02  0.25961894340E+02  0.31532449061E+02  0.00000000000E+00 0. -1.
        -13    1    3    3    0    0 -0.26491080685E+02  0.24962799359E+02  0.14615031334E+03  0.15061484919E+03  0.00000000000E+00 0.  1.
         13    1    3    3    0    0 -0.56933776874E+02 -0.75934824136E+02  0.56110115896E+03  0.56907122845E+03  0.00000000000E+00 0. -1.
          1    1    1    2  501    0  0.16795179784E+02  0.18370426963E+02 -0.36835284073E+02  0.44456594601E+02  0.00000000000E+00 0. -1.
<scales pt_clust_5="13000.00000" pt_clust_6="13000.00000" pt_clust_7="13000.00000" pt_clust_8="13000.00000" pt_clust_9="24.89077"></scales>
<clustering>
<clus scale="   24.891">  2  9  1 -1</clus>
<clus scale="   80.037">  5  6 -1 -1</clus>
<clus scale="   90.474">  7  8 -1 -1</clus>
<clus scale="  121.109">  2  5  1 -1</clus>
<clus scale="   24.891">  2  5  1 -1</clus>
</clustering>
</event>
<event>
 9    2  0.1033155E-004  0.9794128E+02  0.7546771E-02  0.1287853E+00
          2   -1    0    0  502    0 -0.00000000000E+00  0.00000000000E+00  0.61092814236E+03  0.61092814236E+03  0.00000000000E+00 0. -1.
         21   -1    0    0  501  502  0.00000000000E+00 -0.00000000000E+00 -0.89643888381E+02  0.89643888381E+02  0.00000000000E+00 0. -1.
         24    2    1    2    0    0 -0.47935084287E+02  0.12373122697E+02  0.51313692525E+03  0.52203668407E+03  0.82230949083E+02 0.  0.
         23    2    1    2    0    0 -0.88674297953E+00 -0.76829969889E+01  0.59936465289E+02  0.10720735243E+03  0.88550673559E+02 0.  0.
        -13    1    3    3    0    0 -0.24800093917E+02  0.27682969326E+01  0.33635705169E+02  0.41881604416E+02  0.00000000000E+00 0.  1.
         14    1    3    3    0    0 -0.23134990370E+02  0.96048257644E+01  0.47950122008E+03  0.48015507965E+03  0.00000000000E+00 0. -1.
        -13    1    4    4    0    0  0.17851309595E+02 -0.44279947574E+02  0.30818184076E+02  0.56825553065E+02  0.00000000000E+00 0. -1.
         13    1    4    4    0    0 -0.18738052575E+02  0.36596950585E+02  0.29118281212E+02  0.50381799364E+02  0.00000000000E+00 0.  1.
          1    1    1    2  501    0  0.48821827266E+02 -0.46901257081E+01 -0.51789136561E+02  0.71327994241E+02  0.00000000000E+00 0. -1.
<scales pt_clust_5="13000.00000" pt_clust_6="13000.00000" pt_clust_7="13000.00000" pt_clust_8="13000.00000" pt_clust_9="49.04659"></scales>
<clustering>
<clus scale="   49.047">  2  9  1 -1</clus>
<clus scale="   82.231">  5  6 -1 -1</clus>
<clus scale="   88.551">  7  8 -1 -1</clus>
<clus scale="   92.267">  1  5  2 -1</clus>
<clus scale="   49.047">  2  5  1 -1</clus>
</clustering>
</event>
<event>
 9    2  0.1033155E-004  0.1076763E+03  0.7546771E-02  0.1270383E+00
          2   -1    0    0  502    0 -0.00000000000E+00  0.00000000000E+00  0.90585203194E+02  0.90585203194E+02  0.00000000000E+00 0. -1.
         21   -1    0    0  501  502  0.00000000000E+00 -0.00000000000E+00 -0.64311916060E+03  0.64311916060E+03  0.00000000000E+00 0. -1.
         24    2    1    2    0    0  0.21256351964E+01 -0.32499668671E+02  0.18355104673E+01  0.88865606837E+02  0.82661842413E+02 0.  0.
         23    2    1    2    0    0  0.11901870205E+02  0.92945399773E+02 -0.59622036760E+02  0.14621517357E+03  0.95097780529E+02 0.  0.
        -11    1    3    3    0    0  0.33164397236E+02 -0.43066032627E+02  0.95347019904E+01  0.55185785781E+02  0.00000000000E+00 0.  1.
         12    1    3    3    0    0 -0.31038762040E+02  0.10566363955E+02 -0.76991915231E+01  0.33679821055E+02  0.00000000000E+00 0. -1.
        -11    1    4    4    0    0  0.43647498964E+00  0.61983970330E+02  0.15727493619E+02  0.63949645377E+02  0.00000000000E+00 0. -1.
         11    1    4    4    0    0  0.11465395215E+02  0.30961429443E+02 -0.75349530379E+02  0.82265528194E+02  0.00000000000E+00 0.  1.
          1    1    1    2  501    0 -0.14027505402E+02 -0.60445731101E+02 -0.49474743111E+03  0.49862358338E+03  0.00000000000E+00 0. -1.
<scales pt_clust_5="13000.00000" pt_clust_6="13000.00000" pt_clust_7="13000.00000" pt_clust_8="13000.00000" pt_clust_9="62.05205"></scales>
<clustering>
<clus scale="   62.052">  2  9  1 -1</clus>
<clus scale="   82.662">  5  6 -1 -1</clus>
<clus scale="   95.098">  7  8 -1 -1</clus>
<clus scale="   96.869">  1  5  2 -1</clus>
<clus scale="   62.052">  2  5  1 -1</clus>
</clustering>
</event>
<event>
 9    2  0.1033155E-004  0.9438499E+02  0.7546771E-02  0.1298952E+00
         -1   -1    0    0    0  501 -0.00000000000E+00  0.00000000000E+00  0.47261888523E+03  0.47261888523E+03  0.00000000000E+00 0.  1.
         21   -1    0    0  501  502  0.00000000000E+00 -0.00000000000E+00 -0.11010894720E+03  0.11010894720E+03  0.00000000000E+00 0.  1.
         23    2    1    2    0    0 -0.48423190713E+01 -0.13726823406E+01  0.30806097915E+03  0.32154551714E+03  0.92003371719E+02 0.  0.
         24    2    1    2    0    0  0.67524427929E+02 -0.19267273512E+02  0.12488809888E+03  0.16465912123E+03  0.81146859254E+02 0.  0.
        -13    1    4    4    0    0  0.59450833062E+02 -0.42581692545E+02  0.57906489851E+02  0.93277884082E+02  0.00000000000E+00 0.  1.
         14    1    4    4    0    0  0.80735948666E+01  0.23314419033E+02  0.66981609024E+02  0.71381237145E+02  0.00000000000E+00 0. -1.
        -11    1    3    3    0    0  0.33535883027E+02 -0.28560146355E+02  0.17339678735E+03  0.17890439702E+03  0.00000000000E+00 0.  1.
         11    1    3    3    0    0 -0.38378202098E+02  0.27187464014E+02  0.13466419180E+03  0.14264112012E+03  0.00000000000E+00 0. -1.
         -2    1    1    2    0  502 -0.62682108858E+02  0.20639955853E+02 -0.70439139996E+02  0.96523194061E+02  0.00000000000E+00 0.  1.
<scales pt_clust_5="13000.00000" pt_clust_6="13000.00000" pt_clust_7="13000.00000" pt_clust_8="13000.00000" pt_clust_9="65.99284"></scales>
<clustering>
<clus scale="   65.993">  2  9  1 -1</clus>
<clus scale="   81.147">  5  6 -1 -1</clus>
<clus scale="   83.837">  2  5  1 -1</clus>
<clus scale="   92.003">  7  8 -1 -1</clus>
<clus scale="   65.993">  2  5  1 -1</clus>
</clustering>
</event>
<event>
 9    2  0.1033155E-004  0.3481097E+03  0.7546771E-02  0.1063681E+00
         21   -1    0    0  501  502  0.00000000000E+00  0.00000000000E+00  0.21295157344E+03  0.21295157344E+03  0.00000000000E+00 0.  1.
         -3   -1    0    0    0  501 -0.00000000000E+00 -0.00000000000E+00 -0.89097873125E+03  0.89097873125E+03  0.00000000000E+00 0.  1.
         24    2    1    2    0    0  0.21266285577E+03  0.19581912820E+03 -0.23117686830E+03  0.37866317610E+03  0.79827534774E+02 0.  0.
         23    2    1    2    0    0 -0.34855485187E+03 -0.18181191926E+03 -0.42649850518E+03  0.58714750061E+03  0.91077734962E+02 0.  0.
        -13    1    3    3    0    0  0.16066740277E+03  0.18329254414E+03 -0.20778399907E+03  0.32028793502E+03  0.00000000000E+00 0.  1.
         14    1    3    3    0    0  0.51995453002E+02  0.12526584059E+02 -0.23392869233E+02  0.58375241087E+02  0.00000000000E+00 0. -1.
        -11    1    4    4    0    0 -0.90932764516E+02 -0.93801777035E+02 -0.15416990061E+03  0.20207894322E+03  0.00000000000E+00 0.  1.
         11    1    4    4    0    0 -0.25762208735E+03 -0.88010142229E+02 -0.27232860457E+03  0.38506855739E+03  0.00000000000E+00 0. -1.
         -4    1    1    2    0  502  0.13589199610E+03 -0.14007208935E+02 -0.20351784328E+02  0.13811962797E+03  0.00000000000E+00 0.  1.
<scales pt_clust_5="13000.00000" pt_clust_6="13000.00000" pt_clust_7="13000.00000" pt_clust_8="13000.00000" pt_clust_9="136.61199"></scales>
<clustering>
<clus scale="   79.828">  5  6 -1 -1</clus>
<clus scale="   91.078">  7  8 -1 -1</clus>
<clus scale="  136.612">  1  9  2 -1</clus>
<clus scale="  345.337">  2  5  1 -1</clus>
<clus scale="  136.612">  1  5  2 -1</clus>
</clustering>
</event>
<event>
 9    2  0.1033155E-004  0.1913706E+03  0.7546771E-02  0.1179376E+00
         21   -1    0    0  501  502  0.00000000000E+00  0.00000000000E+00  0.39213216775E+03  0.39213216775E+03  0.00000000000E+00 0. -1.
          2   -1    0    0  502    0 -0.00000000000E+00 -0.00000000000E+00 -0.18009354301E+03  0.18009354301E+03  0.00000000000E+00 0. -1.
         23    2    1    2    0    0  0.57497589991E+02  0.39241659119E+02  0.10014155866E+03  0.15259367902E+03  0.91709423952E+02 0.  0.
         24    2    1    2    0    0 -0.10022841250E+02  0.14128027142E+03 -0.51193245730E+02  0.17176015157E+03  0.82584676670E+02 0.  0.
        -11    1    4    4    0    0 -0.22015633737E+02  0.24203816345E+02  0.15805755306E+02  0.36336410875E+02  0.00000000000E+00 0.  1.
         12    1    4    4    0    0  0.11992792487E+02  0.11707645508E+03 -0.66999001037E+02  0.13542374070E+03  0.00000000000E+00 0. -1.
        -11    1    3    3    0    0  0.80217309557E+02  0.31898950893E+02  0.57504197460E+02  0.10372604565E+03  0.00000000000E+00 0.  1.
         11    1    3    3    0    0 -0.22719719566E+02  0.73427082260E+01  0.42637361203E+02  0.48867633374E+02  0.00000000000E+00 0. -1.
          1    1    1    2  501    0 -0.47474748741E+02 -0.18052193054E+03  0.16309031180E+03  0.24787188017E+03  0.00000000000E+00 0. -1.
<scales pt_clust_5="13000.00000" pt_clust_6="13000.00000" pt_clust_7="13000.00000" pt_clust_8="13000.00000" pt_clust_9="172.63390"></scales>
<clustering>
<clus scale="   82.585">  5  6 -1 -1</clus>
<clus scale="   91.709">  7  8 -1 -1</clus>
<clus scale="  115.137">  2  7  1 -1</clus>
<clus scale="  172.634">  1  9  2 -1</clus>
<clus scale="  172.634">  1  5  2 -1</clus>
</clustering>
</event>
<event>
 9    2  0.1033155E-004  0.2176806E+03  0.7546771E-02  0.1136719E+00
         21   -1    0    0  501  502  0.00000000000E+00  0.00000000000E+00  0.11583372437E+03  0.11583372437E+03  0.00000000000E+00 0. -1.
          2   -1    0    0  502    0 -0.00000000000E+00 -0.00000000000E+00 -0.83516593957E+03  0.83516593957E+03  0.00000000000E+00 0. -1.
         23    2    1    2    0    0  0.15417718268E+03  0.17491403570E+03 -0.62316983434E+03  0.67173076509E+03  0.92282472784E+02 0.  0.
         24    2    1    2    0    0 -0.58768662827E+02 -0.10520936575E+03 -0.43636834083E+02  0.14996128215E+03  0.77855291952E+02 0.  0.
        -13    1    4    4    0    0 -0.95163120443E+01 -0.52980441564E+02 -0.55366865219E+02  0.77220315639E+02  0.00000000000E+00 0.  1.
         14    1    4    4    0    0 -0.49252350782E+02 -0.52228924186E+02  0.11730031136E+02  0.72740966516E+02  0.00000000000E+00 0. -1.
        -11    1    3    3    0    0  0.87490587829E+02  0.41952713433E+02 -0.31380666205E+03  0.32846499703E+03  0.00000000000E+00 0. -1.
         11    1    3    3    0    0  0.66686594853E+02  0.13296132226E+03 -0.30936317229E+03  0.34326576806E+03  0.00000000000E+00 0.  1.
          1    1    1    2  501    0 -0.95408519855E+02 -0.69704669946E+02 -0.52525546766E+02  0.12930761670E+03  0.00000000000E+00 0. -1.
<scales pt_clust_5="13000.00000" pt_clust_6="13000.00000" pt_clust_7="13000.00000" pt_clust_8="13000.00000" pt_clust_9="118.15890"></scales>
<clustering>
<clus scale="   77.855">  5  6 -1 -1</clus>
<clus scale="   92.282">  7  8 -1 -1</clus>
<clus scale="  118.159">  1  9  2 -1</clus>
<clus scale="  211.968">  1  5  2 -1</clus>
<clus scale="  118.159">  1  5  2 -1</clus>
</clustering>
</event>
<event>
 9    2  0.1033155E-004  0.1017155E+03  0.7546771E-02  0.1287908E+00
          2   -1    0    0  502    0 -0.00000000000E+00  0.00000000000E+00  0.50619993590E+03  0.50619993590E+03  0.00000000000E+00 0. -1.
         21   -1    0    0  501  502  0.00000000000E+00 -0.00000000000E+00 -0.20368844241E+03  0.20368844241E+03  0.00000000000E+00 0. -1.
         24    2    1    2    0    0 -0.21048152267E+02  0.62015995943E+01  0.46895581189E+03  0.47619569992E+03  0.79757799436E+02 0.  0.
         23    2    1    2    0    0 -0.23223605105E+02 -0.10096357701E+01 -0.60852759347E+02  0.11907800946E+03  0.99680282996E+02 0.  0.
        -13    1    3    3    0    0  0.92530947507E+01  0.26854208309E+02  0.69783693221E+02  0.75342764124E+02  0.00000000000E+00 0.  1.
         14    1    3    3    0    0 -0.30301247018E+02 -0.20652608715E+02  0.39917211867E+03  0.40085293580E+03  0.00000000000E+00 0. -1.
        -11    1    4    4    0    0 -0.59585103496E+02 -0.13819910044E+02 -0.50069206069E+02  0.79046188198E+02  0.00000000000E+00 0. -1.
         11    1    4    4    0    0  0.36361498391E+02  0.12810274274E+02 -0.10783553278E+02  0.40031821261E+02  0.00000000000E+00 0.  1.
          1    1    1    2  501    0  0.44271757372E+02 -0.51919638242E+01 -0.10559155905E+03  0.11461466892E+03  0.00000000000E+00 0. -1.
<scales pt_clust_5="13000.00000" pt_clust_6="13000.00000" pt_clust_7="13000.00000" pt_clust_8="13000.00000" pt_clust_9="44.57516"></scales>
<clustering>
<clus scale="   44.575">  2  9  1 -1</clus>
<clus scale="   79.758">  5  6 -1 -1</clus>
<clus scale="   82.287">  1  5  2 -1</clus>
<clus scale="   99.680">  7  8 -1 -1</clus>
<clus scale="   44.575">  2  5  1 -1</clus>
</clustering>
</event>
<event>
 9    2  0.1033155E-004  0.1494986E+03  0.7546771E-02  0.1204482E+00
          2   -1    0    0  502    0 -0.00000000000E+00  0.00000000000E+00  0.65428035940E+03  0.65428035940E+03  0.00000000000E+00 0. -1.
         21   -1    0    0  501  502  0.00000000000E+00 -0.00000000000E+00 -0.59021319488E+02  0.59021319488E+02  0.00000000000E+00 0. -1.
         23    2    1    2    0    0 -0.76108535715E+02 -0.13502494626E+03  0.34610068472E+03  0.39082434887E+03  0.94518476416E+02 0.  0.
         24    2    1    2    0    0  0.21123000952E+02  0.67709497250E+02  0.77568479320E+02  0.13012904120E+03  0.76719887863E+02 0.  0.
        -13    1    4    4    0    0 -0.25856644982E+02  0.53585110987E+01  0.20316213450E+02  0.33317086605E+02  0.00000000000E+00 0.  1.
         14    1    4    4    0    0  0.46979645933E+02  0.62350986152E+02  0.57252265870E+02  0.96811954600E+02  0.00000000000E+00 0. -1.
        -11    1    3    3    0    0  0.73736774798E+01 -0.81300641789E+02  0.17252978131E+03  0.19086825538E+03  0.00000000000E+00 0.  1.
         11    1    3    3    0    0 -0.83482213195E+02 -0.53724304468E+02  0.17357090342E+03  0.19995609349E+03  0.00000000000E+00 0. -1.
          1    1    1    2  501    0  0.54985534763E+02  0.67315449007E+02  0.17158987587E+03  0.19234828881E+03  0.00000000000E+00 0. -1.
<scales pt_clust_5="13000.00000" pt_clust_6="13000.00000" pt_clust_7="13000.00000" pt_clust_8="13000.00000" pt_clust_9="86.91827"></scales>
<clustering>
<clus scale="   76.720">  5  6 -1 -1</clus>
<clus scale="   86.918">  2  9  1 -1</clus>
<clus scale="   94.518">  7  8 -1 -1</clus>
<clus scale="  138.932">  2  5  1 -1</clus>
<clus scale="   86.918">  2  5  1 -1</clus>
</clustering>
</event>
<event>
 9    2  0.1033155E-004  0.1747729E+03  0.7546771E-02  0.1174854E+00
         21   -1    0    0  501  502  0.00000000000E+00  0.00000000000E+00  0.10482824207E+03  0.10482824207E+03  0.00000000000E+00 0. -1.
          2   -1    0    0  502    0 -0.00000000000E+00 -0.00000000000E+00 -0.16790067296E+04  0.16790067296E+04  0.00000000000E+00 0. -1.
         24    2    1    2    0    0  0.15006010695E+03  0.11771735997E+02 -0.14550662221E+04  0.14650831235E+04  0.81204918953E+02 0.  0.
         23    2    1    2    0    0 -0.12084600604E+03 -0.28615678453E+02 -0.18640599850E+03  0.24348147820E+03  0.95464232686E+02 0.  0.
        -11    1    3    3    0    0  0.25071687111E+02  0.25830726838E+01 -0.70749503761E+02  0.75104953509E+02  0.00000000000E+00 0.  1.
         12    1    3    3    0    0  0.12498841984E+03  0.91886633134E+01 -0.13843167183E+04  0.13899781700E+04  0.00000000000E+00 0. -1.
        -11    1    4    4    0    0 -0.11371452019E+03 -0.82941179559E+01 -0.19006094300E+03  0.22163697018E+03  0.00000000000E+00 0.  1.
         11    1    4    4    0    0 -0.71314858479E+01 -0.20321560498E+02  0.36549445038E+01  0.21844508023E+02  0.00000000000E+00 0. -1.
          1    1    1    2  501    0 -0.29214100908E+02  0.16843942456E+02  0.67293733005E+02  0.75270369941E+02  0.00000000000E+00 0. -1.
<scales pt_clust_5="13000.00000" pt_clust_6="13000.00000" pt_clust_7="13000.00000" pt_clust_8="13000.00000" pt_clust_9="33.72213"></scales>
<clustering>
<clus scale="   33.722">  1  9  2 -1</clus>
<clus scale="   81.205">  5  6 -1 -1</clus>
<clus scale="   95.464">  7  8 -1 -1</clus>
<clus scale="  167.411">  2  5  1 -1</clus>
<clus scale="   33.722">  1  5  2 -1</clus>
</clustering>
</event>
<event>
 9    2  0.1033155E-004  0.6298301E+03  0.7546771E-02  0.9847875E-01
         21   -1    0    0  501  502  0.00000000000E+00  0.00000000000E+00  0.32563005044E+03  0.32563005044E+03  0.00000000000E+00 0. -1.
          2   -1    0    0  502    0 -0.00000000000E+00 -0.00000000000E+00 -0.16657803645E+04  0.16657803645E+04  0.00000000000E+00 0. -1.
         24    2    1    2    0    0  0.58961157240E+03  0.24970071530E+03 -0.68386678838E+03  0.94030218503E+03  0.80635980745E+02 0.  0.
         23    2    1    2    0    0 -0.47517624940E+03 -0.37205261608E+03 -0.36300840423E+03  0.71335724526E+03  0.11352462594E+03 0.  0.
        -13    1    3    3    0    0  0.10233475214E+03  0.41272767590E+02 -0.76789603252E+02  0.13443394663E+03  0.00000000000E+00 0.  1.
         14    1    3    3    0    0  0.48727682026E+03  0.20842794771E+03 -0.60707718513E+03  0.80586823839E+03  0.00000000000E+00 0. -1.
        -11    1    4    4    0    0 -0.22621672332E+02  0.50186745593E+01 -0.39840651728E+01  0.23511697700E+02  0.00000000000E+00 0.  1.
         11    1    4    4    0    0 -0.45255457707E+03 -0.37707129064E+03 -0.35902433906E+03  0.68984554756E+03  0.00000000000E+00 0. -1.
          1    1    1    2  501    0 -0.11443532300E+03  0.12235190078E+03 -0.29327512147E+03  0.33775098467E+03  0.00000000000E+00 0. -1.
<scales pt_clust_5="13000.00000" pt_clust_6="13000.00000" pt_clust_7="13000.00000" pt_clust_8="13000.00000" pt_clust_9="167.52749"></scales>
<clustering>
<clus scale="   80.636">  5  6 -1 -1</clus>
<clus scale="  113.525">  7  8 -1 -1</clus>
<clus scale="  167.527">  1  9  2 -1</clus>
<clus scale="  624.740">  2  5  1 -1</clus>
<clus scale="  167.527">  1  5  2 -1</clus>
</clustering>
</event>
<event>
 9    2  0.1033155E-004  0.1469672E+03  0.7546771E-02  0.1228501E+00
          2   -1    0    0  502    0 -0.00000000000E+00  0.00000000000E+00  0.21720484587E+03  0.21720484587E+03  0.00000000000E+00 0. -1.
         21   -1    0    0  501  502  0.00000000000E+00 -0.00000000000E+00 -0.15752360691E+03  0.15752360691E+03  0.00000000000E+00 0.  1.
         24    2    1    2    0    0  0.15823617928E+02 -0.24548986072E+02 -0.13309855158E+01  0.88055830906E+02  0.83060328874E+02 0.  0.
         23    2    1    2    0    0  0.57572980817E+02  0.10834056492E+03 -0.14893884473E+02  0.15187712206E+03  0.88275173652E+02 0.  0.
        -13    1    3    3    0    0  0.21314774386E+02 -0.35820871339E+02 -0.33534326727E+02  0.53497714901E+02  0.00000000000E+00 0.  1.
         14    1    3    3    0    0 -0.54911564581E+01  0.11271885266E+02  0.32203341211E+02  0.34558116006E+02  0.00000000000E+00 0. -1.
        -11    1    4    4    0    0  0.50585128263E+02  0.91359933649E+01 -0.61720293915E+00  0.51407222407E+02  0.00000000000E+00 0. -1.
         11    1    4    4    0    0  0.69878525540E+01  0.99204571555E+02 -0.14276681534E+02  0.10046989965E+03  0.00000000000E+00 0.  1.
          1    1    1    2  501    0 -0.73396598744E+02 -0.83791578847E+02  0.75906108950E+02  0.13479549981E+03  0.00000000000E+00 0. -1.
<scales pt_clust_5="13000.00000" pt_clust_6="13000.00000" pt_clust_7="13000.00000" pt_clust_8="13000.00000" pt_clust_9="117.50265"></scales>
<clustering>
<clus scale="   83.060">  5  6 -1 -1</clus>
<clus scale="   88.046">  1  5  2 -1</clus>
<clus scale="   88.275">  7  8 -1 -1</clus>
<clus scale="  117.503">  2  9  1 -1</clus>
<clus scale="  117.503">  2  5  1 -1</clus>
</clustering>
</event>
<event>
 9    2  0.1033155E-004  0.1008565E+03  0.7546771E-02  0.1286921E+00
          2   -1    0    0  502    0 -0.00000000000E+00  0.00000000000E+00  0.23709021635E+03  0.23709021635E+03  0.00000000000E+00 0. -1.
         21   -1    0    0  501  502  0.00000000000E+00 -0.00000000000E+00 -0.70671105975E+02  0.70671105975E+02  0.00000000000E+00 0.  1.
         23    2    1    2    0    0  0.12006893150E+02  0.12841963833E+02  0.95206048922E+02  0.13584656504E+03  0.95294364805E+02 0.  0.
         24    2    1    2    0    0 -0.56105614741E+02  0.25564979102E+01  0.78062348861E+02  0.12470540854E+03  0.79393532001E+02 0.  0.
        -11    1    4    4    0    0  0.18851367394E+02 -0.98547651245E+01  0.17349701679E+02  0.27450001760E+02  0.00000000000E+00 0.  1.
         12    1    4    4    0    0 -0.74956982135E+02  0.12411263035E+02  0.60712647182E+02  0.97255406784E+02  0.00000000000E+00 0. -1.
        -13    1    3    3    0    0  0.38991415644E+02  0.29935198950E+02  0.91264813487E+02  0.10366153004E+03  0.00000000000E+00 0. -1.
         13    1    3    3    0    0 -0.26984522494E+02 -0.17093235117E+02  0.39412354353E+01  0.32185034997E+02  0.00000000000E+00 0.  1.
          1    1    1    2  501    0  0.44098721592E+02 -0.15398461743E+02 -0.68492874126E+01  0.47209348737E+02  0.00000000000E+00 0. -1.
<scales pt_clust_5="13000.00000" pt_clust_6="13000.00000" pt_clust_7="13000.00000" pt_clust_8="13000.00000" pt_clust_9="46.70985"></scales>
<clustering>
<clus scale="   46.710">  2  9  1 -1</clus>
<clus scale="   79.394">  5  6 -1 -1</clus>
<clus scale="   85.990">  2  5  1 -1</clus>
<clus scale="   95.294">  7  8 -1 -1</clus>
<clus scale="   46.710">  2  5  1 -1</clus>
</clustering>
</event>
<event>
 9    2  0.1033155E-004  0.1399635E+03  0.7546771E-02  0.1214036E+00
         21   -1    0    0  501  502  0.00000000000E+00  0.00000000000E+00  0.99332438625E+02  0.99332438625E+02  0.00000000000E+00 0. -1.
          2   -1    0    0  502    0 -0.00000000000E+00 -0.00000000000E+00 -0.71729630863E+03  0.71729630863E+03  0.00000000000E+00 0. -1.
         23    2    1    2    0    0  0.89284112125E+02  0.66565200215E+02 -0.37271141911E+03  0.39847095159E+03  0.86387028962E+02 0.  0.
         24    2    1    2    0    0 -0.87949337958E+02  0.76522503664E+02 -0.83911982610E+01  0.14142845926E+03  0.79629248815E+02 0.  0.
        -11    1    4    4    0    0 -0.19876492933E+02  0.22615725991E+02 -0.39079176977E+02  0.49332829906E+02  0.00000000000E+00 0.  1.
         12    1    4    4    0    0 -0.68072845024E+02  0.53906777674E+02  0.30687978716E+02  0.92095629356E+02  0.00000000000E+00 0. -1.
        -11    1    3    3    0    0  0.68697527695E+02  0.20372552439E+02 -0.30862354325E+03  0.31683257827E+03  0.00000000000E+00 0. -1.
         11    1    3    3    0    0  0.20586584430E+02  0.46192647776E+02 -0.64087875854E+02  0.81638373321E+02  0.00000000000E+00 0.  1.
          1    1    1    2  501    0 -0.13347741674E+01 -0.14308770388E+03 -0.23686125264E+03  0.27672933640E+03  0.00000000000E+00 0. -1.
<scales pt_clust_5="13000.00000" pt_clust_6="13000.00000" pt_clust_7="13000.00000" pt_clust_8="13000.00000" pt_clust_9="113.91796"></scales>
<clustering>
<clus scale="   79.629">  5  6 -1 -1</clus>
<clus scale="   86.387">  7  8 -1 -1</clus>
<clus scale="  140.944">  2  7  1 -1</clus>
<clus scale="  113.918">  1  9  2 -1</clus>
<clus scale="  113.918">  1  5  2 -1</clus>
</clustering>
</event>
<event>
 9    2  0.1033155E-004  0.9696661E+02  0.7546771E-02  0.1292087E+00
         -1   -1    0    0    0  501 -0.00000000000E+00  0.00000000000E+00  0.57071888149E+03  0.57071888149E+03  0.00000000000E+00 0.  1.
         21   -1    0    0  501  502  0.00000000000E+00 -0.00000000000E+00 -0.27592983625E+02  0.27592983625E+02  0.00000000000E+00 0. -1.
         23    2    1    2    0    0  0.43897689716E+02  0.11994092811E+02  0.32532987076E+03  0.34069939930E+03  0.90364209990E+02 0.  0.
         24    2    1    2    0    0 -0.15985843514E+02  0.18478088840E+02  0.89464927769E+02  0.12279222969E+03  0.80479633520E+02 0.  0.
        -13    1    4    4    0    0 -0.48493172876E+02  0.10712316466E+02  0.43900105090E+02  0.66283940488E+02  0.00000000000E+00 0.  1.
         14    1    4    4    0    0  0.32507329362E+02  0.77657723740E+01  0.45564822679E+02  0.56508289203E+02  0.00000000000E+00 0. -1.
        -11    1    3    3    0    0  0.10701410528E+02  0.49446062676E+02  0.14598173967E+03  0.15449951980E+03  0.00000000000E+00 0. -1.
         11    1    3    3    0    0  0.33196279187E+02 -0.37451969865E+02  0.17934813109E+03  0.18619987949E+03  0.00000000000E+00 0.  1.
         -2    1    1    2    0  502 -0.27911846202E+02 -0.30472181651E+02  0.12833109933E+03  0.13482023612E+03  0.00000000000E+00 0.  1.
<scales pt_clust_5="13000.00000" pt_clust_6="13000.00000" pt_clust_7="13000.00000" pt_clust_8="13000.00000" pt_clust_9="41.32344"></scales>
<clustering>
<clus scale="   41.323">  2  9  1 -1</clus>
<clus scale="   80.480">  5  6 -1 -1</clus>
<clus scale="   87.828">  2  5  1 -1</clus>
<clus scale="   90.364">  7  8 -1 -1</clus>
<clus scale="   41.323">  2  5  1 -1</clus>
</clustering>
</event>
<event>
 9    2  0.1033155E-004  0.1128745E+03  0.7546771E-02  0.1263711E+00
         21   -1    0    0  501  502  0.00000000000E+00  0.00000000000E+00  0.79462070431E+02  0.79462070431E+02  0.00000000000E+00 0.  1.
          2   -1    0    0  502    0 -0.00000000000E+00 -0.00000000000E+00 -0.93841084284E+03  0.93841084284E+03  0.00000000000E+00 0. -1.
         24    2    1    2    0    0 -0.48732732353E+02 -0.12354507189E+02 -0.43435795437E+03  0.44303372003E+03  0.71305900928E+02 0.  0.
         23    2    1    2    0    0  0.82066062339E+02  0.43176589363E+02 -0.48317841934E+03  0.50072024381E+03  0.93060846724E+02 0.  0.
        -13    1    3    3    0    0 -0.57322595406E+01  0.19726338288E+02 -0.39255677588E+02  0.44305704425E+02  0.00000000000E+00 0.  1.
         14    1    3    3    0    0 -0.43000472813E+02 -0.32080845477E+02 -0.39510227678E+03  0.39872801561E+03  0.00000000000E+00 0. -1.
        -11    1    4    4    0    0  0.80878749574E+02 -0.69257727952E+01 -0.30735323952E+03  0.31789204505E+03  0.00000000000E+00 0.  1.
         11    1    4    4    0    0  0.11873127649E+01  0.50102362158E+02 -0.17582517981E+03  0.18282819876E+03  0.00000000000E+00 0. -1.
          1    1    1    2  501    0 -0.33333329985E+02 -0.30822082174E+02  0.58587601304E+02  0.74118949426E+02  0.00000000000E+00 0. -1.
<scales pt_clust_5="13000.00000" pt_clust_6="13000.00000" pt_clust_7="13000.00000" pt_clust_8="13000.00000" pt_clust_9="45.39947"></scales>
<clustering>
<clus scale="   45.399">  1  9  2 -1</clus>
<clus scale="   71.306">  5  6 -1 -1</clus>
<clus scale="   93.061">  7  8 -1 -1</clus>
<clus scale="   95.733">  2  5  1 -1</clus>
<clus scale="   45.399">  1  5  2 -1</clus>
</clustering>
</event>
<event>
 9    2  0.1033155E-004  0.1384163E+03  0.7546771E-02  0.1233365E+00
         21   -1    0    0  501  502  0.00000000000E+00  0.00000000000E+00  0.10886196655E+03  0.10886196655E+03  0.00000000000E+00 0.  1.
          4   -1    0    0  502    0 -0.00000000000E+00 -0.00000000000E+00 -0.36511312403E+03  0.36511312403E+03  0.00000000000E+00 0. -1.
         24    2    1    2    0    0  0.47363433606E+02 -0.18637517548E+02 -0.73785406201E+02  0.12055425069E+03  0.80612587658E+02 0.  0.
         23    2    1    2    0    0  0.22905342908E+02 -0.69980999406E+02 -0.20747553359E+03  0.23759151842E+03  0.89340011055E+02 0.  0.
        -11    1    3    3    0    0 -0.94378761702E+01 -0.26630115080E+02 -0.15244136157E+01  0.28294175596E+02  0.00000000000E+00 0.  1.
         12    1    3    3    0    0  0.56801309776E+02  0.79925975328E+01 -0.72260992586E+02  0.92260075098E+02  0.00000000000E+00 0. -1.
        -11    1    4    4    0    0  0.53379839334E+02 -0.42702794618E+02 -0.88788546178E+02  0.11205508399E+03  0.00000000000E+00 0.  1.
         11    1    4    4    0    0 -0.30474496426E+02 -0.27278204788E+02 -0.11868698741E+03  0.12553643443E+03  0.00000000000E+00 0. -1.
          3    1    1    2  501    0 -0.70268776514E+02  0.88618516954E+02  0.25009782312E+02  0.11582932147E+03  0.00000000000E+00 0. -1.
<scales pt_clust_5="13000.00000" pt_clust_6="13000.00000" pt_clust_7="13000.00000" pt_clust_8="13000.00000" pt_clust_9="105.72344"></scales>
<clustering>
<clus scale="   80.613">  5  6 -1 -1</clus>
<clus scale="   89.340">  7  8 -1 -1</clus>
<clus scale="   95.336">  2  5  1 -1</clus>
<clus scale="  105.723">  1  9  2 -1</clus>
<clus scale="  105.723">  1  5  2 -1</clus>
</clustering>
</event>
<event>
 9    2  0.1033155E-004  0.1387587E+03  0.7546771E-02  0.1216880E+00
          2   -1    0    0  502    0 -0.00000000000E+00  0.00000000000E+00  0.72741990474E+03  0.72741990474E+03  0.00000000000E+00 0. -1.
         21   -1    0    0  501  502  0.00000000000E+00 -0.00000000000E+00 -0.57896387914E+02  0.57896387914E+02  0.00000000000E+00 0. -1.
         23    2    1    2    0    0  0.56435276553E+02 -0.86778608193E+02  0.48481381046E+03  0.50406717509E+03  0.91234965371E+02 0.  0.
         24    2    1    2    0    0 -0.35896357883E+02  0.10277973814E+03  0.20622890729E+03  0.24747102780E+03  0.82821037879E+02 0.  0.
        -13    1    4    4    0    0 -0.22299673470E+02 -0.27049328395E+01  0.10686377240E+02  0.24875505162E+02  0.00000000000E+00 0.  1.
         14    1    4    4    0    0 -0.13596684413E+02  0.10548467098E+03  0.19554253005E+03  0.22259552263E+03  0.00000000000E+00 0. -1.
        -13    1    3    3    0    0  0.30985582912E+02 -0.10226056781E+01  0.41405922776E+02  0.51726226536E+02  0.00000000000E+00 0. -1.
         13    1    3    3    0    0  0.25449693641E+02 -0.85756002515E+02  0.44340788769E+03  0.45234094855E+03  0.00000000000E+00 0.  1.
          1    1    1    2  501    0 -0.20538918670E+02 -0.16001129948E+02 -0.21519200928E+02  0.33778089768E+02  0.00000000000E+00 0. -1.
<scales pt_clust_5="13000.00000" pt_clust_6="13000.00000" pt_clust_7="13000.00000" pt_clust_8="13000.00000" pt_clust_9="26.03619"></scales>
<clustering>
<clus scale="   26.036">  2  9  1 -1</clus>
<clus scale="   82.821">  5  6 -1 -1</clus>
<clus scale="   91.235">  7  8 -1 -1</clus>
<clus scale="  133.377">  2  5  1 -1</clus>
<clus scale="   26.036">  2  5  1 -1</clus>
</clustering>
</event>
<event>
 9    2  0.1033155E-004  0.8811889E+02  0.7546771E-02  0.1310014E+00
          2   -1    0    0  502    0 -0.00000000000E+00  0.00000000000E+00  0.89817513460E+03  0.89817513460E+03  0.00000000000E+00 0. -1.
         21   -1    0    0  501  502  0.00000000000E+00 -0.00000000000E+00 -0.12646598564E+02  0.12646598564E+02  0.00000000000E+00 0.  1.
         24    2    1    2    0    0  0.81641896865E+01 -0.13129321178E+02  0.47594658475E+03  0.48358798002E+03  0.84220839612E+02 0.  0.
         23    2    1    2    0    0 -0.10373364206E+02  0.42780978497E+02  0.32408648680E+03  0.33671538107E+03  0.80046099948E+02 0.  0.
        -13    1    3    3    0    0  0.10135194932E+02  0.28241727777E+02  0.79334016133E+02  0.84818650543E+02  0.00000000000E+00 0.  1.
         14    1    3    3    0    0 -0.19710052451E+01 -0.41371048955E+02  0.39661256861E+03  0.39876932948E+03  0.00000000000E+00 0. -1.
        -13    1    4    4    0    0  0.25200182742E+02  0.44438227106E+02  0.24037666007E+03  0.24574528265E+03  0.00000000000E+00 0.  1.
         13    1    4    4    0    0 -0.35573546948E+02 -0.16572486081E+01  0.83709826731E+02  0.90970098421E+02  0.00000000000E+00 0. -1.
          1    1    1    2  501    0  0.22091745191E+01 -0.29651657320E+02  0.85495464495E+02  0.90518372075E+02  0.00000000000E+00 0. -1.
<scales pt_clust_5="13000.00000" pt_clust_6="13000.00000" pt_clust_7="13000.00000" pt_clust_8="13000.00000" pt_clust_9="29.73384"></scales>
<clustering>
<clus scale="   29.734">  2  9  1 -1</clus>
<clus scale="   80.046">  7  8 -1 -1</clus>
<clus scale="   84.138">  2  7  1 -1</clus>
<clus scale="   84.221">  5  6 -1 -1</clus>
<clus scale="   29.734">  2  5  1 -1</clus>
</clustering>
</event>
<event>
 9    2  0.1033155E-004  0.1268817E+03  0.7546771E-02  0.1235715E+00
         21   -1    0    0  501  502  0.00000000000E+00  0.00000000000E+00  0.70224919547E+02  0.70224919547E+02  0.00000000000E+00 0.  1.
          2   -1    0    0  502    0 -0.00000000000E+00 -0.00000000000E+00 -0.47995866943E+03  0.47995866943E+03  0.00000000000E+00 0. -1.
         23    2    1    2    0    0  0.34541184066E+02  0.56112667850E+02 -0.10148206261E+03  0.15209339172E+03  0.92152405733E+02 0.  0.
         24    2    1    2    0    0 -0.89491398535E+02 -0.84851287133E+02 -0.92045911673E+02  0.17316716218E+03  0.79410105535E+02 0.  0.
        -13    1    4    4    0    0 -0.54145200302E+02 -0.85962864672E+02 -0.93082227891E+02  0.13778830853E+03  0.00000000000E+00 0.  1.
         14    1    4    4    0    0 -0.35346198233E+02  0.11115775392E+01  0.10363162171E+01  0.35378853648E+02  0.00000000000E+00 0. -1.
        -11    1    3    3    0    0 -0.22842732531E+02  0.49708147947E+02 -0.40148187069E+02  0.67856962257E+02  0.00000000000E+00 0. -1.
         11    1    3    3    0    0  0.57383916597E+02  0.64045199030E+01 -0.61333875546E+02  0.84236429463E+02  0.00000000000E+00 0.  1.
          1    1    1    2  501    0  0.54950214470E+02  0.28738619283E+02 -0.21620577560E+03  0.22492303508E+03  0.00000000000E+00 0. -1.
<scales pt_clust_5="13000.00000" pt_clust_6="13000.00000" pt_clust_7="13000.00000" pt_clust_8="13000.00000" pt_clust_9="62.01160"></scales>
<clustering>
<clus scale="   62.012">  1  9  2 -1</clus>
<clus scale="   79.410">  5  6 -1 -1</clus>
<clus scale="   92.152">  7  8 -1 -1</clus>
<clus scale="  117.953">  1  5  2 -1</clus>
<clus scale="   62.012">  1  5  2 -1</clus>
</clustering>
</event>
<event>
 9    2  0.1033155E-004  0.1491857E+03  0.7546771E-02  0.1203072E+00
          2   -1    0    0  502    0 -0.00000000000E+00  0.00000000000E+00  0.84359968134E+03  0.84359968134E+03  0.00000000000E+00 0. -1.
         21   -1    0    0  501  502  0.00000000000E+00 -0.00000000000E+00 -0.83830006081E+02  0.83830006081E+02  0.00000000000E+00 0. -1.
         23    2    1    2    0    0  0.13706600982E+02 -0.10136762219E+03  0.31457763745E+03  0.34302261528E+03  0.90786336378E+02 0.  0.
         24    2    1    2    0    0  0.90805234234E+02  0.18256480796E+03  0.16615278745E+03  0.27557279632E+03  0.82207771089E+02 0.  0.
        -11    1    4    4    0    0  0.70051446066E+02  0.64830972365E+02  0.45554610385E+02  0.10576144194E+03  0.00000000000E+00 0.  1.
         12    1    4    4    0    0  0.20753788167E+02  0.11773383559E+03  0.12059817706E+03  0.16981135438E+03  0.00000000000E+00 0. -1.
        -11    1    3    3    0    0  0.41303285435E+02 -0.12987971416E+02  0.82822449966E+02  0.93456979449E+02  0.00000000000E+00 0. -1.
         11    1    3    3    0    0 -0.27596684453E+02 -0.88379650771E+02  0.23175518748E+03  0.24956563583E+03  0.00000000000E+00 0.  1.
          1    1    1    2  501    0 -0.10451183522E+03 -0.81197185768E+02  0.27903925036E+03  0.30883427582E+03  0.00000000000E+00 0. -1.
<scales pt_clust_5="13000.00000" pt_clust_6="13000.00000" pt_clust_7="13000.00000" pt_clust_8="13000.00000" pt_clust_9="132.34698"></scales>
<clustering>
<clus scale="   82.208">  5  6 -1 -1</clus>
<clus scale="   90.786">  7  8 -1 -1</clus>
<clus scale="  132.347">  2  9  1 -1</clus>
<clus scale="  144.126">  2  5  1 -1</clus>
<clus scale="  132.347">  2  5  1 -1</clus>
</clustering>
</event>
<event>
 9    2  0.1033155E-004  0.1360812E+03  0.7546771E-02  0.1221156E+00
         -1   -1    0    0    0  501 -0.00000000000E+00  0.00000000000E+00  0.70718501416E+03  0.70718501416E+03  0.00000000000E+00 0.  1.
         21   -1    0    0  501  502  0.00000000000E+00 -0.00000000000E+00 -0.94637043758E+02  0.94637043758E+02  0.00000000000E+00 0. -1.
         23    2    1    2    0    0  0.95846808249E+02  0.19385507711E+02  0.57339885215E+03  0.58850430482E+03  0.89379329742E+02 0.  0.
         24    2    1    2    0    0 -0.13563002303E+03 -0.28426127849E+02  0.56437899817E+02  0.16900817221E+03  0.78581027262E+02 0.  0.
        -11    1    4    4    0    0 -0.11974010353E+03 -0.50774401842E+02  0.55944771474E+02  0.14158230727E+03  0.00000000000E+00 0.  1.
         12    1    4    4    0    0 -0.15889919500E+02  0.22348273993E+02  0.49312834268E+00  0.27425864940E+02  0.00000000000E+00 0. -1.
        -11    1    3    3    0    0  0.80259272040E+02 -0.24538180263E+02  0.41449321513E+03  0.42290459731E+03  0.00000000000E+00 0.  1.
         11    1    3    3    0    0  0.15587536209E+02  0.43923687974E+02  0.15890563702E+03  0.16559970751E+03  0.00000000000E+00 0. -1.
         -2    1    1    2    0  502  0.39783214781E+02  0.90406201380E+01 -0.17288781563E+02  0.44309580891E+02  0.00000000000E+00 0.  1.
<scales pt_clust_5="13000.00000" pt_clust_6="13000.00000" pt_clust_7="13000.00000" pt_clust_8="13000.00000" pt_clust_9="40.79751"></scales>
<clustering>
<clus scale="   40.798">  2  9  1 -1</clus>
<clus scale="   78.581">  5  6 -1 -1</clus>
<clus scale="   89.379">  7  8 -1 -1</clus>
<clus scale="  129.246">  2  5  1 -1</clus>
<clus scale="   40.798">  2  5  1 -1</clus>
</clustering>
</event>
<event>
 9    2  0.1033155E-004  0.2449137E+03  0.7546771E-02  0.1149085E+00
         21   -1    0    0  501  502  0.00000000000E+00  0.00000000000E+00  0.44703868336E+03  0.44703868336E+03  0.00000000000E+00 0. -1.
          2   -1    0    0  502    0 -0.00000000000E+00 -0.00000000000E+00 -0.23938645141E+03  0.23938645141E+03  0.00000000000E+00 0. -1.
         24    2    1    2    0    0  0.31955351844E+02  0.69097228627E+02  0.16215225043E+02  0.11179926109E+03  0.80253160328E+02 0.  0.
         23    2    1    2    0    0  0.21517538661E+03 -0.61635534860E+02  0.21927134107E+03  0.32582067091E+03  0.89329739807E+02 0.  0.
        -11    1    3    3    0    0  0.40107629059E+02  0.20344676194E+02  0.36942104164E+02  0.58200058576E+02  0.00000000000E+00 0.  1.
         12    1    3    3    0    0 -0.81522772149E+01  0.48752552433E+02 -0.20726879121E+02  0.53599202518E+02  0.00000000000E+00 0. -1.
        -11    1    4    4    0    0  0.70229907878E+02  0.15403655778E+02  0.98878600978E+02  0.12225583955E+03  0.00000000000E+00 0.  1.
         11    1    4    4    0    0  0.14494547873E+03 -0.77039190638E+02  0.12039274009E+03  0.20356483136E+03  0.00000000000E+00 0. -1.
          1    1    1    2  501    0 -0.24713073846E+03 -0.74616937669E+01 -0.27834334164E+02  0.24880520276E+03  0.00000000000E+00 0. -1.
<scales pt_clust_5="13000.00000" pt_clust_6="13000.00000" pt_clust_7="13000.00000" pt_clust_8="13000.00000" pt_clust_9="228.04164"></scales>
<clustering>
<clus scale="   80.253">  5  6 -1 -1</clus>
<clus scale="   89.330">  7  8 -1 -1</clus>
<clus scale="  110.617">  2  5  1 -1</clus>
<clus scale="  228.042">  1  9  2 -1</clus>
<clus scale="  228.042">  1  5  2 -1</clus>
</clustering>
</event>
<event>
 9    2  0.1033155E-004  0.1005607E+03  0.7546771E-02  0.1283170E+00
          2   -1    0    0  502    0 -0.00000000000E+00  0.00000000000E+00  0.47974637383E+03  0.47974637383E+03  0.00000000000E+00 0. -1.
         21   -1    0    0  501  502  0.00000000000E+00 -0.00000000000E+00 -0.11113218951E+03  0.11113218951E+03  0.00000000000E+00 0. -1.
         24    2    1    2    0    0 -0.22849696592E+02  0.36497681395E+02  0.33710575012E+03  0.34939364631E+03  0.81126098995E+02 0.  0.
         23    2    1    2    0    0  0.50789036621E+02 -0.31066260332E+02  0.11249791440E+03  0.15563969025E+03  0.89572840005E+02 0.  0.
        -11    1    3    3    0    0 -0.17772046243E+02  0.16452533607E+02  0.19439806716E+02  0.31055395263E+02  0.00000000000E+00 0.  1.
         12    1    3    3    0    0 -0.50776503486E+01  0.20045147788E+02  0.31766594341E+03  0.31833825105E+03  0.00000000000E+00 0. -1.
        -11    1    4    4    0    0  0.53633160078E+02 -0.10550743691E+01  0.11343487614E+03  0.12547948106E+03  0.00000000000E+00 0. -1.
         11    1    4    4    0    0 -0.28441234572E+01 -0.30011185963E+02 -0.93696174682E+00  0.30160209191E+02  0.00000000000E+00 0.  1.
          1    1    1    2  501    0 -0.27939340029E+02 -0.54314210628E+01 -0.80989480197E+02  0.85845226767E+02  0.00000000000E+00 0. -1.
<scales pt_clust_5="13000.00000" pt_clust_6="13000.00000" pt_clust_7="13000.00000" pt_clust_8="13000.00000" pt_clust_9="28.46238"></scales>
<clustering>
<clus scale="   28.462">  2  9  1 -1</clus>
<clus scale="   81.126">  5  6 -1 -1</clus>
<clus scale="   89.573">  7  8 -1 -1</clus>
<clus scale="   93.116">  1  5  2 -1</clus>
<clus scale="   28.462">  2  5  1 -1</clus>
</clustering>
</event>
<event>
 9    2  0.1033155E-004  0.1740090E+03  0.7546771E-02  0.1175787E+00
         -1   -1    0    0    0  501 -0.00000000000E+00  0.00000000000E+00  0.11536315277E+04  0.11536315277E+04  0.00000000000E+00 0.  1.
         21   -1    0    0  501  502  0.00000000000E+00 -0.00000000000E+00 -0.34463887969E+02  0.34463887969E+02  0.00000000000E+00 0. -1.
         24    2    1    2    0    0  0.60632954615E+02 -0.12428830732E+03  0.59167792951E+03  0.61289369040E+03  0.80199532029E+02 0.  0.
         23    2    1    2    0    0 -0.77738169866E+02  0.13535126348E+03  0.52333454740E+03  0.55441127633E+03  0.95549082835E+02 0.  0.
        -11    1    3    3    0    0  0.41830818964E+02 -0.34979698694E+02  0.11150205259E+03  0.12412132963E+03  0.00000000000E+00 0.  1.
         12    1    3    3    0    0  0.18802135651E+02 -0.89308608622E+02  0.48017587692E+03  0.48877236077E+03  0.00000000000E+00 0. -1.
        -11    1    4    4    0    0 -0.20235565723E+01  0.48865000087E+02  0.61974221566E+02  0.78947369515E+02  0.00000000000E+00 0. -1.
         11    1    4    4    0    0 -0.75714613294E+02  0.86486263396E+02  0.46136032584E+03  0.47546390681E+03  0.00000000000E+00 0.  1.
         -2    1    1    2    0  502  0.17105215251E+02 -0.11062956167E+02  0.41551627741E+01  0.20790448904E+02  0.00000000000E+00 0.  1.
<scales pt_clust_5="13000.00000" pt_clust_6="13000.00000" pt_clust_7="13000.00000" pt_clust_8="13000.00000" pt_clust_9="20.37099"></scales>
<clustering>
<clus scale="   20.371">  2  9  1 -1</clus>
<clus scale="   80.200">  5  6 -1 -1</clus>
<clus scale="   95.549">  7  8 -1 -1</clus>
<clus scale="  166.077">  1  5  2 -1</clus>
<clus scale="   20.371">  2  5  1 -1</clus>
</clustering>
</event>
<event>
 9    2  0.1033155E-004  0.1265120E+03  0.7546771E-02  0.1236561E+00
         21   -1    0    0  501  502  0.00000000000E+00  0.00000000000E+00  0.43132252305E+02  0.43132252305E+02  0.00000000000E+00 0. -1.
          2   -1    0    0  502    0 -0.00000000000E+00 -0.00000000000E+00 -0.54736651517E+03  0.54736651517E+03  0.00000000000E+00 0. -1.
         24    2    1    2    0    0  0.10255189087E+03 -0.23195419564E+02 -0.31634164601E+03  0.34229849327E+03  0.77725823787E+02 0.  0.
         23    2    1    2    0    0 -0.62270380453E+02  0.16823612389E+02 -0.17027913437E+03  0.20377691578E+03  0.91484499162E+02 0.  0.
        -13    1    3    3    0    0  0.32786538228E+02 -0.35053613732E+02 -0.62653062261E+02  0.78924768833E+02  0.00000000000E+00 0.  1.
         14    1    3    3    0    0  0.69765352647E+02  0.11858194167E+02 -0.25368858375E+03  0.26337372444E+03  0.00000000000E+00 0. -1.
        -13    1    4    4    0    0 -0.70118831274E+01 -0.30878119534E+02 -0.89318514181E+02  0.94765087171E+02  0.00000000000E+00 0. -1.
         13    1    4    4    0    0 -0.55258497325E+02  0.47701731922E+02 -0.80960620188E+02  0.10901182861E+03  0.00000000000E+00 0.  1.
          1    1    1    2  501    0 -0.40281510422E+02  0.63718071757E+01 -0.17613482484E+02  0.44423358425E+02  0.00000000000E+00 0. -1.
<scales pt_clust_5="13000.00000" pt_clust_6="13000.00000" pt_clust_7="13000.00000" pt_clust_8="13000.00000" pt_clust_9="40.78235"></scales>
<clustering>
<clus scale="   40.782">  1  9  2 -1</clus>
<clus scale="   77.726">  5  6 -1 -1</clus>
<clus scale="   91.484">  7  8 -1 -1</clus>
<clus scale="  116.950">  2  5  1 -1</clus>
<clus scale="   40.782">  1  5  2 -1</clus>
</clustering>
</event>
<event>
 9    2  0.1033155E-004  0.1049549E+03  0.7546771E-02  0.1279669E+00
         21   -1    0    0  501  502  0.00000000000E+00  0.00000000000E+00  0.36852007896E+03  0.36852007896E+03  0.00000000000E+00 0.  1.
          2   -1    0    0  502    0 -0.00000000000E+00 -0.00000000000E+00 -0.93277147556E+02  0.93277147556E+02  0.00000000000E+00 0. -1.
         24    2    1    2    0    0 -0.20275729037E+02  0.37134530754E+02 -0.52733713382E+02  0.10164476248E+03  0.75899503624E+02 0.  0.
         23    2    1    2    0    0  0.12279667231E+02 -0.61667779277E+02  0.30456320877E+03  0.32530987123E+03  0.95467580644E+02 0.  0.
        -13    1    3    3    0    0  0.27847928057E+02  0.99484911413E+01 -0.29241175458E+02  0.41587569239E+02  0.00000000000E+00 0.  1.
         14    1    3    3    0    0 -0.48123657094E+02  0.27186039613E+02 -0.23492537924E+02  0.60057193242E+02  0.00000000000E+00 0. -1.
        -11    1    4    4    0    0 -0.21125464362E+02 -0.61286180304E+02  0.26823127489E+03  0.27595343443E+03  0.00000000000E+00 0.  1.
         11    1    4    4    0    0  0.33405131593E+02 -0.38159897213E+00  0.36331933874E+02  0.49356436800E+02  0.00000000000E+00 0. -1.
          1    1    1    2  501    0  0.79960618063E+01  0.24533248523E+02  0.23413436019E+02  0.34842592809E+02  0.00000000000E+00 0. -1.
<scales pt_clust_5="13000.00000" pt_clust_6="13000.00000" pt_clust_7="13000.00000" pt_clust_8="13000.00000" pt_clust_9="25.80344"></scales>
<clustering>
<clus scale="   25.803">  1  9  2 -1</clus>
<clus scale="   75.900">  5  6 -1 -1</clus>
<clus scale="   87.534">  2  5  1 -1</clus>
<clus scale="   95.468">  7  8 -1 -1</clus>
<clus scale="   25.803">  1  5  2 -1</clus>
</clustering>
</event>
<event>
 9    2  0.1033155E-004  0.9864309E+02  0.7546771E-02  0.1288272E+00
          2   -1    0    0  502    0 -0.00000000000E+00  0.00000000000E+00  0.13543602216E+03  0.13543602216E+03  0.00000000000E+00 0. -1.
         21   -1    0    0  501  502  0.00000000000E+00 -0.00000000000E+00 -0.27900511668E+03  0.27900511668E+03  0.00000000000E+00 0. -1.
         24    2    1    2    0    0  0.17584764641E+02  0.39532722301E+02  0.63575847349E+02  0.11287082059E+03  0.82618845884E+02 0.  0.
         23    2    1    2    0    0  0.65786846167E+02 -0.16598622881E+02 -0.56239007569E+02  0.12764677351E+03  0.92344189883E+02 0.  0.
        -13    1    3    3    0    0 -0.31332111083E+02  0.27261725866E+02  0.19455558132E+02  0.45863074737E+02  0.00000000000E+00 0.  1.
         14    1    3    3    0    0  0.48916875724E+02  0.12270996435E+02  0.44120289217E+02  0.67007745855E+02  0.00000000000E+00 0. -1.
        -13    1    4    4    0    0 -0.80408258541E+01 -0.34332786993E+02 -0.40082740353E+01  0.35488891274E+02  0.00000000000E+00 0.  1.
         13    1    4    4    0    0  0.73827672021E+02  0.17734164112E+02 -0.52230733533E+02  0.92157882236E+02  0.00000000000E+00 0. -1.
          1    1    1    2  501    0 -0.83371610808E+02 -0.22934099420E+02 -0.15090593431E+03  0.17392354474E+03  0.00000000000E+00 0. -1.
<scales pt_clust_5="13000.00000" pt_clust_6="13000.00000" pt_clust_7="13000.00000" pt_clust_8="13000.00000" pt_clust_9="86.46848"></scales>
<clustering>
<clus scale="   82.619">  5  6 -1 -1</clus>
<clus scale="   86.468">  2  9  1 -1</clus>
<clus scale="   89.604">  1  5  2 -1</clus>
<clus scale="   92.344">  7  8 -1 -1</clus>
<clus scale="   86.468">  2  5  1 -1</clus>
</clustering>
</event>
<event>
 9    2  0.1033155E-004  0.1275090E+03  0.7546771E-02  0.1250396E+00
         21   -1    0    0  501  502  0.00000000000E+00  0.00000000000E+00  0.22504628947E+03  0.22504628947E+03  0.00000000000E+00 0. -1.
          2   -1    0    0  502    0 -0.00000000000E+00 -0.00000000000E+00 -0.17423416813E+03  0.17423416813E+03  0.00000000000E+00 0. -1.
         24    2    1    2    0    0  0.26423608892E+02  0.26926990003E+02  0.54138392960E+02  0.10194752556E+03  0.77711405068E+02 0.  0.
         23    2    1    2    0    0  0.56490530944E+01  0.84882137536E+02  0.86418207445E+02  0.15041796286E+03  0.88997572436E+02 0.  0.
        -11    1    3    3    0    0  0.29222067908E+02  0.17693812025E+02 -0.11161651456E+02  0.35938596244E+02  0.00000000000E+00 0.  1.
         12    1    3    3    0    0 -0.27984590161E+01  0.92331779785E+01  0.65300044416E+02  0.66008929314E+02  0.00000000000E+00 0. -1.
        -11    1    4    4    0    0  0.14691234303E+02  0.16091275407E+02 -0.15772944002E+02  0.26898834028E+02  0.00000000000E+00 0.  1.
         11    1    4    4    0    0 -0.90421812084E+01  0.68790862129E+02  0.10219115145E+03  0.12351912883E+03  0.00000000000E+00 0. -1.
          1    1    1    2  501    0 -0.32072661986E+02 -0.11180912754E+03 -0.89744479060E+02  0.14691496918E+03  0.00000000000E+00 0. -1.
<scales pt_clust_5="13000.00000" pt_clust_6="13000.00000" pt_clust_7="13000.00000" pt_clust_8="13000.00000" pt_clust_9="91.31261"></scales>
<clustering>
<clus scale="   77.711">  5  6 -1 -1</clus>
<clus scale="   86.385">  2  5  1 -1</clus>
<clus scale="   88.998">  7  8 -1 -1</clus>
<clus scale="   91.313">  1  9  2 -1</clus>
<clus scale="   91.313">  1  5  2 -1</clus>
</clustering>
</event>
<event>
 9    2  0.1033155E-004  0.9465246E+02  0.7546771E-02  0.1299678E+00
         21   -1    0    0  501  502  0.00000000000E+00  0.00000000000E+00  0.24971912535E+02  0.24971912535E+02  0.00000000000E+00 0.  1.
          2   -1    0    0  502    0 -0.00000000000E+00 -0.00000000000E+00 -0.48937614627E+03  0.48937614627E+03  0.00000000000E+00 0. -1.
         23    2    1    2    0    0  0.96452235162E+01 -0.19262065216E+00 -0.23721081015E+03  0.25494859846E+03  0.92934127007E+02 0.  0.
         24    2    1    2    0    0 -0.13410910280E+02 -0.26746144816E+02 -0.21123882194E+03  0.22786492697E+03  0.80033594645E+02 0.  0.
        -13    1    4    4    0    0  0.30185732657E+02 -0.28865713243E+02 -0.10627219381E+03  0.11418488093E+03  0.00000000000E+00 0.  1.
         14    1    4    4    0    0 -0.43596642937E+02  0.21195684268E+01 -0.10496662813E+03  0.11368004604E+03  0.00000000000E+00 0. -1.
        -11    1    3    3    0    0  0.28731193157E+01 -0.35170007519E+02 -0.20127787119E+03  0.20434765884E+03  0.00000000000E+00 0. -1.
         11    1    3    3    0    0  0.67721042005E+01  0.34977386867E+02 -0.35932938961E+02  0.50600939613E+02  0.00000000000E+00 0.  1.
          1    1    1    2  501    0  0.37656867638E+01  0.26938765468E+02 -0.15954601640E+02  0.31534533376E+02  0.00000000000E+00 0. -1.
<scales pt_clust_5="13000.00000" pt_clust_6="13000.00000" pt_clust_7="13000.00000" pt_clust_8="13000.00000" pt_clust_9="27.20069"></scales>
<clustering>
<clus scale="   27.201">  1  9  2 -1</clus>
<clus scale="   80.034">  5  6 -1 -1</clus>
<clus scale="   82.023">  1  5  2 -1</clus>
<clus scale="   92.934">  7  8 -1 -1</clus>
<clus scale="   27.201">  1  5  2 -1</clus>
</clustering>
</event>
<event>
 9    2  0.1033155E-004  0.1049644E+03  0.7546771E-02  0.1277706E+00
          2   -1    0    0  502    0 -0.00000000000E+00  0.00000000000E+00  0.85749594120E+03  0.85749594120E+03  0.00000000000E+00 0. -1.
         21   -1    0    0  501  502  0.00000000000E+00 -0.00000000000E+00 -0.41453788969E+02  0.41453788969E+02  0.00000000000E+00 0.  1.
         24    2    1    2    0    0  0.43855199899E+02  0.20301705214E+02  0.67074592305E+03  0.67681464154E+03  0.76436430647E+02 0.  0.
         23    2    1    2    0    0 -0.42562393574E+02 -0.46140113426E+02  0.48715125282E+02  0.12214906801E+03  0.92772646675E+02 0.  0.
        -11    1    3    3    0    0 -0.93117659463E+01  0.26925706037E+02  0.11437948190E+03  0.11787437597E+03  0.00000000000E+00 0.  1.
         12    1    3    3    0    0  0.53166965845E+02 -0.66240008231E+01  0.55636644115E+03  0.55894026557E+03  0.00000000000E+00 0. -1.
        -13    1    4    4    0    0 -0.67851428365E+02 -0.49500203761E+02  0.47763436864E+02  0.96620041423E+02  0.00000000000E+00 0.  1.
         13    1    4    4    0    0  0.25289034791E+02  0.33600903348E+01  0.95168841774E+00  0.25529026588E+02  0.00000000000E+00 0. -1.
          1    1    1    2  501    0 -0.12928063248E+01  0.25838408212E+02  0.96581103904E+02  0.99986020615E+02  0.00000000000E+00 0. -1.
<scales pt_clust_5="13000.00000" pt_clust_6="13000.00000" pt_clust_7="13000.00000" pt_clust_8="13000.00000" pt_clust_9="25.87074"></scales>
<clustering>
<clus scale="   25.871">  2  9  1 -1</clus>
<clus scale="   76.436">  5  6 -1 -1</clus>
<clus scale="   90.848">  1  5  2 -1</clus>
<clus scale="   92.773">  7  8 -1 -1</clus>
<clus scale="   25.871">  2  5  1 -1</clus>
</clustering>
</event>
<event>
 9    2  0.1033155E-004  0.3653291E+03  0.7546771E-02  0.1056700E+00
         21   -1    0    0  501  502  0.00000000000E+00  0.00000000000E+00  0.64451505959E+03  0.64451505959E+03  0.00000000000E+00 0. -1.
          2   -1    0    0  502    0 -0.00000000000E+00 -0.00000000000E+00 -0.40505013139E+03  0.40505013139E+03  0.00000000000E+00 0. -1.
         23    2    1    2    0    0  0.15246857534E+03 -0.25662057872E+03 -0.23944536088E+02  0.31274278131E+03  0.90188239617E+02 0.  0.
         24    2    1    2    0    0 -0.29822846199E+03  0.35071515418E+03  0.62915505939E+02  0.47168553743E+03  0.81163725984E+02 0.  0.
        -13    1    4    4    0    0 -0.18272156235E+02  0.44798854716E+02 -0.13033906257E+02  0.50106803826E+02  0.00000000000E+00 0.  1.
         14    1    4    4    0    0 -0.27995630576E+03  0.30591629946E+03  0.75949412196E+02  0.42157873360E+03  0.00000000000E+00 0. -1.
        -13    1    3    3    0    0  0.62372453480E+02 -0.15338049344E+03 -0.50626413846E+02  0.17314425344E+03  0.00000000000E+00 0. -1.
         13    1    3    3    0    0  0.90096121860E+02 -0.10324008528E+03  0.26681877758E+02  0.13959852787E+03  0.00000000000E+00 0.  1.
          1    1    1    2  501    0  0.14575988665E+03 -0.94094575457E+02  0.20049395835E+03  0.26513687224E+03  0.00000000000E+00 0. -1.
<scales pt_clust_5="13000.00000" pt_clust_6="13000.00000" pt_clust_7="13000.00000" pt_clust_8="13000.00000" pt_clust_9="173.49275"></scales>
<clustering>
<clus scale="   81.164">  5  6 -1 -1</clus>
<clus scale="   90.188">  7  8 -1 -1</clus>
<clus scale="  173.493">  1  9  2 -1</clus>
<clus scale="  363.207">  1  5  2 -1</clus>
<clus scale="  173.493">  1  5  2 -1</clus>
</clustering>
</event>
<event>
 9    2  0.1033155E-004  0.1000206E+03  0.7546771E-02  0.1281104E+00
         -1   -1    0    0    0  501 -0.00000000000E+00  0.00000000000E+00  0.14375271107E+03  0.14375271107E+03  0.00000000000E+00 0.  1.
         21   -1    0    0  501  502  0.00000000000E+00 -0.00000000000E+00 -0.15571682189E+03  0.15571682189E+03  0.00000000000E+00 0. -1.
         23    2    1    2    0    0 -0.28997696431E+02  0.97770704213E+00  0.30164644481E+02  0.99238266597E+02  0.89980583857E+02 0.  0.
         24    2    1    2    0    0  0.31642223313E+02 -0.66927105405E+02  0.67922167207E+01  0.11807544995E+03  0.91734453393E+02 0.  0.
        -11    1    4    4    0    0  0.51518666024E+02 -0.74503752189E+02  0.20365175800E+02  0.92842460246E+02  0.00000000000E+00 0.  1.
         12    1    4    4    0    0 -0.19876442711E+02  0.75766467836E+01 -0.13572959079E+02  0.25232989706E+02  0.00000000000E+00 0. -1.
        -11    1    3    3    0    0  0.27293932533E+02  0.11462079265E+02  0.29761478201E+02  0.41977179502E+02  0.00000000000E+00 0. -1.
         11    1    3    3    0    0 -0.56291628964E+02 -0.10484372223E+02  0.40316627948E+00  0.57261087095E+02  0.00000000000E+00 0.  1.
         -2    1    1    2    0  502 -0.26445268823E+01  0.65949398363E+02 -0.48920972025E+02  0.82155816414E+02  0.00000000000E+00 0.  1.
<scales pt_clust_5="13000.00000" pt_clust_6="13000.00000" pt_clust_7="13000.00000" pt_clust_8="13000.00000" pt_clust_9="66.00240"></scales>
<clustering>
<clus scale="   66.002">  2  9  1 -1</clus>
<clus scale="   89.981">  7  8 -1 -1</clus>
<clus scale="   91.734">  5  6 -1 -1</clus>
<clus scale="   98.415">  1  7  2 -1</clus>
<clus scale="   66.002">  2  5  1 -1</clus>
</clustering>
</event>
<event>
 9    2  0.1033155E-004  0.1267475E+03  0.7546771E-02  0.1245867E+00
         21   -1    0    0  501  502  0.00000000000E+00  0.00000000000E+00  0.33499088775E+03  0.33499088775E+03  0.00000000000E+00 0.  1.
         -1   -1    0    0    0  501 -0.00000000000E+00 -0.00000000000E+00 -0.10378363380E+03  0.10378363380E+03  0.00000000000E+00 0.  1.
         23    2    1    2    0    0 -0.33362269402E+01  0.30073094210E+02  0.19064915806E+03  0.21359307517E+03  0.91429638985E+02 0.  0.
         24    2    1    2    0    0  0.10284099379E+02  0.74177649638E+02  0.27077833760E+02  0.11983341369E+03  0.89547482099E+02 0.  0.
        -13    1    4    4    0    0  0.36440422280E+02  0.78613356830E+02  0.77193570484E+01  0.86991681909E+02  0.00000000000E+00 0.  1.
         14    1    4    4    0    0 -0.26156322901E+02 -0.44357071921E+01  0.19358476711E+02  0.32841731784E+02  0.00000000000E+00 0. -1.
        -13    1    3    3    0    0 -0.21264022810E+02 -0.25205879454E+02  0.10525908272E+03  0.11030398687E+03  0.00000000000E+00 0.  1.
         13    1    3    3    0    0  0.17927795869E+02  0.55278973664E+02  0.85390075342E+02  0.10328908830E+03  0.00000000000E+00 0. -1.
         -2    1    1    2    0  502 -0.69478724387E+01 -0.10425074385E+03  0.13480262129E+02  0.10534803269E+03  0.00000000000E+00 0.  1.
<scales pt_clust_5="13000.00000" pt_clust_6="13000.00000" pt_clust_7="13000.00000" pt_clust_8="13000.00000" pt_clust_9="89.70053"></scales>
<clustering>
<clus scale="   89.547">  5  6 -1 -1</clus>
<clus scale="   91.430">  7  8 -1 -1</clus>
<clus scale="   96.306">  2  7  1 -1</clus>
<clus scale="   89.701">  1  9  2 -1</clus>
<clus scale="   89.701">  1  5  2 -1</clus>
</clustering>
</event>
<event>
 9    2  0.1033155E-004  0.1108072E+03  0.7546771E-02  0.1265273E+00
          2   -1    0    0  502    0 -0.00000000000E+00  0.00000000000E+00  0.62005939352E+03  0.62005939352E+03  0.00000000000E+00 0. -1.
         21   -1    0    0  501  502  0.00000000000E+00 -0.00000000000E+00 -0.47268029373E+02  0.47268029373E+02  0.00000000000E+00 0. -1.
         23    2    1    2    0    0  0.39852910219E+02  0.17833632125E+02  0.15311729126E+03  0.18568067621E+03  0.95530705776E+02 0.  0.
         24    2    1    2    0    0 -0.82526481831E+02  0.16220054944E+01  0.83867561141E+02  0.14258101725E+03  0.80512903079E+02 0.  0.
        -13    1    4    4    0    0 -0.15397073899E+02  0.33893710359E+02  0.45524030034E+02  0.58807234224E+02  0.00000000000E+00 0.  1.
         14    1    4    4    0    0 -0.67129407932E+02 -0.32271704865E+02  0.38343531107E+02  0.83773783023E+02  0.00000000000E+00 0. -1.
        -13    1    3    3    0    0  0.63062694703E+02  0.26998435068E+02  0.14328507342E+03  0.15885978479E+03  0.00000000000E+00 0. -1.
         13    1    3    3    0    0 -0.23209784484E+02 -0.91648029432E+01  0.98322178470E+01  0.26820891420E+02  0.00000000000E+00 0.  1.
          1    1    1    2  501    0  0.42673571612E+02 -0.19455637619E+02  0.33580651174E+03  0.33906572943E+03  0.00000000000E+00 0. -1.
<scales pt_clust_5="13000.00000" pt_clust_6="13000.00000" pt_clust_7="13000.00000" pt_clust_8="13000.00000" pt_clust_9="46.89944"></scales>
<clustering>
<clus scale="   46.899">  2  9  1 -1</clus>
<clus scale="   80.513">  5  6 -1 -1</clus>
<clus scale="   95.531">  7  8 -1 -1</clus>
<clus scale="   98.155">  2  5  1 -1</clus>
<clus scale="   46.899">  2  5  1 -1</clus>
</clustering>
</event>
<event>
 9    2  0.1033155E-004  0.1211745E+03  0.7546771E-02  0.1244470E+00
         21   -1    0    0  501  502  0.00000000000E+00  0.00000000000E+00  0.55258996588E+02  0.55258996588E+02  0.00000000000E+00 0.  1.
         -1   -1    0    0    0  501 -0.00000000000E+00 -0.00000000000E+00 -0.45065198701E+03  0.45065198701E+03  0.00000000000E+00 0.  1.
         24    2    1    2    0    0 -0.64217763224E+02 -0.24100375314E+02 -0.16300597285E+03  0.19330834366E+03  0.78053951458E+02 0.  0.
         23    2    1    2    0    0  0.79745133157E+02  0.59798840237E+02 -0.23831014947E+03  0.27322544976E+03  0.89023769299E+02 0.  0.
        -11    1    3    3    0    0 -0.77548324247E+02 -0.14389978302E+01 -0.12446215357E+03  0.14665142679E+03  0.00000000000E+00 0.  1.
         12    1    3    3    0    0  0.13330561023E+02 -0.22661377484E+02 -0.38543819288E+02  0.46656916872E+02  0.00000000000E+00 0. -1.
        -11    1    4    4    0    0 -0.42975827466E+01  0.20955680803E+02 -0.46506023477E+01  0.21891502406E+02  0.00000000000E+00 0. -1.
         11    1    4    4    0    0  0.84042715903E+02  0.38843159434E+02 -0.23365954712E+03  0.25133394736E+03  0.00000000000E+00 0.  1.
         -2    1    1    2    0  502 -0.15527369933E+02 -0.35698464923E+02  0.59231319024E+01  0.39377190179E+02  0.00000000000E+00 0.  1.
<scales pt_clust_5="13000.00000" pt_clust_6="13000.00000" pt_clust_7="13000.00000" pt_clust_8="13000.00000" pt_clust_9="38.92916"></scales>
<clustering>
<clus scale="   38.929">  1  9  2 -1</clus>
<clus scale="   78.054">  5  6 -1 -1</clus>
<clus scale="   89.024">  7  8 -1 -1</clus>
<clus scale="  113.360">  2  5  1 -1</clus>
<clus scale="   38.929">  1  5  2 -1</clus>
</clustering>
</event>
<event>
 9    2  0.1033155E-004  0.1275031E+03  0.7546771E-02  0.1232083E+00
          2   -1    0    0  502    0 -0.00000000000E+00  0.00000000000E+00  0.20983581799E+03  0.20983581799E+03  0.00000000000E+00 0. -1.
         21   -1    0    0  501  502  0.00000000000E+00 -0.00000000000E+00 -0.15238255184E+03  0.15238255184E+03  0.00000000000E+00 0.  1.
         23    2    1    2    0    0  0.55927594615E+02 -0.81307462393E+02  0.34915301471E+02  0.13607100711E+03  0.86933545991E+02 0.  0.
         24    2    1    2    0    0 -0.34553209744E+02  0.75927091515E+02 -0.65753882429E+02  0.13514591777E+03  0.83558353889E+02 0.  0.
        -11    1    4    4    0    0 -0.58834118636E+02  0.57760391513E+02 -0.28780247701E+02  0.87327080571E+02  0.00000000000E+00 0.  1.
         12    1    4    4    0    0  0.24280908892E+02  0.18166700002E+02 -0.36973634729E+02  0.47818837195E+02  0.00000000000E+00 0. -1.
        -11    1    3    3    0    0  0.43581067947E+02  0.52444143422E+01  0.15152008572E+02  0.46437018950E+02  0.00000000000E+00 0.  1.
         11    1    3    3    0    0  0.12346526669E+02 -0.86551876735E+02  0.19763292899E+02  0.89633988160E+02  0.00000000000E+00 0. -1.
          1    1    1    2  501    0 -0.21374384872E+02  0.53803708781E+01  0.88291847103E+02  0.91001444958E+02  0.00000000000E+00 0. -1.
<scales pt_clust_5="13000.00000" pt_clust_6="13000.00000" pt_clust_7="13000.00000" pt_clust_8="13000.00000" pt_clust_9="22.04117"></scales>
<clustering>
<clus scale="   22.041">  2  9  1 -1</clus>
<clus scale="   83.558">  5  6 -1 -1</clus>
<clus scale="   86.934">  7  8 -1 -1</clus>
<clus scale="  125.226">  2  5  1 -1</clus>
<clus scale="   22.041">  2  5  1 -1</clus>
</clustering>
</event>
<event>
 9    2  0.1033155E-004  0.2120761E+03  0.7546771E-02  0.1153098E+00
          2   -1    0    0  502    0 -0.00000000000E+00  0.00000000000E+00  0.15038608151E+04  0.15038608151E+04  0.00000000000E+00 0. -1.
         21   -1    0    0  501  502  0.00000000000E+00 -0.00000000000E+00 -0.27197149154E+03  0.27197149154E+03  0.00000000000E+00 0. -1.
         24    2    1    2    0    0  0.22318653661E+02 -0.13059558667E+03  0.13284214777E+04  0.13374269575E+04  0.80336260372E+02 0.  0.
         23    2    1    2    0    0  0.67892496364E+01 -0.13012620653E+03 -0.10926950802E+01  0.15924264779E+03  0.91531979969E+02 0.  0.
        -13    1    3    3    0    0 -0.23704184041E+02 -0.32627632208E+02  0.21444562341E+03  0.21820489482E+03  0.00000000000E+00 0.  1.
         14    1    3    3    0    0  0.46022837702E+02 -0.97967954465E+02  0.11139758543E+04  0.11192220627E+04  0.00000000000E+00 0. -1.
        -13    1    4    4    0    0  0.26584918242E+02 -0.77736453596E+02 -0.39674231912E+02  0.91234635821E+02  0.00000000000E+00 0. -1.
         13    1    4    4    0    0 -0.19795668605E+02 -0.52389752931E+02  0.38581536832E+02  0.68008011969E+02  0.00000000000E+00 0.  1.
          1    1    1    2  501    0 -0.29107903298E+02  0.26072179320E+03 -0.95439459041E+02  0.27916270135E+03  0.00000000000E+00 0. -1.
<scales pt_clust_5="13000.00000" pt_clust_6="13000.00000" pt_clust_7="13000.00000" pt_clust_8="13000.00000" pt_clust_9="191.30661"></scales>
<clustering>
<clus scale="   80.336">  5  6 -1 -1</clus>
<clus scale="   91.532">  7  8 -1 -1</clus>
<clus scale="  154.943">  1  5  2 -1</clus>
<clus scale="  191.307">  2  9  1 -1</clus>
<clus scale="  191.307">  2  5  1 -1</clus>
</clustering>
</event>
<event>
 9    2  0.1033155E-004  0.8409507E+02  0.7546771E-02  0.1318377E+00
         21   -1    0    0  501  502  0.00000000000E+00  0.00000000000E+00  0.49526887986E+02  0.49526887986E+02  0.00000000000E+00 0. -1.
          2   -1    0    0  502    0 -0.00000000000E+00 -0.00000000000E+00 -0.65886204972E+03  0.65886204972E+03  0.00000000000E+00 0. -1.
         24    2    1    2    0    0  0.33126587172E+02  0.84603917277E+01 -0.52848072780E+03  0.53537284156E+03  0.78506374364E+02 0.  0.
         23    2    1    2    0    0  0.43197785897E+01  0.35749543484E+02 -0.74598229031E+02  0.11474184129E+03  0.79398388023E+02 0.  0.
        -11    1    3    3    0    0 -0.51875115674E+00 -0.29206931737E+02 -0.10840349367E+03  0.11227034962E+03  0.00000000000E+00 0.  1.
         12    1    3    3    0    0  0.33645338329E+02  0.37667323465E+02 -0.42007723414E+03  0.42310249194E+03  0.00000000000E+00 0. -1.
        -11    1    4    4    0    0 -0.34076301688E+02 -0.40041464157E+00 -0.34494069541E+02  0.48489127669E+02  0.00000000000E+00 0.  1.
         11    1    4    4    0    0  0.38396080278E+02  0.36149958125E+02 -0.40104159490E+02  0.66252713616E+02  0.00000000000E+00 0. -1.
          1    1    1    2  501    0 -0.37446365762E+02 -0.44209935212E+02 -0.62562049043E+01  0.58274254864E+02  0.00000000000E+00 0. -1.
<scales pt_clust_5="13000.00000" pt_clust_6="13000.00000" pt_clust_7="13000.00000" pt_clust_8="13000.00000" pt_clust_9="57.93745"></scales>
<clustering>
<clus scale="   57.937">  1  9  2 -1</clus>
<clus scale="   78.506">  5  6 -1 -1</clus>
<clus scale="   79.398">  7  8 -1 -1</clus>
<clus scale="   83.253">  2  5  1 -1</clus>
<clus scale="   57.937">  1  5  2 -1</clus>
</clustering>
</event>
<event>
 9    2  0.1033155E-004  0.1106556E+03  0.7546771E-02  0.1262744E+00
         21   -1    0    0  501  502  0.00000000000E+00  0.00000000000E+00  0.17371667109E+02  0.17371667109E+02  0.00000000000E+00 0. -1.
          2   -1    0    0  502    0 -0.00000000000E+00 -0.00000000000E+00 -0.12114883088E+04  0.12114883088E+04  0.00000000000E+00 0. -1.
         24    2    1    2    0    0  0.10088454534E+02  0.64377148902E+02 -0.82508487844E+03  0.83160304295E+03  0.80946712085E+02 0.  0.
         23    2    1    2    0    0  0.19550978007E+02 -0.64965424016E+02 -0.32685003087E+03  0.34569977462E+03  0.89859025322E+02 0.  0.
        -11    1    3    3    0    0 -0.12511361069E+02  0.32460694984E+02 -0.10826027081E+03  0.11371243164E+03  0.00000000000E+00 0.  1.
         12    1    3    3    0    0  0.22599815604E+02  0.31916453918E+02 -0.71682460764E+03  0.71789061131E+03  0.00000000000E+00 0. -1.
        -13    1    4    4    0    0 -0.11641339571E+02 -0.76570746867E+02 -0.25527029484E+03  0.26676117313E+03  0.00000000000E+00 0.  1.
         13    1    4    4    0    0  0.31192317578E+02  0.11605322851E+02 -0.71579736030E+02  0.78938601485E+02  0.00000000000E+00 0. -1.
          1    1    1    2  501    0 -0.29639432541E+02  0.58827511380E+00 -0.42181732347E+02  0.51557158307E+02  0.00000000000E+00 0. -1.
<scales pt_clust_5="13000.00000" pt_clust_6="13000.00000" pt_clust_7="13000.00000" pt_clust_8="13000.00000" pt_clust_9="29.64527"></scales>
<clustering>
<clus scale="   29.645">  1  9  2 -1</clus>
<clus scale="   80.947">  5  6 -1 -1</clus>
<clus scale="   89.859">  7  8 -1 -1</clus>
<clus scale="  103.549">  2  5  1 -1</clus>
<clus scale="   29.645">  1  5  2 -1</clus>
</clustering>
</event>
<event>
 9    2  0.1033155E-004  0.9937553E+02  0.7546771E-02  0.1285304E+00
         21   -1    0    0  501  502  0.00000000000E+00  0.00000000000E+00  0.11742632608E+03  0.11742632608E+03  0.00000000000E+00 0.  1.
          2   -1    0    0  502    0 -0.00000000000E+00 -0.00000000000E+00 -0.72721685503E+03  0.72721685503E+03  0.00000000000E+00 0. -1.
         24    2    1    2    0    0  0.68630965373E+01 -0.43764804319E+02 -0.65414184096E+03  0.66057320122E+03  0.80578817789E+02 0.  0.
         23    2    1    2    0    0 -0.18829819748E+02  0.64369381095E+02 -0.22527764150E+02  0.11307306533E+03  0.88204527155E+02 0.  0.
        -13    1    3    3    0    0  0.20245127577E+02  0.15275503952E+02 -0.10129239181E+03  0.10441913067E+03  0.00000000000E+00 0.  1.
         14    1    3    3    0    0 -0.13382031040E+02 -0.59040308270E+02 -0.55284944915E+03  0.55615407054E+03  0.00000000000E+00 0. -1.
        -13    1    4    4    0    0 -0.37719060866E+02  0.36564876611E+01  0.13212581642E+02  0.40133150490E+02  0.00000000000E+00 0.  1.
         13    1    4    4    0    0  0.18889241118E+02  0.60712893434E+02 -0.35740345792E+02  0.72939914837E+02  0.00000000000E+00 0. -1.
          1    1    1    2  501    0  0.11966723211E+02 -0.20604576776E+02  0.66879076165E+02  0.70996914562E+02  0.00000000000E+00 0. -1.
<scales pt_clust_5="13000.00000" pt_clust_6="13000.00000" pt_clust_7="13000.00000" pt_clust_8="13000.00000" pt_clust_9="23.82753"></scales>
<clustering>
<clus scale="   23.828">  1  9  2 -1</clus>
<clus scale="   80.579">  5  6 -1 -1</clus>
<clus scale="   88.205">  7  8 -1 -1</clus>
<clus scale="   92.674">  2  5  1 -1</clus>
<clus scale="   23.828">  1  5  2 -1</clus>
</clustering>
</event>
<event>
 9    2  0.1033155E-004  0.9136465E+02  0.7546771E-02  0.1304519E+00
         21   -1    0    0  501  502  0.00000000000E+00  0.00000000000E+00  0.30028960734E+02  0.30028960734E+02  0.00000000000E+00 0. -1.
          2   -1    0    0  502    0 -0.00000000000E+00 -0.00000000000E+00 -0.12361475200E+04  0.12361475200E+04  0.00000000000E+00 0. -1.
         24    2    1    2    0    0  0.96973807664E+01 -0.45081842888E+02 -0.88027892175E+03  0.88450356176E+03  0.73001088669E+02 0.  0.
         23    2    1    2    0    0  0.26257549172E+02 -0.17396475076E+02 -0.60251307626E+02  0.10647579294E+03  0.81943750083E+02 0.  0.
        -13    1    3    3    0    0  0.22246879557E+02  0.12962678679E-01 -0.85482034780E+02  0.88329508593E+02  0.00000000000E+00 0.  1.
         14    1    3    3    0    0 -0.12549498791E+02 -0.45094805566E+02 -0.79479688697E+03  0.79617405317E+03  0.00000000000E+00 0. -1.
        -11    1    4    4    0    0  0.58400175336E+01 -0.33490738163E+02  0.67034642511E+01  0.34650711111E+02  0.00000000000E+00 0. -1.
         11    1    4    4    0    0  0.20417531638E+02  0.16094263087E+02 -0.66954771877E+02  0.71825081828E+02  0.00000000000E+00 0.  1.
          1    1    1    2  501    0 -0.35954929938E+02  0.62478317964E+02 -0.26558832994E+03  0.27519712608E+03  0.00000000000E+00 0. -1.
<scales pt_clust_5="13000.00000" pt_clust_6="13000.00000" pt_clust_7="13000.00000" pt_clust_8="13000.00000" pt_clust_9="72.08538"></scales>
<clustering>
<clus scale="   72.085">  1  9  2 -1</clus>
<clus scale="   73.001">  5  6 -1 -1</clus>
<clus scale="   81.944">  7  8 -1 -1</clus>
<clus scale="   83.438">  2  5  1 -1</clus>
<clus scale="   72.085">  1  5  2 -1</clus>
</clustering>
</event>
<event>
 9    2  0.1033155E-004  0.1632245E+03  0.7546771E-02  0.1203394E+00
         21   -1    0    0  501  502  0.00000000000E+00  0.00000000000E+00  0.10588180378E+03  0.10588180378E+03  0.00000000000E+00 0. -1.
          2   -1    0    0  502    0 -0.00000000000E+00 -0.00000000000E+00 -0.58684697439E+03  0.58684697439E+03  0.00000000000E+00 0. -1.
         24    2    1    2    0    0 -0.77880774630E+02  0.15145919161E+02 -0.29619392209E+03  0.31571049604E+03  0.75149610137E+02 0.  0.
         23    2    1    2    0    0 -0.10564417354E+03  0.19309665424E+02 -0.57007766953E+02  0.15076156701E+03  0.89138151275E+02 0.  0.
        -13    1    3    3    0    0 -0.37669145948E+02  0.39017166993E+02 -0.97307818538E+02  0.11140069760E+03  0.00000000000E+00 0.  1.
         14    1    3    3    0    0 -0.40211628682E+02 -0.23871247832E+02 -0.19888610355E+03  0.20430979845E+03  0.00000000000E+00 0. -1.
        -11    1    4    4    0    0 -0.86813151921E+02  0.44883359726E+02 -0.16217840611E+02  0.99065925932E+02  0.00000000000E+00 0. -1.
         11    1    4    4    0    0 -0.18831021621E+02 -0.25573694302E+02 -0.40789926343E+02  0.51695641079E+02  0.00000000000E+00 0.  1.
          1    1    1    2  501    0  0.18352494817E+03 -0.34455584585E+02 -0.12776348157E+03  0.22625671511E+03  0.00000000000E+00 0. -1.
<scales pt_clust_5="13000.00000" pt_clust_6="13000.00000" pt_clust_7="13000.00000" pt_clust_8="13000.00000" pt_clust_9="136.73563"></scales>
<clustering>
<clus scale="   75.150">  5  6 -1 -1</clus>
<clus scale="   89.138">  7  8 -1 -1</clus>
<clus scale="  109.281">  2  5  1 -1</clus>
<clus scale="  136.736">  1  9  2 -1</clus>
<clus scale="  136.736">  1  5  2 -1</clus>
</clustering>
</event>
<event>
 9    2  0.1033155E-004  0.1016225E+03  0.7546771E-02  0.1282654E+00
         21   -1    0    0  501  502  0.00000000000E+00  0.00000000000E+00  0.93993116575E+02  0.93993116575E+02  0.00000000000E+00 0. -1.
          2   -1    0    0  502    0 -0.00000000000E+00 -0.00000000000E+00 -0.24514416786E+03  0.24514416786E+03  0.00000000000E+00 0. -1.
         24    2    1    2    0    0 -0.75687287730E+01  0.54117396484E+02 -0.14477812851E+03  0.17422623919E+03  0.80050594428E+02 0.  0.
         23    2    1    2    0    0 -0.15749673169E+02 -0.22290557956E+02 -0.48341186651E+02  0.10730869553E+03  0.91833352499E+02 0.  0.
        -13    1    3    3    0    0 -0.41516960175E+02  0.26883340775E+02 -0.52104873799E+02  0.71842117641E+02  0.00000000000E+00 0.  1.
         14    1    3    3    0    0  0.33948231402E+02  0.27234055708E+02 -0.92673254714E+02  0.10238412155E+03  0.00000000000E+00 0. -1.
        -11    1    4    4    0    0 -0.82253517629E+01 -0.43963474341E+02  0.89337685052E+01  0.45609820296E+02  0.00000000000E+00 0.  1.
         11    1    4    4    0    0 -0.75243214061E+01  0.21672916385E+02 -0.57274955156E+02  0.61698875236E+02  0.00000000000E+00 0. -1.
          1    1    1    2  501    0  0.23318401942E+02 -0.31826838528E+02  0.41968263879E+02  0.57602349716E+02  0.00000000000E+00 0. -1.
<scales pt_clust_5="13000.00000" pt_clust_6="13000.00000" pt_clust_7="13000.00000" pt_clust_8="13000.00000" pt_clust_9="39.45498"></scales>
<clustering>
<clus scale="   39.455">  1  9  2 -1</clus>
<clus scale="   80.051">  5  6 -1 -1</clus>
<clus scale="   91.115">  2  5  1 -1</clus>
<clus scale="   91.833">  7  8 -1 -1</clus>
<clus scale="   39.455">  1  5  2 -1</clus>
</clustering>
</event>
<event>
 9    2  0.1033155E-004  0.2402297E+03  0.7546771E-02  0.1159714E+00
         21   -1    0    0  501  502  0.00000000000E+00  0.00000000000E+00  0.88138011965E+02  0.88138011965E+02  0.00000000000E+00 0.  1.
          2   -1    0    0  502    0 -0.00000000000E+00 -0.00000000000E+00 -0.10516194909E+04  0.10516194909E+04  0.00000000000E+00 0. -1.
         24    2    1    2    0    0 -0.39372121219E+02 -0.20312816552E+02 -0.27763513294E+02  0.95424141137E+02  0.79825933103E+02 0.  0.
         23    2    1    2    0    0 -0.15524950946E+02 -0.20794734430E+03 -0.48698257362E+03  0.53789497296E+03  0.93251556690E+02 0.  0.
        -11    1    3    3    0    0 -0.16637812667E+02  0.23180048892E+02  0.13256631945E+02  0.31462195847E+02  0.00000000000E+00 0.  1.
         12    1    3    3    0    0 -0.22734308552E+02 -0.43492865445E+02 -0.41020145238E+02  0.63961945290E+02  0.00000000000E+00 0. -1.
        -13    1    4    4    0    0 -0.26182943359E+01 -0.17794762895E+03 -0.46662626048E+03  0.49941193527E+03  0.00000000000E+00 0.  1.
         13    1    4    4    0    0 -0.12906656610E+02 -0.29999715346E+02 -0.20356313138E+02  0.38483037696E+02  0.00000000000E+00 0. -1.
          1    1    1    2  501    0  0.54897072165E+02  0.22826016085E+03 -0.44873539205E+03  0.50643838879E+03  0.00000000000E+00 0. -1.
<scales pt_clust_5="13000.00000" pt_clust_6="13000.00000" pt_clust_7="13000.00000" pt_clust_8="13000.00000" pt_clust_9="221.39215"></scales>
<clustering>
<clus scale="   79.826">  5  6 -1 -1</clus>
<clus scale="   91.296">  2  5  1 -1</clus>
<clus scale="   93.252">  7  8 -1 -1</clus>
<clus scale="  221.392">  1  9  2 -1</clus>
<clus scale="  221.392">  1  5  2 -1</clus>
</clustering>
</event>
<event>
 9    2  0.1033155E-004  0.1032076E+03  0.7546771E-02  0.1277289E+00
         21   -1    0    0  501  502  0.00000000000E+00  0.00000000000E+00  0.46453615370E+03  0.46453615370E+03  0.00000000000E+00 0. -1.
          4   -1    0    0  502    0 -0.00000000000E+00 -0.00000000000E+00 -0.34973074284E+02  0.34973074284E+02  0.00000000000E+00 0. -1.
         24    2    1    2    0    0 -0.26147479941E+02  0.54344089703E+02  0.12968134264E+03  0.16420960061E+03  0.80688112568E+02 0.  0.
         23    2    1    2    0    0  0.65567925226E+01 -0.37414436564E+02  0.29300661205E+03  0.30851016062E+03  0.88785206591E+02 0.  0.
        -11    1    3    3    0    0 -0.51687097350E+02  0.34462617903E+02  0.10999910388E+03  0.12632905810E+03  0.00000000000E+00 0.  1.
         12    1    3    3    0    0  0.25539617408E+02  0.19881471800E+02  0.19682238760E+02  0.37880542511E+02  0.00000000000E+00 0. -1.
        -11    1    4    4    0    0  0.33175487989E+02 -0.41952499048E+00  0.42631288903E+02  0.54020512753E+02  0.00000000000E+00 0.  1.
         11    1    4    4    0    0 -0.26618695467E+02 -0.36994911574E+02  0.25037532315E+03  0.25448964787E+03  0.00000000000E+00 0. -1.
          3    1    1    2  501    0  0.19590687419E+02 -0.16929653139E+02  0.68751247221E+01  0.26789466753E+02  0.00000000000E+00 0. -1.
<scales pt_clust_5="13000.00000" pt_clust_6="13000.00000" pt_clust_7="13000.00000" pt_clust_8="13000.00000" pt_clust_9="25.89225"></scales>
<clustering>
<clus scale="   25.892">  1  9  2 -1</clus>
<clus scale="   80.688">  5  6 -1 -1</clus>
<clus scale="   88.785">  7  8 -1 -1</clus>
<clus scale="   96.330">  2  5  1 -1</clus>
<clus scale="   25.892">  1  5  2 -1</clus>
</clustering>
</event>
<event>
 9    2  0.1033155E-004  0.9635846E+02  0.7546771E-02  0.1290236E+00
         21   -1    0    0  501  502  0.00000000000E+00  0.00000000000E+00  0.17383861868E+03  0.17383861868E+03  0.00000000000E+00 0. -1.
          2   -1    0    0  502    0 -0.00000000000E+00 -0.00000000000E+00 -0.53455333619E+03  0.53455333619E+03  0.00000000000E+00 0. -1.
         23    2    1    2    0    0  0.51127080917E+02 -0.83091015860E+01 -0.39059568024E+03  0.40329594662E+03  0.86021018188E+02 0.  0.
         24    2    1    2    0    0 -0.26272712409E+02 -0.43611456789E+01 -0.12275897462E+03  0.14992763110E+03  0.81848968892E+02 0.  0.
        -13    1    4    4    0    0 -0.40091228221E+02 -0.19694017050E+02 -0.27490840722E+02  0.52449091617E+02  0.00000000000E+00 0.  1.
         14    1    4    4    0    0  0.13818515811E+02  0.15332871371E+02 -0.95268133893E+02  0.97478539480E+02  0.00000000000E+00 0. -1.
        -13    1    3    3    0    0  0.51145956520E+00  0.31949957555E+02 -0.18590099793E+03  0.18862725787E+03  0.00000000000E+00 0. -1.
         13    1    3    3    0    0  0.50615621352E+02 -0.40259059141E+02 -0.20469468231E+03  0.21466868876E+03  0.00000000000E+00 0.  1.
          1    1    1    2  501    0 -0.24854368508E+02  0.12670247265E+02  0.15263993734E+03  0.15516837716E+03  0.00000000000E+00 0. -1.
<scales pt_clust_5="13000.00000" pt_clust_6="13000.00000" pt_clust_7="13000.00000" pt_clust_8="13000.00000" pt_clust_9="27.89758"></scales>
<clustering>
<clus scale="   27.898">  1  9  2 -1</clus>
<clus scale="   81.849">  5  6 -1 -1</clus>
<clus scale="   86.021">  7  8 -1 -1</clus>
<clus scale="   92.653">  1  5  2 -1</clus>
<clus scale="   27.898">  1  5  2 -1</clus>
</clustering>
</event>
<event>
 9    2  0.1033155E-004  0.9918703E+02  0.7546771E-02  0.1289888E+00
         21   -1    0    0  501  502  0.00000000000E+00  0.00000000000E+00  0.14590569466E+03  0.14590569466E+03  0.00000000000E+00 0. -1.
         -3   -1    0    0    0  501 -0.00000000000E+00 -0.00000000000E+00 -0.99167393137E+02  0.99167393137E+02  0.00000000000E+00 0.  1.
         23    2    1    2    0    0  0.10028702447E+02 -0.40297218246E+02 -0.37526246480E+02  0.10857901576E+03  0.93041618736E+02 0.  0.
         24    2    1    2    0    0  0.40434729525E+01  0.17948128744E+02  0.69129564072E+02  0.10605436671E+03  0.78295255734E+02 0.  0.
        -11    1    4    4    0    0  0.17586530985E+02  0.39565926508E+02  0.14329762301E+02  0.45608011359E+02  0.00000000000E+00 0.  1.
         12    1    4    4    0    0 -0.13543058033E+02 -0.21617797764E+02  0.54799801771E+02  0.60446355350E+02  0.00000000000E+00 0. -1.
        -11    1    3    3    0    0  0.40315290016E+02  0.11465778401E+02 -0.15744793507E+02  0.44773711104E+02  0.00000000000E+00 0.  1.
         11    1    3    3    0    0 -0.30286587569E+02 -0.51762996648E+02 -0.21781452973E+02  0.63805304655E+02  0.00000000000E+00 0. -1.
         -4    1    1    2    0  502 -0.14072175400E+02  0.22349089502E+02  0.15134983935E+02  0.30439705333E+02  0.00000000000E+00 0.  1.
<scales pt_clust_5="13000.00000" pt_clust_6="13000.00000" pt_clust_7="13000.00000" pt_clust_8="13000.00000" pt_clust_9="26.41038"></scales>
<clustering>
<clus scale="   26.410">  1  9  2 -1</clus>
<clus scale="   78.295">  5  6 -1 -1</clus>
<clus scale="   85.507">  1  5  2 -1</clus>
<clus scale="   93.042">  7  8 -1 -1</clus>
<clus scale="   26.410">  1  5  2 -1</clus>
</clustering>
</event>
<event>
 9    2  0.1033155E-004  0.9218482E+02  0.7546771E-02  0.1304405E+00
          2   -1    0    0  502    0 -0.00000000000E+00  0.00000000000E+00  0.42427833133E+03  0.42427833133E+03  0.00000000000E+00 0. -1.
         21   -1    0    0  501  502  0.00000000000E+00 -0.00000000000E+00 -0.44791030162E+02  0.44791030162E+02  0.00000000000E+00 0.  1.
         23    2    1    2    0    0 -0.52097651472E+01 -0.17908560303E+02  0.27378112107E+03  0.28894693482E+03  0.90478564879E+02 0.  0.
         24    2    1    2    0    0 -0.39645832303E+02  0.14658978170E+02  0.35513228061E+02  0.96757956289E+02  0.79462161296E+02 0.  0.
        -13    1    4    4    0    0 -0.53325002979E+02  0.13794618972E+02 -0.37136296658E+01  0.55205420935E+02  0.00000000000E+00 0.  1.
         14    1    4    4    0    0  0.13679170676E+02  0.86435919761E+00  0.39226857727E+02  0.41552535354E+02  0.00000000000E+00 0. -1.
        -11    1    3    3    0    0  0.11772360921E+02 -0.52157293481E+02  0.14200448199E+03  0.15173742007E+03  0.00000000000E+00 0. -1.
         11    1    3    3    0    0 -0.16982126069E+02  0.34248733178E+02  0.13177663908E+03  0.13720951475E+03  0.00000000000E+00 0.  1.
          1    1    1    2  501    0  0.44855597450E+02  0.32495821339E+01  0.70192952033E+02  0.83364470380E+02  0.00000000000E+00 0. -1.
<scales pt_clust_5="13000.00000" pt_clust_6="13000.00000" pt_clust_7="13000.00000" pt_clust_8="13000.00000" pt_clust_9="44.97317"></scales>
<clustering>
<clus scale="   44.973">  2  9  1 -1</clus>
<clus scale="   79.462">  5  6 -1 -1</clus>
<clus scale="   81.400">  2  5  1 -1</clus>
<clus scale="   90.479">  7  8 -1 -1</clus>
<clus scale="   44.973">  2  5  1 -1</clus>
</clustering>
</event>
<event>
 9    2  0.1033155E-004  0.5203037E+03  0.7546771E-02  0.1008730E+00
         21   -1    0    0  501  502  0.00000000000E+00  0.00000000000E+00  0.89185400595E+03  0.89185400595E+03  0.00000000000E+00 0. -1.
          2   -1    0    0  502    0 -0.00000000000E+00 -0.00000000000E+00 -0.10981012382E+04  0.10981012382E+04  0.00000000000E+00 0. -1.
         23    2    1    2    0    0 -0.53398553462E+03  0.10666562878E+03 -0.88137352952E+03  0.10400728546E+04  0.91728603920E+02 0.  0.
         24    2    1    2    0    0  0.38594124407E+03 -0.14326530874E+02  0.19696898311E+03  0.44088529916E+03  0.80169653492E+02 0.  0.
        -11    1    4    4    0    0  0.21904506991E+02  0.18555442099E+02  0.10655131830E+02  0.30620968181E+02  0.00000000000E+00 0.  1.
         12    1    4    4    0    0  0.36403673708E+03 -0.32881972973E+02  0.18631385128E+03  0.41026433097E+03  0.00000000000E+00 0. -1.
        -11    1    3    3    0    0 -0.27478107332E+02  0.20293166079E+02 -0.92652255833E+02  0.98748668259E+02  0.00000000000E+00 0.  1.
         11    1    3    3    0    0 -0.50650742729E+03  0.86372462702E+02 -0.78872127369E+03  0.94132418634E+03  0.00000000000E+00 0. -1.
          1    1    1    2  501    0  0.14804429054E+03 -0.92339097907E+02  0.47815731415E+03  0.50899709041E+03  0.00000000000E+00 0. -1.
<scales pt_clust_5="13000.00000" pt_clust_6="13000.00000" pt_clust_7="13000.00000" pt_clust_8="13000.00000" pt_clust_9="174.48100"></scales>
<clustering>
<clus scale="   80.170">  5  6 -1 -1</clus>
<clus scale="   91.729">  7  8 -1 -1</clus>
<clus scale="  174.481">  1  9  2 -1</clus>
<clus scale="  518.391">  1  5  2 -1</clus>
<clus scale="  174.481">  1  5  2 -1</clus>
</clustering>
</event>
<event>
 9    2  0.1033155E-004  0.1034493E+03  0.7546771E-02  0.1276942E+00
         21   -1    0    0  501  502  0.00000000000E+00  0.00000000000E+00  0.26155281839E+03  0.26155281839E+03  0.00000000000E+00 0. -1.
          4   -1    0    0  502    0 -0.00000000000E+00 -0.00000000000E+00 -0.14850198810E+03  0.14850198810E+03  0.00000000000E+00 0. -1.
         24    2    1    2    0    0 -0.28417201322E+02  0.46433082309E+02 -0.91525159992E+02  0.13358650187E+03  0.80653146903E+02 0.  0.
         23    2    1    2    0    0  0.74212267984E+02  0.56941603729E+01  0.13773411415E+03  0.18012374606E+03  0.89072967345E+02 0.  0.
        -13    1    3    3    0    0  0.19479696433E+01 -0.21990666227E+02 -0.16141631177E+02  0.27348423060E+02  0.00000000000E+00 0.  1.
         14    1    3    3    0    0 -0.30365170966E+02  0.68423748536E+02 -0.75383528815E+02  0.10623807880E+03  0.00000000000E+00 0. -1.
        -11    1    4    4    0    0 -0.22326116708E+01 -0.30745531013E+02  0.29207732333E+02  0.42466031839E+02  0.00000000000E+00 0.  1.
         11    1    4    4    0    0  0.76444879654E+02  0.36439691386E+02  0.10852638181E+03  0.13765771422E+03  0.00000000000E+00 0. -1.
          3    1    1    2  501    0 -0.45795066661E+02 -0.52127242682E+02  0.66841876133E+02  0.96344558565E+02  0.00000000000E+00 0. -1.
<scales pt_clust_5="13000.00000" pt_clust_6="13000.00000" pt_clust_7="13000.00000" pt_clust_8="13000.00000" pt_clust_9="69.38615"></scales>
<clustering>
<clus scale="   69.386">  1  9  2 -1</clus>
<clus scale="   80.653">  5  6 -1 -1</clus>
<clus scale="   89.073">  7  8 -1 -1</clus>
<clus scale="   96.295">  2  5  1 -1</clus>
<clus scale="   69.386">  1  5  2 -1</clus>
</clustering>
</event>
<event>
 9    2  0.1033155E-004  0.1389650E+03  0.7546771E-02  0.1222848E+00
         21   -1    0    0  501  502  0.00000000000E+00  0.00000000000E+00  0.21818337866E+03  0.21818337866E+03  0.00000000000E+00 0.  1.
          2   -1    0    0  502    0 -0.00000000000E+00 -0.00000000000E+00 -0.41965716760E+03  0.41965716760E+03  0.00000000000E+00 0. -1.
         23    2    1    2    0    0  0.69479299288E+02 -0.11465392693E+01 -0.60125554157E+02  0.13167182205E+03  0.94306409525E+02 0.  0.
         24    2    1    2    0    0  0.59796514954E+01  0.91702131816E+02 -0.29144179072E+03  0.31532207340E+03  0.77747381847E+02 0.  0.
        -11    1    4    4    0    0  0.35501066628E+02  0.76754529204E+02 -0.23673613991E+03  0.25138731755E+03  0.00000000000E+00 0.  1.
         12    1    4    4    0    0 -0.29521415132E+02  0.14947602611E+02 -0.54705650809E+02  0.63934755851E+02  0.00000000000E+00 0. -1.
        -13    1    3    3    0    0  0.62595007194E+02  0.31317230127E+02 -0.87873550431E+01  0.70541629107E+02  0.00000000000E+00 0.  1.
         13    1    3    3    0    0  0.68842920943E+01 -0.32463769396E+02 -0.51338199114E+02  0.61130192944E+02  0.00000000000E+00 0. -1.
          1    1    1    2  501    0 -0.75458950784E+02 -0.90555592546E+02  0.15009355593E+03  0.19084665081E+03  0.00000000000E+00 0. -1.
<scales pt_clust_5="13000.00000" pt_clust_6="13000.00000" pt_clust_7="13000.00000" pt_clust_8="13000.00000" pt_clust_9="115.18083"></scales>
<clustering>
<clus scale="   77.747">  5  6 -1 -1</clus>
<clus scale="   94.306">  7  8 -1 -1</clus>
<clus scale="  117.143">  2  7  1 -1</clus>
<clus scale="  115.181">  1  9  2 -1</clus>
<clus scale="  115.181">  1  5  2 -1</clus>
</clustering>
</event>
<event>
 9    2  0.1033155E-004  0.9814377E+02  0.7546771E-02  0.1289297E+00
          2   -1    0    0  502    0 -0.00000000000E+00  0.00000000000E+00  0.56439475244E+03  0.56439475244E+03  0.00000000000E+00 0. -1.
         21   -1    0    0  501  502  0.00000000000E+00 -0.00000000000E+00 -0.31372038577E+03  0.31372038577E+03  0.00000000000E+00 0.  1.
         24    2    1    2    0    0 -0.26234832809E+02 -0.22751368952E+02  0.54801239878E+03  0.55522532360E+03  0.82168604101E+02 0.  0.
         23    2    1    2    0    0  0.17346102894E+02  0.43489179701E+02 -0.23467485585E+03  0.25628846348E+03  0.91756702799E+02 0.  0.
        -11    1    3    3    0    0 -0.36458211106E+02 -0.47508114000E+02  0.31176219576E+03  0.31746163352E+03  0.00000000000E+00 0.  1.
         12    1    3    3    0    0  0.10223378297E+02  0.24756745048E+02  0.23625020303E+03  0.23776369008E+03  0.00000000000E+00 0. -1.
        -13    1    4    4    0    0 -0.20393150139E+02  0.15838236639E+02 -0.11506548782E+02  0.28268904777E+02  0.00000000000E+00 0. -1.
         13    1    4    4    0    0  0.37739253034E+02  0.27650943062E+02 -0.22316830707E+03  0.22801955871E+03  0.00000000000E+00 0.  1.
          1    1    1    2  501    0  0.88887299150E+01 -0.20737810748E+02 -0.62663176262E+02  0.66601351138E+02  0.00000000000E+00 0. -1.
<scales pt_clust_5="13000.00000" pt_clust_6="13000.00000" pt_clust_7="13000.00000" pt_clust_8="13000.00000" pt_clust_9="22.56250"></scales>
<clustering>
<clus scale="   22.562">  2  9  1 -1</clus>
<clus scale="   82.169">  5  6 -1 -1</clus>
<clus scale="   89.245">  1  5  2 -1</clus>
<clus scale="   91.757">  7  8 -1 -1</clus>
<clus scale="   22.562">  2  5  1 -1</clus>
</clustering>
</event>
<event>
 9    2  0.1033155E-004  0.9952832E+02  0.7546771E-02  0.1284572E+00
         21   -1    0    0  501  502  0.00000000000E+00  0.00000000000E+00  0.20832344714E+03  0.20832344714E+03  0.00000000000E+00 0.  1.
         -1   -1    0    0    0  501 -0.00000000000E+00 -0.00000000000E+00 -0.10812927682E+03  0.10812927682E+03  0.00000000000E+00 0.  1.
         24    2    1    2    0    0  0.43431373147E+02  0.15959839193E+02  0.75986418349E+01  0.93647622240E+02  0.81062550866E+02 0.  0.
         23    2    1    2    0    0 -0.47349988204E+02  0.66582128593E+02  0.55133035092E+02  0.13207489506E+03  0.87914305524E+02 0.  0.
        -11    1    3    3    0    0  0.65909557912E+02  0.10257569327E+01  0.94773209487E+01  0.66595357299E+02  0.00000000000E+00 0.  1.
         12    1    3    3    0    0 -0.22478184764E+02  0.14934082260E+02 -0.18786791138E+01  0.27052264941E+02  0.00000000000E+00 0. -1.
        -11    1    4    4    0    0 -0.69025360074E+02  0.58584913279E+02  0.59803202340E+02  0.10850398798E+03  0.00000000000E+00 0.  1.
         11    1    4    4    0    0  0.21675371870E+02  0.79972153140E+01 -0.46701672479E+01  0.23570907081E+02  0.00000000000E+00 0. -1.
         -2    1    1    2    0  502  0.39186150567E+01 -0.82541967786E+02  0.37462493385E+02  0.90730206660E+02  0.00000000000E+00 0.  1.
<scales pt_clust_5="13000.00000" pt_clust_6="13000.00000" pt_clust_7="13000.00000" pt_clust_8="13000.00000" pt_clust_9="82.63493"></scales>
<clustering>
<clus scale="   81.063">  5  6 -1 -1</clus>
<clus scale="   82.635">  1  9  2 -1</clus>
<clus scale="   87.914">  7  8 -1 -1</clus>
<clus scale="   93.531">  2  5  1 -1</clus>
<clus scale="   82.635">  1  5  2 -1</clus>
</clustering>
</event>
<event>
 9    2  0.1033155E-004  0.1270556E+03  0.7546771E-02  0.1236477E+00
         21   -1    0    0  501  502  0.00000000000E+00  0.00000000000E+00  0.77387344189E+02  0.77387344189E+02  0.00000000000E+00 0. -1.
          2   -1    0    0  502    0 -0.00000000000E+00 -0.00000000000E+00 -0.16274302581E+04  0.16274302581E+04  0.00000000000E+00 0. -1.
         24    2    1    2    0    0 -0.65619042166E+02 -0.57049404475E+02 -0.14155041004E+04  0.14204884390E+04  0.81086707121E+02 0.  0.
         23    2    1    2    0    0 -0.14841943662E+02  0.77764670550E+02 -0.15468013592E+03  0.19883784582E+03  0.96658766833E+02 0.  0.
        -11    1    3    3    0    0 -0.32178796409E+01 -0.24181283504E+02 -0.94332329101E+02  0.97435504489E+02  0.00000000000E+00 0.  1.
         12    1    3    3    0    0 -0.62401162525E+02 -0.32868120971E+02 -0.13211717713E+04  0.13230529346E+04  0.00000000000E+00 0. -1.
        -11    1    4    4    0    0  0.33027689376E+02  0.17930459800E+02 -0.93544798745E+02  0.10081150245E+03  0.00000000000E+00 0.  1.
         11    1    4    4    0    0 -0.47869633038E+02  0.59834210750E+02 -0.61135337174E+02  0.98026343370E+02  0.00000000000E+00 0. -1.
          1    1    1    2  501    0  0.80460985828E+02 -0.20715266075E+02  0.20141322365E+02  0.85491317428E+02  0.00000000000E+00 0. -1.
<scales pt_clust_5="13000.00000" pt_clust_6="13000.00000" pt_clust_7="13000.00000" pt_clust_8="13000.00000" pt_clust_9="83.08485"></scales>
<clustering>
<clus scale="   81.087">  5  6 -1 -1</clus>
<clus scale="   83.085">  1  9  2 -1</clus>
<clus scale="   96.659">  7  8 -1 -1</clus>
<clus scale="  115.652">  2  5  1 -1</clus>
<clus scale="   83.085">  1  5  2 -1</clus>
</clustering>
</event>
<event>
 9    2  0.1033155E-004  0.1540798E+03  0.7546771E-02  0.1217859E+00
          2   -1    0    0  502    0 -0.00000000000E+00  0.00000000000E+00  0.56424131549E+03  0.56424131549E+03  0.00000000000E+00 0. -1.
         21   -1    0    0  501  502  0.00000000000E+00 -0.00000000000E+00 -0.63921700988E+02  0.63921700988E+02  0.00000000000E+00 0. -1.
         24    2    1    2    0    0  0.24909872656E+02 -0.50710355219E+02  0.14147418477E+03  0.17064832651E+03  0.76901654738E+02 0.  0.
         23    2    1    2    0    0 -0.12037497118E+03  0.89384708230E+02  0.24431596721E+03  0.30348128969E+03  0.99653608090E+02 0.  0.
        -13    1    3    3    0    0 -0.17511432295E+02 -0.26842406986E+02  0.10511620562E+03  0.10989350189E+03  0.00000000000E+00 0.  1.
         14    1    3    3    0    0  0.42421304951E+02 -0.23867948233E+02  0.36357979156E+02  0.60754824622E+02  0.00000000000E+00 0. -1.
        -13    1    4    4    0    0 -0.78153273440E+02  0.18114730585E+02  0.56251674160E+02  0.97981265859E+02  0.00000000000E+00 0.  1.
         13    1    4    4    0    0 -0.42221697739E+02  0.71269977645E+02  0.18806429305E+03  0.20550002383E+03  0.00000000000E+00 0. -1.
          1    1    1    2  501    0  0.95465098523E+02 -0.38674353010E+02  0.11452946252E+03  0.15403340028E+03  0.00000000000E+00 0. -1.
<scales pt_clust_5="13000.00000" pt_clust_6="13000.00000" pt_clust_7="13000.00000" pt_clust_8="13000.00000" pt_clust_9="117.51487"></scales>
<clustering>
<clus scale="   76.902">  5  6 -1 -1</clus>
<clus scale="   95.425">  1  5  2 -1</clus>
<clus scale="   99.654">  7  8 -1 -1</clus>
<clus scale="  117.515">  2  9  1 -1</clus>
<clus scale="  117.515">  2  5  1 -1</clus>
</clustering>
</event>
<event>
 9    2  0.1033155E-004  0.1206810E+03  0.7546771E-02  0.1246923E+00
         21   -1    0    0  501  502  0.00000000000E+00  0.00000000000E+00  0.57834260024E+02  0.57834260024E+02  0.00000000000E+00 0.  1.
          2   -1    0    0  502    0 -0.00000000000E+00 -0.00000000000E+00 -0.10431306602E+04  0.10431306602E+04  0.00000000000E+00 0. -1.
         24    2    1    2    0    0  0.19546334358E+02 -0.70871897828E+02 -0.72679670656E+03  0.73493315789E+03  0.80550659910E+02 0.  0.
         23    2    1    2    0    0 -0.60163114874E+02  0.57812090096E+02 -0.28764596323E+03  0.31436178578E+03  0.95505466036E+02 0.  0.
        -11    1    3    3    0    0 -0.44485122473E+01 -0.59001353340E+02 -0.23245800251E+03  0.23987011462E+03  0.00000000000E+00 0.  1.
         12    1    3    3    0    0  0.23994846605E+02 -0.11870544489E+02 -0.49433870405E+03  0.49506304327E+03  0.00000000000E+00 0. -1.
        -13    1    4    4    0    0  0.42978335431E+01  0.42217417557E+02 -0.19999626780E+03  0.20444874382E+03  0.00000000000E+00 0.  1.
         13    1    4    4    0    0 -0.64460948417E+02  0.15594672539E+02 -0.87649695438E+02  0.10991304196E+03  0.00000000000E+00 0. -1.
          1    1    1    2  501    0  0.40616780516E+02  0.13059807732E+02  0.29146269660E+02  0.51669976510E+02  0.00000000000E+00 0. -1.
<scales pt_clust_5="13000.00000" pt_clust_6="13000.00000" pt_clust_7="13000.00000" pt_clust_8="13000.00000" pt_clust_9="42.66476"></scales>
<clustering>
<clus scale="   42.665">  1  9  2 -1</clus>
<clus scale="   80.551">  5  6 -1 -1</clus>
<clus scale="   95.505">  7  8 -1 -1</clus>
<clus scale="  109.229">  2  5  1 -1</clus>
<clus scale="   42.665">  1  5  2 -1</clus>
</clustering>
</event>
<event>
 9    2  0.1033155E-004  0.4042969E+03  0.7546771E-02  0.1060069E+00
          2   -1    0    0  502    0 -0.00000000000E+00  0.00000000000E+00  0.35642372074E+03  0.35642372074E+03  0.00000000000E+00 0. -1.
         21   -1    0    0  501  502  0.00000000000E+00 -0.00000000000E+00 -0.15173438984E+04  0.15173438984E+04  0.00000000000E+00 0. -1.
         23    2    1    2    0    0  0.20503465955E+03  0.94759602824E+02 -0.42987944443E+03  0.49420177686E+03  0.91763094769E+02 0.  0.
         24    2    1    2    0    0 -0.50166699521E+03 -0.30801693428E+03 -0.37036125333E+02  0.59527518969E+03  0.80228866343E+02 0.  0.
        -13    1    4    4    0    0 -0.68370428994E+02 -0.66479017726E+02 -0.26967109313E+02  0.99101969422E+02  0.00000000000E+00 0.  1.
         14    1    4    4    0    0 -0.43329656621E+03 -0.24153791656E+03 -0.10069016020E+02  0.49617322027E+03  0.00000000000E+00 0. -1.
        -11    1    3    3    0    0  0.15797419047E+03  0.46100272708E+02 -0.22734650722E+03  0.28065550831E+03  0.00000000000E+00 0.  1.
         11    1    3    3    0    0  0.47060469086E+02  0.48659330116E+02 -0.20253293721E+03  0.21354626855E+03  0.00000000000E+00 0. -1.
          1    1    1    2  501    0  0.29663233565E+03  0.21325733146E+03 -0.69400460794E+03  0.78429065264E+03  0.00000000000E+00 0. -1.
<scales pt_clust_5="13000.00000" pt_clust_6="13000.00000" pt_clust_7="13000.00000" pt_clust_8="13000.00000" pt_clust_9="396.25662"></scales>
<clustering>
<clus scale="   80.229">  5  6 -1 -1</clus>
<clus scale="   91.763">  7  8 -1 -1</clus>
<clus scale="  243.801">  1  7  2 -1</clus>
<clus scale="  396.257">  2  9  1 -1</clus>
<clus scale="  396.257">  2  5  1 -1</clus>
</clustering>
</event>
<event>
 9    2  0.1253961E-004  0.1313439E+03  0.7546771E-02  0.1242779E+00
         21   -1    0    0  501  502  0.00000000000E+00  0.00000000000E+00  0.93657359119E+03  0.93657359119E+03  0.00000000000E+00 0. -1.
          2   -1    0    0  502    0 -0.00000000000E+00 -0.00000000000E+00 -0.22258916631E+03  0.22258916631E+03  0.00000000000E+00 0. -1.
         23    2    1    2    0    0 -0.97204546546E+01  0.68386996803E+01 -0.18412346256E+03  0.20587612622E+03  0.91336054377E+02 0.  0.
         24    2    1    2    0    0 -0.21003660735E+02  0.89955044595E+02  0.13793660306E+03  0.18636200540E+03  0.84683096182E+02 0.  0.
        -11    1    4    4    0    0  0.28133375867E+02  0.79830071408E+01  0.39676585947E+02  0.49289417861E+02  0.00000000000E+00 0.  1.
         12    1    4    4    0    0 -0.49137036602E+02  0.81972037454E+02  0.98260017114E+02  0.13707258754E+03  0.00000000000E+00 0. -1.
        -13    1    3    3    0    0  0.24602414872E+02  0.33779888923E+02 -0.51864483006E+02  0.66605437546E+02  0.00000000000E+00 0. -1.
         13    1    3    3    0    0 -0.34322869527E+02 -0.26941189243E+02 -0.13225897955E+03  0.13927068867E+03  0.00000000000E+00 0.  1.
          1    1    1    2  501    0  0.30724115390E+02 -0.96793744276E+02  0.76017128438E+03  0.76692462588E+03  0.00000000000E+00 0. -1.
<scales pt_clust_5="13000.00000" pt_clust_6="13000.00000" pt_clust_7="13000.00000" pt_clust_8="13000.00000" pt_clust_9="100.39911"></scales>
<clustering>
<clus scale="   84.683">  5  6 -1 -1</clus>
<clus scale="   91.336">  7  8 -1 -1</clus>
<clus scale="   92.106">  2  7  1 -1</clus>
<clus scale="  100.399">  1  9  2 -1</clus>
<clus scale="  100.399">  1  5  2 -1</clus>
</clustering>
</event>
<event>
 9    2  0.1033155E-004  0.3070317E+03  0.7546771E-02  0.1082296E+00
          2   -1    0    0  502    0 -0.00000000000E+00  0.00000000000E+00  0.28706210079E+03  0.28706210079E+03  0.00000000000E+00 0. -1.
         21   -1    0    0  501  502  0.00000000000E+00 -0.00000000000E+00 -0.89018846281E+03  0.89018846281E+03  0.00000000000E+00 0. -1.
         24    2    1    2    0    0  0.26953009029E+03 -0.39530015502E+02  0.69987972413E+02  0.30098804083E+03  0.10717458999E+03 0.  0.
         23    2    1    2    0    0 -0.31274833039E+03  0.11622940113E+03 -0.21109530626E+03  0.40593051831E+03  0.94326907735E+02 0.  0.
        -11    1    3    3    0    0  0.22933774143E+03 -0.94518865406E+01  0.90538828991E+02  0.24674362678E+03  0.00000000000E+00 0.  1.
         12    1    3    3    0    0  0.40192348869E+02 -0.30078128962E+02 -0.20550856578E+02  0.54244414049E+02  0.00000000000E+00 0. -1.
        -11    1    4    4    0    0 -0.14597901525E+03  0.90739719980E+01 -0.11258637742E+03  0.18457492312E+03  0.00000000000E+00 0.  1.
         11    1    4    4    0    0 -0.16676931513E+03  0.10715542913E+03 -0.98508928843E+02  0.22135559520E+03  0.00000000000E+00 0. -1.
          1    1    1    2  501    0  0.43218240094E+02 -0.76699385630E+02 -0.46201902817E+03  0.47033200447E+03  0.00000000000E+00 0. -1.
<scales pt_clust_5="13000.00000" pt_clust_6="13000.00000" pt_clust_7="13000.00000" pt_clust_8="13000.00000" pt_clust_9="88.03756"></scales>
<clustering>
<clus scale="   88.038">  2  9  1 -1</clus>
<clus scale="   94.327">  7  8 -1 -1</clus>
<clus scale="  107.175">  5  6 -1 -1</clus>
<clus scale="  302.786">  2  7  1 -1</clus>
<clus scale="   88.038">  2  5  1 -1</clus>
</clustering>
</event>
<event>
 9    2  0.1033155E-004  0.2211139E+03  0.7546771E-02  0.1133055E+00
         21   -1    0    0  501  502  0.00000000000E+00  0.00000000000E+00  0.24435108489E+03  0.24435108489E+03  0.00000000000E+00 0. -1.
          2   -1    0    0  502    0 -0.00000000000E+00 -0.00000000000E+00 -0.34566009511E+03  0.34566009511E+03  0.00000000000E+00 0. -1.
         24    2    1    2    0    0 -0.63845834312E+02 -0.13370227341E+02  0.59530691102E+02  0.11971310977E+03  0.80822471687E+02 0.  0.
         23    2    1    2    0    0 -0.61784405956E+02 -0.26116967416E+02  0.11674028819E+03  0.16306388204E+03  0.91989814302E+02 0.  0.
        -11    1    3    3    0    0  0.14502677370E+02 -0.19277438766E+02  0.21958483166E+02  0.32620887162E+02  0.00000000000E+00 0.  1.
         12    1    3    3    0    0 -0.78348511682E+02  0.59072114248E+01  0.37572207936E+02  0.87092222608E+02  0.00000000000E+00 0. -1.
        -11    1    4    4    0    0  0.23280783725E+02  0.35547230427E+01  0.28299647096E+02  0.36817128793E+02  0.00000000000E+00 0. -1.
         11    1    4    4    0    0 -0.85065189681E+02 -0.29671690459E+02  0.88440641089E+02  0.12624675325E+03  0.00000000000E+00 0.  1.
          1    1    1    2  501    0  0.12563024027E+03  0.39487194758E+02 -0.27757998950E+03  0.30723418819E+03  0.00000000000E+00 0. -1.
<scales pt_clust_5="13000.00000" pt_clust_6="13000.00000" pt_clust_7="13000.00000" pt_clust_8="13000.00000" pt_clust_9="131.68984"></scales>
<clustering>
<clus scale="   80.822">  5  6 -1 -1</clus>
<clus scale="   91.990">  7  8 -1 -1</clus>
<clus scale="   98.092">  5  7 -1 -1</clus>
<clus scale="  131.690">  1  9  2 -1</clus>
<clus scale="  131.690">  1  5  2 -1</clus>
</clustering>
</event>
<event>
 9    2  0.1033155E-004  0.9914660E+02  0.7546771E-02  0.1285527E+00
          2   -1    0    0  502    0 -0.00000000000E+00  0.00000000000E+00  0.23668216608E+03  0.23668216608E+03  0.00000000000E+00 0. -1.
         21   -1    0    0  501  502  0.00000000000E+00 -0.00000000000E+00 -0.21048405060E+03  0.21048405060E+03  0.00000000000E+00 0.  1.
         24    2    1    2    0    0  0.33248290706E+02  0.23789381819E+02  0.20657633059E+03  0.22634826229E+03  0.82996216525E+02 0.  0.
         23    2    1    2    0    0 -0.53311651026E+02 -0.23132897152E+02 -0.14664434310E+03  0.18156310093E+03  0.89907358933E+02 0.  0.
        -13    1    3    3    0    0  0.16111819185E+02  0.37491134528E+02  0.36151925398E+02  0.54517314641E+02  0.00000000000E+00 0.  1.
         14    1    3    3    0    0  0.17136471521E+02 -0.13701752709E+02  0.17042440519E+03  0.17183094765E+03  0.00000000000E+00 0. -1.
        -11    1    4    4    0    0 -0.52087380042E+02  0.21231038531E+02 -0.50176317940E+02  0.75375825294E+02  0.00000000000E+00 0.  1.
         11    1    4    4    0    0 -0.12242709841E+01 -0.44363935683E+02 -0.96468025158E+02  0.10618727563E+03  0.00000000000E+00 0. -1.
          1    1    1    2  501    0  0.20063360320E+02 -0.65648466667E+00 -0.33733872010E+02  0.39254853462E+02  0.00000000000E+00 0. -1.
<scales pt_clust_5="13000.00000" pt_clust_6="13000.00000" pt_clust_7="13000.00000" pt_clust_8="13000.00000" pt_clust_9="20.07410"></scales>
<clustering>
<clus scale="   20.074">  2  9  1 -1</clus>
<clus scale="   82.996">  5  6 -1 -1</clus>
<clus scale="   89.907">  7  8 -1 -1</clus>
<clus scale="   92.925">  1  5  2 -1</clus>
<clus scale="   20.074">  2  5  1 -1</clus>
</clustering>
</event>
<event>
 9    2  0.1033155E-004  0.1645883E+03  0.7546771E-02  0.1205081E+00
         21   -1    0    0  501  502  0.00000000000E+00  0.00000000000E+00  0.25125759179E+03  0.25125759179E+03  0.00000000000E+00 0. -1.
          2   -1    0    0  502    0 -0.00000000000E+00 -0.00000000000E+00 -0.14645569307E+04  0.14645569307E+04  0.00000000000E+00 0. -1.
         24    2    1    2    0    0  0.64917296857E+02  0.51720487533E+01 -0.13654978267E+04  0.13693604170E+04  0.79514976389E+02 0.  0.
         23    2    1    2    0    0  0.76032787444E+01  0.13003721589E+03  0.80587520023E+02  0.17713514661E+03  0.88966422981E+02 0.  0.
        -13    1    3    3    0    0  0.11440384937E+02 -0.18423520618E+02 -0.91983286620E+02  0.94505203756E+02  0.00000000000E+00 0.  1.
         14    1    3    3    0    0  0.53476911920E+02  0.23595569372E+02 -0.12735145400E+04  0.12748552132E+04  0.00000000000E+00 0. -1.
        -13    1    4    4    0    0  0.40003348334E+02  0.10595048247E+03  0.40592025728E+02  0.12030579856E+03  0.00000000000E+00 0. -1.
         13    1    4    4    0    0 -0.32400069590E+02  0.24086733413E+02  0.39995494296E+02  0.56829348051E+02  0.00000000000E+00 0.  1.
          1    1    1    2  501    0 -0.72520575601E+02 -0.13520926464E+03  0.71610967754E+02  0.16931895887E+03  0.00000000000E+00 0. -1.
<scales pt_clust_5="13000.00000" pt_clust_6="13000.00000" pt_clust_7="13000.00000" pt_clust_8="13000.00000" pt_clust_9="138.47132"></scales>
<clustering>
<clus scale="   79.515">  5  6 -1 -1</clus>
<clus scale="   88.966">  7  8 -1 -1</clus>
<clus scale="  102.780">  2  5  1 -1</clus>
<clus scale="  138.471">  1  9  2 -1</clus>
<clus scale="  138.471">  1  5  2 -1</clus>
</clustering>
</event>
<event>
 9    2  0.1033155E-004  0.1932288E+03  0.7546771E-02  0.1171496E+00
          2   -1    0    0  502    0 -0.00000000000E+00  0.00000000000E+00  0.54039002370E+03  0.54039002370E+03  0.00000000000E+00 0. -1.
         21   -1    0    0  501  502  0.00000000000E+00 -0.00000000000E+00 -0.14171611777E+03  0.14171611777E+03  0.00000000000E+00 0. -1.
         23    2    1    2    0    0 -0.34933506001E+02 -0.90343535036E+02  0.22902424482E+03  0.26519920920E+03  0.92174897248E+02 0.  0.
         24    2    1    2    0    0 -0.11203188975E+03  0.16387485507E+03  0.76057227650E+02  0.22778996800E+03  0.81837981388E+02 0.  0.
        -11    1    4    4    0    0 -0.10083706783E+03  0.13699325717E+03  0.93236945233E+02  0.19398039776E+03  0.00000000000E+00 0.  1.
         12    1    4    4    0    0 -0.11194821920E+02  0.26881597905E+02 -0.17179717583E+02  0.33809570243E+02  0.00000000000E+00 0. -1.
        -13    1    3    3    0    0 -0.12769987233E+02 -0.28589074476E+02  0.18150857099E+03  0.18418949236E+03  0.00000000000E+00 0. -1.
         13    1    3    3    0    0 -0.22163518767E+02 -0.61754460560E+02  0.47515673825E+02  0.81009716838E+02  0.00000000000E+00 0.  1.
          1    1    1    2  501    0  0.14696539575E+03 -0.73531320039E+02  0.93592433460E+02  0.18911696427E+03  0.00000000000E+00 0. -1.
<scales pt_clust_5="13000.00000" pt_clust_6="13000.00000" pt_clust_7="13000.00000" pt_clust_8="13000.00000" pt_clust_9="175.04274"></scales>
<clustering>
<clus scale="   81.838">  5  6 -1 -1</clus>
<clus scale="   92.175">  7  8 -1 -1</clus>
<clus scale="  133.711">  1  7  2 -1</clus>
<clus scale="  175.043">  2  9  1 -1</clus>
<clus scale="  175.043">  2  5  1 -1</clus>
</clustering>
</event>
<event>
 9    2  0.1033155E-004  0.9807342E+02  0.7546771E-02  0.1288876E+00
         -1   -1    0    0    0  501 -0.00000000000E+00  0.00000000000E+00  0.49538535356E+02  0.49538535356E+02  0.00000000000E+00 0.  1.
         21   -1    0    0  501  502  0.00000000000E+00 -0.00000000000E+00 -0.33767866396E+03  0.33767866396E+03  0.00000000000E+00 0.  1.
         24    2    1    2    0    0 -0.13558636644E+02 -0.38454346185E+02 -0.10782390128E+03  0.14025110248E+03  0.79886198379E+02 0.  0.
         23    2    1    2    0    0  0.61443261511E+02  0.29421316182E+01 -0.12970737685E+03  0.16876564653E+03  0.88735051220E+02 0.  0.
        -13    1    3    3    0    0 -0.43502156990E+02 -0.40810125284E+02 -0.72491145751E+02  0.93876888534E+02  0.00000000000E+00 0.  1.
         14    1    3    3    0    0  0.29943520346E+02  0.23557790986E+01 -0.35332755525E+02  0.46374213944E+02  0.00000000000E+00 0. -1.
        -11    1    4    4    0    0 -0.21044805594E+02  0.67069037566E+01 -0.46810350400E+02  0.51759784631E+02  0.00000000000E+00 0. -1.
         11    1    4    4    0    0  0.82488067105E+02 -0.37647721384E+01 -0.82897026447E+02  0.11700586189E+03  0.00000000000E+00 0.  1.
         -2    1    1    2    0  502 -0.47884624867E+02  0.35512214567E+02 -0.50608850476E+02  0.78200450309E+02  0.00000000000E+00 0.  1.
<scales pt_clust_5="13000.00000" pt_clust_6="13000.00000" pt_clust_7="13000.00000" pt_clust_8="13000.00000" pt_clust_9="59.61592"></scales>
<clustering>
<clus scale="   59.616">  2  9  1 -1</clus>
<clus scale="   79.886">  5  6 -1 -1</clus>
<clus scale="   88.735">  7  8 -1 -1</clus>
<clus scale="   90.146">  1  5  2 -1</clus>
<clus scale="   59.616">  2  5  1 -1</clus>
</clustering>
</event>
<event>
 9    2  0.1033155E-004  0.1430884E+03  0.7546771E-02  0.1212303E+00
         21   -1    0    0  501  502  0.00000000000E+00  0.00000000000E+00  0.14568085342E+03  0.14568085342E+03  0.00000000000E+00 0. -1.
          2   -1    0    0  502    0 -0.00000000000E+00 -0.00000000000E+00 -0.75195675194E+03  0.75195675194E+03  0.00000000000E+00 0. -1.
         24    2    1    2    0    0 -0.11686214717E+03 -0.26695894661E+02 -0.18830181506E+03  0.23759781494E+03  0.81398500451E+02 0.  0.
         23    2    1    2    0    0  0.21088432388E+02  0.83305105811E+02  0.78924282022E+02  0.15083924756E+03  0.95597979459E+02 0.  0.
        -11    1    3    3    0    0 -0.42136288058E+02 -0.49998332252E+02 -0.70422594764E+02  0.96097043933E+02  0.00000000000E+00 0.  1.
         12    1    3    3    0    0 -0.74725859113E+02  0.23302437591E+02 -0.11787922029E+03  0.14150077100E+03  0.00000000000E+00 0. -1.
        -11    1    4    4    0    0 -0.32185376959E+02  0.56111058829E+02  0.59666056082E+02  0.88002202594E+02  0.00000000000E+00 0. -1.
         11    1    4    4    0    0  0.53273809347E+02  0.27194046982E+02  0.19258225940E+02  0.62837044965E+02  0.00000000000E+00 0.  1.
          1    1    1    2  501    0  0.95773714783E+02 -0.56609211151E+02 -0.49689836549E+03  0.50920054286E+03  0.00000000000E+00 0. -1.
<scales pt_clust_5="13000.00000" pt_clust_6="13000.00000" pt_clust_7="13000.00000" pt_clust_8="13000.00000" pt_clust_9="111.25295"></scales>
<clustering>
<clus scale="   81.399">  5  6 -1 -1</clus>
<clus scale="   95.598">  7  8 -1 -1</clus>
<clus scale="  111.253">  1  9  2 -1</clus>
<clus scale="  134.019">  2  5  1 -1</clus>
<clus scale="  111.253">  1  5  2 -1</clus>
</clustering>
</event>
<event>
 9    2  0.1033155E-004  0.2735051E+03  0.7546771E-02  0.1099820E+00
          4   -1    0    0  502    0 -0.00000000000E+00  0.00000000000E+00  0.13066166218E+04  0.13066166218E+04  0.00000000000E+00 0. -1.
         21   -1    0    0  501  502  0.00000000000E+00 -0.00000000000E+00 -0.10461375540E+03  0.10461375540E+03  0.00000000000E+00 0.  1.
         24    2    1    2    0    0 -0.23625563506E+03 -0.10807098260E+03  0.99095586658E+03  0.10276432477E+04  0.81000324741E+02 0.  0.
         23    2    1    2    0    0  0.20316650416E+03  0.14820781748E+03  0.17075538852E+03  0.31778994082E+03  0.92686882587E+02 0.  0.
        -11    1    3    3    0    0 -0.29676108272E+02 -0.41757513650E+02  0.26722818661E+03  0.27209422094E+03  0.00000000000E+00 0.  1.
         12    1    3    3    0    0 -0.20657952679E+03 -0.66313468946E+02  0.72372767997E+03  0.75554902673E+03  0.00000000000E+00 0. -1.
        -11    1    4    4    0    0  0.12180954763E+03  0.95444699789E+02  0.49381468286E+02  0.16243702171E+03  0.00000000000E+00 0.  1.
         11    1    4    4    0    0  0.81356956536E+02  0.52763117693E+02  0.12137392023E+03  0.15535291912E+03  0.00000000000E+00 0. -1.
          3    1    1    2  501    0  0.33089130897E+02 -0.40136834885E+02  0.40291611281E+02  0.65797188676E+02  0.00000000000E+00 0. -1.
<scales pt_clust_5="13000.00000" pt_clust_6="13000.00000" pt_clust_7="13000.00000" pt_clust_8="13000.00000" pt_clust_9="52.01784"></scales>
<clustering>
<clus scale="   52.018">  2  9  1 -1</clus>
<clus scale="   81.000">  5  6 -1 -1</clus>
<clus scale="   92.687">  7  8 -1 -1</clus>
<clus scale="  269.769">  1  5  2 -1</clus>
<clus scale="   52.018">  2  5  1 -1</clus>
</clustering>
</event>
<event>
 9    2  0.1033155E-004  0.2340597E+03  0.7546771E-02  0.1123815E+00
         21   -1    0    0  501  502  0.00000000000E+00  0.00000000000E+00  0.54814312333E+02  0.54814312333E+02  0.00000000000E+00 0. -1.
          2   -1    0    0  502    0 -0.00000000000E+00 -0.00000000000E+00 -0.66070398048E+03  0.66070398048E+03  0.00000000000E+00 0. -1.
         24    2    1    2    0    0 -0.59139033288E+02  0.51206264160E+02 -0.24623303685E+03  0.27057690807E+03  0.80384376554E+02 0.  0.
         23    2    1    2    0    0 -0.65864905148E+02  0.24055509900E+02 -0.14690525319E+03  0.18696179613E+03  0.91960352923E+02 0.  0.
        -11    1    3    3    0    0 -0.59641066122E+02  0.65545223565E+01 -0.18704906745E+03  0.19643668742E+03  0.00000000000E+00 0.  1.
         12    1    3    3    0    0  0.50203283414E+00  0.44651741803E+02 -0.59183969404E+02  0.74140220646E+02  0.00000000000E+00 0. -1.
        -13    1    4    4    0    0 -0.53179869995E+02 -0.20438886462E+02 -0.37582871013E+02  0.68251877968E+02  0.00000000000E+00 0. -1.
         13    1    4    4    0    0 -0.12685035152E+02  0.44494396362E+02 -0.10932238218E+03  0.11870991816E+03  0.00000000000E+00 0.  1.
          1    1    1    2  501    0  0.12500393844E+03 -0.75261774060E+02 -0.21275137810E+03  0.25797958862E+03  0.00000000000E+00 0. -1.
<scales pt_clust_5="13000.00000" pt_clust_6="13000.00000" pt_clust_7="13000.00000" pt_clust_8="13000.00000" pt_clust_9="145.91203"></scales>
<clustering>
<clus scale="   80.384">  5  6 -1 -1</clus>
<clus scale="   91.960">  7  8 -1 -1</clus>
<clus scale="  107.805">  5  7 -1 -1</clus>
<clus scale="  145.912">  1  9  2 -1</clus>
<clus scale="  145.912">  1  5  2 -1</clus>
</clustering>
</event>
<event>
 9    2  0.1033155E-004  0.1164236E+03  0.7546771E-02  0.1256342E+00
         -3   -1    0    0    0  501 -0.00000000000E+00  0.00000000000E+00  0.12813584091E+03  0.12813584091E+03  0.00000000000E+00 0.  1.
         21   -1    0    0  501  502  0.00000000000E+00 -0.00000000000E+00 -0.18456286633E+03  0.18456286633E+03  0.00000000000E+00 0.  1.
         23    2    1    2    0    0 -0.46539445765E+02 -0.26012866855E+02  0.54488752907E+02  0.11807113921E+03  0.90161967963E+02 0.  0.
         24    2    1    2    0    0  0.22100051170E+02  0.12305484417E+02 -0.38167340830E+02  0.11666917208E+03  0.10730849268E+03 0.  0.
        -13    1    4    4    0    0 -0.30051278926E+01 -0.45991820975E+02 -0.22511429232E+02  0.51293691974E+02  0.00000000000E+00 0.  1.
         14    1    4    4    0    0  0.25105179062E+02  0.58297305392E+02 -0.15655911598E+02  0.65375480111E+02  0.00000000000E+00 0. -1.
        -13    1    3    3    0    0 -0.28536864392E+02 -0.44815290785E+02  0.69915619043E+02  0.87812053293E+02  0.00000000000E+00 0.  1.
         13    1    3    3    0    0 -0.18002581373E+02  0.18802423930E+02 -0.15426866136E+02  0.30259085917E+02  0.00000000000E+00 0. -1.
         -4    1    1    2    0  502  0.24439394595E+02  0.13707382437E+02 -0.72748437496E+02  0.77958395953E+02  0.00000000000E+00 0.  1.
<scales pt_clust_5="13000.00000" pt_clust_6="13000.00000" pt_clust_7="13000.00000" pt_clust_8="13000.00000" pt_clust_9="28.02100"></scales>
<clustering>
<clus scale="   28.021">  2  9  1 -1</clus>
<clus scale="   90.162">  7  8 -1 -1</clus>
<clus scale="  100.839">  1  7  2 -1</clus>
<clus scale="  107.308">  5  6 -1 -1</clus>
<clus scale="   28.021">  2  5  1 -1</clus>
</clustering>
</event>
<event>
 9    2  0.1033155E-004  0.9844562E+02  0.7546771E-02  0.1287211E+00
         21   -1    0    0  501  502  0.00000000000E+00  0.00000000000E+00  0.28693310952E+02  0.28693310952E+02  0.00000000000E+00 0. -1.
          2   -1    0    0  502    0 -0.00000000000E+00 -0.00000000000E+00 -0.86121811256E+03  0.86121811256E+03  0.00000000000E+00 0. -1.
         24    2    1    2    0    0  0.34112678297E+02 -0.28914211945E+02 -0.57585983039E+03  0.58331535968E+03  0.81501890217E+02 0.  0.
         23    2    1    2    0    0 -0.54310400188E+02 -0.23411845390E+02 -0.13060007723E+03  0.16861663876E+03  0.88755037169E+02 0.  0.
        -11    1    3    3    0    0  0.44130815891E+02  0.61769027465E-01 -0.15009795938E+03  0.15645104710E+03  0.00000000000E+00 0.  1.
         12    1    3    3    0    0 -0.10018137594E+02 -0.28975980972E+02 -0.42576187100E+03  0.42686431258E+03  0.00000000000E+00 0. -1.
        -13    1    4    4    0    0 -0.39884801672E+02 -0.91249752019E+01 -0.14027930377E+03  0.14612441836E+03  0.00000000000E+00 0.  1.
         13    1    4    4    0    0 -0.14425598516E+02 -0.14286870188E+02  0.96792265355E+01  0.22492220403E+02  0.00000000000E+00 0. -1.
          1    1    1    2  501    0  0.20197721891E+02  0.52326057335E+02 -0.12606489399E+03  0.13797942507E+03  0.00000000000E+00 0. -1.
<scales pt_clust_5="13000.00000" pt_clust_6="13000.00000" pt_clust_7="13000.00000" pt_clust_8="13000.00000" pt_clust_9="56.08890"></scales>
<clustering>
<clus scale="   56.089">  1  9  2 -1</clus>
<clus scale="   81.502">  5  6 -1 -1</clus>
<clus scale="   88.755">  7  8 -1 -1</clus>
<clus scale="   91.960">  2  5  1 -1</clus>
<clus scale="   56.089">  1  5  2 -1</clus>
</clustering>
</event>
<event>
 9    2  0.1033155E-004  0.9249035E+02  0.7546771E-02  0.1302596E+00
          2   -1    0    0  502    0 -0.00000000000E+00  0.00000000000E+00  0.17313516961E+03  0.17313516961E+03  0.00000000000E+00 0. -1.
         21   -1    0    0  501  502  0.00000000000E+00 -0.00000000000E+00 -0.12783447384E+03  0.12783447384E+03  0.00000000000E+00 0.  1.
         24    2    1    2    0    0  0.24059647166E+02 -0.44057869171E+02  0.47488273314E+02  0.10580954809E+03  0.80128408860E+02 0.  0.
         23    2    1    2    0    0  0.39335076396E+02 -0.22022774052E+02 -0.18846432264E+02  0.10208453560E+03  0.89631543482E+02 0.  0.
        -13    1    3    3    0    0 -0.15424550633E+01  0.22546689280E+02  0.16673540665E+02  0.28084503261E+02  0.00000000000E+00 0.  1.
         14    1    3    3    0    0  0.25602102229E+02 -0.66604558451E+02  0.30814732649E+02  0.77725044826E+02  0.00000000000E+00 0. -1.
        -13    1    4    4    0    0  0.10011721259E+02  0.24618161783E+02  0.21182392006E+02  0.33985028811E+02  0.00000000000E+00 0. -1.
         13    1    4    4    0    0  0.29323355137E+02 -0.46640935835E+02 -0.40028824270E+02  0.68099506786E+02  0.00000000000E+00 0.  1.
          1    1    1    2  501    0 -0.63394723561E+02  0.66080643222E+02  0.16658854717E+02  0.93075559760E+02  0.00000000000E+00 0. -1.
<scales pt_clust_5="13000.00000" pt_clust_6="13000.00000" pt_clust_7="13000.00000" pt_clust_8="13000.00000" pt_clust_9="91.57265"></scales>
<clustering>
<clus scale="   80.128">  5  6 -1 -1</clus>
<clus scale="   89.632">  7  8 -1 -1</clus>
<clus scale="   91.573">  2  9  1 -1</clus>
<clus scale="   83.314">  1  5  2 -1</clus>
<clus scale="   91.573">  2  5  1 -1</clus>
</clustering>
</event>
<event>
 9    2  0.1033155E-004  0.1793626E+03  0.7546771E-02  0.1170300E+00
          2   -1    0    0  502    0 -0.00000000000E+00  0.00000000000E+00  0.24320788080E+03  0.24320788080E+03  0.00000000000E+00 0. -1.
         21   -1    0    0  501  502  0.00000000000E+00 -0.00000000000E+00 -0.14804000029E+03  0.14804000029E+03  0.00000000000E+00 0.  1.
         24    2    1    2    0    0 -0.13297503766E+03 -0.91063298557E+02  0.84755930513E+02  0.19745518839E+03  0.76355082887E+02 0.  0.
         23    2    1    2    0    0  0.12502970848E+03  0.71855146024E+02  0.17087434460E+02  0.17196052670E+03  0.92102401234E+02 0.  0.
        -13    1    3    3    0    0 -0.29938193688E+02  0.61781104337E+01 -0.31359912347E+01  0.30729447292E+02  0.00000000000E+00 0.  1.
         14    1    3    3    0    0 -0.10303684397E+03 -0.97241408990E+02  0.87891921747E+02  0.16672574110E+03  0.00000000000E+00 0. -1.
        -11    1    4    4    0    0  0.10415661149E+03  0.83823765244E+02  0.39154097009E+02  0.13931283734E+03  0.00000000000E+00 0. -1.
         11    1    4    4    0    0  0.20873096987E+02 -0.11968619220E+02 -0.22066662549E+02  0.32647689351E+02  0.00000000000E+00 0.  1.
          1    1    1    2  501    0  0.79453291815E+01  0.19208152533E+02 -0.66754844570E+01  0.21832166000E+02  0.00000000000E+00 0. -1.
<scales pt_clust_5="13000.00000" pt_clust_6="13000.00000" pt_clust_7="13000.00000" pt_clust_8="13000.00000" pt_clust_9="20.78657"></scales>
<clustering>
<clus scale="   20.787">  2  9  1 -1</clus>
<clus scale="   76.355">  5  6 -1 -1</clus>
<clus scale="   92.102">  7  8 -1 -1</clus>
<clus scale="  171.809">  1  5  2 -1</clus>
<clus scale="   20.787">  2  5  1 -1</clus>
</clustering>
</event>
<event>
 9    2  0.1033155E-004  0.1033990E+03  0.7546771E-02  0.1279051E+00
         21   -1    0    0  501  502  0.00000000000E+00  0.00000000000E+00  0.13208968470E+03  0.13208968470E+03  0.00000000000E+00 0.  1.
          2   -1    0    0  502    0 -0.00000000000E+00 -0.00000000000E+00 -0.15206497621E+03  0.15206497621E+03  0.00000000000E+00 0. -1.
         24    2    1    2    0    0 -0.19579259670E+02  0.45778529237E+02 -0.95230424394E+02  0.13366224445E+03  0.79484216748E+02 0.  0.
         23    2    1    2    0    0 -0.87974576534E+01 -0.43143199167E+02  0.58290742662E+02  0.11732656677E+03  0.91809485859E+02 0.  0.
        -13    1    3    3    0    0 -0.19553157569E+02 -0.14900508133E+02 -0.52565971312E+01  0.25139270613E+02  0.00000000000E+00 0.  1.
         14    1    3    3    0    0 -0.26102100900E-01  0.60679037370E+02 -0.89973827263E+02  0.10852297383E+03  0.00000000000E+00 0. -1.
        -11    1    4    4    0    0 -0.61305646694E+01  0.28183253872E+02  0.26583664732E+02  0.39224620490E+02  0.00000000000E+00 0. -1.
         11    1    4    4    0    0 -0.26668929840E+01 -0.71326453039E+02  0.31707077930E+02  0.78101946277E+02  0.00000000000E+00 0.  1.
          1    1    1    2  501    0  0.28376717324E+02 -0.26353300700E+01  0.16964390220E+02  0.33165849698E+02  0.00000000000E+00 0. -1.
<scales pt_clust_5="13000.00000" pt_clust_6="13000.00000" pt_clust_7="13000.00000" pt_clust_8="13000.00000" pt_clust_9="28.49883"></scales>
<clustering>
<clus scale="   28.499">  1  9  2 -1</clus>
<clus scale="   79.484">  5  6 -1 -1</clus>
<clus scale="   91.809">  7  8 -1 -1</clus>
<clus scale="   92.629">  2  5  1 -1</clus>
<clus scale="   28.499">  1  5  2 -1</clus>
</clustering>
</event>
<event>
 9    2  0.1033155E-004  0.3458609E+03  0.7546771E-02  0.1091292E+00
         21   -1    0    0  501  502  0.00000000000E+00  0.00000000000E+00  0.15095568797E+03  0.15095568797E+03  0.00000000000E+00 0. -1.
          2   -1    0    0  502    0 -0.00000000000E+00 -0.00000000000E+00 -0.14649764419E+04  0.14649764419E+04  0.00000000000E+00 0. -1.
         24    2    1    2    0    0  0.12759744386E+03  0.45672382827E+02 -0.59336157684E+03  0.61634857183E+03  0.97162373874E+02 0.  0.
         23    2    1    2    0    0  0.79211472518E+00  0.30358861363E+03 -0.38116510399E+03  0.49587397103E+03  0.91855783008E+02 0.  0.
        -13    1    3    3    0    0  0.49275289411E+02 -0.30128209358E+02 -0.20760796324E+03  0.21549206377E+03  0.00000000000E+00 0.  1.
         14    1    3    3    0    0  0.78322154444E+02  0.75800592185E+02 -0.38575361360E+03  0.40085650806E+03  0.00000000000E+00 0. -1.
        -11    1    4    4    0    0 -0.39759168204E+02  0.19331916503E+03 -0.26723566235E+03  0.33221678202E+03  0.00000000000E+00 0.  1.
         11    1    4    4    0    0  0.40551282929E+02  0.11026944860E+03 -0.11392944164E+03  0.16365718901E+03  0.00000000000E+00 0. -1.
          1    1    1    2  501    0 -0.12838955858E+03 -0.34926099645E+03 -0.33949407313E+03  0.50370958705E+03  0.00000000000E+00 0. -1.
<scales pt_clust_5="13000.00000" pt_clust_6="13000.00000" pt_clust_7="13000.00000" pt_clust_8="13000.00000" pt_clust_9="333.44002"></scales>
<clustering>
<clus scale="   91.856">  7  8 -1 -1</clus>
<clus scale="   97.162">  5  6 -1 -1</clus>
<clus scale="  166.756">  2  5  1 -1</clus>
<clus scale="  333.440">  1  9  2 -1</clus>
<clus scale="  333.440">  1  5  2 -1</clus>
</clustering>
</event>
<event>
 9    2  0.1033155E-004  0.1324677E+03  0.7546771E-02  0.1227433E+00
          2   -1    0    0  502    0 -0.00000000000E+00  0.00000000000E+00  0.11340901536E+04  0.11340901536E+04  0.00000000000E+00 0. -1.
         21   -1    0    0  501  502  0.00000000000E+00 -0.00000000000E+00 -0.22068092378E+03  0.22068092378E+03  0.00000000000E+00 0.  1.
         24    2    1    2    0    0  0.83124435503E+02 -0.13449276372E+02  0.10868756303E+04  0.10950579038E+04  0.10374305877E+03 0.  0.
         23    2    1    2    0    0 -0.49899443652E+02 -0.39125182990E+02 -0.50792290022E+02  0.12217441088E+03  0.91246893243E+02 0.  0.
        -11    1    3    3    0    0  0.29776681366E+02  0.33358442117E+02  0.18235558963E+03  0.18775781604E+03  0.00000000000E+00 0.  1.
         12    1    3    3    0    0  0.53347754137E+02 -0.46807718489E+02  0.90452004063E+03  0.90730008778E+03  0.00000000000E+00 0. -1.
        -11    1    4    4    0    0 -0.23371150991E+01  0.28210773151E+02 -0.17407336169E+02  0.33231388494E+02  0.00000000000E+00 0. -1.
         11    1    4    4    0    0 -0.47562328553E+02 -0.67335956140E+02 -0.33384953853E+02  0.88943022382E+02  0.00000000000E+00 0.  1.
          1    1    1    2  501    0 -0.33224991851E+02  0.52574459362E+02 -0.12267411045E+03  0.13753876266E+03  0.00000000000E+00 0. -1.
<scales pt_clust_5="13000.00000" pt_clust_6="13000.00000" pt_clust_7="13000.00000" pt_clust_8="13000.00000" pt_clust_9="62.19304"></scales>
<clustering>
<clus scale="   62.193">  2  9  1 -1</clus>
<clus scale="   91.247">  7  8 -1 -1</clus>
<clus scale="  103.743">  5  6 -1 -1</clus>
<clus scale="  122.927">  2  7  1 -1</clus>
<clus scale="   62.193">  2  5  1 -1</clus>
</clustering>
</event>
<event>
 9    2  0.1033155E-004  0.1200322E+03  0.7546771E-02  0.1246668E+00
          2   -1    0    0  502    0 -0.00000000000E+00  0.00000000000E+00  0.77561190323E+03  0.77561190323E+03  0.00000000000E+00 0. -1.
         21   -1    0    0  501  502  0.00000000000E+00 -0.00000000000E+00 -0.26921458367E+02  0.26921458367E+02  0.00000000000E+00 0.  1.
         24    2    1    2    0    0 -0.28001253598E+02  0.71241822951E+02  0.46507200115E+03  0.47820029807E+03  0.80771847084E+02 0.  0.
         23    2    1    2    0    0  0.52814550149E+02 -0.61283530949E+02  0.26431150352E+03  0.29135390033E+03  0.92094931843E+02 0.  0.
        -13    1    3    3    0    0  0.15209894023E+02  0.56317657597E+02  0.34142497474E+03  0.34637267907E+03  0.00000000000E+00 0.  1.
         14    1    3    3    0    0 -0.43211147621E+02  0.14924165354E+02  0.12364702641E+03  0.13182761900E+03  0.00000000000E+00 0. -1.
        -11    1    4    4    0    0  0.31500286843E+02 -0.60168756656E+02  0.26107786880E+03  0.26976693817E+03  0.00000000000E+00 0. -1.
         11    1    4    4    0    0  0.21314263306E+02 -0.11147742925E+01  0.32336347179E+01  0.21586962164E+02  0.00000000000E+00 0.  1.
          1    1    1    2  501    0 -0.24813296551E+02 -0.99582920026E+01  0.19306940184E+02  0.32979163188E+02  0.00000000000E+00 0. -1.
<scales pt_clust_5="13000.00000" pt_clust_6="13000.00000" pt_clust_7="13000.00000" pt_clust_8="13000.00000" pt_clust_9="26.73700"></scales>
<clustering>
<clus scale="   26.737">  2  9  1 -1</clus>
<clus scale="   80.772">  5  6 -1 -1</clus>
<clus scale="   92.095">  7  8 -1 -1</clus>
<clus scale="  111.581">  1  5  2 -1</clus>
<clus scale="   26.737">  2  5  1 -1</clus>
</clustering>
</event>
<event>
 9    2  0.1033155E-004  0.2373902E+03  0.7546771E-02  0.1161574E+00
          2   -1    0    0  502    0 -0.00000000000E+00  0.00000000000E+00  0.28254439336E+03  0.28254439336E+03  0.00000000000E+00 0. -1.
         21   -1    0    0  501  502  0.00000000000E+00 -0.00000000000E+00 -0.14671296889E+04  0.14671296889E+04  0.00000000000E+00 0.  1.
         24    2    1    2    0    0  0.40879931730E+02 -0.21782599883E+02 -0.11467233821E+03  0.14614758907E+03  0.77869905380E+02 0.  0.
         23    2    1    2    0    0 -0.20119210523E+03  0.87258155623E+02 -0.12964871510E+04  0.13183547789E+04  0.95331743978E+02 0.  0.
        -11    1    3    3    0    0  0.62395507423E+02 -0.22997846925E+02 -0.70011216040E+02  0.96559156381E+02  0.00000000000E+00 0.  1.
         12    1    3    3    0    0 -0.21515575693E+02  0.12152470422E+01 -0.44661122174E+02  0.49588432689E+02  0.00000000000E+00 0. -1.
        -11    1    4    4    0    0 -0.16126997613E+03  0.10804166277E+03 -0.10530150064E+04  0.10707574935E+04  0.00000000000E+00 0.  1.
         11    1    4    4    0    0 -0.39922129103E+02 -0.20783507150E+02 -0.24347214462E+03  0.24759728546E+03  0.00000000000E+00 0. -1.
          1    1    1    2  501    0  0.16031217350E+03 -0.65475555740E+02  0.22657419369E+03  0.28517171427E+03  0.00000000000E+00 0. -1.
<scales pt_clust_5="13000.00000" pt_clust_6="13000.00000" pt_clust_7="13000.00000" pt_clust_8="13000.00000" pt_clust_9="217.40748"></scales>
<clustering>
<clus scale="   77.870">  5  6 -1 -1</clus>
<clus scale="   90.606">  1  5  2 -1</clus>
<clus scale="   95.332">  7  8 -1 -1</clus>
<clus scale="  217.407">  2  9  1 -1</clus>
<clus scale="  217.407">  2  5  1 -1</clus>
</clustering>
</event>
<event>
 9    2  0.1033155E-004  0.1236690E+03  0.7546771E-02  0.1251579E+00
          2   -1    0    0  502    0 -0.00000000000E+00  0.00000000000E+00  0.76180815451E+03  0.76180815451E+03  0.00000000000E+00 0. -1.
         21   -1    0    0  501  502  0.00000000000E+00 -0.00000000000E+00 -0.38741372659E+02  0.38741372659E+02  0.00000000000E+00 0.  1.
         23    2    1    2    0    0 -0.18036633453E+02  0.11404597429E+02  0.18084918108E+03  0.20312121325E+03  0.89980086616E+02 0.  0.
         24    2    1    2    0    0 -0.79830888041E+02 -0.54599387576E+01  0.44566728458E+03  0.45982252084E+03  0.80091450944E+02 0.  0.
        -11    1    4    4    0    0 -0.89108704421E+02 -0.21562551005E+02  0.40277102899E+03  0.41307360918E+03  0.00000000000E+00 0.  1.
         12    1    4    4    0    0  0.92778163800E+01  0.16102612247E+02  0.42896255592E+02  0.46748911664E+02  0.00000000000E+00 0. -1.
        -11    1    3    3    0    0  0.35219059176E+02 -0.66488026319E+01  0.79802254275E+02  0.87481360832E+02  0.00000000000E+00 0. -1.
         11    1    3    3    0    0 -0.53255692630E+02  0.18053400061E+02  0.10104692680E+03  0.11563985242E+03  0.00000000000E+00 0.  1.
          1    1    1    2  501    0  0.97867521495E+02 -0.59446586718E+01  0.96550316195E+02  0.13760579307E+03  0.00000000000E+00 0. -1.
<scales pt_clust_5="13000.00000" pt_clust_6="13000.00000" pt_clust_7="13000.00000" pt_clust_8="13000.00000" pt_clust_9="94.23049"></scales>
<clustering>
<clus scale="   80.091">  5  6 -1 -1</clus>
<clus scale="   89.980">  7  8 -1 -1</clus>
<clus scale="   92.476">  1  7  2 -1</clus>
<clus scale="   94.230">  2  9  1 -1</clus>
<clus scale="   94.230">  2  5  1 -1</clus>
</clustering>
</event>
<event>
 9    2  0.1033155E-004  0.1042090E+03  0.7546771E-02  0.1275191E+00
          2   -1    0    0  502    0 -0.00000000000E+00  0.00000000000E+00  0.70567644826E+03  0.70567644826E+03  0.00000000000E+00 0. -1.
         21   -1    0    0  501  502  0.00000000000E+00 -0.00000000000E+00 -0.98805516684E+02  0.98805516684E+02  0.00000000000E+00 0. -1.
         24    2    1    2    0    0  0.32257283464E+02  0.42231506366E+02  0.63085084705E+03  0.63840581151E+03  0.82250571313E+02 0.  0.
         23    2    1    2    0    0 -0.11247391368E+02 -0.45019551840E+02  0.31886711657E+02  0.10632442718E+03  0.90193445293E+02 0.  0.
        -11    1    3    3    0    0 -0.24952277058E+02  0.16517322702E+02  0.11806384303E+03  0.12179699960E+03  0.00000000000E+00 0.  1.
         12    1    3    3    0    0  0.57209560521E+02  0.25714183664E+02  0.51278700402E+03  0.51660881192E+03  0.00000000000E+00 0. -1.
        -11    1    4    4    0    0 -0.41484611296E+02 -0.78216494142E+01  0.39467774438E+02  0.57791490663E+02  0.00000000000E+00 0.  1.
         11    1    4    4    0    0  0.30237219928E+02 -0.37197902426E+02 -0.75810627804E+01  0.48532936515E+02  0.00000000000E+00 0. -1.
          1    1    1    2  501    0 -0.21009892096E+02  0.27880454745E+01 -0.55866627131E+02  0.59751726255E+02  0.00000000000E+00 0. -1.
<scales pt_clust_5="13000.00000" pt_clust_6="13000.00000" pt_clust_7="13000.00000" pt_clust_8="13000.00000" pt_clust_9="21.19407"></scales>
<clustering>
<clus scale="   21.194">  2  9  1 -1</clus>
<clus scale="   82.251">  5  6 -1 -1</clus>
<clus scale="   90.193">  7  8 -1 -1</clus>
<clus scale="   97.416">  1  5  2 -1</clus>
<clus scale="   21.194">  2  5  1 -1</clus>
</clustering>
</event>
<event>
 9    2  0.1033155E-004  0.1799735E+03  0.7546771E-02  0.1169170E+00
         21   -1    0    0  501  502  0.00000000000E+00  0.00000000000E+00  0.73344159161E+03  0.73344159161E+03  0.00000000000E+00 0. -1.
         -1   -1    0    0    0  501 -0.00000000000E+00 -0.00000000000E+00 -0.70564586523E+02  0.70564586523E+02  0.00000000000E+00 0.  1.
         23    2    1    2    0    0 -0.15882280592E+03 -0.11593659872E+02  0.10776785139E+03  0.21246429728E+03  0.90377382113E+02 0.  0.
         24    2    1    2    0    0  0.14538495676E+03 -0.20607859811E+02  0.49126219417E+03  0.51878235983E+03  0.78962800763E+02 0.  0.
        -11    1    4    4    0    0  0.97879478897E+02  0.19628782115E+02  0.24024417021E+03  0.26015945648E+03  0.00000000000E+00 0.  1.
         12    1    4    4    0    0  0.47505477866E+02 -0.40236641925E+02  0.25101802396E+03  0.25862290334E+03  0.00000000000E+00 0. -1.
        -13    1    3    3    0    0 -0.13228259199E+03 -0.37025561717E+02  0.10949353439E+03  0.17566562111E+03  0.00000000000E+00 0.  1.
         13    1    3    3    0    0 -0.26540213923E+02  0.25431901845E+02 -0.17256829995E+01  0.36798676176E+02  0.00000000000E+00 0. -1.
         -2    1    1    2    0  502  0.13437849152E+02  0.32201519682E+02  0.63846959523E+02  0.72759521026E+02  0.00000000000E+00 0.  1.
<scales pt_clust_5="13000.00000" pt_clust_6="13000.00000" pt_clust_7="13000.00000" pt_clust_8="13000.00000" pt_clust_9="34.89289"></scales>
<clustering>
<clus scale="   34.893">  1  9  2 -1</clus>
<clus scale="   78.963">  5  6 -1 -1</clus>
<clus scale="   90.377">  7  8 -1 -1</clus>
<clus scale="  174.521">  1  5  2 -1</clus>
<clus scale="   34.893">  1  5  2 -1</clus>
</clustering>
</event>
<event>
 9    2  0.1033155E-004  0.1564162E+03  0.7546771E-02  0.1218356E+00
         21   -1    0    0  501  502  0.00000000000E+00  0.00000000000E+00  0.35826092555E+03  0.35826092555E+03  0.00000000000E+00 0. -1.
          2   -1    0    0  502    0 -0.00000000000E+00 -0.00000000000E+00 -0.96162533244E+02  0.96162533244E+02  0.00000000000E+00 0. -1.
         24    2    1    2    0    0  0.33311135365E+02  0.16879367423E+02  0.44438476151E+02  0.10060858891E+03  0.82175210469E+02 0.  0.
         23    2    1    2    0    0 -0.14578791990E+02 -0.12773174198E+03  0.15265541178E+03  0.22395057447E+03  0.10159845460E+03 0.  0.
        -11    1    3    3    0    0 -0.24394177935E+02 -0.84881160498E+01  0.21239520527E+02  0.33440114585E+02  0.00000000000E+00 0.  1.
         12    1    3    3    0    0  0.57705313301E+02  0.25367483473E+02  0.23198955624E+02  0.67168474323E+02  0.00000000000E+00 0. -1.
        -13    1    4    4    0    0 -0.10700313616E+01 -0.11249967659E+03  0.16532262979E+03  0.19997223337E+03  0.00000000000E+00 0. -1.
         13    1    4    4    0    0 -0.13508760628E+02 -0.15232065391E+02 -0.12667218012E+02  0.23978341101E+02  0.00000000000E+00 0.  1.
          1    1    1    2  501    0 -0.18732343376E+02  0.11085237456E+03  0.65004504373E+02  0.12986429541E+03  0.00000000000E+00 0. -1.
<scales pt_clust_5="13000.00000" pt_clust_6="13000.00000" pt_clust_7="13000.00000" pt_clust_8="13000.00000" pt_clust_9="118.92771"></scales>
<clustering>
<clus scale="   82.175">  5  6 -1 -1</clus>
<clus scale="   90.262">  2  5  1 -1</clus>
<clus scale="  101.598">  7  8 -1 -1</clus>
<clus scale="  118.928">  1  9  2 -1</clus>
<clus scale="  118.928">  1  5  2 -1</clus>
</clustering>
</event>
<event>
 9    2  0.1033155E-004  0.2175090E+03  0.7546771E-02  0.1142601E+00
          2   -1    0    0  502    0 -0.00000000000E+00  0.00000000000E+00  0.23379558816E+04  0.23379558816E+04  0.00000000000E+00 0. -1.
         21   -1    0    0  501  502  0.00000000000E+00 -0.00000000000E+00 -0.57744099315E+02  0.57744099315E+02  0.00000000000E+00 0.  1.
         24    2    1    2    0    0  0.49675354073E+02  0.15786889677E+03  0.51076968948E+03  0.54302039097E+03  0.81211082617E+02 0.  0.
         23    2    1    2    0    0  0.81371746241E+02 -0.29321225088E+03  0.14373461446E+04  0.14708695785E+04  0.69989945732E+02 0.  0.
        -11    1    3    3    0    0 -0.22560875997E+02  0.40162766357E+02  0.11757023600E+03  0.12627272596E+03  0.00000000000E+00 0.  1.
         12    1    3    3    0    0  0.72236230070E+02  0.11770613041E+03  0.39319945348E+03  0.41674766501E+03  0.00000000000E+00 0. -1.
        -11    1    4    4    0    0  0.82961588902E+02 -0.21785662084E+03  0.11754448946E+04  0.11983383632E+04  0.00000000000E+00 0.  1.
         11    1    4    4    0    0 -0.15898426613E+01 -0.75355630042E+02  0.26190124997E+03  0.27253121531E+03  0.00000000000E+00 0. -1.
          1    1    1    2  501    0 -0.13104710031E+03  0.13534335412E+03  0.33209594819E+03  0.38181001141E+03  0.00000000000E+00 0. -1.
<scales pt_clust_5="13000.00000" pt_clust_6="13000.00000" pt_clust_7="13000.00000" pt_clust_8="13000.00000" pt_clust_9="205.94073"></scales>
<clustering>
<clus scale="   69.990">  7  8 -1 -1</clus>
<clus scale="   81.211">  5  6 -1 -1</clus>
<clus scale="  184.352">  1  5  2 -1</clus>
<clus scale="  205.941">  2  9  1 -1</clus>
<clus scale="  205.941">  2  5  1 -1</clus>
</clustering>
</event>
<event>
 9    2  0.1033155E-004  0.1147244E+03  0.7546771E-02  0.1252637E+00
         21   -1    0    0  501  502  0.00000000000E+00  0.00000000000E+00  0.48893704616E+02  0.48893704616E+02  0.00000000000E+00 0.  1.
          2   -1    0    0  502    0 -0.00000000000E+00 -0.00000000000E+00 -0.38648001583E+03  0.38648001583E+03  0.00000000000E+00 0. -1.
         24    2    1    2    0    0  0.71143708878E+02 -0.36138560622E+02 -0.23078959052E+03  0.26038245220E+03  0.90375679488E+02 0.  0.
         23    2    1    2    0    0 -0.41601623654E+02  0.21798746524E+02 -0.65855601656E+02  0.12250755367E+03  0.92006847552E+02 0.  0.
        -11    1    3    3    0    0  0.17444859729E+02  0.28782200794E+02 -0.43373146119E+02  0.54899617647E+02  0.00000000000E+00 0.  1.
         12    1    3    3    0    0  0.53698849149E+02 -0.64920761416E+02 -0.18741644440E+03  0.20548283455E+03  0.00000000000E+00 0. -1.
        -11    1    4    4    0    0 -0.55274091894E+02 -0.17833261868E+02 -0.53076952379E+02  0.78679179822E+02  0.00000000000E+00 0.  1.
         11    1    4    4    0    0  0.13672468240E+02  0.39632008392E+02 -0.12778649276E+02  0.43828373850E+02  0.00000000000E+00 0. -1.
          1    1    1    2  501    0 -0.29542085224E+02  0.14339814098E+02 -0.40941119039E+02  0.52483714578E+02  0.00000000000E+00 0. -1.
<scales pt_clust_5="13000.00000" pt_clust_6="13000.00000" pt_clust_7="13000.00000" pt_clust_8="13000.00000" pt_clust_9="32.83849"></scales>
<clustering>
<clus scale="   32.838">  1  9  2 -1</clus>
<clus scale="   90.376">  5  6 -1 -1</clus>
<clus scale="   92.007">  7  8 -1 -1</clus>
<clus scale="  113.420">  2  5  1 -1</clus>
<clus scale="   32.838">  1  5  2 -1</clus>
</clustering>
</event>
<event>
 9    2  0.1033155E-004  0.1282242E+03  0.7546771E-02  0.1233464E+00
          2   -1    0    0  502    0 -0.00000000000E+00  0.00000000000E+00  0.69176043845E+03  0.69176043845E+03  0.00000000000E+00 0. -1.
         21   -1    0    0  501  502  0.00000000000E+00 -0.00000000000E+00 -0.68749796434E+02  0.68749796434E+02  0.00000000000E+00 0. -1.
         24    2    1    2    0    0  0.34531435122E+02 -0.84316501023E+02  0.58370857663E+03  0.59627289098E+03  0.80771069884E+02 0.  0.
         23    2    1    2    0    0 -0.44875818922E+02  0.50304629712E+02  0.51609474709E+01  0.11494809965E+03  0.92962548055E+02 0.  0.
        -11    1    3    3    0    0 -0.25405495422E+02 -0.39057362619E+02  0.21428806799E+03  0.21929499049E+03  0.00000000000E+00 0.  1.
         12    1    3    3    0    0  0.59936930544E+02 -0.45259138404E+02  0.36942050864E+03  0.37697790049E+03  0.00000000000E+00 0. -1.
        -11    1    4    4    0    0 -0.15971813304E+02  0.23345452783E+02  0.48591281753E+02  0.56224742314E+02  0.00000000000E+00 0.  1.
         11    1    4    4    0    0 -0.28904005617E+02  0.26959176929E+02 -0.43430334282E+02  0.58723357340E+02  0.00000000000E+00 0. -1.
          1    1    1    2  501    0  0.10344383800E+02  0.34011871311E+02  0.34141117916E+02  0.49289244251E+02  0.00000000000E+00 0. -1.
<scales pt_clust_5="13000.00000" pt_clust_6="13000.00000" pt_clust_7="13000.00000" pt_clust_8="13000.00000" pt_clust_9="35.55016"></scales>
<clustering>
<clus scale="   35.550">  2  9  1 -1</clus>
<clus scale="   80.771">  5  6 -1 -1</clus>
<clus scale="   92.963">  7  8 -1 -1</clus>
<clus scale="  119.680">  1  5  2 -1</clus>
<clus scale="   35.550">  2  5  1 -1</clus>
</clustering>
</event>
<event>
 9    2  0.1033155E-004  0.9514285E+02  0.7546771E-02  0.1291016E+00
         -1   -1    0    0    0  501 -0.00000000000E+00  0.00000000000E+00  0.67813762780E+03  0.67813762780E+03  0.00000000000E+00 0.  1.
         21   -1    0    0  501  502  0.00000000000E+00 -0.00000000000E+00 -0.44664170105E+02  0.44664170105E+02  0.00000000000E+00 0.  1.
         23    2    1    2    0    0 -0.51273566295E+02  0.12122499457E+02  0.92775288515E+02  0.13357241177E+03  0.80364180037E+02 0.  0.
         24    2    1    2    0    0  0.34994994696E+02  0.64496416822E+02  0.12362595830E+03  0.16486553363E+03  0.80702101438E+02 0.  0.
        -11    1    4    4    0    0  0.49625191592E+02  0.34268517132E+02  0.11552667748E+03  0.13032039025E+03  0.00000000000E+00 0.  1.
         12    1    4    4    0    0 -0.14630196896E+02  0.30227899690E+02  0.80992808205E+01  0.34545143374E+02  0.00000000000E+00 0. -1.
        -13    1    3    3    0    0 -0.17596868862E+02 -0.33993231404E+02  0.29396619562E+02  0.48263348586E+02  0.00000000000E+00 0. -1.
         13    1    3    3    0    0 -0.33676697433E+02  0.46115730862E+02  0.63378668953E+02  0.85309063183E+02  0.00000000000E+00 0.  1.
         -2    1    1    2    0  502  0.16278571599E+02 -0.76618916279E+02  0.41707221089E+03  0.42436385251E+03  0.00000000000E+00 0.  1.
<scales pt_clust_5="13000.00000" pt_clust_6="13000.00000" pt_clust_7="13000.00000" pt_clust_8="13000.00000" pt_clust_9="78.32915"></scales>
<clustering>
<clus scale="   78.329">  2  9  1 -1</clus>
<clus scale="   80.364">  7  8 -1 -1</clus>
<clus scale="   80.702">  5  6 -1 -1</clus>
<clus scale="   94.856">  1  7  2 -1</clus>
<clus scale="   78.329">  2  5  1 -1</clus>
</clustering>
</event>
<event>
 9    2  0.1033155E-004  0.1372828E+03  0.7546771E-02  0.1237277E+00
          2   -1    0    0  502    0 -0.00000000000E+00  0.00000000000E+00  0.14647417127E+04  0.14647417127E+04  0.00000000000E+00 0. -1.
         21   -1    0    0  501  502  0.00000000000E+00 -0.00000000000E+00 -0.45054738848E+02  0.45054738848E+02  0.00000000000E+00 0. -1.
         23    2    1    2    0    0 -0.11464779856E+02  0.45001943270E+00  0.16522803365E+03  0.18824395093E+03  0.89464173079E+02 0.  0.
         24    2    1    2    0    0  0.25219582922E+02 -0.11424336803E+03  0.11722976183E+04  0.11805255400E+04  0.75307837048E+02 0.  0.
        -11    1    4    4    0    0  0.21440349466E+02 -0.18714147225E+01  0.96633207548E+02  0.99000846356E+02  0.00000000000E+00 0.  1.
         12    1    4    4    0    0  0.37792334561E+01 -0.11237195331E+03  0.10756644108E+04  0.10815246937E+04  0.00000000000E+00 0. -1.
        -13    1    3    3    0    0  0.14397314308E+02  0.31161008410E+02  0.13119316303E+03  0.13560950236E+03  0.00000000000E+00 0. -1.
         13    1    3    3    0    0 -0.25862094165E+02 -0.30710988978E+02  0.34034870618E+02  0.52634448573E+02  0.00000000000E+00 0.  1.
          1    1    1    2  501    0 -0.13754803066E+02  0.11379334860E+03  0.82161321917E+02  0.14102696059E+03  0.00000000000E+00 0. -1.
<scales pt_clust_5="13000.00000" pt_clust_6="13000.00000" pt_clust_7="13000.00000" pt_clust_8="13000.00000" pt_clust_9="114.78375"></scales>
<clustering>
<clus scale="   75.308">  5  6 -1 -1</clus>
<clus scale="   89.464">  7  8 -1 -1</clus>
<clus scale="   90.197">  1  7  2 -1</clus>
<clus scale="  114.784">  2  9  1 -1</clus>
<clus scale="  114.784">  2  5  1 -1</clus>
</clustering>
</event>
<event>
 9    2  0.1033155E-004  0.9504178E+02  0.7546771E-02  0.1294306E+00
          2   -1    0    0  502    0 -0.00000000000E+00  0.00000000000E+00  0.29647278680E+03  0.29647278680E+03  0.00000000000E+00 0. -1.
         21   -1    0    0  501  502  0.00000000000E+00 -0.00000000000E+00 -0.13219491153E+03  0.13219491153E+03  0.00000000000E+00 0.  1.
         24    2    1    2    0    0 -0.16555222592E+02  0.29439218771E+02  0.24848637071E+03  0.26397142830E+03  0.82429943188E+02 0.  0.
         23    2    1    2    0    0  0.12323718774E+02 -0.51556587304E+02 -0.94578579786E+02  0.13990469354E+03  0.88420923895E+02 0.  0.
        -13    1    3    3    0    0 -0.21027523795E+02 -0.20831301541E+02  0.41839296780E+02  0.51250625712E+02  0.00000000000E+00 0.  1.
         14    1    3    3    0    0  0.44723012025E+01  0.50270520312E+02  0.20664707393E+03  0.21272080259E+03  0.00000000000E+00 0. -1.
        -13    1    4    4    0    0  0.47026666063E+02 -0.47434726509E+02 -0.72443865569E+02  0.98537679385E+02  0.00000000000E+00 0.  1.
         13    1    4    4    0    0 -0.34702947289E+02 -0.41218607948E+01 -0.22134714217E+02  0.41367014159E+02  0.00000000000E+00 0. -1.
          1    1    1    2  501    0  0.42315038184E+01  0.22117368533E+02  0.10370084349E+02  0.24791576489E+02  0.00000000000E+00 0. -1.
<scales pt_clust_5="13000.00000" pt_clust_6="13000.00000" pt_clust_7="13000.00000" pt_clust_8="13000.00000" pt_clust_9="22.51853"></scales>
<clustering>
<clus scale="   22.519">  2  9  1 -1</clus>
<clus scale="   82.430">  5  6 -1 -1</clus>
<clus scale="   88.421">  7  8 -1 -1</clus>
<clus scale="   89.495">  1  5  2 -1</clus>
<clus scale="   22.519">  2  5  1 -1</clus>
</clustering>
</event>
<event>
 9    2  0.1033155E-004  0.1303691E+03  0.7546771E-02  0.1230325E+00
         21   -1    0    0  501  502  0.00000000000E+00  0.00000000000E+00  0.34443530691E+03  0.34443530691E+03  0.00000000000E+00 0. -1.
          2   -1    0    0  502    0 -0.00000000000E+00 -0.00000000000E+00 -0.52891873724E+03  0.52891873724E+03  0.00000000000E+00 0. -1.
         24    2    1    2    0    0  0.35332607676E+02  0.85353565894E+02 -0.46611768766E+03  0.48161715039E+03  0.78458628715E+02 0.  0.
         23    2    1    2    0    0  0.80033818616E+01 -0.10737334263E+03  0.42387240226E+02  0.14760165717E+03  0.91632320909E+02 0.  0.
        -11    1    3    3    0    0 -0.11055007861E+01  0.58869942433E+02 -0.13277891151E+03  0.14524851667E+03  0.00000000000E+00 0.  1.
         12    1    3    3    0    0  0.36438108462E+02  0.26483623461E+02 -0.33333877616E+03  0.33636863372E+03  0.00000000000E+00 0. -1.
        -13    1    4    4    0    0 -0.19809889165E+02 -0.37168125054E+02 -0.22755976419E+02  0.47872076323E+02  0.00000000000E+00 0. -1.
         13    1    4    4    0    0  0.27813271026E+02 -0.70205217579E+02  0.65143216645E+02  0.99729580844E+02  0.00000000000E+00 0.  1.
          1    1    1    2  501    0 -0.43335989537E+02  0.22019776739E+02  0.23924701711E+03  0.24413523660E+03  0.00000000000E+00 0. -1.
<scales pt_clust_5="13000.00000" pt_clust_6="13000.00000" pt_clust_7="13000.00000" pt_clust_8="13000.00000" pt_clust_9="48.60945"></scales>
<clustering>
<clus scale="   48.609">  1  9  2 -1</clus>
<clus scale="   78.459">  5  6 -1 -1</clus>
<clus scale="   91.632">  7  8 -1 -1</clus>
<clus scale="  121.472">  2  5  1 -1</clus>
<clus scale="   48.609">  1  5  2 -1</clus>
</clustering>
</event>
<event>
 9    2  0.1033155E-004  0.1580145E+03  0.7546771E-02  0.1192984E+00
         21   -1    0    0  501  502  0.00000000000E+00  0.00000000000E+00  0.37382567437E+03  0.37382567437E+03  0.00000000000E+00 0. -1.
         -3   -1    0    0    0  501 -0.00000000000E+00 -0.00000000000E+00 -0.32525316983E+03  0.32525316983E+03  0.00000000000E+00 0.  1.
         24    2    1    2    0    0 -0.25426497956E+02 -0.12702472523E+03 -0.25598000379E+03  0.29770860288E+03  0.79516427659E+02 0.  0.
         23    2    1    2    0    0 -0.41662335320E+02  0.12243393347E+03  0.29289809097E+03  0.33312207385E+03  0.91952194894E+02 0.  0.
        -13    1    3    3    0    0 -0.35826714564E+02 -0.54892623866E+02 -0.60953338483E+02  0.89510128497E+02  0.00000000000E+00 0.  1.
         14    1    3    3    0    0  0.10400216608E+02 -0.72132101367E+02 -0.19502666531E+03  0.20819847438E+03  0.00000000000E+00 0. -1.
        -13    1    4    4    0    0 -0.63442338522E+02  0.80319409042E+02  0.24595224403E+03  0.26639940715E+03  0.00000000000E+00 0. -1.
         13    1    4    4    0    0  0.21780003202E+02  0.42114524430E+02  0.46945846940E+02  0.66722666706E+02  0.00000000000E+00 0.  1.
         -4    1    1    2    0  502  0.67088833275E+02  0.45907917601E+01  0.11654417365E+02  0.68248167473E+02  0.00000000000E+00 0.  1.
<scales pt_clust_5="13000.00000" pt_clust_6="13000.00000" pt_clust_7="13000.00000" pt_clust_8="13000.00000" pt_clust_9="67.24572"></scales>
<clustering>
<clus scale="   67.246">  1  9  2 -1</clus>
<clus scale="   79.516">  5  6 -1 -1</clus>
<clus scale="   91.952">  7  8 -1 -1</clus>
<clus scale="  151.117">  2  5  1 -1</clus>
<clus scale="   67.246">  1  5  2 -1</clus>
</clustering>
</event>
<event>
 9    2  0.1033155E-004  0.1026387E+03  0.7546771E-02  0.1280019E+00
         21   -1    0    0  501  502  0.00000000000E+00  0.00000000000E+00  0.12946864850E+03  0.12946864850E+03  0.00000000000E+00 0.  1.
          2   -1    0    0  502    0 -0.00000000000E+00 -0.00000000000E+00 -0.13471353083E+03  0.13471353083E+03  0.00000000000E+00 0. -1.
         23    2    1    2    0    0  0.54813220309E+02  0.36839178926E+02 -0.27760257280E+02  0.11697078222E+03  0.92465765468E+02 0.  0.
         24    2    1    2    0    0 -0.99603293128E+01 -0.84940964606E+01  0.39363006019E+02  0.91542121901E+02  0.81603651907E+02 0.  0.
        -11    1    4    4    0    0  0.35435819334E+02 -0.98548265652E+00  0.24860020466E+02  0.43297679909E+02  0.00000000000E+00 0.  1.
         12    1    4    4    0    0 -0.45396148647E+02 -0.75086138041E+01  0.14502985553E+02  0.48244441992E+02  0.00000000000E+00 0. -1.
        -11    1    3    3    0    0  0.17290622075E+02  0.64617439572E+02 -0.18091085521E+02  0.69294058071E+02  0.00000000000E+00 0.  1.
         11    1    3    3    0    0  0.37522598234E+02 -0.27778260646E+02 -0.96691717595E+01  0.47676724146E+02  0.00000000000E+00 0. -1.
          1    1    1    2  501    0 -0.44852890996E+02 -0.28345082465E+02 -0.16847631064E+02  0.55669275217E+02  0.00000000000E+00 0. -1.
<scales pt_clust_5="13000.00000" pt_clust_6="13000.00000" pt_clust_7="13000.00000" pt_clust_8="13000.00000" pt_clust_9="53.05873"></scales>
<clustering>
<clus scale="   53.059">  1  9  2 -1</clus>
<clus scale="   81.604">  5  6 -1 -1</clus>
<clus scale="   92.466">  7  8 -1 -1</clus>
<clus scale="   92.973">  1  5  2 -1</clus>
<clus scale="   53.059">  1  5  2 -1</clus>
</clustering>
</event>
<event>
 9    2  0.1033155E-004  0.1017507E+03  0.7546771E-02  0.1278750E+00
          2   -1    0    0  502    0 -0.00000000000E+00  0.00000000000E+00  0.90004879992E+03  0.90004879992E+03  0.00000000000E+00 0. -1.
         21   -1    0    0  501  502  0.00000000000E+00 -0.00000000000E+00 -0.43481369084E+02  0.43481369084E+02  0.00000000000E+00 0. -1.
         24    2    1    2    0    0  0.31597827131E+02  0.50062303042E+02  0.73758875681E+03  0.74427136655E+03  0.79987724202E+02 0.  0.
         23    2    1    2    0    0 -0.55621169593E+02  0.12594886006E+01  0.61902825921E+02  0.11883057534E+03  0.84814179000E+02 0.  0.
        -13    1    3    3    0    0  0.15663853857E+02  0.40665671079E+02  0.14531035652E+03  0.15170416221E+03  0.00000000000E+00 0.  1.
         14    1    3    3    0    0  0.15933973274E+02  0.93966319634E+01  0.59227840030E+03  0.59256720434E+03  0.00000000000E+00 0. -1.
        -13    1    4    4    0    0 -0.41083876732E+01 -0.24246989141E+02  0.55857809555E+02  0.61031878719E+02  0.00000000000E+00 0.  1.
         13    1    4    4    0    0 -0.51512781920E+02  0.25506477741E+02  0.60450163655E+01  0.57798696618E+02  0.00000000000E+00 0. -1.
          1    1    1    2  501    0  0.24023342462E+02 -0.51321791643E+02  0.57075848098E+02  0.80428227113E+02  0.00000000000E+00 0. -1.
<scales pt_clust_5="13000.00000" pt_clust_6="13000.00000" pt_clust_7="13000.00000" pt_clust_8="13000.00000" pt_clust_9="56.66610"></scales>
<clustering>
<clus scale="   56.666">  2  9  1 -1</clus>
<clus scale="   79.988">  5  6 -1 -1</clus>
<clus scale="   84.814">  7  8 -1 -1</clus>
<clus scale="   97.764">  1  5  2 -1</clus>
<clus scale="   56.666">  2  5  1 -1</clus>
</clustering>
</event>
<event>
 9    2  0.1033155E-004  0.1081221E+03  0.7546771E-02  0.1268284E+00
          2   -1    0    0  502    0 -0.00000000000E+00  0.00000000000E+00  0.57245915482E+03  0.57245915482E+03  0.00000000000E+00 0. -1.
         21   -1    0    0  501  502  0.00000000000E+00 -0.00000000000E+00 -0.44557963291E+02  0.44557963291E+02  0.00000000000E+00 0. -1.
         23    2    1    2    0    0  0.54793203360E+02  0.17560172946E+02  0.15980481330E+03  0.19258091776E+03  0.90769910895E+02 0.  0.
         24    2    1    2    0    0 -0.56039368695E+02  0.66054601746E+02  0.15097781921E+03  0.19177023347E+03  0.80485398020E+02 0.  0.
        -11    1    4    4    0    0  0.18556427478E+02  0.28020300108E+02  0.54446097300E+02  0.63983245699E+02  0.00000000000E+00 0.  1.
         12    1    4    4    0    0 -0.74595796172E+02  0.38034301638E+02  0.96531721910E+02  0.12778698777E+03  0.00000000000E+00 0. -1.
        -13    1    3    3    0    0  0.76899851707E+02  0.12023717223E+02  0.14726650473E+03  0.16657004648E+03  0.00000000000E+00 0. -1.
         13    1    3    3    0    0 -0.22106648347E+02  0.55364557234E+01  0.12538308569E+02  0.26010871283E+02  0.00000000000E+00 0.  1.
          1    1    1    2  501    0  0.12461653347E+01 -0.83614774693E+02  0.21711855902E+03  0.23266596688E+03  0.00000000000E+00 0. -1.
<scales pt_clust_5="13000.00000" pt_clust_6="13000.00000" pt_clust_7="13000.00000" pt_clust_8="13000.00000" pt_clust_9="83.62410"></scales>
<clustering>
<clus scale="   80.485">  5  6 -1 -1</clus>
<clus scale="   83.624">  2  9  1 -1</clus>
<clus scale="   90.770">  7  8 -1 -1</clus>
<clus scale="   99.645">  2  5  1 -1</clus>
<clus scale="   83.624">  2  5  1 -1</clus>
</clustering>
</event>
<event>
 9    2  0.1033155E-004  0.1035086E+03  0.7546771E-02  0.1279002E+00
         21   -1    0    0  501  502  0.00000000000E+00  0.00000000000E+00  0.38310155624E+03  0.38310155624E+03  0.00000000000E+00 0. -1.
          2   -1    0    0  502    0 -0.00000000000E+00 -0.00000000000E+00 -0.48262113564E+02  0.48262113564E+02  0.00000000000E+00 0. -1.
         24    2    1    2    0    0 -0.34012125035E+02 -0.35120635565E+02  0.24293113466E+02  0.95693127687E+02  0.78592211018E+02 0.  0.
         23    2    1    2    0    0  0.17784068842E+02  0.47819783953E+02  0.23281898670E+03  0.25525811801E+03  0.91372979590E+02 0.  0.
        -13    1    3    3    0    0 -0.27885483773E+02  0.12009920426E+02 -0.15149168608E+02  0.33931338073E+02  0.00000000000E+00 0.  1.
         14    1    3    3    0    0 -0.61266412620E+01 -0.47130555991E+02  0.39442282074E+02  0.61761789614E+02  0.00000000000E+00 0. -1.
        -13    1    4    4    0    0 -0.17753837869E+02  0.61743339519E+02  0.11936683743E+03  0.13555766526E+03  0.00000000000E+00 0. -1.
         13    1    4    4    0    0  0.35537906711E+02 -0.13923555565E+02  0.11345214928E+03  0.11970045275E+03  0.00000000000E+00 0.  1.
          1    1    1    2  501    0  0.16228056193E+02 -0.12699148389E+02  0.77727342508E+02  0.80412424108E+02  0.00000000000E+00 0. -1.
<scales pt_clust_5="13000.00000" pt_clust_6="13000.00000" pt_clust_7="13000.00000" pt_clust_8="13000.00000" pt_clust_9="20.60627"></scales>
<clustering>
<clus scale="   20.606">  1  9  2 -1</clus>
<clus scale="   78.592">  5  6 -1 -1</clus>
<clus scale="   91.373">  7  8 -1 -1</clus>
<clus scale="   92.422">  2  5  1 -1</clus>
<clus scale="   20.606">  1  5  2 -1</clus>
</clustering>
</event>
<event>
 9    2  0.1033155E-004  0.9417805E+02  0.7546771E-02  0.1299250E+00
          2   -1    0    0  502    0 -0.00000000000E+00  0.00000000000E+00  0.70439837649E+03  0.70439837649E+03  0.00000000000E+00 0. -1.
         21   -1    0    0  501  502  0.00000000000E+00 -0.00000000000E+00 -0.18313525227E+02  0.18313525227E+02  0.00000000000E+00 0.  1.
         24    2    1    2    0    0  0.27888086991E+01 -0.16641517857E+02  0.30258977907E+03  0.31344383335E+03  0.80010903617E+02 0.  0.
         23    2    1    2    0    0  0.32735605794E+02  0.35075475003E+02  0.26349675234E+03  0.28277146142E+03  0.90704200933E+02 0.  0.
        -11    1    3    3    0    0 -0.37273191281E+02 -0.11046678696E+02  0.18649305285E+03  0.19050191249E+03  0.00000000000E+00 0.  1.
         12    1    3    3    0    0  0.40061999980E+02 -0.55948391612E+01  0.11609672622E+03  0.12294192087E+03  0.00000000000E+00 0. -1.
        -13    1    4    4    0    0 -0.20021003504E+02 -0.18033648779E+02  0.55059470792E+02  0.61299252797E+02  0.00000000000E+00 0.  1.
         13    1    4    4    0    0  0.52756609298E+02  0.53109123782E+02  0.20843728155E+03  0.22147220862E+03  0.00000000000E+00 0. -1.
          1    1    1    2  501    0 -0.35524414493E+02 -0.18433957146E+02  0.11999831985E+03  0.12649660694E+03  0.00000000000E+00 0. -1.
<scales pt_clust_5="13000.00000" pt_clust_6="13000.00000" pt_clust_7="13000.00000" pt_clust_8="13000.00000" pt_clust_9="40.02243"></scales>
<clustering>
<clus scale="   40.022">  2  9  1 -1</clus>
<clus scale="   80.011">  5  6 -1 -1</clus>
<clus scale="   83.929">  1  5  2 -1</clus>
<clus scale="   90.704">  7  8 -1 -1</clus>
<clus scale="   40.022">  2  5  1 -1</clus>
</clustering>
</event>
<event>
 9    2  0.1033155E-004  0.1314910E+03  0.7546771E-02  0.1228715E+00
          2   -1    0    0  502    0 -0.00000000000E+00  0.00000000000E+00  0.44927091626E+03  0.44927091626E+03  0.00000000000E+00 0. -1.
         21   -1    0    0  501  502  0.00000000000E+00 -0.00000000000E+00 -0.65527968807E+02  0.65527968807E+02  0.00000000000E+00 0. -1.
         24    2    1    2    0    0  0.57170445579E+02  0.45678571796E+02  0.98944823729E+02  0.14820608210E+03  0.82583126973E+02 0.  0.
         23    2    1    2    0    0 -0.11808335323E+03 -0.23019831857E+02  0.13989897693E+03  0.20778611685E+03  0.95549754786E+02 0.  0.
        -11    1    3    3    0    0  0.47583559261E+02 -0.14232185980E+02  0.44831888370E+02  0.66907760720E+02  0.00000000000E+00 0.  1.
         12    1    3    3    0    0  0.95868863172E+01  0.59910757776E+02  0.54112935359E+02  0.81298321383E+02  0.00000000000E+00 0. -1.
        -13    1    4    4    0    0 -0.46012591422E+01 -0.34921336101E+02  0.14081501302E+02  0.37933625976E+02  0.00000000000E+00 0.  1.
         13    1    4    4    0    0 -0.11348209409E+03  0.11901504244E+02  0.12581747563E+03  0.16985249087E+03  0.00000000000E+00 0. -1.
          1    1    1    2  501    0  0.60912907650E+02 -0.22658739939E+02  0.14489914679E+03  0.15880668612E+03  0.00000000000E+00 0. -1.
<scales pt_clust_5="13000.00000" pt_clust_6="13000.00000" pt_clust_7="13000.00000" pt_clust_8="13000.00000" pt_clust_9="64.99081"></scales>
<clustering>
<clus scale="   64.991">  2  9  1 -1</clus>
<clus scale="   82.583">  5  6 -1 -1</clus>
<clus scale="   95.550">  7  8 -1 -1</clus>
<clus scale="  122.393">  1  5  2 -1</clus>
<clus scale="   64.991">  2  5  1 -1</clus>
</clustering>
</event>
<event>
 9    2  0.1033155E-004  0.1052039E+03  0.7546771E-02  0.1270373E+00
         21   -1    0    0  501  502  0.00000000000E+00  0.00000000000E+00  0.17430542773E+03  0.17430542773E+03  0.00000000000E+00 0. -1.
          2   -1    0    0  502    0 -0.00000000000E+00 -0.00000000000E+00 -0.12798743715E+03  0.12798743715E+03  0.00000000000E+00 0. -1.
         24    2    1    2    0    0 -0.54157931263E+01 -0.69631130142E+02 -0.52212697933E+02  0.11891900740E+03  0.80856288540E+02 0.  0.
         23    2    1    2    0    0  0.92174499672E+01  0.45842706019E+02  0.11869971076E+03  0.15195521372E+03  0.82548474022E+02 0.  0.
        -11    1    3    3    0    0 -0.29838102240E+02 -0.31331802199E+02  0.74806242837E+01  0.43908472007E+02  0.00000000000E+00 0.  1.
         12    1    3    3    0    0  0.24422309113E+02 -0.38299327943E+02 -0.59693322217E+02  0.75010535397E+02  0.00000000000E+00 0. -1.
        -13    1    4    4    0    0  0.38820412531E+02 -0.14582053936E+01  0.43636409374E+02  0.58423343067E+02  0.00000000000E+00 0.  1.
         13    1    4    4    0    0 -0.29602962564E+02  0.47300911413E+02  0.75063301387E+02  0.93531870654E+02  0.00000000000E+00 0. -1.
          1    1    1    2  501    0 -0.38016568409E+01  0.23788424123E+02 -0.20169022252E+02  0.31418643758E+02  0.00000000000E+00 0. -1.
<scales pt_clust_5="13000.00000" pt_clust_6="13000.00000" pt_clust_7="13000.00000" pt_clust_8="13000.00000" pt_clust_9="24.09029"></scales>
<clustering>
<clus scale="   24.090">  1  9  2 -1</clus>
<clus scale="   80.856">  5  6 -1 -1</clus>
<clus scale="   82.548">  7  8 -1 -1</clus>
<clus scale="  103.881">  2  5  1 -1</clus>
<clus scale="   24.090">  1  5  2 -1</clus>
</clustering>
</event>
<event>
 9    2  0.1033155E-004  0.2954886E+03  0.7546771E-02  0.1116161E+00
         21   -1    0    0  501  502  0.00000000000E+00  0.00000000000E+00  0.47085896934E+02  0.47085896934E+02  0.00000000000E+00 0. -1.
          2   -1    0    0  502    0 -0.00000000000E+00 -0.00000000000E+00 -0.29942598444E+04  0.29942598444E+04  0.00000000000E+00 0. -1.
         24    2    1    2    0    0  0.37130981502E+02  0.10994637172E+03 -0.32700948576E+03  0.35606070517E+03  0.79856794000E+02 0.  0.
         23    2    1    2    0    0 -0.13601039370E+03 -0.31021776993E+03 -0.13113316016E+04  0.13575315851E+04  0.92561024369E+02 0.  0.
        -11    1    3    3    0    0  0.62202219161E+02  0.77984672740E+02 -0.21837899963E+03  0.24008355365E+03  0.00000000000E+00 0.  1.
         12    1    3    3    0    0 -0.25071237659E+02  0.31961698977E+02 -0.10863048613E+03  0.11597715152E+03  0.00000000000E+00 0. -1.
        -11    1    4    4    0    0 -0.33239386904E+02 -0.11782999923E+03 -0.64162179180E+03  0.65319774133E+03  0.00000000000E+00 0.  1.
         11    1    4    4    0    0 -0.10277100679E+03 -0.19238777070E+03 -0.66970980978E+03  0.70433384376E+03  0.00000000000E+00 0. -1.
          1    1    1    2  501    0  0.98879412196E+02  0.20027139822E+03 -0.13088328601E+04  0.13277534511E+04  0.00000000000E+00 0. -1.
<scales pt_clust_5="13000.00000" pt_clust_6="13000.00000" pt_clust_7="13000.00000" pt_clust_8="13000.00000" pt_clust_9="280.61726"></scales>
<clustering>
<clus scale="   79.857">  5  6 -1 -1</clus>
<clus scale="   92.561">  7  8 -1 -1</clus>
<clus scale="  140.869">  2  5  1 -1</clus>
<clus scale="  280.617">  1  9  2 -1</clus>
<clus scale="  280.617">  1  5  2 -1</clus>
</clustering>
</event>
<event>
 9    2  0.1033155E-004  0.1303241E+03  0.7546771E-02  0.1232035E+00
          2   -1    0    0  502    0 -0.00000000000E+00  0.00000000000E+00  0.43598698813E+03  0.43598698813E+03  0.00000000000E+00 0. -1.
         21   -1    0    0  501  502  0.00000000000E+00 -0.00000000000E+00 -0.70457129448E+02  0.70457129448E+02  0.00000000000E+00 0. -1.
         23    2    1    2    0    0  0.25138691000E+02 -0.10094687766E+03  0.27935332979E+03  0.31165855740E+03  0.90942551322E+02 0.  0.
         24    2    1    2    0    0  0.32660960579E+02  0.78384809119E+02  0.68517306745E+02  0.13027436125E+03  0.71174933999E+02 0.  0.
        -13    1    4    4    0    0  0.40691596917E+02  0.19987473835E+02  0.52142779223E+02  0.69095402127E+02  0.00000000000E+00 0.  1.
         14    1    4    4    0    0 -0.80306363375E+01  0.58397335284E+02  0.16374527521E+02  0.61178959126E+02  0.00000000000E+00 0. -1.
        -11    1    3    3    0    0  0.50892552605E+02 -0.28769829517E+02  0.89277708964E+02  0.10671581101E+03  0.00000000000E+00 0. -1.
         11    1    3    3    0    0 -0.25753861605E+02 -0.72177048142E+02  0.19007562083E+03  0.20494274640E+03  0.00000000000E+00 0.  1.
          1    1    1    2  501    0 -0.57799651580E+02  0.22562068540E+02  0.17659222141E+02  0.64511198920E+02  0.00000000000E+00 0. -1.
<scales pt_clust_5="13000.00000" pt_clust_6="13000.00000" pt_clust_7="13000.00000" pt_clust_8="13000.00000" pt_clust_9="62.04713"></scales>
<clustering>
<clus scale="   62.047">  2  9  1 -1</clus>
<clus scale="   71.175">  5  6 -1 -1</clus>
<clus scale="   90.943">  7  8 -1 -1</clus>
<clus scale="  117.387">  2  5  1 -1</clus>
<clus scale="   62.047">  2  5  1 -1</clus>
</clustering>
</event>
<event>
 9    2  0.1033155E-004  0.9871802E+02  0.7546771E-02  0.1287885E+00
          2   -1    0    0  502    0 -0.00000000000E+00  0.00000000000E+00  0.10373269604E+04  0.10373269604E+04  0.00000000000E+00 0. -1.
         21   -1    0    0  501  502  0.00000000000E+00 -0.00000000000E+00 -0.20238699765E+02  0.20238699765E+02  0.00000000000E+00 0. -1.
         23    2    1    2    0    0  0.26253821908E+01 -0.87258959203E+01  0.26073705588E+03  0.27606748705E+03  0.90257471739E+02 0.  0.
         24    2    1    2    0    0  0.77023371968E+02  0.24851582421E+02  0.40056273725E+03  0.41654694978E+03  0.80688623252E+02 0.  0.
        -13    1    4    4    0    0  0.16986478677E+02 -0.17965405683E+02  0.30765749007E+02  0.39469324433E+02  0.00000000000E+00 0.  1.
         14    1    4    4    0    0  0.60036893291E+02  0.42816988105E+02  0.36979698824E+03  0.37707762535E+03  0.00000000000E+00 0. -1.
        -11    1    3    3    0    0  0.25670046925E+02  0.32288544168E+02  0.90643831987E+02  0.99588180377E+02  0.00000000000E+00 0.  1.
         11    1    3    3    0    0 -0.23044664735E+02 -0.41014440088E+02  0.17009322389E+03  0.17647930667E+03  0.00000000000E+00 0. -1.
          1    1    1    2  501    0 -0.79648754159E+02 -0.16125686501E+02  0.35578846753E+03  0.36495122336E+03  0.00000000000E+00 0. -1.
<scales pt_clust_5="13000.00000" pt_clust_6="13000.00000" pt_clust_7="13000.00000" pt_clust_8="13000.00000" pt_clust_9="81.26480"></scales>
<clustering>
<clus scale="   80.689">  5  6 -1 -1</clus>
<clus scale="   81.265">  2  9  1 -1</clus>
<clus scale="   90.053">  2  5  1 -1</clus>
<clus scale="   90.257">  7  8 -1 -1</clus>
<clus scale="   81.265">  2  5  1 -1</clus>
</clustering>
</event>
<event>
 9    2  0.1033155E-004  0.1689791E+03  0.7546771E-02  0.1182184E+00
         21   -1    0    0  501  502  0.00000000000E+00  0.00000000000E+00  0.56982050012E+03  0.56982050012E+03  0.00000000000E+00 0.  1.
         -1   -1    0    0    0  501 -0.00000000000E+00 -0.00000000000E+00 -0.78617585287E+02  0.78617585287E+02  0.00000000000E+00 0.  1.
         23    2    1    2    0    0  0.13787049223E+03 -0.36623617946E+02  0.67915140974E+02  0.18274160198E+03  0.91828452574E+02 0.  0.
         24    2    1    2    0    0 -0.12471024164E+03  0.69783707781E+02  0.33149717293E+03  0.36721654551E+03  0.67343933613E+02 0.  0.
        -11    1    4    4    0    0 -0.10850032541E+03  0.83277998255E+02  0.29175547201E+03  0.32222476791E+03  0.00000000000E+00 0.  1.
         12    1    4    4    0    0 -0.16209916230E+02 -0.13494290474E+02  0.39741700919E+02  0.44991777598E+02  0.00000000000E+00 0. -1.
        -13    1    3    3    0    0  0.13854230361E+03 -0.13411518022E+02  0.36903126252E+02  0.14399888691E+03  0.00000000000E+00 0.  1.
         13    1    3    3    0    0 -0.67181138513E+00 -0.23212099924E+02  0.31012014722E+02  0.38742715064E+02  0.00000000000E+00 0. -1.
         -2    1    1    2    0  502 -0.13160250585E+02 -0.33160089835E+02  0.91790600926E+02  0.98479937914E+02  0.00000000000E+00 0.  1.
<scales pt_clust_5="13000.00000" pt_clust_6="13000.00000" pt_clust_7="13000.00000" pt_clust_8="13000.00000" pt_clust_9="35.67609"></scales>
<clustering>
<clus scale="   35.676">  1  9  2 -1</clus>
<clus scale="   67.344">  5  6 -1 -1</clus>
<clus scale="   91.828">  7  8 -1 -1</clus>
<clus scale="  157.024">  1  5  2 -1</clus>
<clus scale="   35.676">  1  5  2 -1</clus>
</clustering>
</event>
<event>
 9    2  0.1033155E-004  0.1526441E+03  0.7546771E-02  0.1224285E+00
         21   -1    0    0  501  502  0.00000000000E+00  0.00000000000E+00  0.68484811809E+02  0.68484811809E+02  0.00000000000E+00 0. -1.
          2   -1    0    0  502    0 -0.00000000000E+00 -0.00000000000E+00 -0.76821550002E+03  0.76821550002E+03  0.00000000000E+00 0. -1.
         24    2    1    2    0    0  0.24952116212E+02  0.15420472153E+02  0.29815403288E+01  0.85827744452E+02  0.80604671515E+02 0.  0.
         23    2    1    2    0    0  0.31628365088E+01 -0.11697040304E+03 -0.44758405928E+03  0.47484137026E+03  0.10700821497E+03 0.  0.
        -11    1    3    3    0    0 -0.27041740239E+02  0.14622263546E+01  0.14581455563E+02  0.30757318924E+02  0.00000000000E+00 0.  1.
         12    1    3    3    0    0  0.51993856451E+02  0.13958245798E+02 -0.11599915234E+02  0.55070425528E+02  0.00000000000E+00 0. -1.
        -11    1    4    4    0    0 -0.37709299495E+02 -0.63174762978E+02 -0.12320227270E+03  0.14349857820E+03  0.00000000000E+00 0.  1.
         11    1    4    4    0    0  0.40872136004E+02 -0.53795640060E+02 -0.32438178657E+03  0.33134279206E+03  0.00000000000E+00 0. -1.
          1    1    1    2  501    0 -0.28114952721E+02  0.10154993089E+03 -0.25512816926E+03  0.27603119711E+03  0.00000000000E+00 0. -1.
<scales pt_clust_5="13000.00000" pt_clust_6="13000.00000" pt_clust_7="13000.00000" pt_clust_8="13000.00000" pt_clust_9="108.85526"></scales>
<clustering>
<clus scale="   80.605">  5  6 -1 -1</clus>
<clus scale="   85.776">  2  5  1 -1</clus>
<clus scale="  107.008">  7  8 -1 -1</clus>
<clus scale="  108.855">  1  9  2 -1</clus>
<clus scale="  108.855">  1  5  2 -1</clus>
</clustering>
</event>
<event>
 9    2  0.1033155E-004  0.1104178E+03  0.7546771E-02  0.1263922E+00
          2   -1    0    0  502    0 -0.00000000000E+00  0.00000000000E+00  0.73754615122E+03  0.73754615122E+03  0.00000000000E+00 0. -1.
         21   -1    0    0  501  502  0.00000000000E+00 -0.00000000000E+00 -0.33059339456E+02  0.33059339456E+02  0.00000000000E+00 0. -1.
         24    2    1    2    0    0 -0.79937382788E+02  0.12091292200E+02  0.41773045741E+03  0.43315903744E+03  0.81190098837E+02 0.  0.
         23    2    1    2    0    0  0.11169740705E+02 -0.97323742814E+01  0.91395965328E+02  0.13032273492E+03  0.91713197206E+02 0.  0.
        -11    1    3    3    0    0 -0.57609105889E+02 -0.31402105066E+02  0.23153213663E+03  0.24064918778E+03  0.00000000000E+00 0.  1.
         12    1    3    3    0    0 -0.22328276899E+02  0.43493397266E+02  0.18619832078E+03  0.19250984966E+03  0.00000000000E+00 0. -1.
        -11    1    4    4    0    0  0.30247372729E+02  0.32925363165E+02  0.56234754298E+02  0.71842401738E+02  0.00000000000E+00 0.  1.
         11    1    4    4    0    0 -0.19077632023E+02 -0.42657737447E+02  0.35161211030E+02  0.58480333180E+02  0.00000000000E+00 0. -1.
          1    1    1    2  501    0  0.68767642082E+02 -0.23589179191E+01  0.19536038902E+03  0.20712371832E+03  0.00000000000E+00 0. -1.
<scales pt_clust_5="13000.00000" pt_clust_6="13000.00000" pt_clust_7="13000.00000" pt_clust_8="13000.00000" pt_clust_9="68.80812"></scales>
<clustering>
<clus scale="   68.808">  2  9  1 -1</clus>
<clus scale="   81.190">  5  6 -1 -1</clus>
<clus scale="   91.713">  7  8 -1 -1</clus>
<clus scale="  101.846">  1  5  2 -1</clus>
<clus scale="   68.808">  2  5  1 -1</clus>
</clustering>
</event>
<event>
 9    2  0.1033155E-004  0.1360706E+03  0.7546771E-02  0.1221092E+00
         21   -1    0    0  501  502  0.00000000000E+00  0.00000000000E+00  0.77532971109E+03  0.77532971109E+03  0.00000000000E+00 0. -1.
         -3   -1    0    0    0  501 -0.00000000000E+00 -0.00000000000E+00 -0.32814243878E+02  0.32814243878E+02  0.00000000000E+00 0.  1.
         23    2    1    2    0    0 -0.90551722497E+02 -0.10712874745E+02  0.25451927751E+03  0.28538926399E+03  0.91392501036E+02 0.  0.
         24    2    1    2    0    0  0.87703974964E+02  0.35828095315E+02  0.47428985553E+03  0.49400147260E+03  0.10055321097E+03 0.  0.
        -11    1    4    4    0    0  0.44459254001E+02 -0.16443829804E+02  0.73155934775E+02  0.87171185593E+02  0.00000000000E+00 0.  1.
         12    1    4    4    0    0  0.43244720963E+02  0.52271925119E+02  0.40113392076E+03  0.40683028701E+03  0.00000000000E+00 0. -1.
        -11    1    3    3    0    0 -0.74165185620E+02  0.12363585955E+02  0.24378967894E+03  0.25512103122E+03  0.00000000000E+00 0.  1.
         11    1    3    3    0    0 -0.16386536877E+02 -0.23076460701E+02  0.10729598567E+02  0.30268232765E+02  0.00000000000E+00 0. -1.
         -4    1    1    2    0  502  0.28477475332E+01 -0.25115220570E+02  0.13706334170E+02  0.28753218370E+02  0.00000000000E+00 0.  1.
<scales pt_clust_5="13000.00000" pt_clust_6="13000.00000" pt_clust_7="13000.00000" pt_clust_8="13000.00000" pt_clust_9="25.27617"></scales>
<clustering>
<clus scale="   25.276">  1  9  2 -1</clus>
<clus scale="   91.393">  7  8 -1 -1</clus>
<clus scale="  100.553">  5  6 -1 -1</clus>
<clus scale="  129.448">  2  7  1 -1</clus>
<clus scale="   25.276">  1  5  2 -1</clus>
</clustering>
</event>
<event>
 9    2  0.1033155E-004  0.9050007E+02  0.7546771E-02  0.1306755E+00
          2   -1    0    0  502    0 -0.00000000000E+00  0.00000000000E+00  0.78413401740E+02  0.78413401740E+02  0.00000000000E+00 0. -1.
         21   -1    0    0  501  502  0.00000000000E+00 -0.00000000000E+00 -0.19198197726E+03  0.19198197726E+03  0.00000000000E+00 0.  1.
         24    2    1    2    0    0 -0.18584972329E+02 -0.18750835208E+02  0.23692924421E+02  0.87204022987E+02  0.79662989776E+02 0.  0.
         23    2    1    2    0    0  0.10486562735E+02 -0.36122713576E+01 -0.73683117223E+02  0.11530981565E+03  0.88000768855E+02 0.  0.
        -13    1    3    3    0    0  0.28629364377E+02 -0.22710282283E+02  0.10161706759E+02  0.37929641578E+02  0.00000000000E+00 0.  1.
         14    1    3    3    0    0 -0.47214336707E+02  0.39594470752E+01  0.13531217662E+02  0.49274381409E+02  0.00000000000E+00 0. -1.
        -11    1    4    4    0    0 -0.28568716211E+02  0.26691226895E+02 -0.36066518507E+02  0.53191981504E+02  0.00000000000E+00 0. -1.
         11    1    4    4    0    0  0.39055278946E+02 -0.30303498253E+02 -0.37616598716E+02  0.62117834146E+02  0.00000000000E+00 0.  1.
          1    1    1    2  501    0  0.80984095940E+01  0.22363106565E+02 -0.63578382722E+02  0.67881540368E+02  0.00000000000E+00 0. -1.
<scales pt_clust_5="13000.00000" pt_clust_6="13000.00000" pt_clust_7="13000.00000" pt_clust_8="13000.00000" pt_clust_9="23.78430"></scales>
<clustering>
<clus scale="   23.784">  2  9  1 -1</clus>
<clus scale="   79.663">  5  6 -1 -1</clus>
<clus scale="   82.416">  1  5  2 -1</clus>
<clus scale="   88.001">  7  8 -1 -1</clus>
<clus scale="   23.784">  2  5  1 -1</clus>
</clustering>
</event>
<event>
 9    2  0.1033155E-004  0.1310161E+03  0.7546771E-02  0.1233103E+00
          2   -1    0    0  502    0 -0.00000000000E+00  0.00000000000E+00  0.20069910439E+03  0.20069910439E+03  0.00000000000E+00 0. -1.
         21   -1    0    0  501  502  0.00000000000E+00 -0.00000000000E+00 -0.27072712744E+03  0.27072712744E+03  0.00000000000E+00 0. -1.
         23    2    1    2    0    0 -0.31558777268E+02  0.56784930999E+02 -0.17328310800E+03  0.20688615086E+03  0.92489778280E+02 0.  0.
         24    2    1    2    0    0  0.60957837331E+02  0.63311505793E+02  0.59148375891E+02  0.13326609023E+03  0.80852431847E+02 0.  0.
        -11    1    4    4    0    0  0.61417236184E+02  0.39435832000E+02  0.39167860737E+01  0.73093111571E+02  0.00000000000E+00 0.  1.
         12    1    4    4    0    0 -0.45939885316E+00  0.23875673793E+02  0.55231589817E+02  0.60172978654E+02  0.00000000000E+00 0. -1.
        -13    1    3    3    0    0  0.18063027108E+02 -0.93203343648E+01 -0.75471052005E+01  0.21681798308E+02  0.00000000000E+00 0.  1.
         13    1    3    3    0    0 -0.49621804376E+02  0.66105265364E+02 -0.16573600280E+03  0.18520435255E+03  0.00000000000E+00 0. -1.
          1    1    1    2  501    0 -0.29399060063E+02 -0.12009643679E+03  0.44106709064E+02  0.13127399075E+03  0.00000000000E+00 0. -1.
<scales pt_clust_5="13000.00000" pt_clust_6="13000.00000" pt_clust_7="13000.00000" pt_clust_8="13000.00000" pt_clust_9="103.09279"></scales>
<clustering>
<clus scale="   80.852">  5  6 -1 -1</clus>
<clus scale="   92.490">  7  8 -1 -1</clus>
<clus scale="  113.026">  1  7  2 -1</clus>
<clus scale="  103.093">  2  9  1 -1</clus>
<clus scale="  103.093">  2  5  1 -1</clus>
</clustering>
</event>
<event>
 9    2  0.1033155E-004  0.9205613E+02  0.7546771E-02  0.1301402E+00
         21   -1    0    0  501  502  0.00000000000E+00  0.00000000000E+00  0.87134921286E+03  0.87134921286E+03  0.00000000000E+00 0.  1.
          2   -1    0    0  502    0 -0.00000000000E+00 -0.00000000000E+00 -0.17404661259E+02  0.17404661259E+02  0.00000000000E+00 0. -1.
         23    2    1    2    0    0  0.81438663952E+01  0.43104978427E+01  0.21650946067E+03  0.23457445909E+03  0.89799372744E+02 0.  0.
         24    2    1    2    0    0 -0.30413361626E+02  0.31040965028E+02  0.31019183355E+03  0.32427972445E+03  0.83963396863E+02 0.  0.
        -13    1    4    4    0    0  0.27598373264E+02  0.16537387260E+02  0.14693479789E+03  0.15041605704E+03  0.00000000000E+00 0.  1.
         14    1    4    4    0    0 -0.58011734889E+02  0.14503577768E+02  0.16325703566E+03  0.17386366741E+03  0.00000000000E+00 0. -1.
        -11    1    3    3    0    0  0.16775444902E+02 -0.30956218624E+02  0.17877434821E+03  0.18220859091E+03  0.00000000000E+00 0. -1.
         11    1    3    3    0    0 -0.86315785073E+01  0.35266716467E+02  0.37735112466E+02  0.52365868185E+02  0.00000000000E+00 0.  1.
          1    1    1    2  501    0  0.22269495230E+02 -0.35351462870E+02  0.32724325738E+03  0.32989969058E+03  0.00000000000E+00 0. -1.
<scales pt_clust_5="13000.00000" pt_clust_6="13000.00000" pt_clust_7="13000.00000" pt_clust_8="13000.00000" pt_clust_9="41.78105"></scales>
<clustering>
<clus scale="   41.781">  1  9  2 -1</clus>
<clus scale="   83.963">  5  6 -1 -1</clus>
<clus scale="   86.373">  1  5  2 -1</clus>
<clus scale="   89.799">  7  8 -1 -1</clus>
<clus scale="   41.781">  1  5  2 -1</clus>
</clustering>
</event>
<event>
 9    2  0.1419307E-004  0.9043993E+02  0.7546771E-02  0.1320308E+00
         -3   -1    0    0    0  501 -0.00000000000E+00  0.00000000000E+00  0.31184495783E+03  0.31184495783E+03  0.00000000000E+00 0.  1.
         21   -1    0    0  501  502  0.00000000000E+00 -0.00000000000E+00 -0.74410836495E+02  0.74410836495E+02  0.00000000000E+00 0.  1.
         23    2    1    2    0    0  0.10083205987E+02  0.31685507144E+01  0.22243411497E+03  0.24024301808E+03  0.90155762285E+02 0.  0.
         24    2    1    2    0    0  0.15929325724E+02  0.51969328583E+01 -0.44906960826E+02  0.80168430715E+02  0.64261890911E+02 0.  0.
        -13    1    4    4    0    0  0.79743122135E+00  0.31029223986E+02 -0.38672141427E+02  0.49588135277E+02  0.00000000000E+00 0.  1.
         14    1    4    4    0    0  0.15131894502E+02 -0.25832291127E+02 -0.62348193989E+01  0.30580295438E+02  0.00000000000E+00 0. -1.
        -11    1    3    3    0    0 -0.40298594961E+02  0.21770380513E+01  0.96165272336E+02  0.10429034401E+03  0.00000000000E+00 0. -1.
         11    1    3    3    0    0  0.50381800948E+02  0.99151266304E+00  0.12626884264E+03  0.13595267406E+03  0.00000000000E+00 0.  1.
         -4    1    1    2    0  502 -0.26012531711E+02 -0.83654835727E+01  0.59906967191E+02  0.65844345539E+02  0.00000000000E+00 0.  1.
<scales pt_clust_5="13000.00000" pt_clust_6="13000.00000" pt_clust_7="13000.00000" pt_clust_8="13000.00000" pt_clust_9="27.32460"></scales>
<clustering>
<clus scale="   27.325">  2  9  1 -1</clus>
<clus scale="   64.262">  5  6 -1 -1</clus>
<clus scale="   64.660">  2  5  1 -1</clus>
<clus scale="   90.156">  7  8 -1 -1</clus>
<clus scale="   27.325">  2  5  1 -1</clus>
</clustering>
</event>
<event>
 9    2  0.1033155E-004  0.2989778E+03  0.7546771E-02  0.1123358E+00
          2   -1    0    0  502    0 -0.00000000000E+00  0.00000000000E+00  0.23854415339E+03  0.23854415339E+03  0.00000000000E+00 0. -1.
         21   -1    0    0  501  502  0.00000000000E+00 -0.00000000000E+00 -0.58871631771E+03  0.58871631771E+03  0.00000000000E+00 0. -1.
         24    2    1    2    0    0 -0.44282571306E+02  0.80033176194E+02 -0.12759723484E+03  0.17082782388E+03  0.67341188440E+02 0.  0.
         23    2    1    2    0    0 -0.23873940614E+03  0.98293231231E+02 -0.15746802019E+03  0.31563849096E+03  0.90406947999E+02 0.  0.
        -11    1    3    3    0    0 -0.17282229130E+02  0.34555481625E+02 -0.71663915344E+01  0.39295214997E+02  0.00000000000E+00 0.  1.
         12    1    3    3    0    0 -0.27000342176E+02  0.45477694569E+02 -0.12043084331E+03  0.13153260889E+03  0.00000000000E+00 0. -1.
        -11    1    4    4    0    0 -0.20260611737E+03  0.68566703968E+02 -0.16244179490E+03  0.26858512323E+03  0.00000000000E+00 0. -1.
         11    1    4    4    0    0 -0.36133288770E+02  0.29726527263E+02  0.49737747121E+01  0.47053367737E+02  0.00000000000E+00 0.  1.
          1    1    1    2  501    0  0.28302197744E+03 -0.17832640742E+03 -0.65106909290E+02  0.34079415626E+03  0.00000000000E+00 0. -1.
<scales pt_clust_5="13000.00000" pt_clust_6="13000.00000" pt_clust_7="13000.00000" pt_clust_8="13000.00000" pt_clust_9="284.98143"></scales>
<clustering>
<clus scale="   67.341">  5  6 -1 -1</clus>
<clus scale="   90.407">  7  8 -1 -1</clus>
<clus scale="  113.583">  1  5  2 -1</clus>
<clus scale="  284.981">  2  9  1 -1</clus>
<clus scale="  284.981">  2  5  1 -1</clus>
</clustering>
</event>
<event>
 9    2  0.1033155E-004  0.1103334E+03  0.7546771E-02  0.1264338E+00
          2   -1    0    0  502    0 -0.00000000000E+00  0.00000000000E+00  0.30656197400E+03  0.30656197400E+03  0.00000000000E+00 0. -1.
         21   -1    0    0  501  502  0.00000000000E+00 -0.00000000000E+00 -0.59926684541E+02  0.59926684541E+02  0.00000000000E+00 0. -1.
         24    2    1    2    0    0 -0.16608890821E+02  0.69828244864E+02  0.18948487964E+03  0.21781942050E+03  0.79930853252E+02 0.  0.
         23    2    1    2    0    0  0.25078839343E+02 -0.34102529769E+02  0.42997859750E+02  0.10932001415E+03  0.91159853174E+02 0.  0.
        -11    1    3    3    0    0 -0.11266789933E+02  0.50404385243E+02  0.19076562442E+03  0.19763366633E+03  0.00000000000E+00 0.  1.
         12    1    3    3    0    0 -0.53421008881E+01  0.19423859621E+02 -0.12807447772E+01  0.20185754176E+02  0.00000000000E+00 0. -1.
        -13    1    4    4    0    0  0.53403011180E+02  0.10184915264E+01  0.33989195531E+02  0.63310223037E+02  0.00000000000E+00 0. -1.
         13    1    4    4    0    0 -0.28324171837E+02 -0.35121021295E+02  0.90086642184E+01  0.46009791111E+02  0.00000000000E+00 0.  1.
          1    1    1    2  501    0 -0.84699485222E+01 -0.35725715095E+02  0.14152550067E+02  0.39349223886E+02  0.00000000000E+00 0. -1.
<scales pt_clust_5="13000.00000" pt_clust_6="13000.00000" pt_clust_7="13000.00000" pt_clust_8="13000.00000" pt_clust_9="36.71603"></scales>
<clustering>
<clus scale="   36.716">  2  9  1 -1</clus>
<clus scale="   79.931">  5  6 -1 -1</clus>
<clus scale="   91.160">  7  8 -1 -1</clus>
<clus scale="  101.254">  1  5  2 -1</clus>
<clus scale="   36.716">  2  5  1 -1</clus>
</clustering>
</event>
<event>
 9    2  0.1033155E-004  0.1251919E+03  0.7546771E-02  0.1258400E+00
         -1   -1    0    0    0  501 -0.00000000000E+00  0.00000000000E+00  0.23244175644E+03  0.23244175644E+03  0.00000000000E+00 0.  1.
         21   -1    0    0  501  502  0.00000000000E+00 -0.00000000000E+00 -0.13186451200E+03  0.13186451200E+03  0.00000000000E+00 0.  1.
         24    2    1    2    0    0 -0.88191615625E+01 -0.14874151089E+01  0.94469848259E+02  0.12242751238E+03  0.77356018147E+02 0.  0.
         23    2    1    2    0    0  0.90274108318E+02  0.33501593254E+02  0.55274334409E+02  0.14149347942E+03  0.87711922163E+02 0.  0.
        -11    1    3    3    0    0 -0.54702813903E+01 -0.37827804948E+02  0.65485223294E+02  0.75823355739E+02  0.00000000000E+00 0.  1.
         12    1    3    3    0    0 -0.33488801722E+01  0.36340389839E+02  0.28984624965E+02  0.46604156643E+02  0.00000000000E+00 0. -1.
        -13    1    4    4    0    0  0.65756953011E+02 -0.22138179140E+02  0.31684850521E+02  0.76275851994E+02  0.00000000000E+00 0.  1.
         13    1    4    4    0    0  0.24517155308E+02  0.55639772393E+02  0.23589483888E+02  0.65217627421E+02  0.00000000000E+00 0. -1.
         -2    1    1    2    0  502 -0.81454946756E+02 -0.32014178145E+02 -0.49166938229E+02  0.10038527665E+03  0.00000000000E+00 0.  1.
<scales pt_clust_5="13000.00000" pt_clust_6="13000.00000" pt_clust_7="13000.00000" pt_clust_8="13000.00000" pt_clust_9="89.32881"></scales>
<clustering>
<clus scale="   77.356">  5  6 -1 -1</clus>
<clus scale="   77.871">  1  5  2 -1</clus>
<clus scale="   87.712">  7  8 -1 -1</clus>
<clus scale="   89.329">  2  9  1 -1</clus>
<clus scale="   89.329">  2  5  1 -1</clus>
</clustering>
</event>
<event>
 9    2  0.1033155E-004  0.1366512E+03  0.7546771E-02  0.1219512E+00
         21   -1    0    0  501  502  0.00000000000E+00  0.00000000000E+00  0.27550951414E+02  0.27550951414E+02  0.00000000000E+00 0. -1.
          2   -1    0    0  502    0 -0.00000000000E+00 -0.00000000000E+00 -0.79375890154E+03  0.79375890154E+03  0.00000000000E+00 0. -1.
         24    2    1    2    0    0  0.19769547713E+02 -0.10889711709E+03 -0.43712948732E+03  0.45798453617E+03  0.80113853711E+02 0.  0.
         23    2    1    2    0    0 -0.34570833385E+02  0.91876630457E+02 -0.28165507629E+03  0.31081100815E+03  0.87392465598E+02 0.  0.
        -13    1    3    3    0    0  0.14224342450E+02 -0.54896190259E+02 -0.88201569544E+02  0.10485914597E+03  0.00000000000E+00 0.  1.
         14    1    3    3    0    0  0.55452052634E+01 -0.54000926831E+02 -0.34892791778E+03  0.35312539020E+03  0.00000000000E+00 0. -1.
        -13    1    4    4    0    0 -0.36703502510E+02  0.35727257708E+02 -0.46981864972E+02  0.69504529896E+02  0.00000000000E+00 0. -1.
         13    1    4    4    0    0  0.21326691254E+01  0.56149372749E+02 -0.23467321132E+03  0.24130647826E+03  0.00000000000E+00 0.  1.
          1    1    1    2  501    0  0.14801285672E+02  0.17020486633E+02 -0.47423386513E+02  0.52514308632E+02  0.00000000000E+00 0. -1.
<scales pt_clust_5="13000.00000" pt_clust_6="13000.00000" pt_clust_7="13000.00000" pt_clust_8="13000.00000" pt_clust_9="22.55604"></scales>
<clustering>
<clus scale="   22.556">  1  9  2 -1</clus>
<clus scale="   80.114">  5  6 -1 -1</clus>
<clus scale="   87.392">  7  8 -1 -1</clus>
<clus scale="  132.115">  2  5  1 -1</clus>
<clus scale="   22.556">  1  5  2 -1</clus>
</clustering>
</event>
<event>
 9    2  0.1033155E-004  0.9610788E+02  0.7546771E-02  0.1293853E+00
         21   -1    0    0  501  502  0.00000000000E+00  0.00000000000E+00  0.34910133899E+02  0.34910133899E+02  0.00000000000E+00 0.  1.
          2   -1    0    0  502    0 -0.00000000000E+00 -0.00000000000E+00 -0.14254270270E+04  0.14254270270E+04  0.00000000000E+00 0. -1.
         24    2    1    2    0    0 -0.19959178053E+02  0.25403811901E+02 -0.12996408847E+04  0.13025733860E+04  0.81162023842E+02 0.  0.
         23    2    1    2    0    0  0.34620792736E+02 -0.95269542633E+01 -0.94628702717E+02  0.13582932100E+03  0.90585047979E+02 0.  0.
        -11    1    3    3    0    0  0.27474563287E+01  0.29519570234E+02 -0.16150574910E+03  0.16420432557E+03  0.00000000000E+00 0.  1.
         12    1    3    3    0    0 -0.22706634382E+02 -0.41157583335E+01 -0.11381351356E+04  0.11383690604E+04  0.00000000000E+00 0. -1.
        -13    1    4    4    0    0  0.21625467173E+02 -0.27480960091E+02  0.35786139100E+01  0.35152104851E+02  0.00000000000E+00 0.  1.
         13    1    4    4    0    0  0.12995325563E+02  0.17954005827E+02 -0.98207316627E+02  0.10067721615E+03  0.00000000000E+00 0. -1.
          1    1    1    2  501    0 -0.14661614682E+02 -0.15876857637E+02  0.37526943680E+01  0.21934453915E+02  0.00000000000E+00 0. -1.
<scales pt_clust_5="13000.00000" pt_clust_6="13000.00000" pt_clust_7="13000.00000" pt_clust_8="13000.00000" pt_clust_9="21.61105"></scales>
<clustering>
<clus scale="   21.611">  1  9  2 -1</clus>
<clus scale="   81.162">  5  6 -1 -1</clus>
<clus scale="   87.283">  2  5  1 -1</clus>
<clus scale="   90.585">  7  8 -1 -1</clus>
<clus scale="   21.611">  1  5  2 -1</clus>
</clustering>
</event>
<event>
 9    2  0.1033155E-004  0.1220266E+03  0.7546771E-02  0.1245390E+00
         21   -1    0    0  501  502  0.00000000000E+00  0.00000000000E+00  0.35816236014E+02  0.35816236014E+02  0.00000000000E+00 0. -1.
          2   -1    0    0  502    0 -0.00000000000E+00 -0.00000000000E+00 -0.11451623970E+04  0.11451623970E+04  0.00000000000E+00 0. -1.
         23    2    1    2    0    0  0.84300237065E+01  0.63832761978E+02 -0.15749163893E+03  0.19151147374E+03  0.87905298133E+02 0.  0.
         24    2    1    2    0    0  0.76654545457E+02  0.33741450134E+02 -0.24053483628E+03  0.26646245241E+03  0.78299593118E+02 0.  0.
        -11    1    4    4    0    0 -0.13316845618E+02  0.18431536092E+02 -0.37443446294E+02  0.43807209114E+02  0.00000000000E+00 0.  1.
         12    1    4    4    0    0  0.89971391075E+02  0.15309914042E+02 -0.20309138999E+03  0.22265524329E+03  0.00000000000E+00 0. -1.
        -11    1    3    3    0    0  0.31022245584E+02  0.16357903749E+02 -0.12417779280E+02  0.37204327414E+02  0.00000000000E+00 0. -1.
         11    1    3    3    0    0 -0.22592221877E+02  0.47474858229E+02 -0.14507385965E+03  0.15430714633E+03  0.00000000000E+00 0.  1.
          1    1    1    2  501    0 -0.85084569164E+02 -0.97574212112E+02 -0.71131968573E+03  0.72300470682E+03  0.00000000000E+00 0. -1.
<scales pt_clust_5="13000.00000" pt_clust_6="13000.00000" pt_clust_7="13000.00000" pt_clust_8="13000.00000" pt_clust_9="93.59314"></scales>
<clustering>
<clus scale="   78.300">  5  6 -1 -1</clus>
<clus scale="   87.905">  7  8 -1 -1</clus>
<clus scale="  108.963">  2  7  1 -1</clus>
<clus scale="   93.593">  1  9  2 -1</clus>
<clus scale="   93.593">  1  5  2 -1</clus>
</clustering>
</event>
<event>
 9    2  0.1033155E-004  0.1578413E+03  0.7546771E-02  0.1217344E+00
         21   -1    0    0  501  502  0.00000000000E+00  0.00000000000E+00  0.45044121253E+02  0.45044121253E+02  0.00000000000E+00 0. -1.
          2   -1    0    0  502    0 -0.00000000000E+00 -0.00000000000E+00 -0.96483954124E+03  0.96483954124E+03  0.00000000000E+00 0. -1.
         24    2    1    2    0    0  0.26650180287E+02 -0.24478161503E+02 -0.96435729155E+02  0.13172558985E+03  0.82111927656E+02 0.  0.
         23    2    1    2    0    0  0.67622518947E+02 -0.78249402580E+02 -0.59365387786E+03  0.60944809003E+03  0.91138760522E+02 0.  0.
        -11    1    3    3    0    0 -0.24697794568E+02  0.98175363566E+01 -0.40300257435E+02  0.48275002081E+02  0.00000000000E+00 0.  1.
         12    1    3    3    0    0  0.51347974855E+02 -0.34295697860E+02 -0.56135471720E+02  0.83450587767E+02  0.00000000000E+00 0. -1.
        -13    1    4    4    0    0  0.55800145855E+02  0.99960756796E+00 -0.19539744403E+03  0.20321126107E+03  0.00000000000E+00 0.  1.
         13    1    4    4    0    0  0.11822373092E+02 -0.79249010148E+02 -0.39825643383E+03  0.40623682896E+03  0.00000000000E+00 0. -1.
          1    1    1    2  501    0 -0.94272699235E+02  0.10272756408E+03 -0.22970581297E+03  0.26870998261E+03  0.00000000000E+00 0. -1.
<scales pt_clust_5="13000.00000" pt_clust_6="13000.00000" pt_clust_7="13000.00000" pt_clust_8="13000.00000" pt_clust_9="128.87051"></scales>
<clustering>
<clus scale="   82.112">  5  6 -1 -1</clus>
<clus scale="   89.732">  2  5  1 -1</clus>
<clus scale="   91.139">  7  8 -1 -1</clus>
<clus scale="  128.871">  1  9  2 -1</clus>
<clus scale="  128.871">  1  5  2 -1</clus>
</clustering>
</event>
<event>
 9    2  0.1033155E-004  0.1164011E+03  0.7546771E-02  0.1252519E+00
          2   -1    0    0  502    0 -0.00000000000E+00  0.00000000000E+00  0.24804592835E+04  0.24804592835E+04  0.00000000000E+00 0. -1.
         21   -1    0    0  501  502  0.00000000000E+00 -0.00000000000E+00 -0.88687070735E+01  0.88687070735E+01  0.00000000000E+00 0.  1.
         24    2    1    2    0    0  0.15033385196E+02  0.86155554808E+02  0.16298211387E+04  0.16341940597E+04  0.81391023010E+02 0.  0.
         23    2    1    2    0    0  0.89724171166E+01 -0.43963750426E+02  0.59686796988E+03  0.60546784206E+03  0.91250307841E+02 0.  0.
        -13    1    3    3    0    0 -0.20817626930E+02  0.12059184696E+02  0.13634686838E+03  0.13845311857E+03  0.00000000000E+00 0.  1.
         14    1    3    3    0    0  0.35851012126E+02  0.74096370112E+02  0.14934742703E+04  0.14957409412E+04  0.00000000000E+00 0. -1.
        -13    1    4    4    0    0 -0.12327115484E+02 -0.68262412814E+02  0.40399279441E+03  0.40990473615E+03  0.00000000000E+00 0.  1.
         13    1    4    4    0    0  0.21299532600E+02  0.24298662388E+02  0.19287517546E+03  0.19556310591E+03  0.00000000000E+00 0. -1.
          1    1    1    2  501    0 -0.24005802313E+02 -0.42191804382E+02  0.24490146791E+03  0.24966608878E+03  0.00000000000E+00 0. -1.
<scales pt_clust_5="13000.00000" pt_clust_6="13000.00000" pt_clust_7="13000.00000" pt_clust_8="13000.00000" pt_clust_9="48.54304"></scales>
<clustering>
<clus scale="   48.543">  2  9  1 -1</clus>
<clus scale="   81.391">  5  6 -1 -1</clus>
<clus scale="   91.250">  7  8 -1 -1</clus>
<clus scale="  108.844">  1  5  2 -1</clus>
<clus scale="   48.543">  2  5  1 -1</clus>
</clustering>
</event>
<event>
 9    2  0.1033155E-004  0.9115131E+02  0.7546771E-02  0.1305825E+00
          2   -1    0    0  502    0 -0.00000000000E+00  0.00000000000E+00  0.30252313156E+03  0.30252313156E+03  0.00000000000E+00 0. -1.
         21   -1    0    0  501  502  0.00000000000E+00 -0.00000000000E+00 -0.59439510183E+02  0.59439510183E+02  0.00000000000E+00 0. -1.
         23    2    1    2    0    0  0.35029010832E+00  0.12359251022E+02  0.18028067666E+03  0.20169790951E+03  0.89599389147E+02 0.  0.
         24    2    1    2    0    0 -0.22352336239E+02 -0.32104846702E+02 -0.16546832669E+01  0.89350950863E+02  0.80315044209E+02 0.  0.
        -11    1    4    4    0    0 -0.50788292632E+02 -0.30098736165E+02 -0.94713239449E+01  0.59792061049E+02  0.00000000000E+00 0.  1.
         12    1    4    4    0    0  0.28435956394E+02 -0.20061105363E+01  0.78166406780E+01  0.29558889813E+02  0.00000000000E+00 0. -1.
        -11    1    3    3    0    0  0.32394617478E+02 -0.22960456281E+01  0.15491109377E+03  0.15827864682E+03  0.00000000000E+00 0.  1.
         11    1    3    3    0    0 -0.32044327370E+02  0.14655296650E+02  0.25369582890E+02  0.43419262690E+02  0.00000000000E+00 0. -1.
          1    1    1    2  501    0  0.22002046130E+02  0.19745595679E+02  0.64457627983E+02  0.70913781367E+02  0.00000000000E+00 0. -1.
<scales pt_clust_5="13000.00000" pt_clust_6="13000.00000" pt_clust_7="13000.00000" pt_clust_8="13000.00000" pt_clust_9="29.56314"></scales>
<clustering>
<clus scale="   29.563">  2  9  1 -1</clus>
<clus scale="   80.315">  5  6 -1 -1</clus>
<clus scale="   82.043">  2  5  1 -1</clus>
<clus scale="   89.599">  7  8 -1 -1</clus>
<clus scale="   29.563">  2  5  1 -1</clus>
</clustering>
</event>
<event>
 9    2  0.1033155E-004  0.9324940E+02  0.7546771E-02  0.1297611E+00
          2   -1    0    0  502    0 -0.00000000000E+00  0.00000000000E+00  0.32867489886E+03  0.32867489886E+03  0.00000000000E+00 0. -1.
         21   -1    0    0  501  502  0.00000000000E+00 -0.00000000000E+00 -0.11310096313E+03  0.11310096313E+03  0.00000000000E+00 0. -1.
         23    2    1    2    0    0 -0.42994021659E+02  0.13937195936E+02  0.20163699952E+03  0.22622558918E+03  0.92075003627E+02 0.  0.
         24    2    1    2    0    0 -0.42411688644E+02  0.11523159528E+02  0.65339924431E+02  0.11266863086E+03  0.80581512241E+02 0.  0.
        -11    1    4    4    0    0 -0.17486415134E+02 -0.34411227580E+02  0.35752598434E+02  0.52613264417E+02  0.00000000000E+00 0.  1.
         12    1    4    4    0    0 -0.24925273510E+02  0.45934387108E+02  0.29587325997E+02  0.60055366439E+02  0.00000000000E+00 0. -1.
        -13    1    3    3    0    0 -0.13748267373E+02  0.51373360447E+02  0.12783570870E+03  0.13845651100E+03  0.00000000000E+00 0. -1.
         13    1    3    3    0    0 -0.29245754286E+02 -0.37436164510E+02  0.73801290823E+02  0.87769078178E+02  0.00000000000E+00 0.  1.
          1    1    1    2  501    0  0.85405710303E+02 -0.25460355464E+02 -0.51402988228E+02  0.10288164196E+03  0.00000000000E+00 0. -1.
<scales pt_clust_5="13000.00000" pt_clust_6="13000.00000" pt_clust_7="13000.00000" pt_clust_8="13000.00000" pt_clust_9="89.11995"></scales>
<clustering>
<clus scale="   80.582">  5  6 -1 -1</clus>
<clus scale="   89.120">  2  9  1 -1</clus>
<clus scale="   89.120">  2  5  1 -1</clus>
<clus scale="   92.075">  7  8 -1 -1</clus>
<clus scale="   89.120">  2  5  1 -1</clus>
</clustering>
</event>
<event>
 9    2  0.1033155E-004  0.1680871E+03  0.7546771E-02  0.1181690E+00
         -1   -1    0    0    0  501 -0.00000000000E+00  0.00000000000E+00  0.41293019990E+03  0.41293019990E+03  0.00000000000E+00 0.  1.
         21   -1    0    0  501  502  0.00000000000E+00 -0.00000000000E+00 -0.94348255667E+02  0.94348255667E+02  0.00000000000E+00 0.  1.
         23    2    1    2    0    0  0.63658836517E+02 -0.14407442926E+03  0.20616590780E+03  0.27485338624E+03  0.90719974396E+02 0.  0.
         24    2    1    2    0    0 -0.27636109713E+02  0.12327091210E+03  0.11932981257E+03  0.19025608222E+03  0.77448694791E+02 0.  0.
        -13    1    4    4    0    0 -0.35653467086E+01  0.12401491583E+03  0.98429383166E+02  0.15836904532E+03  0.00000000000E+00 0.  1.
         14    1    4    4    0    0 -0.24070763004E+02 -0.74400372932E+00  0.20900429402E+02  0.31887036901E+02  0.00000000000E+00 0. -1.
        -13    1    3    3    0    0  0.45287976612E+02 -0.15302446325E+03  0.16900200264E+03  0.23244174340E+03  0.00000000000E+00 0.  1.
         13    1    3    3    0    0  0.18370859906E+02  0.89500339814E+01  0.37163905159E+02  0.42411642843E+02  0.00000000000E+00 0. -1.
         -2    1    1    2    0  502 -0.36022726805E+02  0.20803517163E+02 -0.69137761362E+01  0.42168987103E+02  0.00000000000E+00 0.  1.
<scales pt_clust_5="13000.00000" pt_clust_6="13000.00000" pt_clust_7="13000.00000" pt_clust_8="13000.00000" pt_clust_9="41.59836"></scales>
<clustering>
<clus scale="   41.598">  2  9  1 -1</clus>
<clus scale="   77.449">  5  6 -1 -1</clus>
<clus scale="   90.720">  7  8 -1 -1</clus>
<clus scale="  161.312">  2  5  1 -1</clus>
<clus scale="   41.598">  2  5  1 -1</clus>
</clustering>
</event>
<event>
 9    2  0.1033155E-004  0.1029408E+03  0.7546771E-02  0.1280334E+00
         21   -1    0    0  501  502  0.00000000000E+00  0.00000000000E+00  0.51754700172E+03  0.51754700172E+03  0.00000000000E+00 0. -1.
          2   -1    0    0  502    0 -0.00000000000E+00 -0.00000000000E+00 -0.36240307888E+02  0.36240307888E+02  0.00000000000E+00 0. -1.
         23    2    1    2    0    0 -0.10222221821E+02 -0.46799370935E+02  0.74828166435E+02  0.12829474846E+03  0.92550597250E+02 0.  0.
         24    2    1    2    0    0 -0.15537422697E+02  0.37626737925E+02  0.36492222518E+03  0.37574698109E+03  0.79751993405E+02 0.  0.
        -11    1    4    4    0    0  0.57577636957E+01 -0.21032653515E+02  0.47748605733E+02  0.52492415701E+02  0.00000000000E+00 0.  1.
         12    1    4    4    0    0 -0.21295186392E+02  0.58659391441E+02  0.31717361945E+03  0.32325456539E+03  0.00000000000E+00 0. -1.
        -11    1    3    3    0    0 -0.17977828860E+02  0.15086186769E+02 -0.78347136343E+01  0.24742233114E+02  0.00000000000E+00 0.  1.
         11    1    3    3    0    0  0.77556070388E+01 -0.61885557704E+02  0.82662880069E+02  0.10355251534E+03  0.00000000000E+00 0. -1.
          1    1    1    2  501    0  0.25759644517E+02  0.91726330095E+01  0.41556302213E+02  0.49745580061E+02  0.00000000000E+00 0. -1.
<scales pt_clust_5="13000.00000" pt_clust_6="13000.00000" pt_clust_7="13000.00000" pt_clust_8="13000.00000" pt_clust_9="27.34405"></scales>
<clustering>
<clus scale="   27.344">  1  9  2 -1</clus>
<clus scale="   79.752">  5  6 -1 -1</clus>
<clus scale="   91.606">  1  5  2 -1</clus>
<clus scale="   92.551">  7  8 -1 -1</clus>
<clus scale="   27.344">  1  5  2 -1</clus>
</clustering>
</event>
<event>
 9    2  0.1033155E-004  0.8456071E+02  0.7546771E-02  0.1318617E+00
         21   -1    0    0  501  502  0.00000000000E+00  0.00000000000E+00  0.25077912021E+02  0.25077912021E+02  0.00000000000E+00 0. -1.
          2   -1    0    0  502    0 -0.00000000000E+00 -0.00000000000E+00 -0.61050088527E+03  0.61050088527E+03  0.00000000000E+00 0. -1.
         24    2    1    2    0    0  0.69871787509E+01 -0.30505784529E+02 -0.38823055587E+03  0.39737169360E+03  0.78751982863E+02 0.  0.
         23    2    1    2    0    0  0.22787311732E+02 -0.71814679873E+01 -0.11826450027E+03  0.14581410945E+03  0.81880568100E+02 0.  0.
        -11    1    3    3    0    0  0.20368173290E+01  0.23945441590E+02 -0.60266655699E+02  0.64881450253E+02  0.00000000000E+00 0.  1.
         12    1    3    3    0    0  0.49503614219E+01 -0.54451226119E+02 -0.32796390017E+03  0.33249024335E+03  0.00000000000E+00 0. -1.
        -11    1    4    4    0    0  0.44034329626E+02 -0.25390834461E+02 -0.46907770991E+02  0.69166868077E+02  0.00000000000E+00 0. -1.
         11    1    4    4    0    0 -0.21247017894E+02  0.18209366474E+02 -0.71356729279E+02  0.76647241373E+02  0.00000000000E+00 0.  1.
          1    1    1    2  501    0 -0.29774490483E+02  0.37687252516E+02 -0.78927917107E+02  0.92392994240E+02  0.00000000000E+00 0. -1.
<scales pt_clust_5="13000.00000" pt_clust_6="13000.00000" pt_clust_7="13000.00000" pt_clust_8="13000.00000" pt_clust_9="48.02967"></scales>
<clustering>
<clus scale="   48.030">  1  9  2 -1</clus>
<clus scale="   78.752">  5  6 -1 -1</clus>
<clus scale="   81.535">  2  5  1 -1</clus>
<clus scale="   81.881">  7  8 -1 -1</clus>
<clus scale="   48.030">  1  5  2 -1</clus>
</clustering>
</event>
<event>
 9    2  0.1033155E-004  0.3250862E+03  0.7546771E-02  0.1115689E+00
         21   -1    0    0  501  502  0.00000000000E+00  0.00000000000E+00  0.51650603560E+03  0.51650603560E+03  0.00000000000E+00 0.  1.
         -1   -1    0    0    0  501 -0.00000000000E+00 -0.00000000000E+00 -0.40477706569E+03  0.40477706569E+03  0.00000000000E+00 0.  1.
         24    2    1    2    0    0  0.33841715250E+02 -0.60381577289E+02 -0.12585860018E+03  0.16523107192E+03  0.81668374052E+02 0.  0.
         23    2    1    2    0    0  0.84354526308E+02 -0.27998613037E+03  0.24956715056E+03  0.39554677521E+03  0.93089040345E+02 0.  0.
        -11    1    3    3    0    0  0.24239410711E+02  0.15119370852E+02 -0.51120917828E+02  0.58561870241E+02  0.00000000000E+00 0.  1.
         12    1    3    3    0    0  0.96023045396E+01 -0.75500948141E+02 -0.74737682352E+02  0.10666920168E+03  0.00000000000E+00 0. -1.
        -13    1    4    4    0    0  0.18934054723E+02 -0.69492486353E+02  0.14825275692E+02  0.73535657250E+02  0.00000000000E+00 0.  1.
         13    1    4    4    0    0  0.65420471585E+02 -0.21049364401E+03  0.23474187486E+03  0.32201111796E+03  0.00000000000E+00 0. -1.
         -2    1    1    2    0  502 -0.11819624156E+03  0.34036770766E+03 -0.11979580467E+02  0.36050525417E+03  0.00000000000E+00 0.  1.
<scales pt_clust_5="13000.00000" pt_clust_6="13000.00000" pt_clust_7="13000.00000" pt_clust_8="13000.00000" pt_clust_9="311.47320"></scales>
<clustering>
<clus scale="   81.668">  5  6 -1 -1</clus>
<clus scale="   93.089">  7  8 -1 -1</clus>
<clus scale="  107.056">  2  5  1 -1</clus>
<clus scale="  311.473">  1  9  2 -1</clus>
<clus scale="  311.473">  1  5  2 -1</clus>
</clustering>
</event>
<event>
 9    2  0.1033155E-004  0.1855629E+03  0.7546771E-02  0.1184327E+00
         21   -1    0    0  501  502  0.00000000000E+00  0.00000000000E+00  0.83978864023E+02  0.83978864023E+02  0.00000000000E+00 0. -1.
          4   -1    0    0  502    0 -0.00000000000E+00 -0.00000000000E+00 -0.80306587943E+03  0.80306587943E+03  0.00000000000E+00 0. -1.
         23    2    1    2    0    0 -0.42156042330E+02  0.54730938704E+02 -0.97954025899E+02  0.14956854176E+03  0.89460326048E+02 0.  0.
         24    2    1    2    0    0 -0.10125450630E+03  0.56066156785E+02 -0.49780970799E+03  0.51827033136E+03  0.85986871202E+02 0.  0.
        -13    1    4    4    0    0 -0.69882021466E+02  0.77961304384E+02 -0.33262154897E+03  0.34870984607E+03  0.00000000000E+00 0.  1.
         14    1    4    4    0    0 -0.31372484830E+02 -0.21895147599E+02 -0.16518815902E+03  0.16956048529E+03  0.00000000000E+00 0. -1.
        -11    1    3    3    0    0 -0.30533111583E+02 -0.20534113201E+02 -0.34520485119E+02  0.50453786783E+02  0.00000000000E+00 0.  1.
         11    1    3    3    0    0 -0.11622930747E+02  0.75265051905E+02 -0.63433540779E+02  0.99114754972E+02  0.00000000000E+00 0. -1.
          3    1    1    2  501    0  0.14341054863E+03 -0.11079709549E+03 -0.12332328152E+03  0.21920587034E+03  0.00000000000E+00 0. -1.
<scales pt_clust_5="13000.00000" pt_clust_6="13000.00000" pt_clust_7="13000.00000" pt_clust_8="13000.00000" pt_clust_9="164.43794"></scales>
<clustering>
<clus scale="   85.987">  5  6 -1 -1</clus>
<clus scale="   89.460">  7  8 -1 -1</clus>
<clus scale="  113.030">  2  7  1 -1</clus>
<clus scale="  164.438">  1  9  2 -1</clus>
<clus scale="  164.438">  1  5  2 -1</clus>
</clustering>
</event>
<event>
 9    2  0.1033155E-004  0.1358938E+03  0.7546771E-02  0.1224211E+00
          2   -1    0    0  502    0 -0.00000000000E+00  0.00000000000E+00  0.43570333755E+02  0.43570333755E+02  0.00000000000E+00 0. -1.
         21   -1    0    0  501  502  0.00000000000E+00 -0.00000000000E+00 -0.49100771003E+03  0.49100771003E+03  0.00000000000E+00 0.  1.
         24    2    1    2    0    0 -0.76979591115E+02  0.40364592777E+02 -0.14995124704E+03  0.19061375498E+03  0.79328868023E+02 0.  0.
         23    2    1    2    0    0  0.76247575050E+02 -0.67330747317E+02 -0.22154125980E+03  0.26337066293E+03  0.99681763939E+02 0.  0.
        -13    1    3    3    0    0 -0.53613764835E+02 -0.17147840466E+01 -0.30214796593E+02  0.61565495184E+02  0.00000000000E+00 0.  1.
         14    1    3    3    0    0 -0.23365826280E+02  0.42079376824E+02 -0.11973645045E+03  0.12904825980E+03  0.00000000000E+00 0. -1.
        -11    1    4    4    0    0 -0.11797049224E+02 -0.39398623882E+02 -0.11622260829E+03  0.12328469740E+03  0.00000000000E+00 0.  1.
         11    1    4    4    0    0  0.88044624274E+02 -0.27932123435E+02 -0.10531865151E+03  0.14008596553E+03  0.00000000000E+00 0. -1.
          1    1    1    2  501    0  0.73201606551E+00  0.26966154540E+02 -0.75944869434E+02  0.80593625874E+02  0.00000000000E+00 0. -1.
<scales pt_clust_5="13000.00000" pt_clust_6="13000.00000" pt_clust_7="13000.00000" pt_clust_8="13000.00000" pt_clust_9="26.97609"></scales>
<clustering>
<clus scale="   26.976">  2  9  1 -1</clus>
<clus scale="   79.329">  5  6 -1 -1</clus>
<clus scale="   99.682">  7  8 -1 -1</clus>
<clus scale="  121.753">  1  5  2 -1</clus>
<clus scale="   26.976">  2  5  1 -1</clus>
</clustering>
</event>
<event>
 9    2  0.1033155E-004  0.1191207E+03  0.7546771E-02  0.1247509E+00
          2   -1    0    0  502    0 -0.00000000000E+00  0.00000000000E+00  0.83346708802E+03  0.83346708802E+03  0.00000000000E+00 0. -1.
         21   -1    0    0  501  502  0.00000000000E+00 -0.00000000000E+00 -0.61748709097E+02  0.61748709097E+02  0.00000000000E+00 0. -1.
         24    2    1    2    0    0 -0.46164581813E+02  0.67108728373E+02  0.73042236493E+03  0.73948470411E+03  0.81768248027E+02 0.  0.
         23    2    1    2    0    0  0.74978422610E+01 -0.46846284202E+02  0.44764943765E+02  0.11193934876E+03  0.90971015316E+02 0.  0.
        -13    1    3    3    0    0  0.38515264075E+01  0.35713580057E+02  0.99149428651E+02  0.10545569334E+03  0.00000000000E+00 0.  1.
         14    1    3    3    0    0 -0.50016108221E+02  0.31395148316E+02  0.63127293628E+03  0.63402901077E+03  0.00000000000E+00 0. -1.
        -13    1    4    4    0    0 -0.20279028544E+02 -0.65587348743E+02  0.25151335508E+02  0.73113124620E+02  0.00000000000E+00 0. -1.
         13    1    4    4    0    0  0.27776870805E+02  0.18741064541E+02  0.19613608257E+02  0.38826224136E+02  0.00000000000E+00 0.  1.
          1    1    1    2  501    0  0.38666739552E+02 -0.20262444171E+02 -0.34689297641E+01  0.43791744257E+02  0.00000000000E+00 0. -1.
<scales pt_clust_5="13000.00000" pt_clust_6="13000.00000" pt_clust_7="13000.00000" pt_clust_8="13000.00000" pt_clust_9="43.65413"></scales>
<clustering>
<clus scale="   43.654">  2  9  1 -1</clus>
<clus scale="   81.768">  5  6 -1 -1</clus>
<clus scale="   90.971">  7  8 -1 -1</clus>
<clus scale="  112.250">  1  5  2 -1</clus>
<clus scale="   43.654">  2  5  1 -1</clus>
</clustering>
</event>
<event>
 9    2  0.1033155E-004  0.9709837E+02  0.7546771E-02  0.1293330E+00
         21   -1    0    0  501  502  0.00000000000E+00  0.00000000000E+00  0.25354977672E+03  0.25354977672E+03  0.00000000000E+00 0.  1.
         -1   -1    0    0    0  501 -0.00000000000E+00 -0.00000000000E+00 -0.50817176313E+03  0.50817176313E+03  0.00000000000E+00 0.  1.
         24    2    1    2    0    0  0.29923071800E+02 -0.23951371568E+01 -0.39754422523E+03  0.40680083613E+03  0.80897356911E+02 0.  0.
         23    2    1    2    0    0 -0.13924294251E+02 -0.34354544787E+02 -0.80122688115E+02  0.12830309753E+03  0.93101659310E+02 0.  0.
        -13    1    3    3    0    0  0.51657014210E+02 -0.22257070499E+02 -0.28279705104E+03  0.28833660257E+03  0.00000000000E+00 0.  1.
         14    1    3    3    0    0 -0.21733942410E+02  0.19861933342E+02 -0.11474717420E+03  0.11846423357E+03  0.00000000000E+00 0. -1.
        -11    1    4    4    0    0 -0.38279321131E+02  0.17434039381E+02 -0.25490198266E+02  0.49183354532E+02  0.00000000000E+00 0. -1.
         11    1    4    4    0    0  0.24355026880E+02 -0.51788584168E+02 -0.54632489849E+02  0.79119742995E+02  0.00000000000E+00 0.  1.
         -2    1    1    2    0  502 -0.15998777549E+02  0.36749681944E+02  0.22304492694E+03  0.22661760620E+03  0.00000000000E+00 0.  1.
<scales pt_clust_5="13000.00000" pt_clust_6="13000.00000" pt_clust_7="13000.00000" pt_clust_8="13000.00000" pt_clust_9="40.08117"></scales>
<clustering>
<clus scale="   40.081">  1  9  2 -1</clus>
<clus scale="   80.897">  5  6 -1 -1</clus>
<clus scale="   85.467">  2  5  1 -1</clus>
<clus scale="   93.102">  7  8 -1 -1</clus>
<clus scale="   40.081">  1  5  2 -1</clus>
</clustering>
</event>
<event>
 9    2  0.1033155E-004  0.1181163E+03  0.7546771E-02  0.1250132E+00
          2   -1    0    0  502    0 -0.00000000000E+00  0.00000000000E+00  0.61068442106E+03  0.61068442106E+03  0.00000000000E+00 0. -1.
         21   -1    0    0  501  502  0.00000000000E+00 -0.00000000000E+00 -0.27239582339E+02  0.27239582339E+02  0.00000000000E+00 0.  1.
         23    2    1    2    0    0  0.25450078896E+02 -0.80991972982E+02  0.29815859270E+03  0.32323797190E+03  0.91525045066E+02 0.  0.
         24    2    1    2    0    0 -0.36179045525E+02  0.55184338187E+02  0.20456862453E+03  0.22926660070E+03  0.79753479789E+02 0.  0.
        -13    1    4    4    0    0 -0.34611391843E+02  0.49434753606E+02  0.61811754321E+02  0.86385393914E+02  0.00000000000E+00 0.  1.
         14    1    4    4    0    0 -0.15676536815E+01  0.57495845806E+01  0.14275687021E+03  0.14288120678E+03  0.00000000000E+00 0. -1.
        -13    1    3    3    0    0 -0.21692349406E+02  0.59082030312E+01  0.90434066714E+02  0.93186830123E+02  0.00000000000E+00 0.  1.
         13    1    3    3    0    0  0.47142428302E+02 -0.86900176013E+02  0.20772452598E+03  0.23005114178E+03  0.00000000000E+00 0. -1.
          1    1    1    2  501    0  0.10728966629E+02  0.25807634795E+02  0.80717621494E+02  0.85419430800E+02  0.00000000000E+00 0. -1.
<scales pt_clust_5="13000.00000" pt_clust_6="13000.00000" pt_clust_7="13000.00000" pt_clust_8="13000.00000" pt_clust_9="27.94898"></scales>
<clustering>
<clus scale="   27.949">  2  9  1 -1</clus>
<clus scale="   79.753">  5  6 -1 -1</clus>
<clus scale="   91.525">  7  8 -1 -1</clus>
<clus scale="  109.248">  2  5  1 -1</clus>
<clus scale="   27.949">  2  5  1 -1</clus>
</clustering>
</event>
<event>
 9    2  0.1033155E-004  0.2307955E+03  0.7546771E-02  0.1126769E+00
         21   -1    0    0  501  502  0.00000000000E+00  0.00000000000E+00  0.51586780130E+03  0.51586780130E+03  0.00000000000E+00 0.  1.
         -1   -1    0    0    0  501 -0.00000000000E+00 -0.00000000000E+00 -0.25902298039E+03  0.25902298039E+03  0.00000000000E+00 0.  1.
         23    2    1    2    0    0 -0.97214828025E+02 -0.19788216022E+03 -0.12855872306E+03  0.27080754991E+03  0.90561093694E+02 0.  0.
         24    2    1    2    0    0  0.10923362752E+03  0.15816577614E+03  0.13036762078E+03  0.24569367157E+03  0.80132799625E+02 0.  0.
        -11    1    4    4    0    0  0.26799709894E+02  0.43041091555E+01  0.42101758190E+02  0.50092992012E+02  0.00000000000E+00 0.  1.
         12    1    4    4    0    0  0.82433917623E+02  0.15386166699E+03  0.88265862594E+02  0.19560067956E+03  0.00000000000E+00 0. -1.
        -13    1    3    3    0    0  0.16781269586E+02 -0.13450990530E+02 -0.12680660348E+02  0.24966763948E+02  0.00000000000E+00 0.  1.
         13    1    3    3    0    0 -0.11399609761E+03 -0.18443116969E+03 -0.11587806272E+03  0.24584078596E+03  0.00000000000E+00 0. -1.
         -2    1    1    2    0  502 -0.12018799492E+02  0.39716384075E+02  0.25503592319E+03  0.25838956020E+03  0.00000000000E+00 0.  1.
<scales pt_clust_5="13000.00000" pt_clust_6="13000.00000" pt_clust_7="13000.00000" pt_clust_8="13000.00000" pt_clust_9="41.49509"></scales>
<clustering>
<clus scale="   41.495">  1  9  2 -1</clus>
<clus scale="   80.133">  5  6 -1 -1</clus>
<clus scale="   90.561">  7  8 -1 -1</clus>
<clus scale="  226.906">  1  5  2 -1</clus>
<clus scale="   41.495">  1  5  2 -1</clus>
</clustering>
</event>
<event>
 9    2  0.1033155E-004  0.6889402E+03  0.7546771E-02  0.1000954E+00
          2   -1    0    0  502    0 -0.00000000000E+00  0.00000000000E+00  0.85123592331E+03  0.85123592331E+03  0.00000000000E+00 0. -1.
         21   -1    0    0  501  502  0.00000000000E+00 -0.00000000000E+00 -0.11249398341E+04  0.11249398341E+04  0.00000000000E+00 0.  1.
         23    2    1    2    0    0  0.29565711108E+02 -0.26932459410E+03 -0.42274940542E+03  0.50963964562E+03  0.87210322452E+02 0.  0.
         24    2    1    2    0    0  0.67172895431E+03  0.43568865617E+02 -0.10779624655E+03  0.68631336367E+03  0.79296710314E+02 0.  0.
        -11    1    4    4    0    0  0.66020427664E+03  0.36290023324E+02 -0.95702759156E+02  0.66809106475E+03  0.00000000000E+00 0.  1.
         12    1    4    4    0    0  0.11524677672E+02  0.72788422932E+01 -0.12093487394E+02  0.18222298920E+02  0.00000000000E+00 0. -1.
        -13    1    3    3    0    0  0.46993307769E+02 -0.25013919498E+03 -0.35265297164E+03  0.43490470939E+03  0.00000000000E+00 0.  1.
         13    1    3    3    0    0 -0.17427596661E+02 -0.19185399120E+02 -0.70096433779E+02  0.74734936230E+02  0.00000000000E+00 0. -1.
          1    1    1    2  501    0 -0.70129466542E+03  0.22575572849E+03  0.25684174117E+03  0.78022274813E+03  0.00000000000E+00 0. -1.
<scales pt_clust_5="13000.00000" pt_clust_6="13000.00000" pt_clust_7="13000.00000" pt_clust_8="13000.00000" pt_clust_9="684.36184"></scales>
<clustering>
<clus scale="   79.297">  5  6 -1 -1</clus>
<clus scale="   87.210">  7  8 -1 -1</clus>
<clus scale="  284.632">  1  7  2 -1</clus>
<clus scale="  684.362">  2  9  1 -1</clus>
<clus scale="  684.362">  2  5  1 -1</clus>
</clustering>
</event>
<event>
 9    2  0.1033155E-004  0.1206781E+03  0.7546771E-02  0.1245026E+00
         21   -1    0    0  501  502  0.00000000000E+00  0.00000000000E+00  0.20851851665E+03  0.20851851665E+03  0.00000000000E+00 0.  1.
          2   -1    0    0  502    0 -0.00000000000E+00 -0.00000000000E+00 -0.19850771244E+03  0.19850771244E+03  0.00000000000E+00 0. -1.
         23    2    1    2    0    0  0.59804347673E+02  0.77852406948E+02 -0.12304018170E+03  0.18104418280E+03  0.89445807873E+02 0.  0.
         24    2    1    2    0    0 -0.42591809650E+02  0.10408134853E+02  0.83382290719E+02  0.12325340380E+03  0.79475805267E+02 0.  0.
        -13    1    4    4    0    0 -0.63517232356E+02  0.21504545792E+02  0.60376763696E+02  0.90234349836E+02  0.00000000000E+00 0.  1.
         14    1    4    4    0    0  0.20925422707E+02 -0.11096410939E+02  0.23005527024E+02  0.33019053966E+02  0.00000000000E+00 0. -1.
        -13    1    3    3    0    0  0.15146740066E+02  0.59934840048E+02 -0.16258022695E+02  0.63921296046E+02  0.00000000000E+00 0.  1.
         13    1    3    3    0    0  0.44657607607E+02  0.17917566900E+02 -0.10678215900E+03  0.11712288676E+03  0.00000000000E+00 0. -1.
          1    1    1    2  501    0 -0.17212538024E+02 -0.88260541800E+02  0.49668695191E+02  0.10272864248E+03  0.00000000000E+00 0. -1.
<scales pt_clust_5="13000.00000" pt_clust_6="13000.00000" pt_clust_7="13000.00000" pt_clust_8="13000.00000" pt_clust_9="89.92327"></scales>
<clustering>
<clus scale="   79.476">  5  6 -1 -1</clus>
<clus scale="   89.446">  7  8 -1 -1</clus>
<clus scale="   89.923">  1  9  2 -1</clus>
<clus scale="  113.486">  1  5  2 -1</clus>
<clus scale="   89.923">  1  5  2 -1</clus>
</clustering>
</event>
<event>
 9    2  0.1033155E-004  0.1090186E+03  0.7546771E-02  0.1266253E+00
         21   -1    0    0  501  502  0.00000000000E+00  0.00000000000E+00  0.44377756114E+02  0.44377756114E+02  0.00000000000E+00 0. -1.
          2   -1    0    0  502    0 -0.00000000000E+00 -0.00000000000E+00 -0.47271608549E+03  0.47271608549E+03  0.00000000000E+00 0. -1.
         24    2    1    2    0    0 -0.65456721073E+02 -0.27333002275E+02 -0.33997671235E+03  0.35628924941E+03  0.79537343165E+02 0.  0.
         23    2    1    2    0    0  0.27853683482E+02  0.22420631981E+02 -0.59654654337E+02  0.11324190172E+03  0.89367433106E+02 0.  0.
        -13    1    3    3    0    0 -0.13895007921E+02 -0.23742367653E+02 -0.25231228888E+02  0.37328088326E+02  0.00000000000E+00 0.  1.
         14    1    3    3    0    0 -0.51561713153E+02 -0.35906346217E+01 -0.31474548346E+03  0.31896116108E+03  0.00000000000E+00 0. -1.
        -11    1    4    4    0    0 -0.27601349804E+02  0.26489077487E+02 -0.36932426817E+02  0.53174334859E+02  0.00000000000E+00 0.  1.
         11    1    4    4    0    0  0.55455033286E+02 -0.40684455066E+01 -0.22722227520E+02  0.60067566865E+02  0.00000000000E+00 0. -1.
          1    1    1    2  501    0  0.37603037591E+02  0.49123702942E+01 -0.28706962687E+02  0.47562690470E+02  0.00000000000E+00 0. -1.
<scales pt_clust_5="13000.00000" pt_clust_6="13000.00000" pt_clust_7="13000.00000" pt_clust_8="13000.00000" pt_clust_9="37.92255"></scales>
<clustering>
<clus scale="   37.923">  1  9  2 -1</clus>
<clus scale="   79.537">  5  6 -1 -1</clus>
<clus scale="   89.367">  7  8 -1 -1</clus>
<clus scale="  101.117">  2  5  1 -1</clus>
<clus scale="   37.923">  1  5  2 -1</clus>
</clustering>
</event>
<event>
 9    2  0.1033155E-004  0.1791404E+03  0.7546771E-02  0.1169766E+00
         21   -1    0    0  501  502  0.00000000000E+00  0.00000000000E+00  0.80132761927E+02  0.80132761927E+02  0.00000000000E+00 0. -1.
          2   -1    0    0  502    0 -0.00000000000E+00 -0.00000000000E+00 -0.80833594184E+03  0.80833594184E+03  0.00000000000E+00 0. -1.
         23    2    1    2    0    0  0.77504902046E+02  0.12677564147E+03 -0.58623031713E+03  0.61152919065E+03  0.90680169784E+02 0.  0.
         24    2    1    2    0    0 -0.11302009622E+03 -0.14079283100E+03 -0.13026539150E+03  0.23700362069E+03  0.81274107738E+02 0.  0.
        -11    1    4    4    0    0 -0.33662599586E+02 -0.53332261562E+01 -0.50456332955E+02  0.60888877863E+02  0.00000000000E+00 0.  1.
         12    1    4    4    0    0 -0.79357496634E+02 -0.13545960484E+03 -0.79809058540E+02  0.17611474283E+03  0.00000000000E+00 0. -1.
        -13    1    3    3    0    0 -0.20328129061E+02  0.28132173197E+02 -0.10074676154E+03  0.10655778695E+03  0.00000000000E+00 0.  1.
         13    1    3    3    0    0  0.97833031108E+02  0.98643468275E+02 -0.48548355559E+03  0.50497140370E+03  0.00000000000E+00 0. -1.
          1    1    1    2  501    0  0.35515194174E+02  0.14017189526E+02 -0.11707471289E+02  0.39935892420E+02  0.00000000000E+00 0. -1.
<scales pt_clust_5="13000.00000" pt_clust_6="13000.00000" pt_clust_7="13000.00000" pt_clust_8="13000.00000" pt_clust_9="38.18129"></scales>
<clustering>
<clus scale="   38.181">  1  9  2 -1</clus>
<clus scale="   81.274">  5  6 -1 -1</clus>
<clus scale="   90.680">  7  8 -1 -1</clus>
<clus scale="  174.568">  1  5  2 -1</clus>
<clus scale="   38.181">  1  5  2 -1</clus>
</clustering>
</event>
<event>
 9    2  0.1033155E-004  0.9545051E+02  0.7546771E-02  0.1299804E+00
          2   -1    0    0  502    0 -0.00000000000E+00  0.00000000000E+00  0.12126833514E+03  0.12126833514E+03  0.00000000000E+00 0. -1.
         21   -1    0    0  501  502  0.00000000000E+00 -0.00000000000E+00 -0.95598723360E+02  0.95598723360E+02  0.00000000000E+00 0.  1.
         23    2    1    2    0    0  0.20809791531E+02  0.30891770244E+02  0.14885194422E+02  0.10081765081E+03  0.92494760988E+02 0.  0.
         24    2    1    2    0    0  0.30445159568E+01 -0.12102440096E+02 -0.11879372671E+02  0.78158587007E+02  0.76235864881E+02 0.  0.
        -11    1    4    4    0    0  0.25894955383E+02 -0.81510130696E+00 -0.35136843379E+02  0.43655593766E+02  0.00000000000E+00 0.  1.
         12    1    4    4    0    0 -0.22850439426E+02 -0.11287338789E+02  0.23257470708E+02  0.34502993241E+02  0.00000000000E+00 0. -1.
        -11    1    3    3    0    0  0.50928088578E+02  0.32170091660E+02 -0.10818694241E+02  0.61201545313E+02  0.00000000000E+00 0.  1.
         11    1    3    3    0    0 -0.30118297047E+02 -0.12783214156E+01  0.25703888663E+02  0.39616105501E+02  0.00000000000E+00 0. -1.
          1    1    1    2  501    0 -0.23854307488E+02 -0.18789330149E+02  0.22663790026E+02  0.37890820676E+02  0.00000000000E+00 0. -1.
<scales pt_clust_5="13000.00000" pt_clust_6="13000.00000" pt_clust_7="13000.00000" pt_clust_8="13000.00000" pt_clust_9="30.36557"></scales>
<clustering>
<clus scale="   30.366">  2  9  1 -1</clus>
<clus scale="   76.236">  5  6 -1 -1</clus>
<clus scale="   79.796">  2  5  1 -1</clus>
<clus scale="   92.495">  7  8 -1 -1</clus>
<clus scale="   30.366">  2  5  1 -1</clus>
</clustering>
</event>
<event>
 9    2  0.1033155E-004  0.1007751E+03  0.7546771E-02  0.1285298E+00
          2   -1    0    0  502    0 -0.00000000000E+00  0.00000000000E+00  0.13906422551E+03  0.13906422551E+03  0.00000000000E+00 0. -1.
         21   -1    0    0  501  502  0.00000000000E+00 -0.00000000000E+00 -0.20485908941E+03  0.20485908941E+03  0.00000000000E+00 0. -1.
         23    2    1    2    0    0  0.40750539826E+02 -0.10948914791E+02  0.94925867814E+02  0.13814427082E+03  0.91062802232E+02 0.  0.
         24    2    1    2    0    0 -0.50645292276E+02 -0.77709885917E+01 -0.81270419704E+02  0.12355561077E+03  0.77690243541E+02 0.  0.
        -11    1    4    4    0    0 -0.54312372760E+02  0.20867859779E+02 -0.31879330295E+02  0.66344503214E+02  0.00000000000E+00 0.  1.
         12    1    4    4    0    0  0.36670804842E+01 -0.28638848371E+02 -0.49391089409E+02  0.57211107560E+02  0.00000000000E+00 0. -1.
        -13    1    3    3    0    0  0.27934556099E+02  0.28053819226E+02  0.57935181351E+01  0.40011511468E+02  0.00000000000E+00 0.  1.
         13    1    3    3    0    0  0.12815983727E+02 -0.39002734017E+02  0.89132349679E+02  0.98132759356E+02  0.00000000000E+00 0. -1.
          1    1    1    2  501    0  0.98947524503E+01  0.18719903383E+02 -0.79450312005E+02  0.82223433317E+02  0.00000000000E+00 0. -1.
<scales pt_clust_5="13000.00000" pt_clust_6="13000.00000" pt_clust_7="13000.00000" pt_clust_8="13000.00000" pt_clust_9="21.17406"></scales>
<clustering>
<clus scale="   21.174">  2  9  1 -1</clus>
<clus scale="   77.690">  5  6 -1 -1</clus>
<clus scale="   88.876">  2  5  1 -1</clus>
<clus scale="   91.063">  7  8 -1 -1</clus>
<clus scale="   21.174">  2  5  1 -1</clus>
</clustering>
</event>
<event>
 9    2  0.1033155E-004  0.2613427E+03  0.7546771E-02  0.1128422E+00
         21   -1    0    0  501  502  0.00000000000E+00  0.00000000000E+00  0.57896030729E+03  0.57896030729E+03  0.00000000000E+00 0. -1.
         -3   -1    0    0    0  501 -0.00000000000E+00 -0.00000000000E+00 -0.27221811102E+03  0.27221811102E+03  0.00000000000E+00 0.  1.
         24    2    1    2    0    0 -0.99004048661E+02  0.79634757763E+02  0.28872739201E+01  0.15005902553E+03  0.79786455593E+02 0.  0.
         23    2    1    2    0    0 -0.11724974656E+03  0.18299271173E+03  0.27070312060E+03  0.35930375001E+03  0.92656190598E+02 0.  0.
        -11    1    3    3    0    0 -0.90730364470E+02  0.29935745856E+02  0.18492726631E+02  0.97314587062E+02  0.00000000000E+00 0.  1.
         12    1    3    3    0    0 -0.82736841910E+01  0.49699011907E+02 -0.15605452711E+02  0.52744438464E+02  0.00000000000E+00 0. -1.
        -11    1    4    4    0    0 -0.31876666838E+02  0.34297209141E+02  0.12777250712E+03  0.13608171817E+03  0.00000000000E+00 0.  1.
         11    1    4    4    0    0 -0.85373079723E+02  0.14869550259E+03  0.14293061348E+03  0.22322203185E+03  0.00000000000E+00 0. -1.
         -4    1    1    2    0  502  0.21625379522E+03 -0.26262746950E+03  0.33151801749E+02  0.34181564277E+03  0.00000000000E+00 0.  1.
<scales pt_clust_5="13000.00000" pt_clust_6="13000.00000" pt_clust_7="13000.00000" pt_clust_8="13000.00000" pt_clust_9="244.36636"></scales>
<clustering>
<clus scale="   79.786">  5  6 -1 -1</clus>
<clus scale="   92.656">  7  8 -1 -1</clus>
<clus scale="  150.031">  2  5  1 -1</clus>
<clus scale="  244.366">  1  9  2 -1</clus>
<clus scale="  244.366">  1  5  2 -1</clus>
</clustering>
</event>
<event>
 9    2  0.1033155E-004  0.1242577E+03  0.7546771E-02  0.1256192E+00
          2   -1    0    0  502    0 -0.00000000000E+00  0.00000000000E+00  0.16773603531E+03  0.16773603531E+03  0.00000000000E+00 0. -1.
         21   -1    0    0  501  502  0.00000000000E+00 -0.00000000000E+00 -0.27011776877E+03  0.27011776877E+03  0.00000000000E+00 0. -1.
         23    2    1    2    0    0  0.22703461657E+00 -0.19992384202E+02  0.10589959458E+03  0.13466689172E+03  0.80750855242E+02 0.  0.
         24    2    1    2    0    0 -0.69355132542E+02  0.67349800836E+02 -0.16325810744E+03  0.20806326007E+03  0.85387238295E+02 0.  0.
        -11    1    4    4    0    0 -0.45357094925E+02 -0.19071274724E+01 -0.10513634301E+03  0.11451879242E+03  0.00000000000E+00 0.  1.
         12    1    4    4    0    0 -0.23998037617E+02  0.69256928308E+02 -0.58121764434E+02  0.93544467656E+02  0.00000000000E+00 0. -1.
        -11    1    3    3    0    0 -0.18960275137E+02 -0.34592074965E+02  0.17709389065E+02  0.43240330072E+02  0.00000000000E+00 0. -1.
         11    1    3    3    0    0  0.19187309753E+02  0.14599690764E+02  0.88190205513E+02  0.91426561646E+02  0.00000000000E+00 0.  1.
          1    1    1    2  501    0  0.69128097925E+02 -0.47357416634E+02 -0.45023220596E+02  0.95123652295E+02  0.00000000000E+00 0. -1.
<scales pt_clust_5="13000.00000" pt_clust_6="13000.00000" pt_clust_7="13000.00000" pt_clust_8="13000.00000" pt_clust_9="90.27187"></scales>
<clustering>
<clus scale="   80.751">  7  8 -1 -1</clus>
<clus scale="   83.189">  1  7  2 -1</clus>
<clus scale="   85.387">  5  6 -1 -1</clus>
<clus scale="   90.272">  2  9  1 -1</clus>
<clus scale="   90.272">  2  5  1 -1</clus>
</clustering>
</event>
<event>
 9    2  0.1033155E-004  0.2338350E+03  0.7546771E-02  0.1167379E+00
         21   -1    0    0  501  502  0.00000000000E+00  0.00000000000E+00  0.27550753804E+03  0.27550753804E+03  0.00000000000E+00 0.  1.
         -1   -1    0    0    0  501 -0.00000000000E+00 -0.00000000000E+00 -0.44212640212E+03  0.44212640212E+03  0.00000000000E+00 0.  1.
         24    2    1    2    0    0  0.12244077971E+02 -0.27104771266E+02 -0.30792912325E+02  0.88441232383E+02  0.77389030652E+02 0.  0.
         23    2    1    2    0    0  0.17979356528E+03 -0.77206896697E+02 -0.29003852129E+03  0.36172140631E+03  0.91833550172E+02 0.  0.
        -11    1    3    3    0    0 -0.22692951973E+02 -0.35573716224E+02 -0.17591236355E+01  0.42232142631E+02  0.00000000000E+00 0.  1.
         12    1    3    3    0    0  0.34937029944E+02  0.84689449584E+01 -0.29033788690E+02  0.46209089752E+02  0.00000000000E+00 0. -1.
        -11    1    4    4    0    0  0.13811775467E+03 -0.33638921899E+02 -0.13781390948E+03  0.19799183031E+03  0.00000000000E+00 0.  1.
         11    1    4    4    0    0  0.41675810614E+02 -0.43567974798E+02 -0.15222461181E+03  0.16372957601E+03  0.00000000000E+00 0. -1.
         -2    1    1    2    0  502 -0.19203764326E+03  0.10431166796E+03  0.15421256953E+03  0.26747130146E+03  0.00000000000E+00 0.  1.
<scales pt_clust_5="13000.00000" pt_clust_6="13000.00000" pt_clust_7="13000.00000" pt_clust_8="13000.00000" pt_clust_9="215.04743"></scales>
<clustering>
<clus scale="   77.389">  5  6 -1 -1</clus>
<clus scale="   82.907">  2  5  1 -1</clus>
<clus scale="   91.834">  7  8 -1 -1</clus>
<clus scale="  215.047">  1  9  2 -1</clus>
<clus scale="  215.047">  1  5  2 -1</clus>
</clustering>
</event>
<event>
 9    2  0.1033155E-004  0.1465472E+03  0.7546771E-02  0.1206625E+00
         -1   -1    0    0    0  501 -0.00000000000E+00  0.00000000000E+00  0.16797378162E+03  0.16797378162E+03  0.00000000000E+00 0.  1.
         21   -1    0    0  501  502  0.00000000000E+00 -0.00000000000E+00 -0.17243174111E+03  0.17243174111E+03  0.00000000000E+00 0. -1.
         23    2    1    2    0    0 -0.26175866042E+02 -0.13164282348E+03  0.20667729099E+01  0.16123272013E+03  0.89312426637E+02 0.  0.
         24    2    1    2    0    0  0.42760233243E+02  0.90521220886E+02 -0.26359331069E+02  0.13059874842E+03  0.79615888974E+02 0.  0.
        -13    1    4    4    0    0  0.59229196853E+02  0.33096765547E+02 -0.18638165168E+02  0.70362453414E+02  0.00000000000E+00 0.  1.
         14    1    4    4    0    0 -0.16468963610E+02  0.57424455339E+02 -0.77211659008E+01  0.60236295008E+02  0.00000000000E+00 0. -1.
        -13    1    3    3    0    0 -0.30858884302E+01 -0.13737778158E+03  0.96832061786E+00  0.13741584779E+03  0.00000000000E+00 0. -1.
         13    1    3    3    0    0 -0.23089977612E+02  0.57349580972E+01  0.10984522920E+01  0.23816872337E+02  0.00000000000E+00 0.  1.
         -2    1    1    2    0  502 -0.16584367201E+02  0.41121602594E+02  0.19834598668E+02  0.48574054183E+02  0.00000000000E+00 0.  1.
<scales pt_clust_5="13000.00000" pt_clust_6="13000.00000" pt_clust_7="13000.00000" pt_clust_8="13000.00000" pt_clust_9="44.33993"></scales>
<clustering>
<clus scale="   44.340">  2  9  1 -1</clus>
<clus scale="   79.616">  5  6 -1 -1</clus>
<clus scale="   89.312">  7  8 -1 -1</clus>
<clus scale="  140.848">  2  5  1 -1</clus>
<clus scale="   44.340">  2  5  1 -1</clus>
</clustering>
</event>
<event>
 9    2  0.1033155E-004  0.1045349E+03  0.7546771E-02  0.1276072E+00
         21   -1    0    0  501  502  0.00000000000E+00  0.00000000000E+00  0.67906258388E+02  0.67906258388E+02  0.00000000000E+00 0.  1.
          2   -1    0    0  502    0 -0.00000000000E+00 -0.00000000000E+00 -0.21686538935E+03  0.21686538935E+03  0.00000000000E+00 0. -1.
         24    2    1    2    0    0 -0.26136851022E+02  0.34406765332E+02 -0.84098312827E+02  0.12364471657E+03  0.79677658312E+02 0.  0.
         23    2    1    2    0    0  0.57781592667E+02 -0.36043146650E+02 -0.61674878209E+02  0.12928014749E+03  0.90949134469E+02 0.  0.
        -11    1    3    3    0    0 -0.34711865100E+02  0.46210812766E+02 -0.90764774804E+02  0.10760388999E+03  0.00000000000E+00 0.  1.
         12    1    3    3    0    0  0.85750140781E+01 -0.11804047433E+02  0.66664619772E+01  0.16040826585E+02  0.00000000000E+00 0. -1.
        -11    1    4    4    0    0  0.58919073038E+02  0.33792512787E+01 -0.36600151278E+01  0.59129283926E+02  0.00000000000E+00 0.  1.
         11    1    4    4    0    0 -0.11374803706E+01 -0.39422397929E+02 -0.58014863081E+02  0.70150863561E+02  0.00000000000E+00 0. -1.
          1    1    1    2  501    0 -0.31644741646E+02  0.16363813180E+01 -0.31859399292E+01  0.31846783682E+02  0.00000000000E+00 0. -1.
<scales pt_clust_5="13000.00000" pt_clust_6="13000.00000" pt_clust_7="13000.00000" pt_clust_8="13000.00000" pt_clust_9="31.68702"></scales>
<clustering>
<clus scale="   31.687">  1  9  2 -1</clus>
<clus scale="   79.678">  5  6 -1 -1</clus>
<clus scale="   90.949">  7  8 -1 -1</clus>
<clus scale="   94.891">  2  5  1 -1</clus>
<clus scale="   31.687">  1  5  2 -1</clus>
</clustering>
</event>
<event>
 9    2  0.1033155E-004  0.1096018E+03  0.7546771E-02  0.1264605E+00
          2   -1    0    0  502    0 -0.00000000000E+00  0.00000000000E+00  0.38078754164E+03  0.38078754164E+03  0.00000000000E+00 0. -1.
         21   -1    0    0  501  502  0.00000000000E+00 -0.00000000000E+00 -0.18498524003E+03  0.18498524003E+03  0.00000000000E+00 0. -1.
         24    2    1    2    0    0 -0.28069551589E+02  0.58177373581E+02  0.33081378393E+03  0.34671270542E+03  0.81236900124E+02 0.  0.
         23    2    1    2    0    0  0.34923144694E+02 -0.37630997782E+02 -0.24235302478E+02  0.10618630908E+03  0.89735524294E+02 0.  0.
        -11    1    3    3    0    0 -0.12685227030E+02 -0.19439128982E+02  0.53216748421E+02  0.58058737783E+02  0.00000000000E+00 0.  1.
         12    1    3    3    0    0 -0.15384324559E+02  0.77616502563E+02  0.27759703551E+03  0.28865396764E+03  0.00000000000E+00 0. -1.
        -11    1    4    4    0    0  0.33141079039E+02 -0.58851982359E+02 -0.41062874427E+02  0.79044586176E+02  0.00000000000E+00 0.  1.
         11    1    4    4    0    0  0.17820656553E+01  0.21220984578E+02  0.16827571950E+02  0.27141722903E+02  0.00000000000E+00 0. -1.
          1    1    1    2  501    0 -0.68535931049E+01 -0.20546375799E+02 -0.11077617984E+03  0.11287376718E+03  0.00000000000E+00 0. -1.
<scales pt_clust_5="13000.00000" pt_clust_6="13000.00000" pt_clust_7="13000.00000" pt_clust_8="13000.00000" pt_clust_9="21.65930"></scales>
<clustering>
<clus scale="   21.659">  2  9  1 -1</clus>
<clus scale="   81.237">  5  6 -1 -1</clus>
<clus scale="   89.736">  7  8 -1 -1</clus>
<clus scale="  102.760">  1  5  2 -1</clus>
<clus scale="   21.659">  2  5  1 -1</clus>
</clustering>
</event>
<event>
 9    2  0.1033155E-004  0.1306155E+03  0.7546771E-02  0.1230191E+00
         21   -1    0    0  501  502  0.00000000000E+00  0.00000000000E+00  0.13872410436E+03  0.13872410436E+03  0.00000000000E+00 0. -1.
         -3   -1    0    0    0  501 -0.00000000000E+00 -0.00000000000E+00 -0.27965645093E+03  0.27965645093E+03  0.00000000000E+00 0.  1.
         24    2    1    2    0    0 -0.10834396534E+03 -0.31687185220E+02 -0.15974691974E+03  0.21136091803E+03  0.80074132999E+02 0.  0.
         23    2    1    2    0    0  0.33512518343E+02 -0.25499037760E+02  0.40242882718E+02  0.11043194648E+03  0.93821294930E+02 0.  0.
        -13    1    3    3    0    0 -0.11364110263E+03 -0.45748336095E+02 -0.14896354400E+03  0.19286613986E+03  0.00000000000E+00 0.  1.
         14    1    3    3    0    0  0.52971372990E+01  0.14061150875E+02 -0.10783375739E+02  0.18494778177E+02  0.00000000000E+00 0. -1.
        -13    1    4    4    0    0 -0.23032101991E+02  0.16272924768E+02 -0.22438086280E+01  0.28289936016E+02  0.00000000000E+00 0.  1.
         13    1    4    4    0    0  0.56544620334E+02 -0.41771962529E+02  0.42486691346E+02  0.82142010468E+02  0.00000000000E+00 0. -1.
         -4    1    1    2    0  502  0.74831446992E+02  0.57186222980E+02 -0.21428309550E+02  0.96587690768E+02  0.00000000000E+00 0.  1.
<scales pt_clust_5="13000.00000" pt_clust_6="13000.00000" pt_clust_7="13000.00000" pt_clust_8="13000.00000" pt_clust_9="94.18073"></scales>
<clustering>
<clus scale="   80.074">  5  6 -1 -1</clus>
<clus scale="   93.821">  7  8 -1 -1</clus>
<clus scale="   94.181">  1  9  2 -1</clus>
<clus scale="  121.119">  2  5  1 -1</clus>
<clus scale="   94.181">  1  5  2 -1</clus>
</clustering>
</event>
<event>
 9    2  0.1033155E-004  0.9669714E+02  0.7546771E-02  0.1294212E+00
          2   -1    0    0  502    0 -0.00000000000E+00  0.00000000000E+00  0.80465328698E+03  0.80465328698E+03  0.00000000000E+00 0. -1.
         21   -1    0    0  501  502  0.00000000000E+00 -0.00000000000E+00 -0.21509746955E+02  0.21509746955E+02  0.00000000000E+00 0.  1.
         24    2    1    2    0    0  0.15877743213E+02 -0.18298377594E+02  0.46564965048E+03  0.47314858994E+03  0.80330926913E+02 0.  0.
         23    2    1    2    0    0 -0.33956511802E+02  0.31476177877E+02  0.13975799158E+03  0.17387610159E+03  0.92503016308E+02 0.  0.
        -11    1    3    3    0    0  0.38673089920E+01  0.31217061343E+02  0.13641100438E+03  0.13999079653E+03  0.00000000000E+00 0.  1.
         12    1    3    3    0    0  0.12010434221E+02 -0.49515438937E+02  0.32923864610E+03  0.33315779341E+03  0.00000000000E+00 0. -1.
        -13    1    4    4    0    0 -0.53426924504E+02  0.51679715658E+02  0.11188742061E+03  0.13432804682E+03  0.00000000000E+00 0.  1.
         13    1    4    4    0    0  0.19470412702E+02 -0.20203537781E+02  0.27870570972E+02  0.39548054769E+02  0.00000000000E+00 0. -1.
          1    1    1    2  501    0  0.18078768589E+02 -0.13177800283E+02  0.17773589796E+03  0.17913834240E+03  0.00000000000E+00 0. -1.
<scales pt_clust_5="13000.00000" pt_clust_6="13000.00000" pt_clust_7="13000.00000" pt_clust_8="13000.00000" pt_clust_9="22.37179"></scales>
<clustering>
<clus scale="   22.372">  2  9  1 -1</clus>
<clus scale="   80.331">  5  6 -1 -1</clus>
<clus scale="   85.127">  1  5  2 -1</clus>
<clus scale="   92.503">  7  8 -1 -1</clus>
<clus scale="   22.372">  2  5  1 -1</clus>
</clustering>
</event>
<event>
 9    2  0.1033155E-004  0.9165960E+02  0.7546771E-02  0.1304583E+00
          2   -1    0    0  502    0 -0.00000000000E+00  0.00000000000E+00  0.34861649339E+03  0.34861649339E+03  0.00000000000E+00 0. -1.
         21   -1    0    0  501  502  0.00000000000E+00 -0.00000000000E+00 -0.41033113016E+02  0.41033113016E+02  0.00000000000E+00 0.  1.
         23    2    1    2    0    0 -0.24967298999E+02 -0.13197727516E+02  0.19506179076E+03  0.21709835050E+03  0.91022225544E+02 0.  0.
         24    2    1    2    0    0 -0.11224657333E+02 -0.67408011417E+01  0.98928379625E+02  0.12905208366E+03  0.81830218564E+02 0.  0.
        -13    1    4    4    0    0 -0.42093893184E+02  0.72752515314E+01  0.29883659637E+02  0.52133082026E+02  0.00000000000E+00 0.  1.
         14    1    4    4    0    0  0.30869235851E+02 -0.14016052673E+02  0.69044719988E+02  0.76919001637E+02  0.00000000000E+00 0. -1.
        -13    1    3    3    0    0  0.24903437634E+02  0.20038986700E+02  0.42436900561E+02  0.53128454929E+02  0.00000000000E+00 0.  1.
         13    1    3    3    0    0 -0.49870736632E+02 -0.33236714216E+02  0.15262489020E+03  0.16396989557E+03  0.00000000000E+00 0. -1.
          1    1    1    2  501    0  0.36191956331E+02  0.19938528658E+02  0.13593209986E+02  0.43499172243E+02  0.00000000000E+00 0. -1.
<scales pt_clust_5="13000.00000" pt_clust_6="13000.00000" pt_clust_7="13000.00000" pt_clust_8="13000.00000" pt_clust_9="41.32073"></scales>
<clustering>
<clus scale="   41.321">  2  9  1 -1</clus>
<clus scale="   81.830">  5  6 -1 -1</clus>
<clus scale="   82.539">  2  5  1 -1</clus>
<clus scale="   91.022">  7  8 -1 -1</clus>
<clus scale="   41.321">  2  5  1 -1</clus>
</clustering>
</event>
<event>
 9    2  0.1033155E-004  0.1146909E+03  0.7546771E-02  0.1255105E+00
          2   -1    0    0  502    0 -0.00000000000E+00  0.00000000000E+00  0.16626646952E+03  0.16626646952E+03  0.00000000000E+00 0. -1.
         21   -1    0    0  501  502  0.00000000000E+00 -0.00000000000E+00 -0.15552509498E+03  0.15552509498E+03  0.00000000000E+00 0. -1.
         23    2    1    2    0    0  0.16454295038E+02  0.27014932566E+02  0.26197820453E-01  0.98044191335E+02  0.92801467453E+02 0.  0.
         24    2    1    2    0    0 -0.56282596050E+02 -0.97952357475E+02  0.17239606609E+02  0.14213254608E+03  0.84510719234E+02 0.  0.
        -11    1    4    4    0    0 -0.49884261015E+02 -0.34206245975E+02  0.41795625907E+02  0.73521296953E+02  0.00000000000E+00 0.  1.
         12    1    4    4    0    0 -0.63983350345E+01 -0.63746111500E+02 -0.24556019299E+02  0.68611249124E+02  0.00000000000E+00 0. -1.
        -13    1    3    3    0    0  0.12202310059E+02  0.48407744420E+02 -0.31998949133E+02  0.59297039018E+02  0.00000000000E+00 0. -1.
         13    1    3    3    0    0  0.42519849792E+01 -0.21392811855E+02  0.32025146953E+02  0.38747152317E+02  0.00000000000E+00 0.  1.
          1    1    1    2  501    0  0.39828301012E+02  0.70937424909E+02 -0.65244298861E+01  0.81614827082E+02  0.00000000000E+00 0. -1.
<scales pt_clust_5="13000.00000" pt_clust_6="13000.00000" pt_clust_7="13000.00000" pt_clust_8="13000.00000" pt_clust_9="81.35362"></scales>
<clustering>
<clus scale="   81.354">  2  9  1 -1</clus>
<clus scale="   84.511">  5  6 -1 -1</clus>
<clus scale="   92.801">  7  8 -1 -1</clus>
<clus scale="  108.092">  2  5  1 -1</clus>
<clus scale="   81.354">  2  5  1 -1</clus>
</clustering>
</event>
<event>
 9    2  0.1033155E-004  0.9636230E+02  0.7546771E-02  0.1292470E+00
         21   -1    0    0  501  502  0.00000000000E+00  0.00000000000E+00  0.13072232706E+03  0.13072232706E+03  0.00000000000E+00 0. -1.
          2   -1    0    0  502    0 -0.00000000000E+00 -0.00000000000E+00 -0.23033044229E+03  0.23033044229E+03  0.00000000000E+00 0. -1.
         24    2    1    2    0    0  0.38958037505E+02 -0.36458064007E+01 -0.16782152049E+03  0.19081965236E+03  0.81957650023E+02 0.  0.
         23    2    1    2    0    0  0.29181201584E+01 -0.29688672540E+02  0.67994682654E+02  0.11670884300E+03  0.90043014510E+02 0.  0.
        -11    1    3    3    0    0 -0.21337029751E+02  0.16713341685E+02 -0.53750160387E+02  0.60197046194E+02  0.00000000000E+00 0.  1.
         12    1    3    3    0    0  0.60295067257E+02 -0.20359148085E+02 -0.11407136010E+03  0.13062260617E+03  0.00000000000E+00 0. -1.
        -11    1    4    4    0    0  0.11540766541E+02 -0.59789640577E+02  0.31286607847E+02  0.68460515943E+02  0.00000000000E+00 0. -1.
         11    1    4    4    0    0 -0.86226463823E+01  0.30100968037E+02  0.36708074807E+02  0.48248327054E+02  0.00000000000E+00 0.  1.
          1    1    1    2  501    0 -0.41876157664E+02  0.33334478940E+02  0.21872260471E+00  0.53524273993E+02  0.00000000000E+00 0. -1.
<scales pt_clust_5="13000.00000" pt_clust_6="13000.00000" pt_clust_7="13000.00000" pt_clust_8="13000.00000" pt_clust_9="53.52383"></scales>
<clustering>
<clus scale="   53.524">  1  9  2 -1</clus>
<clus scale="   81.958">  5  6 -1 -1</clus>
<clus scale="   88.854">  2  5  1 -1</clus>
<clus scale="   90.043">  7  8 -1 -1</clus>
<clus scale="   53.524">  1  5  2 -1</clus>
</clustering>
</event>
<event>
 9    2  0.1033155E-004  0.9415348E+02  0.7546771E-02  0.1298582E+00
         21   -1    0    0  501  502  0.00000000000E+00  0.00000000000E+00  0.25455254349E+03  0.25455254349E+03  0.00000000000E+00 0.  1.
         -1   -1    0    0    0  501 -0.00000000000E+00 -0.00000000000E+00 -0.62059416890E+02  0.62059416890E+02  0.00000000000E+00 0.  1.
         23    2    1    2    0    0  0.69006397620E+01  0.11085895543E+02  0.79610122241E+02  0.12005449426E+03  0.88908909119E+02 0.  0.
         24    2    1    2    0    0 -0.53386469857E+02  0.28082733367E+02  0.78043906746E+02  0.12649409043E+03  0.79190583130E+02 0.  0.
        -13    1    4    4    0    0 -0.64374153692E+02  0.45568189909E+02  0.63037134457E+02  0.10096619194E+03  0.00000000000E+00 0.  1.
         14    1    4    4    0    0  0.10987683835E+02 -0.17485456543E+02  0.15006772290E+02  0.25527898486E+02  0.00000000000E+00 0. -1.
        -13    1    3    3    0    0 -0.13408570945E+02 -0.26877432087E+02  0.69668033114E+02  0.75867127060E+02  0.00000000000E+00 0. -1.
         13    1    3    3    0    0  0.20309210707E+02  0.37963327630E+02  0.99420891270E+01  0.44187367205E+02  0.00000000000E+00 0.  1.
         -2    1    1    2    0  502  0.46485830095E+02 -0.39168628909E+02  0.34839097618E+02  0.70063375690E+02  0.00000000000E+00 0.  1.
<scales pt_clust_5="13000.00000" pt_clust_6="13000.00000" pt_clust_7="13000.00000" pt_clust_8="13000.00000" pt_clust_9="60.78748"></scales>
<clustering>
<clus scale="   60.787">  1  9  2 -1</clus>
<clus scale="   79.191">  5  6 -1 -1</clus>
<clus scale="   85.037">  1  5  2 -1</clus>
<clus scale="   88.909">  7  8 -1 -1</clus>
<clus scale="   60.787">  1  5  2 -1</clus>
</clustering>
</event>
<event>
 9    2  0.1033155E-004  0.9341040E+02  0.7546771E-02  0.1300362E+00
         21   -1    0    0  501  502  0.00000000000E+00  0.00000000000E+00  0.64713238027E+02  0.64713238027E+02  0.00000000000E+00 0. -1.
          2   -1    0    0  502    0 -0.00000000000E+00 -0.00000000000E+00 -0.20175869224E+03  0.20175869224E+03  0.00000000000E+00 0. -1.
         24    2    1    2    0    0  0.18378395585E+02 -0.38021438881E+02 -0.62882715420E+02  0.11107369177E+03  0.81238746093E+02 0.  0.
         23    2    1    2    0    0 -0.99851767570E+01 -0.62922252230E+01 -0.50380505384E+02  0.10441057749E+03  0.90686699775E+02 0.  0.
        -13    1    3    3    0    0 -0.21816374959E+02  0.23045352431E+01  0.49735588075E+01  0.22494474571E+02  0.00000000000E+00 0.  1.
         14    1    3    3    0    0  0.40194770544E+02 -0.40325974124E+02 -0.67856274227E+02  0.88579217202E+02  0.00000000000E+00 0. -1.
        -13    1    4    4    0    0  0.26243701717E+02  0.56398749405E+01 -0.59427907423E+02  0.65209019697E+02  0.00000000000E+00 0.  1.
         13    1    4    4    0    0 -0.36228878474E+02 -0.11932100163E+02  0.90474020388E+01  0.39201557794E+02  0.00000000000E+00 0. -1.
          1    1    1    2  501    0 -0.83932188285E+01  0.44313664104E+02 -0.23782233408E+02  0.50987661003E+02  0.00000000000E+00 0. -1.
<scales pt_clust_5="13000.00000" pt_clust_6="13000.00000" pt_clust_7="13000.00000" pt_clust_8="13000.00000" pt_clust_9="45.10152"></scales>
<clustering>
<clus scale="   45.102">  1  9  2 -1</clus>
<clus scale="   81.239">  5  6 -1 -1</clus>
<clus scale="   84.268">  2  5  1 -1</clus>
<clus scale="   90.687">  7  8 -1 -1</clus>
<clus scale="   45.102">  1  5  2 -1</clus>
</clustering>
</event>
<event>
 9    2  0.1033155E-004  0.9172394E+02  0.7546771E-02  0.1305614E+00
         21   -1    0    0  501  502  0.00000000000E+00  0.00000000000E+00  0.17763461646E+03  0.17763461646E+03  0.00000000000E+00 0.  1.
          4   -1    0    0  502    0 -0.00000000000E+00 -0.00000000000E+00 -0.25305857918E+03  0.25305857918E+03  0.00000000000E+00 0. -1.
         24    2    1    2    0    0  0.11704583386E+02 -0.94263359771E+01 -0.22628471550E+03  0.24027079517E+03  0.79368945180E+02 0.  0.
         23    2    1    2    0    0 -0.27807064452E+01  0.28184958337E+02  0.13095417643E+03  0.16165100366E+03  0.90442945871E+02 0.  0.
        -11    1    3    3    0    0 -0.16567296393E+02 -0.25124415041E+02 -0.34512023739E+02  0.45790734035E+02  0.00000000000E+00 0.  1.
         12    1    3    3    0    0  0.28271879779E+02  0.15698079064E+02 -0.19177269176E+03  0.19448006113E+03  0.00000000000E+00 0. -1.
        -13    1    4    4    0    0 -0.19298923209E+01 -0.32494774373E+02  0.32515978084E+02  0.46010038868E+02  0.00000000000E+00 0.  1.
         13    1    4    4    0    0 -0.85081412428E+00  0.60679732710E+02  0.98438198341E+02  0.11564096480E+03  0.00000000000E+00 0. -1.
          3    1    1    2  501    0 -0.89238769410E+01 -0.18758622360E+02  0.19906576348E+02  0.28771396810E+02  0.00000000000E+00 0. -1.
<scales pt_clust_5="13000.00000" pt_clust_6="13000.00000" pt_clust_7="13000.00000" pt_clust_8="13000.00000" pt_clust_9="20.77310"></scales>
<clustering>
<clus scale="   20.773">  1  9  2 -1</clus>
<clus scale="   79.369">  5  6 -1 -1</clus>
<clus scale="   80.826">  2  5  1 -1</clus>
<clus scale="   90.443">  7  8 -1 -1</clus>
<clus scale="   20.773">  1  5  2 -1</clus>
</clustering>
</event>
<event>
 9    2  0.1033155E-004  0.1020834E+03  0.7546771E-02  0.1282575E+00
         -3   -1    0    0    0  501 -0.00000000000E+00  0.00000000000E+00  0.16012036569E+03  0.16012036569E+03  0.00000000000E+00 0.  1.
         21   -1    0    0  501  502  0.00000000000E+00 -0.00000000000E+00 -0.14668542639E+03  0.14668542639E+03  0.00000000000E+00 0. -1.
         24    2    1    2    0    0 -0.31195091665E+02  0.65408271741E+01  0.75623747205E+02  0.11484144616E+03  0.80334864477E+02 0.  0.
         23    2    1    2    0    0  0.68112421805E+02 -0.48610565558E+02 -0.40940968518E+02  0.13209596669E+03  0.93653042791E+02 0.  0.
        -13    1    3    3    0    0 -0.57878674664E+02 -0.25283737950E+01  0.55345760397E+02  0.80121700237E+02  0.00000000000E+00 0.  1.
         14    1    3    3    0    0  0.26683583000E+02  0.90692009691E+01  0.20277986808E+02  0.34719745922E+02  0.00000000000E+00 0. -1.
        -11    1    4    4    0    0  0.44790626163E+02  0.12252463410E+02  0.12186020528E+02  0.48008563278E+02  0.00000000000E+00 0.  1.
         11    1    4    4    0    0  0.23321795642E+02 -0.60863028968E+02 -0.53126989046E+02  0.84087403410E+02  0.00000000000E+00 0. -1.
         -4    1    1    2    0  502 -0.36917330140E+02  0.42069738384E+02 -0.21247839386E+02  0.59868379224E+02  0.00000000000E+00 0.  1.
<scales pt_clust_5="13000.00000" pt_clust_6="13000.00000" pt_clust_7="13000.00000" pt_clust_8="13000.00000" pt_clust_9="55.97099"></scales>
<clustering>
<clus scale="   55.971">  2  9  1 -1</clus>
<clus scale="   80.335">  5  6 -1 -1</clus>
<clus scale="   90.021">  1  5  2 -1</clus>
<clus scale="   93.653">  7  8 -1 -1</clus>
<clus scale="   55.971">  2  5  1 -1</clus>
</clustering>
</event>
<event>
 9    2  0.1033155E-004  0.1177610E+03  0.7546771E-02  0.1250784E+00
         21   -1    0    0  501  502  0.00000000000E+00  0.00000000000E+00  0.92757319475E+02  0.92757319475E+02  0.00000000000E+00 0. -1.
          2   -1    0    0  502    0 -0.00000000000E+00 -0.00000000000E+00 -0.20714771807E+03  0.20714771807E+03  0.00000000000E+00 0. -1.
         23    2    1    2    0    0  0.26740809473E+02 -0.62194940802E+02 -0.10012625988E+03  0.15109312822E+03  0.90667435861E+02 0.  0.
         24    2    1    2    0    0 -0.47668785525E+02  0.76556392494E+02 -0.23161834457E+02  0.12191580429E+03  0.78700688778E+02 0.  0.
        -13    1    4    4    0    0  0.11036799225E+02  0.27852537210E+02  0.18290566966E+02  0.35101561306E+02  0.00000000000E+00 0.  1.
         14    1    4    4    0    0 -0.58705584750E+02  0.48703855284E+02 -0.41452401423E+02  0.86814242980E+02  0.00000000000E+00 0. -1.
        -13    1    3    3    0    0  0.25264528158E+02 -0.83201156819E+02 -0.59585465170E+02  0.10540947082E+03  0.00000000000E+00 0. -1.
         13    1    3    3    0    0  0.14762813147E+01  0.21006216017E+02 -0.40540794711E+02  0.45683657403E+02  0.00000000000E+00 0.  1.
          1    1    1    2  501    0  0.20927976052E+02 -0.14361451692E+02  0.88976957471E+01  0.26896105033E+02  0.00000000000E+00 0. -1.
<scales pt_clust_5="13000.00000" pt_clust_6="13000.00000" pt_clust_7="13000.00000" pt_clust_8="13000.00000" pt_clust_9="25.38172"></scales>
<clustering>
<clus scale="   25.382">  1  9  2 -1</clus>
<clus scale="   78.701">  5  6 -1 -1</clus>
<clus scale="   90.667">  7  8 -1 -1</clus>
<clus scale="  108.816">  1  5  2 -1</clus>
<clus scale="   25.382">  1  5  2 -1</clus>
</clustering>
</event>
<event>
 9    2  0.1033155E-004  0.1867311E+03  0.7546771E-02  0.1162602E+00
          2   -1    0    0  502    0 -0.00000000000E+00  0.00000000000E+00  0.11383229454E+04  0.11383229454E+04  0.00000000000E+00 0. -1.
         21   -1    0    0  501  502  0.00000000000E+00 -0.00000000000E+00 -0.42358073723E+02  0.42358073723E+02  0.00000000000E+00 0. -1.
         24    2    1    2    0    0  0.81742867827E+01 -0.16601605731E+03  0.78548566648E+03  0.80696502623E+03  0.81096677261E+02 0.  0.
         23    2    1    2    0    0 -0.25323756258E+02  0.15153235102E+03  0.23735109428E+03  0.29722022400E+03  0.91656824984E+02 0.  0.
        -13    1    3    3    0    0 -0.34761556956E+02 -0.63575913880E+02  0.36004311428E+03  0.36726190493E+03  0.00000000000E+00 0.  1.
         14    1    3    3    0    0  0.42935843738E+02 -0.10244014343E+03  0.42544255219E+03  0.43970312130E+03  0.00000000000E+00 0. -1.
        -13    1    4    4    0    0 -0.60088620731E+02  0.94134150186E+02  0.15337135626E+03  0.18972256980E+03  0.00000000000E+00 0. -1.
         13    1    4    4    0    0  0.34764864474E+02  0.57398200832E+02  0.83979738020E+02  0.10749765420E+03  0.00000000000E+00 0.  1.
          1    1    1    2  501    0  0.17149469475E+02  0.14483706294E+02  0.73128110930E+02  0.76495768899E+02  0.00000000000E+00 0. -1.
<scales pt_clust_5="13000.00000" pt_clust_6="13000.00000" pt_clust_7="13000.00000" pt_clust_8="13000.00000" pt_clust_9="22.44733"></scales>
<clustering>
<clus scale="   22.447">  2  9  1 -1</clus>
<clus scale="   81.097">  5  6 -1 -1</clus>
<clus scale="   91.657">  7  8 -1 -1</clus>
<clus scale="  181.781">  1  5  2 -1</clus>
<clus scale="   22.447">  2  5  1 -1</clus>
</clustering>
</event>
<event>
 9    2  0.1033155E-004  0.2196913E+03  0.7546771E-02  0.1134961E+00
          4   -1    0    0  502    0 -0.00000000000E+00  0.00000000000E+00  0.12455892021E+03  0.12455892021E+03  0.00000000000E+00 0. -1.
         21   -1    0    0  501  502  0.00000000000E+00 -0.00000000000E+00 -0.58184287136E+03  0.58184287136E+03  0.00000000000E+00 0. -1.
         23    2    1    2    0    0  0.14302870043E+03 -0.14967308802E+03 -0.68523191112E+02  0.23665836653E+03  0.91937545665E+02 0.  0.
         24    2    1    2    0    0 -0.87334622682E+02  0.16576909031E+03 -0.32363148230E+03  0.38254976468E+03  0.80624180622E+02 0.  0.
        -13    1    4    4    0    0 -0.69952132332E+02  0.17171891033E+03 -0.28954010513E+03  0.34382285768E+03  0.00000000000E+00 0.  1.
         14    1    4    4    0    0 -0.17382490350E+02 -0.59498200142E+01 -0.34091377168E+02  0.38726907006E+02  0.00000000000E+00 0. -1.
        -11    1    3    3    0    0  0.80826661987E+02 -0.21270090890E+02 -0.30873416487E+02  0.89098450604E+02  0.00000000000E+00 0.  1.
         11    1    3    3    0    0  0.62202038448E+02 -0.12840299713E+03 -0.37649774625E+02  0.14755991592E+03  0.00000000000E+00 0. -1.
          3    1    1    2  501    0 -0.55694077753E+02 -0.16096002295E+02 -0.65129277743E+02  0.87193660354E+02  0.00000000000E+00 0. -1.
<scales pt_clust_5="13000.00000" pt_clust_6="13000.00000" pt_clust_7="13000.00000" pt_clust_8="13000.00000" pt_clust_9="57.97337"></scales>
<clustering>
<clus scale="   57.973">  2  9  1 -1</clus>
<clus scale="   80.624">  5  6 -1 -1</clus>
<clus scale="   91.938">  7  8 -1 -1</clus>
<clus scale="  215.202">  2  5  1 -1</clus>
<clus scale="   57.973">  2  5  1 -1</clus>
</clustering>
</event>
<event>
 9    2  0.1033155E-004  0.1000455E+03  0.7546771E-02  0.1300780E+00
         21   -1    0    0  501  502  0.00000000000E+00  0.00000000000E+00  0.30338484258E+03  0.30338484258E+03  0.00000000000E+00 0. -1.
          2   -1    0    0  502    0 -0.00000000000E+00 -0.00000000000E+00 -0.35818485840E+03  0.35818485840E+03  0.00000000000E+00 0. -1.
         24    2    1    2    0    0  0.89461854799E+01  0.13317262267E+01 -0.25594368276E+03  0.26490165461E+03  0.67704579909E+02 0.  0.
         23    2    1    2    0    0  0.88460644509E+01  0.27033472603E+02 -0.68893969094E+02  0.12456241699E+03  0.99801579409E+02 0.  0.
        -11    1    3    3    0    0 -0.53575910381E+00  0.32001822336E+02 -0.17351728021E+03  0.17644446776E+03  0.00000000000E+00 0.  1.
         12    1    3    3    0    0  0.94819445837E+01 -0.30670096110E+02 -0.82426402549E+02  0.88457186852E+02  0.00000000000E+00 0. -1.
        -11    1    4    4    0    0 -0.86749862885E+00  0.64752031472E+02 -0.40813122312E+02  0.76545993275E+02  0.00000000000E+00 0. -1.
         11    1    4    4    0    0  0.97135630798E+01 -0.37718558868E+02 -0.28080846782E+02  0.48016423719E+02  0.00000000000E+00 0.  1.
          1    1    1    2  501    0 -0.17792249931E+02 -0.28365198830E+02  0.27003763603E+03  0.27210562937E+03  0.00000000000E+00 0. -1.
<scales pt_clust_5="13000.00000" pt_clust_6="13000.00000" pt_clust_7="13000.00000" pt_clust_8="13000.00000" pt_clust_9="33.48356"></scales>
<clustering>
<clus scale="   33.484">  1  9  2 -1</clus>
<clus scale="   67.705">  5  6 -1 -1</clus>
<clus scale="   68.064">  2  5  1 -1</clus>
<clus scale="   99.802">  7  8 -1 -1</clus>
<clus scale="   33.484">  1  5  2 -1</clus>
</clustering>
</event>
<event>
 9    2  0.1033155E-004  0.1088356E+03  0.7546771E-02  0.1267168E+00
         -1   -1    0    0    0  501 -0.00000000000E+00  0.00000000000E+00  0.12010732232E+03  0.12010732232E+03  0.00000000000E+00 0.  1.
         21   -1    0    0  501  502  0.00000000000E+00 -0.00000000000E+00 -0.18312674951E+03  0.18312674951E+03  0.00000000000E+00 0.  1.
         23    2    1    2    0    0  0.51516192030E+02 -0.22969872653E+02  0.57134350582E+02  0.12046224046E+03  0.89806927735E+02 0.  0.
         24    2    1    2    0    0 -0.71539822443E+02  0.37126869639E+02 -0.91897784573E+02  0.14535836467E+03  0.78660668235E+02 0.  0.
        -11    1    4    4    0    0 -0.80899397159E+02  0.49785937185E+02 -0.68323358438E+02  0.11701039830E+03  0.00000000000E+00 0.  1.
         12    1    4    4    0    0  0.93595747163E+01 -0.12659067546E+02 -0.23574426135E+02  0.28347966375E+02  0.00000000000E+00 0. -1.
        -13    1    3    3    0    0  0.77463734013E+02 -0.18483552732E+02  0.40892016605E+02  0.89523342380E+02  0.00000000000E+00 0.  1.
         13    1    3    3    0    0 -0.25947541983E+02 -0.44863199213E+01  0.16242333977E+02  0.30938898080E+02  0.00000000000E+00 0. -1.
         -2    1    1    2    0  502  0.20023630412E+02 -0.14156996986E+02 -0.28255993204E+02  0.37413466700E+02  0.00000000000E+00 0.  1.
<scales pt_clust_5="13000.00000" pt_clust_6="13000.00000" pt_clust_7="13000.00000" pt_clust_8="13000.00000" pt_clust_9="24.52277"></scales>
<clustering>
<clus scale="   24.523">  2  9  1 -1</clus>
<clus scale="   78.661">  5  6 -1 -1</clus>
<clus scale="   89.807">  7  8 -1 -1</clus>
<clus scale="   99.837">  2  5  1 -1</clus>
<clus scale="   24.523">  2  5  1 -1</clus>
</clustering>
</event>
<event>
 9    2  0.1033155E-004  0.1350395E+03  0.7546771E-02  0.1223035E+00
         21   -1    0    0  501  502  0.00000000000E+00  0.00000000000E+00  0.45414722376E+02  0.45414722376E+02  0.00000000000E+00 0. -1.
          2   -1    0    0  502    0 -0.00000000000E+00 -0.00000000000E+00 -0.10399030433E+04  0.10399030433E+04  0.00000000000E+00 0. -1.
         23    2    1    2    0    0 -0.52768631326E+02  0.76343722697E+02 -0.56863947226E+03  0.58344663173E+03  0.91903374313E+02 0.  0.
         24    2    1    2    0    0  0.84469361341E+02 -0.98761524014E+02 -0.12139442889E+03  0.19495096873E+03  0.79877163276E+02 0.  0.
        -13    1    4    4    0    0  0.37804620666E+00 -0.42471062059E+02 -0.84497412828E+01  0.43305105463E+02  0.00000000000E+00 0.  1.
         14    1    4    4    0    0  0.84091315134E+02 -0.56290461955E+02 -0.11294468761E+03  0.15164586327E+03  0.00000000000E+00 0. -1.
        -13    1    3    3    0    0 -0.34084878589E+01 -0.19855684820E+02 -0.55600636663E+02  0.59137947264E+02  0.00000000000E+00 0.  1.
         13    1    3    3    0    0 -0.49360143467E+02  0.96199407518E+02 -0.51303883560E+03  0.52430868446E+03  0.00000000000E+00 0. -1.
          1    1    1    2  501    0 -0.31700730014E+02  0.22417801317E+02 -0.30445441976E+03  0.30692016521E+03  0.00000000000E+00 0. -1.
<scales pt_clust_5="13000.00000" pt_clust_6="13000.00000" pt_clust_7="13000.00000" pt_clust_8="13000.00000" pt_clust_9="38.82648"></scales>
<clustering>
<clus scale="   38.826">  1  9  2 -1</clus>
<clus scale="   79.877">  5  6 -1 -1</clus>
<clus scale="   91.903">  7  8 -1 -1</clus>
<clus scale="  127.160">  1  5  2 -1</clus>
<clus scale="   38.826">  1  5  2 -1</clus>
</clustering>
</event>
<event>
 9    2  0.1033155E-004  0.1424874E+03  0.7546771E-02  0.1211487E+00
         21   -1    0    0  501  502  0.00000000000E+00  0.00000000000E+00  0.42841475967E+02  0.42841475967E+02  0.00000000000E+00 0. -1.
          2   -1    0    0  502    0 -0.00000000000E+00 -0.00000000000E+00 -0.85262017179E+03  0.85262017179E+03  0.00000000000E+00 0. -1.
         23    2    1    2    0    0 -0.52113779973E+02  0.12140788658E+03 -0.39635197720E+03  0.42701106994E+03  0.88248756566E+02 0.  0.
         24    2    1    2    0    0  0.67469509933E+02 -0.55774302863E+02 -0.12703623084E+03  0.17423453942E+03  0.80972607419E+02 0.  0.
        -11    1    4    4    0    0  0.11806509650E+02  0.18603915381E+02 -0.45803344898E+02  0.50827608063E+02  0.00000000000E+00 0.  1.
         12    1    4    4    0    0  0.55663000283E+02 -0.74378218244E+02 -0.81232885939E+02  0.12340693136E+03  0.00000000000E+00 0. -1.
        -11    1    3    3    0    0 -0.60327839289E+02  0.36344462249E+02 -0.13871992746E+03  0.15557501857E+03  0.00000000000E+00 0.  1.
         11    1    3    3    0    0  0.82140593158E+01  0.85063424326E+02 -0.25763204974E+03  0.27143605137E+03  0.00000000000E+00 0. -1.
          1    1    1    2  501    0 -0.15355729960E+02 -0.65633583712E+02 -0.28639048778E+03  0.29421603839E+03  0.00000000000E+00 0. -1.
<scales pt_clust_5="13000.00000" pt_clust_6="13000.00000" pt_clust_7="13000.00000" pt_clust_8="13000.00000" pt_clust_9="67.40601"></scales>
<clustering>
<clus scale="   67.406">  1  9  2 -1</clus>
<clus scale="   80.973">  5  6 -1 -1</clus>
<clus scale="   88.249">  7  8 -1 -1</clus>
<clus scale="  138.099">  1  5  2 -1</clus>
<clus scale="   67.406">  1  5  2 -1</clus>
</clustering>
</event>
<event>
 9    2  0.1033155E-004  0.9189371E+02  0.7546771E-02  0.1300169E+00
         21   -1    0    0  501  502  0.00000000000E+00  0.00000000000E+00  0.67341929284E+02  0.67341929284E+02  0.00000000000E+00 0. -1.
          2   -1    0    0  502    0 -0.00000000000E+00 -0.00000000000E+00 -0.40043053176E+03  0.40043053176E+03  0.00000000000E+00 0. -1.
         24    2    1    2    0    0 -0.20342094476E+02 -0.33629299283E+02 -0.30086356395E+03  0.31368446438E+03  0.79588494768E+02 0.  0.
         23    2    1    2    0    0  0.37610139210E+02  0.22688092573E+02 -0.65881735774E+02  0.11470946644E+03  0.82997508790E+02 0.  0.
        -11    1    3    3    0    0  0.26397792932E+02 -0.45251567803E+01 -0.48692926054E+02  0.55572669212E+02  0.00000000000E+00 0.  1.
         12    1    3    3    0    0 -0.46739887408E+02 -0.29104142503E+02 -0.25217063790E+03  0.25811179516E+03  0.00000000000E+00 0. -1.
        -13    1    4    4    0    0  0.15707416843E+02  0.23815141121E+02 -0.82435045423E+02  0.87231993010E+02  0.00000000000E+00 0. -1.
         13    1    4    4    0    0  0.21902722367E+02 -0.11270485487E+01  0.16553309649E+02  0.27477473426E+02  0.00000000000E+00 0.  1.
          1    1    1    2  501    0 -0.17268044734E+02  0.10941206710E+02  0.33656697252E+02  0.39378530230E+02  0.00000000000E+00 0. -1.
<scales pt_clust_5="13000.00000" pt_clust_6="13000.00000" pt_clust_7="13000.00000" pt_clust_8="13000.00000" pt_clust_9="20.44249"></scales>
<clustering>
<clus scale="   20.442">  1  9  2 -1</clus>
<clus scale="   79.588">  5  6 -1 -1</clus>
<clus scale="   82.998">  7  8 -1 -1</clus>
<clus scale="   88.827">  2  5  1 -1</clus>
<clus scale="   20.442">  1  5  2 -1</clus>
</clustering>
</event>
<event>
 9    2  0.1043906E-004  0.9356453E+02  0.7546771E-02  0.1300591E+00
          2   -1    0    0  502    0 -0.00000000000E+00  0.00000000000E+00  0.23859115957E+03  0.23859115957E+03  0.00000000000E+00 0. -1.
         21   -1    0    0  501  502  0.00000000000E+00 -0.00000000000E+00 -0.17683102855E+03  0.17683102855E+03  0.00000000000E+00 0. -1.
         23    2    1    2    0    0  0.22731641447E+02 -0.85648887061E+01  0.20931224530E+03  0.22940056974E+03  0.90680320494E+02 0.  0.
         24    2    1    2    0    0 -0.15801659121E+02 -0.12830211591E+02 -0.81225515763E+02  0.11598596573E+03  0.80254925547E+02 0.  0.
        -13    1    4    4    0    0 -0.21282180847E+02  0.30116673778E+02 -0.52003374230E+02  0.63751832855E+02  0.00000000000E+00 0.  1.
         14    1    4    4    0    0  0.54805217259E+01 -0.42946885369E+02 -0.29222141532E+02  0.52234132873E+02  0.00000000000E+00 0. -1.
        -13    1    3    3    0    0  0.57714173911E+02 -0.26738377780E+01  0.14220156139E+03  0.15349058388E+03  0.00000000000E+00 0.  1.
         13    1    3    3    0    0 -0.34982532464E+02 -0.58910509281E+01  0.67110683907E+02  0.75909985859E+02  0.00000000000E+00 0. -1.
          1    1    1    2  501    0 -0.69299823259E+01  0.21395100297E+02 -0.66326598514E+02  0.70035652651E+02  0.00000000000E+00 0. -1.
<scales pt_clust_5="13000.00000" pt_clust_6="13000.00000" pt_clust_7="13000.00000" pt_clust_8="13000.00000" pt_clust_9="22.48944"></scales>
<clustering>
<clus scale="   22.489">  2  9  1 -1</clus>
<clus scale="   80.255">  5  6 -1 -1</clus>
<clus scale="   83.500">  2  5  1 -1</clus>
<clus scale="   90.680">  7  8 -1 -1</clus>
<clus scale="   22.489">  2  5  1 -1</clus>
</clustering>
</event>
<event>
 9    2  0.1033155E-004  0.1017629E+03  0.7546771E-02  0.1280889E+00
         21   -1    0    0  501  502  0.00000000000E+00  0.00000000000E+00  0.22127247953E+03  0.22127247953E+03  0.00000000000E+00 0.  1.
          4   -1    0    0  502    0 -0.00000000000E+00 -0.00000000000E+00 -0.22979127691E+03  0.22979127691E+03  0.00000000000E+00 0. -1.
         24    2    1    2    0    0  0.19666899391E+02 -0.37878432725E+02 -0.22539225746E+01  0.96063347450E+02  0.86032110046E+02 0.  0.
         23    2    1    2    0    0 -0.24949495477E+02  0.63214551951E+01  0.15892345844E+03  0.18674187551E+03  0.94622535935E+02 0.  0.
        -13    1    3    3    0    0 -0.16812291883E+02  0.20723728409E+02  0.28990562015E+01  0.26842701138E+02  0.00000000000E+00 0.  1.
         14    1    3    3    0    0  0.36479191274E+02 -0.58602161134E+02 -0.51529787761E+01  0.69220646312E+02  0.00000000000E+00 0. -1.
        -13    1    4    4    0    0  0.16285628461E+02  0.24221105943E+02  0.13011934860E+03  0.13335264732E+03  0.00000000000E+00 0.  1.
         13    1    4    4    0    0 -0.41235123938E+02 -0.17899650747E+02  0.28804109837E+02  0.53389228189E+02  0.00000000000E+00 0. -1.
          3    1    1    2  501    0  0.52825960856E+01  0.31556977530E+02 -0.16518833324E+03  0.16825853349E+03  0.00000000000E+00 0. -1.
<scales pt_clust_5="13000.00000" pt_clust_6="13000.00000" pt_clust_7="13000.00000" pt_clust_8="13000.00000" pt_clust_9="31.99609"></scales>
<clustering>
<clus scale="   31.996">  1  9  2 -1</clus>
<clus scale="   86.032">  5  6 -1 -1</clus>
<clus scale="   93.828">  2  5  1 -1</clus>
<clus scale="   94.623">  7  8 -1 -1</clus>
<clus scale="   31.996">  1  5  2 -1</clus>
</clustering>
</event>
<event>
 9    2  0.1033155E-004  0.1075820E+03  0.7546771E-02  0.1268920E+00
          2   -1    0    0  502    0 -0.00000000000E+00  0.00000000000E+00  0.44322402054E+02  0.44322402054E+02  0.00000000000E+00 0. -1.
         21   -1    0    0  501  502  0.00000000000E+00 -0.00000000000E+00 -0.48422103612E+03  0.48422103612E+03  0.00000000000E+00 0.  1.
         24    2    1    2    0    0  0.14267055828E+02  0.58051461075E+02 -0.45783603810E+02  0.11215346214E+03  0.83118828652E+02 0.  0.
         23    2    1    2    0    0 -0.25826475861E+02 -0.35457785426E+02 -0.24978768879E+03  0.26984825547E+03  0.92195065533E+02 0.  0.
        -11    1    3    3    0    0 -0.25832683273E+01 -0.20582000095E+02 -0.26924362567E+01  0.20917485895E+02  0.00000000000E+00 0.  1.
         12    1    3    3    0    0  0.16850324155E+02  0.78633461170E+02 -0.43091167553E+02  0.91235976242E+02  0.00000000000E+00 0. -1.
        -13    1    4    4    0    0 -0.33967795224E+01 -0.59407700184E+02 -0.21004055217E+03  0.21830677156E+03  0.00000000000E+00 0.  1.
         13    1    4    4    0    0 -0.22429696339E+02  0.23949914759E+02 -0.39747136622E+02  0.51541483918E+02  0.00000000000E+00 0. -1.
          1    1    1    2  501    0  0.11559420034E+02 -0.22593675649E+02 -0.14432734147E+03  0.14654172056E+03  0.00000000000E+00 0. -1.
<scales pt_clust_5="13000.00000" pt_clust_6="13000.00000" pt_clust_7="13000.00000" pt_clust_8="13000.00000" pt_clust_9="25.37901"></scales>
<clustering>
<clus scale="   25.379">  2  9  1 -1</clus>
<clus scale="   83.119">  5  6 -1 -1</clus>
<clus scale="   92.195">  7  8 -1 -1</clus>
<clus scale="   99.913">  1  5  2 -1</clus>
<clus scale="   25.379">  2  5  1 -1</clus>
</clustering>
</event>
<event>
 9    2  0.1033155E-004  0.1421763E+03  0.7546771E-02  0.1230797E+00
         21   -1    0    0  501  502  0.00000000000E+00  0.00000000000E+00  0.20630589223E+03  0.20630589223E+03  0.00000000000E+00 0. -1.
          2   -1    0    0  502    0 -0.00000000000E+00 -0.00000000000E+00 -0.57090690078E+03  0.57090690078E+03  0.00000000000E+00 0. -1.
         24    2    1    2    0    0  0.11853962219E-01  0.23199281993E+02 -0.44014079339E+03  0.44980570883E+03  0.89794492423E+02 0.  0.
         23    2    1    2    0    0  0.40822789422E+01 -0.12857784385E+03 -0.48112580115E+02  0.16489151390E+03  0.91243980968E+02 0.  0.
        -13    1    3    3    0    0 -0.13051064684E+02 -0.27606707257E+02 -0.75991566187E+02  0.81897366909E+02  0.00000000000E+00 0.  1.
         14    1    3    3    0    0  0.13062918646E+02  0.50805989249E+02 -0.36414922720E+03  0.36790834192E+03  0.00000000000E+00 0. -1.
        -13    1    4    4    0    0 -0.59472369962E+01 -0.40609726343E+02  0.26712447122E+02  0.48970137153E+02  0.00000000000E+00 0.  1.
         13    1    4    4    0    0  0.10029515938E+02 -0.87968117503E+02 -0.74825027236E+02  0.11592137675E+03  0.00000000000E+00 0. -1.
          1    1    1    2  501    0 -0.40941329044E+01  0.10537856185E+03  0.12365236495E+03  0.16251557027E+03  0.00000000000E+00 0. -1.
<scales pt_clust_5="13000.00000" pt_clust_6="13000.00000" pt_clust_7="13000.00000" pt_clust_8="13000.00000" pt_clust_9="109.03504"></scales>
<clustering>
<clus scale="   89.794">  5  6 -1 -1</clus>
<clus scale="   91.244">  7  8 -1 -1</clus>
<clus scale="   92.743">  2  5  1 -1</clus>
<clus scale="  109.035">  1  9  2 -1</clus>
<clus scale="  109.035">  1  5  2 -1</clus>
</clustering>
</event>
<event>
 9    2  0.1033155E-004  0.9387876E+02  0.7546771E-02  0.1300189E+00
         21   -1    0    0  501  502  0.00000000000E+00  0.00000000000E+00  0.87008273516E+02  0.87008273516E+02  0.00000000000E+00 0.  1.
         -1   -1    0    0    0  501 -0.00000000000E+00 -0.00000000000E+00 -0.24369452013E+03  0.24369452013E+03  0.00000000000E+00 0.  1.
         24    2    1    2    0    0  0.10946210909E+02 -0.33695232562E+02 -0.13121438117E+03  0.15811345965E+03  0.80792722850E+02 0.  0.
         23    2    1    2    0    0  0.78427275032E+01 -0.34079104860E+02 -0.10164880079E+01  0.98128266953E+02  0.91680040165E+02 0.  0.
        -13    1    3    3    0    0 -0.22029986368E+01 -0.36485394425E+02 -0.13820887027E+03  0.14296058558E+03  0.00000000000E+00 0.  1.
         14    1    3    3    0    0  0.13149209546E+02  0.27901618634E+01  0.69944890931E+01  0.15152874070E+02  0.00000000000E+00 0. -1.
        -11    1    4    4    0    0 -0.36632331960E+02 -0.38813023494E+02  0.58300695216E+00  0.53373386951E+02  0.00000000000E+00 0.  1.
         11    1    4    4    0    0  0.44475059463E+02  0.47339186341E+01 -0.15994949600E+01  0.44754880002E+02  0.00000000000E+00 0. -1.
         -2    1    1    2    0  502 -0.18788938412E+02  0.67774337422E+02 -0.24455377433E+02  0.74461067042E+02  0.00000000000E+00 0.  1.
<scales pt_clust_5="13000.00000" pt_clust_6="13000.00000" pt_clust_7="13000.00000" pt_clust_8="13000.00000" pt_clust_9="70.33054"></scales>
<clustering>
<clus scale="   70.331">  1  9  2 -1</clus>
<clus scale="   80.793">  5  6 -1 -1</clus>
<clus scale="   83.279">  2  5  1 -1</clus>
<clus scale="   91.680">  7  8 -1 -1</clus>
<clus scale="   70.331">  1  5  2 -1</clus>
</clustering>
</event>
<event>
 9    2  0.1033155E-004  0.1139545E+03  0.7546771E-02  0.1257554E+00
         21   -1    0    0  501  502  0.00000000000E+00  0.00000000000E+00  0.47945455695E+02  0.47945455695E+02  0.00000000000E+00 0.  1.
         -1   -1    0    0    0  501 -0.00000000000E+00 -0.00000000000E+00 -0.47224623089E+03  0.47224623089E+03  0.00000000000E+00 0.  1.
         23    2    1    2    0    0  0.10309864660E+01 -0.59138821760E+02 -0.17213370894E+03  0.20358706873E+03  0.91209745262E+02 0.  0.
         24    2    1    2    0    0 -0.19937164751E+01  0.86434773088E+02 -0.79893156892E+02  0.14217900145E+03  0.79730841157E+02 0.  0.
        -13    1    4    4    0    0  0.36568926258E+02  0.55785278667E+02 -0.34063472909E+02  0.74897288805E+02  0.00000000000E+00 0.  1.
         14    1    4    4    0    0 -0.38562642733E+02  0.30649494421E+02 -0.45829683983E+02  0.67281712648E+02  0.00000000000E+00 0. -1.
        -11    1    3    3    0    0 -0.16757375219E+02  0.13171994936E+02 -0.69917312499E+01  0.22432016866E+02  0.00000000000E+00 0. -1.
         11    1    3    3    0    0  0.17788361685E+02 -0.72310816696E+02 -0.16514197769E+03  0.18115505187E+03  0.00000000000E+00 0.  1.
         -2    1    1    2    0  502  0.96273000910E+00 -0.27295951327E+02 -0.17227390937E+03  0.17442561641E+03  0.00000000000E+00 0.  1.
<scales pt_clust_5="13000.00000" pt_clust_6="13000.00000" pt_clust_7="13000.00000" pt_clust_8="13000.00000" pt_clust_9="27.31294"></scales>
<clustering>
<clus scale="   27.313">  1  9  2 -1</clus>
<clus scale="   79.731">  5  6 -1 -1</clus>
<clus scale="   91.210">  7  8 -1 -1</clus>
<clus scale="  104.992">  1  5  2 -1</clus>
<clus scale="   27.313">  1  5  2 -1</clus>
</clustering>
</event>
<event>
 9    2  0.1033155E-004  0.1037148E+03  0.7546771E-02  0.1279595E+00
         21   -1    0    0  501  502  0.00000000000E+00  0.00000000000E+00  0.37363926110E+03  0.37363926110E+03  0.00000000000E+00 0. -1.
          2   -1    0    0  502    0 -0.00000000000E+00 -0.00000000000E+00 -0.78332939947E+02  0.78332939947E+02  0.00000000000E+00 0. -1.
         23    2    1    2    0    0 -0.11199437095E+02  0.44686867820E+02 -0.26512788663E+02  0.10843702834E+03  0.94516229320E+02 0.  0.
         24    2    1    2    0    0  0.18762419298E+02 -0.23459502106E+02  0.17308561968E+03  0.19310428877E+03  0.80176417881E+02 0.  0.
        -11    1    4    4    0    0 -0.17625809092E+02 -0.41366314722E+02  0.86367529497E+02  0.97371409003E+02  0.00000000000E+00 0.  1.
         12    1    4    4    0    0  0.36388228390E+02  0.17906812616E+02  0.86718090183E+02  0.95732879766E+02  0.00000000000E+00 0. -1.
        -13    1    3    3    0    0  0.31173423524E+02 -0.97590311657E+01  0.41700645705E+01  0.32930388125E+02  0.00000000000E+00 0.  1.
         13    1    3    3    0    0 -0.42372860619E+02  0.54445898986E+02 -0.30682853234E+02  0.75506640211E+02  0.00000000000E+00 0. -1.
          1    1    1    2  501    0 -0.75629822031E+01 -0.21227365714E+02  0.14873349013E+03  0.15043088394E+03  0.00000000000E+00 0. -1.
<scales pt_clust_5="13000.00000" pt_clust_6="13000.00000" pt_clust_7="13000.00000" pt_clust_8="13000.00000" pt_clust_9="22.53441"></scales>
<clustering>
<clus scale="   22.534">  1  9  2 -1</clus>
<clus scale="   80.176">  5  6 -1 -1</clus>
<clus scale="   90.839">  1  5  2 -1</clus>
<clus scale="   94.516">  7  8 -1 -1</clus>
<clus scale="   22.534">  1  5  2 -1</clus>
</clustering>
</event>
<event>
 9    2  0.1033155E-004  0.1608873E+03  0.7546771E-02  0.1189562E+00
         21   -1    0    0  501  502  0.00000000000E+00  0.00000000000E+00  0.22161537526E+03  0.22161537526E+03  0.00000000000E+00 0. -1.
          2   -1    0    0  502    0 -0.00000000000E+00 -0.00000000000E+00 -0.13414965908E+03  0.13414965908E+03  0.00000000000E+00 0. -1.
         23    2    1    2    0    0  0.99649340701E+02  0.66790940303E+02  0.30643897007E+02  0.15564386789E+03  0.94313012778E+02 0.  0.
         24    2    1    2    0    0 -0.11486275730E+03 -0.85982630964E+02  0.58303729291E+02  0.17558618953E+03  0.82732818544E+02 0.  0.
        -11    1    4    4    0    0 -0.44182356125E+02  0.79061992612E+01  0.32097957039E+02  0.55180317375E+02  0.00000000000E+00 0.  1.
         12    1    4    4    0    0 -0.70680401173E+02 -0.93888830225E+02  0.26205772251E+02  0.12040587216E+03  0.00000000000E+00 0. -1.
        -11    1    3    3    0    0  0.43904933989E+02  0.33446758820E+01 -0.28577859032E+02  0.52493086328E+02  0.00000000000E+00 0.  1.
         11    1    3    3    0    0  0.55744406711E+02  0.63446264421E+02  0.59221756039E+02  0.10315078156E+03  0.00000000000E+00 0. -1.
          1    1    1    2  501    0  0.15213416597E+02  0.19191690661E+02 -0.14819101184E+01  0.24534976923E+02  0.00000000000E+00 0. -1.
<scales pt_clust_5="13000.00000" pt_clust_6="13000.00000" pt_clust_7="13000.00000" pt_clust_8="13000.00000" pt_clust_9="24.49019"></scales>
<clustering>
<clus scale="   24.490">  1  9  2 -1</clus>
<clus scale="   82.733">  5  6 -1 -1</clus>
<clus scale="   94.313">  7  8 -1 -1</clus>
<clus scale="  154.384">  1  5  2 -1</clus>
<clus scale="   24.490">  1  5  2 -1</clus>
</clustering>
</event>
<event>
 9    2  0.1033155E-004  0.1111162E+03  0.7546771E-02  0.1262024E+00
          2   -1    0    0  502    0 -0.00000000000E+00  0.00000000000E+00  0.49125755829E+03  0.49125755829E+03  0.00000000000E+00 0. -1.
         21   -1    0    0  501  502  0.00000000000E+00 -0.00000000000E+00 -0.58229767079E+02  0.58229767079E+02  0.00000000000E+00 0. -1.
         23    2    1    2    0    0  0.63644290202E+02  0.16681352544E+02  0.40934411221E+03  0.42471307841E+03  0.92139750237E+02 0.  0.
         24    2    1    2    0    0 -0.43240244200E+02 -0.16967715380E+02  0.35042455739E+02  0.10141982756E+03  0.83068559841E+02 0.  0.
        -13    1    4    4    0    0 -0.54117891517E+02  0.16919803265E+02  0.33365738561E+02  0.65789804943E+02  0.00000000000E+00 0.  1.
         14    1    4    4    0    0  0.10877647317E+02 -0.33887518645E+02  0.16767171785E+01  0.35630022615E+02  0.00000000000E+00 0. -1.
        -11    1    3    3    0    0  0.60937234723E+02 -0.28553172451E+02  0.26576421163E+03  0.27415186743E+03  0.00000000000E+00 0.  1.
         11    1    3    3    0    0  0.27070554785E+01  0.45234524995E+02  0.14357990058E+03  0.15056121098E+03  0.00000000000E+00 0. -1.
          1    1    1    2  501    0 -0.20404046002E+02  0.28636283547E+00 -0.11358776733E+02  0.23354419406E+02  0.00000000000E+00 0. -1.
<scales pt_clust_5="13000.00000" pt_clust_6="13000.00000" pt_clust_7="13000.00000" pt_clust_8="13000.00000" pt_clust_9="20.40606"></scales>
<clustering>
<clus scale="   20.406">  2  9  1 -1</clus>
<clus scale="   83.069">  5  6 -1 -1</clus>
<clus scale="   92.140">  7  8 -1 -1</clus>
<clus scale="  103.718">  2  5  1 -1</clus>
<clus scale="   20.406">  2  5  1 -1</clus>
</clustering>
</event>
<event>
 9    2  0.1033155E-004  0.9388684E+02  0.7546771E-02  0.1301610E+00
          2   -1    0    0  502    0 -0.00000000000E+00  0.00000000000E+00  0.62303916480E+02  0.62303916480E+02  0.00000000000E+00 0. -1.
         21   -1    0    0  501  502  0.00000000000E+00 -0.00000000000E+00 -0.16404885968E+03  0.16404885968E+03  0.00000000000E+00 0.  1.
         24    2    1    2    0    0 -0.60081591885E+01  0.10132530345E+02 -0.30657478246E+02  0.86806990016E+02  0.80354255614E+02 0.  0.
         23    2    1    2    0    0 -0.16735846358E+02 -0.10566307342E+02 -0.46510632939E+02  0.10605700261E+03  0.93236867287E+02 0.  0.
        -11    1    3    3    0    0  0.30746913354E+02  0.16401659273E+02 -0.34852644673E+02  0.49285839228E+02  0.00000000000E+00 0.  1.
         12    1    3    3    0    0 -0.36755072542E+02 -0.62691289278E+01  0.41951664271E+01  0.37521150788E+02  0.00000000000E+00 0. -1.
        -13    1    4    4    0    0 -0.16004159159E+02  0.15245158036E+02 -0.68601925246E+02  0.72074767440E+02  0.00000000000E+00 0.  1.
         13    1    4    4    0    0 -0.73168719850E+00 -0.25811465379E+02  0.22091292308E+02  0.33982235168E+02  0.00000000000E+00 0. -1.
          1    1    1    2  501    0  0.22744005546E+02  0.43377699714E+00 -0.24576832011E+02  0.33488783532E+02  0.00000000000E+00 0. -1.
<scales pt_clust_5="13000.00000" pt_clust_6="13000.00000" pt_clust_7="13000.00000" pt_clust_8="13000.00000" pt_clust_9="22.74814"></scales>
<clustering>
<clus scale="   22.748">  2  9  1 -1</clus>
<clus scale="   80.354">  5  6 -1 -1</clus>
<clus scale="   81.108">  1  5  2 -1</clus>
<clus scale="   93.237">  7  8 -1 -1</clus>
<clus scale="   22.748">  2  5  1 -1</clus>
</clustering>
</event>
<event>
 9    2  0.1033155E-004  0.1096743E+03  0.7546771E-02  0.1265139E+00
         21   -1    0    0  501  502  0.00000000000E+00  0.00000000000E+00  0.38710968337E+03  0.38710968337E+03  0.00000000000E+00 0. -1.
          2   -1    0    0  502    0 -0.00000000000E+00 -0.00000000000E+00 -0.12615587686E+04  0.12615587686E+04  0.00000000000E+00 0. -1.
         24    2    1    2    0    0  0.54260190043E+02  0.28019191155E+02 -0.11911112330E+04  0.11954120657E+04  0.80838073234E+02 0.  0.
         23    2    1    2    0    0 -0.29623118308E+02 -0.95179932506E+02  0.66192057974E+01  0.13506748582E+03  0.90899192245E+02 0.  0.
        -11    1    3    3    0    0  0.32323726089E+02  0.19566512082E+02 -0.17516536535E+03  0.17919424344E+03  0.00000000000E+00 0.  1.
         12    1    3    3    0    0  0.21936463954E+02  0.84526790727E+01 -0.10159458676E+04  0.10162178222E+04  0.00000000000E+00 0. -1.
        -13    1    4    4    0    0 -0.47422778784E+02 -0.18884912608E+02 -0.16052259816E+02  0.53509204040E+02  0.00000000000E+00 0.  1.
         13    1    4    4    0    0  0.17799660475E+02 -0.76295019898E+02  0.22671465613E+02  0.81558281783E+02  0.00000000000E+00 0. -1.
          1    1    1    2  501    0 -0.24637071734E+02  0.67160741351E+02  0.31004294200E+03  0.31818890045E+03  0.00000000000E+00 0. -1.
<scales pt_clust_5="13000.00000" pt_clust_6="13000.00000" pt_clust_7="13000.00000" pt_clust_8="13000.00000" pt_clust_9="71.53706"></scales>
<clustering>
<clus scale="   71.537">  1  9  2 -1</clus>
<clus scale="   80.838">  5  6 -1 -1</clus>
<clus scale="   90.899">  7  8 -1 -1</clus>
<clus scale="  101.492">  2  5  1 -1</clus>
<clus scale="   71.537">  1  5  2 -1</clus>
</clustering>
</event>
<event>
 9    2  0.1033155E-004  0.2738367E+03  0.7546771E-02  0.1099104E+00
         21   -1    0    0  501  502  0.00000000000E+00  0.00000000000E+00  0.11621510999E+03  0.11621510999E+03  0.00000000000E+00 0. -1.
         -1   -1    0    0    0  501 -0.00000000000E+00 -0.00000000000E+00 -0.49281090646E+03  0.49281090646E+03  0.00000000000E+00 0.  1.
         24    2    1    2    0    0  0.62403863561E+02 -0.25951931538E+01 -0.62075062201E+02  0.11892779776E+03  0.79934538950E+02 0.  0.
         23    2    1    2    0    0  0.13939680273E+03  0.37172212670E+02 -0.14889887606E+03  0.22675494630E+03  0.91835115144E+02 0.  0.
        -11    1    3    3    0    0 -0.35571176962E+01 -0.20207340062E+02  0.71234291652E+01  0.21719413476E+02  0.00000000000E+00 0.  1.
         12    1    3    3    0    0  0.65960981257E+02  0.17612146908E+02 -0.69198491366E+02  0.97208384281E+02  0.00000000000E+00 0. -1.
        -13    1    4    4    0    0  0.37643571930E+02 -0.26254654612E+02 -0.68274197932E+02  0.82266101766E+02  0.00000000000E+00 0. -1.
         13    1    4    4    0    0  0.10175323080E+03  0.63426867282E+02 -0.80624678123E+02  0.14448884453E+03  0.00000000000E+00 0.  1.
         -2    1    1    2    0  502 -0.20180066629E+03 -0.34577019516E+02 -0.16562185822E+03  0.26334327239E+03  0.00000000000E+00 0.  1.
<scales pt_clust_5="13000.00000" pt_clust_6="13000.00000" pt_clust_7="13000.00000" pt_clust_8="13000.00000" pt_clust_9="204.74160"></scales>
<clustering>
<clus scale="   79.935">  5  6 -1 -1</clus>
<clus scale="   91.835">  7  8 -1 -1</clus>
<clus scale="   95.709">  5  7 -1 -1</clus>
<clus scale="  204.742">  1  9  2 -1</clus>
<clus scale="  204.742">  1  5  2 -1</clus>
</clustering>
</event>
<event>
 9    2  0.1033155E-004  0.1078453E+03  0.7546771E-02  0.1269069E+00
          2   -1    0    0  502    0 -0.00000000000E+00  0.00000000000E+00  0.30474136965E+03  0.30474136965E+03  0.00000000000E+00 0. -1.
         21   -1    0    0  501  502  0.00000000000E+00 -0.00000000000E+00 -0.46200526647E+02  0.46200526647E+02  0.00000000000E+00 0. -1.
         23    2    1    2    0    0  0.65746425912E+02  0.12530921412E+02  0.15794574768E+03  0.19423314316E+03  0.91104545331E+02 0.  0.
         24    2    1    2    0    0 -0.44666632382E+02 -0.50888694574E+01  0.58529503363E+02  0.10907204608E+03  0.80311915872E+02 0.  0.
        -11    1    4    4    0    0  0.95000636756E+01 -0.26294231966E+02  0.21122650083E+01  0.28037466147E+02  0.00000000000E+00 0.  1.
         12    1    4    4    0    0 -0.54166696058E+02  0.21205362508E+02  0.56417238355E+02  0.81034579930E+02  0.00000000000E+00 0. -1.
        -13    1    3    3    0    0  0.24038418637E+02  0.76997899226E+01  0.14923192996E+03  0.15135158160E+03  0.00000000000E+00 0.  1.
         13    1    3    3    0    0  0.41708007275E+02  0.48311314893E+01  0.87138177257E+01  0.42881561558E+02  0.00000000000E+00 0. -1.
          1    1    1    2  501    0 -0.21079793530E+02 -0.74420519544E+01  0.42065591957E+02  0.47636707057E+02  0.00000000000E+00 0. -1.
<scales pt_clust_5="13000.00000" pt_clust_6="13000.00000" pt_clust_7="13000.00000" pt_clust_8="13000.00000" pt_clust_9="22.35492"></scales>
<clustering>
<clus scale="   22.355">  2  9  1 -1</clus>
<clus scale="   80.312">  5  6 -1 -1</clus>
<clus scale="   91.105">  7  8 -1 -1</clus>
<clus scale="   98.897">  2  5  1 -1</clus>
<clus scale="   22.355">  2  5  1 -1</clus>
</clustering>
</event>
<event>
 9    2  0.1033155E-004  0.9891543E+02  0.7546771E-02  0.1287784E+00
          2   -1    0    0  502    0 -0.00000000000E+00  0.00000000000E+00  0.54256118772E+03  0.54256118772E+03  0.00000000000E+00 0. -1.
         21   -1    0    0  501  502  0.00000000000E+00 -0.00000000000E+00 -0.17077906201E+03  0.17077906201E+03  0.00000000000E+00 0. -1.
         24    2    1    2    0    0 -0.41453350705E+01  0.54719828007E+02  0.39485190403E+03  0.40681201466E+03  0.81095904827E+02 0.  0.
         23    2    1    2    0    0  0.96857619731E+01  0.60368599485E+01  0.11990579049E+03  0.15108022209E+03  0.91200752461E+02 0.  0.
        -11    1    3    3    0    0 -0.38611419686E+02  0.14713399491E+02  0.11948763902E+03  0.12643030386E+03  0.00000000000E+00 0.  1.
         12    1    3    3    0    0  0.34466084615E+02  0.40006428516E+02  0.27536426501E+03  0.28038171081E+03  0.00000000000E+00 0. -1.
        -11    1    4    4    0    0 -0.23603382294E+02 -0.28916992643E+02  0.80628349830E+02  0.88849552141E+02  0.00000000000E+00 0.  1.
         11    1    4    4    0    0  0.33289144267E+02  0.34953852592E+02  0.39277440660E+02  0.62230669945E+02  0.00000000000E+00 0. -1.
          1    1    1    2  501    0 -0.55404269026E+01 -0.60756687956E+02 -0.14297556881E+03  0.15544801298E+03  0.00000000000E+00 0. -1.
<scales pt_clust_5="13000.00000" pt_clust_6="13000.00000" pt_clust_7="13000.00000" pt_clust_8="13000.00000" pt_clust_9="61.00878"></scales>
<clustering>
<clus scale="   61.009">  2  9  1 -1</clus>
<clus scale="   81.096">  5  6 -1 -1</clus>
<clus scale="   89.684">  1  5  2 -1</clus>
<clus scale="   91.201">  7  8 -1 -1</clus>
<clus scale="   61.009">  2  5  1 -1</clus>
</clustering>
</event>
<event>
 9    2  0.1033155E-004  0.1135040E+03  0.7546771E-02  0.1269644E+00
          2   -1    0    0  502    0 -0.00000000000E+00  0.00000000000E+00  0.84286738474E+02  0.84286738474E+02  0.00000000000E+00 0. -1.
         21   -1    0    0  501  502  0.00000000000E+00 -0.00000000000E+00 -0.30017297914E+03  0.30017297914E+03  0.00000000000E+00 0.  1.
         24    2    1    2    0    0 -0.98732561644E+00 -0.20705917942E+02  0.30254849300E+02  0.88554213634E+02  0.80602624005E+02 0.  0.
         23    2    1    2    0    0  0.20145105116E+02  0.33764122943E+02 -0.12201941637E+03  0.16963703171E+03  0.11109519925E+03 0.  0.
        -11    1    3    3    0    0 -0.82817221370E+01 -0.27110624090E+02  0.55053693710E+02  0.61923194775E+02  0.00000000000E+00 0.  1.
         12    1    3    3    0    0  0.72943965206E+01  0.64047061471E+01 -0.24798844409E+02  0.26631018859E+02  0.00000000000E+00 0. -1.
        -11    1    4    4    0    0 -0.86912418862E+01  0.62497895727E+02 -0.11063947167E+03  0.12736803896E+03  0.00000000000E+00 0.  1.
         11    1    4    4    0    0  0.28836347002E+02 -0.28733772784E+02 -0.11379944695E+02  0.42268992749E+02  0.00000000000E+00 0. -1.
          1    1    1    2  501    0 -0.19157779499E+02 -0.13058205001E+02 -0.12412167360E+03  0.12626847228E+03  0.00000000000E+00 0. -1.
<scales pt_clust_5="13000.00000" pt_clust_6="13000.00000" pt_clust_7="13000.00000" pt_clust_8="13000.00000" pt_clust_9="23.18485"></scales>
<clustering>
<clus scale="   23.185">  2  9  1 -1</clus>
<clus scale="   80.603">  5  6 -1 -1</clus>
<clus scale="   83.892">  1  5  2 -1</clus>
<clus scale="  111.095">  7  8 -1 -1</clus>
<clus scale="   23.185">  2  5  1 -1</clus>
</clustering>
</event>
<event>
 9    2  0.1033155E-004  0.1375193E+03  0.7546771E-02  0.1225842E+00
          2   -1    0    0  502    0 -0.00000000000E+00  0.00000000000E+00  0.12706693721E+04  0.12706693721E+04  0.00000000000E+00 0. -1.
         21   -1    0    0  501  502  0.00000000000E+00 -0.00000000000E+00 -0.27633760661E+02  0.27633760661E+02  0.00000000000E+00 0. -1.
         23    2    1    2    0    0  0.67665025380E+01 -0.66417676867E+02  0.43409840626E+03  0.44870713063E+03  0.91867129101E+02 0.  0.
         24    2    1    2    0    0 -0.95962568928E+02 -0.27889470397E+02  0.38176140404E+03  0.40313330339E+03  0.82389644314E+02 0.  0.
        -13    1    4    4    0    0 -0.16423696178E+01 -0.32911003493E+02  0.69817542955E+02  0.77203114142E+02  0.00000000000E+00 0.  1.
         14    1    4    4    0    0 -0.94320199310E+02  0.50215330954E+01  0.31194386109E+03  0.32593018925E+03  0.00000000000E+00 0. -1.
        -13    1    3    3    0    0 -0.15350903661E+02  0.17556570671E+02  0.54096820421E+02  0.58909671503E+02  0.00000000000E+00 0.  1.
         13    1    3    3    0    0  0.22117406199E+02 -0.83974247538E+02  0.38000158584E+03  0.38979745913E+03  0.00000000000E+00 0. -1.
          1    1    1    2  501    0  0.89196066390E+02  0.94307147264E+02  0.42717580112E+03  0.44646269872E+03  0.00000000000E+00 0. -1.
<scales pt_clust_5="13000.00000" pt_clust_6="13000.00000" pt_clust_7="13000.00000" pt_clust_8="13000.00000" pt_clust_9="110.10686"></scales>
<clustering>
<clus scale="   82.390">  5  6 -1 -1</clus>
<clus scale="   91.867">  7  8 -1 -1</clus>
<clus scale="  113.563">  1  7  2 -1</clus>
<clus scale="  110.107">  2  9  1 -1</clus>
<clus scale="  110.107">  2  5  1 -1</clus>
</clustering>
</event>
<event>
 9    2  0.1033155E-004  0.9962555E+02  0.7546771E-02  0.1290206E+00
         21   -1    0    0  501  502  0.00000000000E+00  0.00000000000E+00  0.28735160319E+03  0.28735160319E+03  0.00000000000E+00 0.  1.
         -3   -1    0    0    0  501 -0.00000000000E+00 -0.00000000000E+00 -0.12171993490E+03  0.12171993490E+03  0.00000000000E+00 0.  1.
         24    2    1    2    0    0 -0.62031007092E+02  0.11016432051E+02 -0.31761355245E+02  0.10151715997E+03  0.72991386234E+02 0.  0.
         23    2    1    2    0    0  0.94974476193E+01  0.37288652571E+02  0.87557779052E+00  0.98479600702E+02  0.90646676696E+02 0.  0.
        -11    1    3    3    0    0 -0.52451471865E+02 -0.15789177728E+01 -0.53295831933E+02  0.74793686789E+02  0.00000000000E+00 0.  1.
         12    1    3    3    0    0 -0.95795352279E+01  0.12595349824E+02  0.21534476688E+02  0.26723473176E+02  0.00000000000E+00 0. -1.
        -13    1    4    4    0    0  0.50177063422E+02  0.21398837859E+02  0.39942965347E+01  0.54695542416E+02  0.00000000000E+00 0. -1.
         13    1    4    4    0    0 -0.40679615802E+02  0.15889814712E+02 -0.31187187442E+01  0.43784058286E+02  0.00000000000E+00 0.  1.
         -4    1    1    2    0  502  0.52533559473E+02 -0.48305084622E+02  0.19651744575E+03  0.20907477742E+03  0.00000000000E+00 0.  1.
<scales pt_clust_5="13000.00000" pt_clust_6="13000.00000" pt_clust_7="13000.00000" pt_clust_8="13000.00000" pt_clust_9="71.36635"></scales>
<clustering>
<clus scale="   71.366">  1  9  2 -1</clus>
<clus scale="   72.991">  5  6 -1 -1</clus>
<clus scale="   83.882">  2  5  1 -1</clus>
<clus scale="   90.647">  7  8 -1 -1</clus>
<clus scale="   71.366">  1  5  2 -1</clus>
</clustering>
</event>
<event>
 9    2  0.1033155E-004  0.1519624E+03  0.7546771E-02  0.1224328E+00
         21   -1    0    0  501  502  0.00000000000E+00  0.00000000000E+00  0.60809624040E+03  0.60809624040E+03  0.00000000000E+00 0.  1.
          4   -1    0    0  502    0 -0.00000000000E+00 -0.00000000000E+00 -0.91203735155E+02  0.91203735155E+02  0.00000000000E+00 0. -1.
         24    2    1    2    0    0  0.30240597826E+02 -0.13917280462E+02 -0.24286868881E+02  0.90189659622E+02  0.80225546121E+02 0.  0.
         23    2    1    2    0    0  0.55701782121E+02  0.10475348467E+03  0.23689760251E+03  0.28013508099E+03  0.90990155762E+02 0.  0.
        -13    1    3    3    0    0 -0.15407157957E+00  0.29620459312E+02  0.42257397792E+01  0.29920765775E+02  0.00000000000E+00 0.  1.
         14    1    3    3    0    0  0.30394669406E+02 -0.43537739774E+02 -0.28512608660E+02  0.60268893847E+02  0.00000000000E+00 0. -1.
        -11    1    4    4    0    0  0.75205555570E+02  0.49939322088E+02  0.12743767565E+03  0.15617353378E+03  0.00000000000E+00 0.  1.
         11    1    4    4    0    0 -0.19503773449E+02  0.54814162580E+02  0.10945992686E+03  0.12396154721E+03  0.00000000000E+00 0. -1.
          3    1    1    2  501    0 -0.85942379948E+02 -0.90836204206E+02  0.30428177162E+03  0.32897523494E+03  0.00000000000E+00 0. -1.
<scales pt_clust_5="13000.00000" pt_clust_6="13000.00000" pt_clust_7="13000.00000" pt_clust_8="13000.00000" pt_clust_9="121.71012"></scales>
<clustering>
<clus scale="   80.226">  5  6 -1 -1</clus>
<clus scale="   86.858">  2  5  1 -1</clus>
<clus scale="   90.990">  7  8 -1 -1</clus>
<clus scale="  121.710">  1  9  2 -1</clus>
<clus scale="  121.710">  1  5  2 -1</clus>
</clustering>
</event>
<event>
 9    2  0.1033155E-004  0.1060690E+03  0.7546771E-02  0.1272968E+00
          2   -1    0    0  502    0 -0.00000000000E+00  0.00000000000E+00  0.37272963715E+03  0.37272963715E+03  0.00000000000E+00 0. -1.
         21   -1    0    0  501  502  0.00000000000E+00 -0.00000000000E+00 -0.19901695594E+03  0.19901695594E+03  0.00000000000E+00 0. -1.
         24    2    1    2    0    0  0.24071560562E+02  0.57024124877E+02  0.27575160190E+03  0.29354062931E+03  0.79347112485E+02 0.  0.
         23    2    1    2    0    0 -0.20316001158E+02 -0.27108168441E+02  0.59583510666E+02  0.11379526159E+03  0.90838175448E+02 0.  0.
        -13    1    3    3    0    0 -0.28666295059E+02  0.23323452755E+02  0.82291648085E+02  0.90208953354E+02  0.00000000000E+00 0.  1.
         14    1    3    3    0    0  0.52737855621E+02  0.33700672122E+02  0.19345995381E+03  0.20333167595E+03  0.00000000000E+00 0. -1.
        -11    1    4    4    0    0  0.19298859916E+02  0.24157679082E+02  0.28020738617E+02  0.41727703571E+02  0.00000000000E+00 0. -1.
         11    1    4    4    0    0 -0.39614861073E+02 -0.51265847522E+02  0.31562772048E+02  0.72067558023E+02  0.00000000000E+00 0.  1.
          1    1    1    2  501    0 -0.37555594042E+01 -0.29915956436E+02 -0.16162243136E+03  0.16441070219E+03  0.00000000000E+00 0. -1.
<scales pt_clust_5="13000.00000" pt_clust_6="13000.00000" pt_clust_7="13000.00000" pt_clust_8="13000.00000" pt_clust_9="30.15077"></scales>
<clustering>
<clus scale="   30.151">  2  9  1 -1</clus>
<clus scale="   79.347">  5  6 -1 -1</clus>
<clus scale="   90.838">  7  8 -1 -1</clus>
<clus scale="   96.411">  1  5  2 -1</clus>
<clus scale="   30.151">  2  5  1 -1</clus>
</clustering>
</event>
<event>
 9    2  0.1033155E-004  0.1244626E+03  0.7546771E-02  0.1240098E+00
          2   -1    0    0  502    0 -0.00000000000E+00  0.00000000000E+00  0.44011983936E+03  0.44011983936E+03  0.00000000000E+00 0. -1.
         21   -1    0    0  501  502  0.00000000000E+00 -0.00000000000E+00 -0.54228460052E+02  0.54228460052E+02  0.00000000000E+00 0.  1.
         24    2    1    2    0    0  0.78818204473E+02  0.14021012458E+02  0.24695245875E+03  0.27216902195E+03  0.81740818940E+02 0.  0.
         23    2    1    2    0    0 -0.82265862360E+02  0.20015573906E+02  0.70762343610E+02  0.14590070117E+03  0.95453706164E+02 0.  0.
        -11    1    3    3    0    0  0.66438652694E+02  0.45267151045E+02  0.16327788430E+03  0.18199691491E+03  0.00000000000E+00 0.  1.
         12    1    3    3    0    0  0.12379551778E+02 -0.31246138587E+02  0.83674574455E+02  0.90172107046E+02  0.00000000000E+00 0. -1.
        -11    1    4    4    0    0 -0.10401874420E+03  0.14848046367E+02  0.55503375379E+02  0.11883176471E+03  0.00000000000E+00 0. -1.
         11    1    4    4    0    0  0.21752881845E+02  0.51675275387E+01  0.15258968231E+02  0.27068936456E+02  0.00000000000E+00 0.  1.
          1    1    1    2  501    0  0.34476578872E+01 -0.34036586364E+02  0.68176576954E+02  0.76278576293E+02  0.00000000000E+00 0. -1.
<scales pt_clust_5="13000.00000" pt_clust_6="13000.00000" pt_clust_7="13000.00000" pt_clust_8="13000.00000" pt_clust_9="34.21077"></scales>
<clustering>
<clus scale="   34.211">  2  9  1 -1</clus>
<clus scale="   81.741">  5  6 -1 -1</clus>
<clus scale="   95.454">  7  8 -1 -1</clus>
<clus scale="  114.285">  1  5  2 -1</clus>
<clus scale="   34.211">  2  5  1 -1</clus>
</clustering>
</event>
<event>
 9    2  0.1033155E-004  0.1080015E+03  0.7546771E-02  0.1269595E+00
          2   -1    0    0  502    0 -0.00000000000E+00  0.00000000000E+00  0.79029319714E+03  0.79029319714E+03  0.00000000000E+00 0. -1.
         21   -1    0    0  501  502  0.00000000000E+00 -0.00000000000E+00 -0.53565176237E+02  0.53565176237E+02  0.00000000000E+00 0. -1.
         24    2    1    2    0    0  0.35892090037E+01 -0.55322737841E+02  0.64979400958E+03  0.65744885072E+03  0.83266131651E+02 0.  0.
         23    2    1    2    0    0 -0.63514827927E+01  0.26671267554E+02  0.11099686054E+03  0.14889209179E+03  0.95377429722E+02 0.  0.
        -13    1    3    3    0    0  0.18833258160E+02 -0.63092703115E+02  0.29571438208E+03  0.30295606376E+03  0.00000000000E+00 0.  1.
         14    1    3    3    0    0 -0.15244049156E+02  0.77699652743E+01  0.35407962751E+03  0.35449278696E+03  0.00000000000E+00 0. -1.
        -11    1    4    4    0    0  0.86907307067E+01  0.58349423630E+02  0.45145413497E+02  0.74285209819E+02  0.00000000000E+00 0.  1.
         11    1    4    4    0    0 -0.15042213499E+02 -0.31678156075E+02  0.65851447041E+02  0.74606881966E+02  0.00000000000E+00 0. -1.
          1    1    1    2  501    0  0.27622737889E+01  0.28651470287E+02 -0.24062849223E+02  0.37517430866E+02  0.00000000000E+00 0. -1.
<scales pt_clust_5="13000.00000" pt_clust_6="13000.00000" pt_clust_7="13000.00000" pt_clust_8="13000.00000" pt_clust_9="28.78432"></scales>
<clustering>
<clus scale="   28.784">  2  9  1 -1</clus>
<clus scale="   83.266">  5  6 -1 -1</clus>
<clus scale="   95.377">  7  8 -1 -1</clus>
<clus scale="   97.472">  1  5  2 -1</clus>
<clus scale="   28.784">  2  5  1 -1</clus>
</clustering>
</event>
<event>
 9    2  0.1033155E-004  0.1182024E+03  0.7546771E-02  0.1250168E+00
         21   -1    0    0  501  502  0.00000000000E+00  0.00000000000E+00  0.27913943556E+02  0.27913943556E+02  0.00000000000E+00 0. -1.
          2   -1    0    0  502    0 -0.00000000000E+00 -0.00000000000E+00 -0.66487058979E+03  0.66487058979E+03  0.00000000000E+00 0. -1.
         23    2    1    2    0    0  0.25661988969E+02 -0.78954662801E+02 -0.37357491990E+03  0.39360012343E+03  0.92035101618E+02 0.  0.
         24    2    1    2    0    0  0.20822184501E+00  0.62214422831E+02 -0.14464836028E+03  0.17651772473E+03  0.79778952394E+02 0.  0.
        -11    1    4    4    0    0  0.37757215658E+02  0.47202248721E+02 -0.93083426957E+02  0.11098731456E+03  0.00000000000E+00 0.  1.
         12    1    4    4    0    0 -0.37548993813E+02  0.15012174110E+02 -0.51564933326E+02  0.65530410168E+02  0.00000000000E+00 0. -1.
        -11    1    3    3    0    0  0.55433455191E+02 -0.62509510440E+02 -0.20042879988E+03  0.21714513734E+03  0.00000000000E+00 0. -1.
         11    1    3    3    0    0 -0.29771466223E+02 -0.16445152361E+02 -0.17314612002E+03  0.17645498609E+03  0.00000000000E+00 0.  1.
          1    1    1    2  501    0 -0.25870210814E+02  0.16740239970E+02 -0.11873336604E+03  0.12266668518E+03  0.00000000000E+00 0. -1.
<scales pt_clust_5="13000.00000" pt_clust_6="13000.00000" pt_clust_7="13000.00000" pt_clust_8="13000.00000" pt_clust_9="30.81403"></scales>
<clustering>
<clus scale="   30.814">  1  9  2 -1</clus>
<clus scale="   79.779">  5  6 -1 -1</clus>
<clus scale="   92.035">  7  8 -1 -1</clus>
<clus scale="  108.931">  1  5  2 -1</clus>
<clus scale="   30.814">  1  5  2 -1</clus>
</clustering>
</event>
<event>
 9    2  0.1033155E-004  0.1000786E+03  0.7546771E-02  0.1287762E+00
          2   -1    0    0  502    0 -0.00000000000E+00  0.00000000000E+00  0.36789117394E+03  0.36789117394E+03  0.00000000000E+00 0. -1.
         21   -1    0    0  501  502  0.00000000000E+00 -0.00000000000E+00 -0.46506025722E+02  0.46506025722E+02  0.00000000000E+00 0.  1.
         24    2    1    2    0    0  0.11822826173E+02 -0.43669892193E+02  0.19622282605E+03  0.21661868064E+03  0.79833681107E+02 0.  0.
         23    2    1    2    0    0  0.92963469711E+01  0.17100927775E+01  0.45021437228E+02  0.10488500105E+03  0.94258087985E+02 0.  0.
        -11    1    3    3    0    0 -0.21046156151E+02 -0.49974345040E+01  0.10422965958E+02  0.24011523477E+02  0.00000000000E+00 0.  1.
         12    1    3    3    0    0  0.32868982324E+02 -0.38672457689E+02  0.18579986009E+03  0.19260715716E+03  0.00000000000E+00 0. -1.
        -11    1    4    4    0    0 -0.61085652129E+01 -0.34657576023E+02  0.53930454684E+02  0.64396863954E+02  0.00000000000E+00 0.  1.
         11    1    4    4    0    0  0.15404912184E+02  0.36367668801E+02 -0.89090174553E+01  0.40488137095E+02  0.00000000000E+00 0. -1.
          1    1    1    2  501    0 -0.21119173144E+02  0.41959799416E+02  0.80140884946E+02  0.92893517972E+02  0.00000000000E+00 0. -1.
<scales pt_clust_5="13000.00000" pt_clust_6="13000.00000" pt_clust_7="13000.00000" pt_clust_8="13000.00000" pt_clust_9="46.97496"></scales>
<clustering>
<clus scale="   46.975">  2  9  1 -1</clus>
<clus scale="   79.834">  5  6 -1 -1</clus>
<clus scale="   86.629">  1  5  2 -1</clus>
<clus scale="   94.258">  7  8 -1 -1</clus>
<clus scale="   46.975">  2  5  1 -1</clus>
</clustering>
</event>
<event>
 9    2  0.1033155E-004  0.1518561E+03  0.7546771E-02  0.1207864E+00
          2   -1    0    0  502    0 -0.00000000000E+00  0.00000000000E+00  0.18047307978E+04  0.18047307978E+04  0.00000000000E+00 0. -1.
         21   -1    0    0  501  502  0.00000000000E+00 -0.00000000000E+00 -0.29334478066E+02  0.29334478066E+02  0.00000000000E+00 0. -1.
         23    2    1    2    0    0 -0.11665773142E+02  0.78417239977E+02  0.22373422105E+03  0.25544411782E+03  0.94389310150E+02 0.  0.
         24    2    1    2    0    0  0.11460391639E+03  0.22448730204E+02  0.88900668239E+03  0.90047485671E+03  0.82970374800E+02 0.  0.
        -11    1    4    4    0    0  0.13185435627E+02 -0.17857304811E+02  0.54269628991E+02  0.58633878250E+02  0.00000000000E+00 0.  1.
         12    1    4    4    0    0  0.10141848076E+03  0.40306035015E+02  0.83473705339E+03  0.84184097846E+03  0.00000000000E+00 0. -1.
        -11    1    3    3    0    0  0.24797517147E+02  0.58624723774E+02  0.63444382204E+02  0.89871935150E+02  0.00000000000E+00 0. -1.
         11    1    3    3    0    0 -0.36463290289E+02  0.19792516203E+02  0.16028983885E+03  0.16557218267E+03  0.00000000000E+00 0.  1.
          1    1    1    2  501    0 -0.10293814324E+03 -0.10086597018E+03  0.66265541629E+03  0.67814630134E+03  0.00000000000E+00 0. -1.
<scales pt_clust_5="13000.00000" pt_clust_6="13000.00000" pt_clust_7="13000.00000" pt_clust_8="13000.00000" pt_clust_9="127.18568"></scales>
<clustering>
<clus scale="   82.970">  5  6 -1 -1</clus>
<clus scale="   94.389">  7  8 -1 -1</clus>
<clus scale="  123.267">  1  7  2 -1</clus>
<clus scale="  127.186">  2  9  1 -1</clus>
<clus scale="  127.186">  2  5  1 -1</clus>
</clustering>
</event>
<event>
 9    2  0.1033155E-004  0.1495341E+03  0.7546771E-02  0.1212784E+00
          4   -1    0    0  502    0 -0.00000000000E+00  0.00000000000E+00  0.18230090516E+03  0.18230090516E+03  0.00000000000E+00 0. -1.
         21   -1    0    0  501  502  0.00000000000E+00 -0.00000000000E+00 -0.36628793349E+03  0.36628793349E+03  0.00000000000E+00 0.  1.
         23    2    1    2    0    0  0.22830396621E+02  0.68935331298E+02  0.67469696475E+02  0.13439443363E+03  0.90754597335E+02 0.  0.
         24    2    1    2    0    0  0.93786578721E+02  0.19277299112E+01  0.41265953736E+01  0.12446362319E+03  0.81697773645E+02 0.  0.
        -13    1    4    4    0    0  0.97219456608E+01  0.32691975888E+02 -0.50447784554E+01  0.34477982896E+02  0.00000000000E+00 0.  1.
         14    1    4    4    0    0  0.84064633060E+02 -0.30764245977E+02  0.91713738289E+01  0.89985640299E+02  0.00000000000E+00 0. -1.
        -13    1    3    3    0    0  0.38428035581E+02  0.12882625184E+02  0.64448883085E+02  0.76133661945E+02  0.00000000000E+00 0.  1.
         13    1    3    3    0    0 -0.15597638960E+02  0.56052706115E+02  0.30208133894E+01  0.58260771686E+02  0.00000000000E+00 0. -1.
          3    1    1    2  501    0 -0.11661697534E+03 -0.70863061210E+02 -0.25558332018E+03  0.28973078182E+03  0.00000000000E+00 0. -1.
<scales pt_clust_5="13000.00000" pt_clust_6="13000.00000" pt_clust_7="13000.00000" pt_clust_8="13000.00000" pt_clust_9="125.24344"></scales>
<clustering>
<clus scale="   81.698">  5  6 -1 -1</clus>
<clus scale="   90.755">  7  8 -1 -1</clus>
<clus scale="  116.231">  1  7  2 -1</clus>
<clus scale="  125.243">  2  9  1 -1</clus>
<clus scale="  125.243">  2  5  1 -1</clus>
</clustering>
</event>
<event>
 9    2  0.1033155E-004  0.1384832E+03  0.7546771E-02  0.1217491E+00
         21   -1    0    0  501  502  0.00000000000E+00  0.00000000000E+00  0.54796863780E+02  0.54796863780E+02  0.00000000000E+00 0. -1.
          2   -1    0    0  502    0 -0.00000000000E+00 -0.00000000000E+00 -0.71066205349E+03  0.71066205349E+03  0.00000000000E+00 0. -1.
         24    2    1    2    0    0 -0.22046054896E+02  0.11969108073E+03 -0.26555278740E+03  0.30288126972E+03  0.80042471879E+02 0.  0.
         23    2    1    2    0    0 -0.72926168813E+02 -0.83086068128E+02 -0.18502344717E+03  0.23344186832E+03  0.89665540018E+02 0.  0.
        -11    1    3    3    0    0 -0.26996868530E+02  0.62059236564E+02 -0.21716781722E+03  0.22746876838E+03  0.00000000000E+00 0.  1.
         12    1    3    3    0    0  0.49508136342E+01  0.57631844171E+02 -0.48384970185E+02  0.75412501337E+02  0.00000000000E+00 0. -1.
        -13    1    4    4    0    0 -0.78000544387E+02 -0.22354016510E+02 -0.11257350781E+03  0.13876808581E+03  0.00000000000E+00 0. -1.
         13    1    4    4    0    0  0.50743755742E+01 -0.60732051618E+02 -0.72449939365E+02  0.94673782512E+02  0.00000000000E+00 0.  1.
          1    1    1    2  501    0  0.94972223709E+02 -0.36605012607E+02 -0.20528895514E+03  0.22913577924E+03  0.00000000000E+00 0. -1.
<scales pt_clust_5="13000.00000" pt_clust_6="13000.00000" pt_clust_7="13000.00000" pt_clust_8="13000.00000" pt_clust_9="101.78242"></scales>
<clustering>
<clus scale="   80.042">  5  6 -1 -1</clus>
<clus scale="   89.666">  7  8 -1 -1</clus>
<clus scale="  101.782">  1  9  2 -1</clus>
<clus scale="  132.456">  2  5  1 -1</clus>
<clus scale="  101.782">  1  5  2 -1</clus>
</clustering>
</event>
<event>
 9    2  0.1033155E-004  0.1291790E+03  0.7546771E-02  0.1230297E+00
          2   -1    0    0  502    0 -0.00000000000E+00  0.00000000000E+00  0.34555829055E+03  0.34555829055E+03  0.00000000000E+00 0. -1.
         21   -1    0    0  501  502  0.00000000000E+00 -0.00000000000E+00 -0.34212765045E+03  0.34212765045E+03  0.00000000000E+00 0. -1.
         23    2    1    2    0    0  0.96786374183E+02  0.32871249332E+02  0.22642100485E+03  0.26424032444E+03  0.90046412280E+02 0.  0.
         24    2    1    2    0    0 -0.81020818261E+02  0.16822803441E+02  0.62419840576E+02  0.13331282466E+03  0.83837300853E+02 0.  0.
        -13    1    4    4    0    0 -0.81269836404E+02  0.15291400981E+02  0.12814092475E+02  0.83682819139E+02  0.00000000000E+00 0.  1.
         14    1    4    4    0    0  0.24901814251E+00  0.15314024592E+01  0.49605748101E+02  0.49630005522E+02  0.00000000000E+00 0. -1.
        -11    1    3    3    0    0  0.97399773688E+01 -0.20832617836E+02  0.10420402093E+02  0.25247770294E+02  0.00000000000E+00 0.  1.
         11    1    3    3    0    0  0.87046396814E+02  0.53703867168E+02  0.21600060276E+03  0.23899255415E+03  0.00000000000E+00 0. -1.
          1    1    1    2  501    0 -0.15765555921E+02 -0.49694052772E+02 -0.28541020532E+03  0.29013279190E+03  0.00000000000E+00 0. -1.
<scales pt_clust_5="13000.00000" pt_clust_6="13000.00000" pt_clust_7="13000.00000" pt_clust_8="13000.00000" pt_clust_9="52.13494"></scales>
<clustering>
<clus scale="   52.135">  2  9  1 -1</clus>
<clus scale="   83.837">  5  6 -1 -1</clus>
<clus scale="   90.046">  7  8 -1 -1</clus>
<clus scale="  124.930">  2  5  1 -1</clus>
<clus scale="   52.135">  2  5  1 -1</clus>
</clustering>
</event>
<event>
 9    2  0.1033155E-004  0.1481550E+03  0.7546771E-02  0.1204845E+00
          2   -1    0    0  502    0 -0.00000000000E+00  0.00000000000E+00  0.90794919702E+03  0.90794919702E+03  0.00000000000E+00 0. -1.
         21   -1    0    0  501  502  0.00000000000E+00 -0.00000000000E+00 -0.66311151260E+02  0.66311151260E+02  0.00000000000E+00 0.  1.
         24    2    1    2    0    0  0.16120766774E+02 -0.11257718751E+03  0.70789923087E+03  0.72148425498E+03  0.80527677481E+02 0.  0.
         23    2    1    2    0    0 -0.46390384134E+02  0.13317097783E+03  0.76192624501E+02  0.18457112308E+03  0.91512875439E+02 0.  0.
        -13    1    3    3    0    0 -0.25175846018E+02 -0.96203787665E+01  0.10121747473E+03  0.10474422228E+03  0.00000000000E+00 0.  1.
         14    1    3    3    0    0  0.41296612791E+02 -0.10295680874E+03  0.60668175615E+03  0.61674003270E+03  0.00000000000E+00 0. -1.
        -11    1    4    4    0    0 -0.11516195772E+02  0.13271964969E+03  0.61385423470E+02  0.14668094080E+03  0.00000000000E+00 0.  1.
         11    1    4    4    0    0 -0.34874188362E+02  0.45132813889E+00  0.14807201031E+02  0.37890182283E+02  0.00000000000E+00 0. -1.
          1    1    1    2  501    0  0.30269617360E+02 -0.20593790325E+02  0.57546190391E+02  0.68204970226E+02  0.00000000000E+00 0. -1.
<scales pt_clust_5="13000.00000" pt_clust_6="13000.00000" pt_clust_7="13000.00000" pt_clust_8="13000.00000" pt_clust_9="36.61084"></scales>
<clustering>
<clus scale="   36.611">  2  9  1 -1</clus>
<clus scale="   80.528">  5  6 -1 -1</clus>
<clus scale="   91.513">  7  8 -1 -1</clus>
<clus scale="  141.633">  1  5  2 -1</clus>
<clus scale="   36.611">  2  5  1 -1</clus>
</clustering>
</event>
<event>
 9    2  0.1033155E-004  0.9741141E+02  0.7546771E-02  0.1292445E+00
         21   -1    0    0  501  502  0.00000000000E+00  0.00000000000E+00  0.17610564020E+02  0.17610564020E+02  0.00000000000E+00 0. -1.
          2   -1    0    0  502    0 -0.00000000000E+00 -0.00000000000E+00 -0.11681712870E+04  0.11681712870E+04  0.00000000000E+00 0. -1.
         24    2    1    2    0    0 -0.34894631811E+02 -0.48219570635E+01 -0.84714495408E+03  0.85152493633E+03  0.78735362949E+02 0.  0.
         23    2    1    2    0    0  0.23871497200E+02  0.39695859379E+02 -0.24369154995E+03  0.26422348775E+03  0.91010275965E+02 0.  0.
        -13    1    3    3    0    0 -0.26005998003E+02  0.91879088594E+01 -0.88494524530E+02  0.92693098304E+02  0.00000000000E+00 0.  1.
         14    1    3    3    0    0 -0.88886338073E+01 -0.14009865923E+02 -0.75865042955E+03  0.75883183803E+03  0.00000000000E+00 0. -1.
        -13    1    4    4    0    0 -0.49742769723E+01  0.63786894493E+02 -0.16647884451E+03  0.17834998461E+03  0.00000000000E+00 0. -1.
         13    1    4    4    0    0  0.28845774172E+02 -0.24091035113E+02 -0.77212705442E+02  0.85873503144E+02  0.00000000000E+00 0.  1.
          1    1    1    2  501    0  0.11023134611E+02 -0.34873902316E+02 -0.59724218966E+02  0.70033426951E+02  0.00000000000E+00 0. -1.
<scales pt_clust_5="13000.00000" pt_clust_6="13000.00000" pt_clust_7="13000.00000" pt_clust_8="13000.00000" pt_clust_9="36.57456"></scales>
<clustering>
<clus scale="   36.575">  1  9  2 -1</clus>
<clus scale="   78.735">  5  6 -1 -1</clus>
<clus scale="   86.054">  2  5  1 -1</clus>
<clus scale="   91.010">  7  8 -1 -1</clus>
<clus scale="   36.575">  1  5  2 -1</clus>
</clustering>
</event>
<event>
 9    2  0.1033155E-004  0.2448669E+03  0.7546771E-02  0.1150676E+00
          2   -1    0    0  502    0 -0.00000000000E+00  0.00000000000E+00  0.18320936612E+04  0.18320936612E+04  0.00000000000E+00 0. -1.
         21   -1    0    0  501  502  0.00000000000E+00 -0.00000000000E+00 -0.74420939069E+02  0.74420939069E+02  0.00000000000E+00 0. -1.
         24    2    1    2    0    0  0.14047967978E+02  0.49775438767E+02  0.50780660431E+03  0.51887175870E+03  0.93195573326E+02 0.  0.
         23    2    1    2    0    0  0.18249721879E+03 -0.14122202052E+03  0.20935380785E+03  0.32478896875E+03  0.91705852682E+02 0.  0.
        -11    1    3    3    0    0 -0.37703536826E+02  0.12196092657E+02  0.13805804372E+03  0.14363260355E+03  0.00000000000E+00 0.  1.
         12    1    3    3    0    0  0.51751504804E+02  0.37579346110E+02  0.36974856058E+03  0.37523915515E+03  0.00000000000E+00 0. -1.
        -13    1    4    4    0    0  0.55133398843E+01 -0.32086742434E+02  0.61718649678E+02  0.69779278262E+02  0.00000000000E+00 0.  1.
         13    1    4    4    0    0  0.17698387890E+03 -0.10913527809E+03  0.14763515817E+03  0.25500969049E+03  0.00000000000E+00 0. -1.
          1    1    1    2  501    0 -0.19654518677E+03  0.91446581758E+02  0.10405123100E+04  0.10628538729E+04  0.00000000000E+00 0. -1.
<scales pt_clust_5="13000.00000" pt_clust_6="13000.00000" pt_clust_7="13000.00000" pt_clust_8="13000.00000" pt_clust_9="227.04602"></scales>
<clustering>
<clus scale="   91.706">  7  8 -1 -1</clus>
<clus scale="   93.196">  5  6 -1 -1</clus>
<clus scale="  106.585">  1  5  2 -1</clus>
<clus scale="  227.046">  2  9  1 -1</clus>
<clus scale="  227.046">  2  5  1 -1</clus>
</clustering>
</event>
<event>
 9    2  0.1033155E-004  0.1012539E+03  0.7546771E-02  0.1291037E+00
          2   -1    0    0  502    0 -0.00000000000E+00  0.00000000000E+00  0.39638133579E+02  0.39638133579E+02  0.00000000000E+00 0. -1.
         21   -1    0    0  501  502  0.00000000000E+00 -0.00000000000E+00 -0.44589907688E+03  0.44589907688E+03  0.00000000000E+00 0.  1.
         23    2    1    2    0    0  0.26221758697E+01  0.78358401536E+01 -0.46248937920E+02  0.11140002562E+03  0.10100854049E+03 0.  0.
         24    2    1    2    0    0 -0.16321410526E+02  0.85252704841E+01 -0.28661401001E+03  0.29770014738E+03  0.78349973434E+02 0.  0.
        -11    1    4    4    0    0 -0.19619055281E+02  0.42250422131E+02 -0.16303634271E+03  0.16956076948E+03  0.00000000000E+00 0.  1.
         12    1    4    4    0    0  0.32976447556E+01 -0.33725151647E+02 -0.12357766730E+03  0.12813937790E+03  0.00000000000E+00 0. -1.
        -11    1    3    3    0    0 -0.33686097748E+02 -0.30926005815E+02 -0.92053198142E+01  0.46646639001E+02  0.00000000000E+00 0. -1.
         11    1    3    3    0    0  0.36308273618E+02  0.38761845969E+02 -0.37043618105E+02  0.64753386617E+02  0.00000000000E+00 0.  1.
          1    1    1    2  501    0  0.13699234656E+02 -0.16361110638E+02 -0.73397995375E+02  0.76437037465E+02  0.00000000000E+00 0. -1.
<scales pt_clust_5="13000.00000" pt_clust_6="13000.00000" pt_clust_7="13000.00000" pt_clust_8="13000.00000" pt_clust_9="21.33905"></scales>
<clustering>
<clus scale="   21.339">  2  9  1 -1</clus>
<clus scale="   78.350">  5  6 -1 -1</clus>
<clus scale="   78.666">  2  5  1 -1</clus>
<clus scale="  101.009">  7  8 -1 -1</clus>
<clus scale="   21.339">  2  5  1 -1</clus>
</clustering>
</event>
<event>
 9    2  0.1033155E-004  0.2436981E+03  0.7546771E-02  0.1152884E+00
         -3   -1    0    0    0  501 -0.00000000000E+00  0.00000000000E+00  0.36164079512E+03  0.36164079512E+03  0.00000000000E+00 0.  1.
         21   -1    0    0  501  502  0.00000000000E+00 -0.00000000000E+00 -0.33773446209E+03  0.33773446209E+03  0.00000000000E+00 0. -1.
         23    2    1    2    0    0 -0.12072865545E+02  0.47065164675E+02 -0.17239348654E+02  0.10406704754E+03  0.90398403932E+02 0.  0.
         24    2    1    2    0    0 -0.14818926562E+03 -0.18370902359E+03 -0.16629988616E+03  0.29969163624E+03  0.80314138870E+02 0.  0.
        -11    1    4    4    0    0 -0.71813917950E+02 -0.38427663598E+02 -0.80365720703E+02  0.11442278272E+03  0.00000000000E+00 0.  1.
         12    1    4    4    0    0 -0.76375347671E+02 -0.14528135999E+03 -0.85934165461E+02  0.18526885353E+03  0.00000000000E+00 0. -1.
        -11    1    3    3    0    0 -0.21595781052E+02 -0.65675327774E+01  0.26064425683E+02  0.34479914911E+02  0.00000000000E+00 0.  1.
         11    1    3    3    0    0  0.95229155072E+01  0.53632697452E+02 -0.43303774337E+02  0.69587132630E+02  0.00000000000E+00 0. -1.
         -4    1    1    2    0  502  0.16026213117E+03  0.13664385892E+03  0.20744556785E+03  0.29561657343E+03  0.00000000000E+00 0.  1.
<scales pt_clust_5="13000.00000" pt_clust_6="13000.00000" pt_clust_7="13000.00000" pt_clust_8="13000.00000" pt_clust_9="230.08361"></scales>
<clustering>
<clus scale="   80.314">  5  6 -1 -1</clus>
<clus scale="   90.398">  7  8 -1 -1</clus>
<clus scale="  102.629">  1  7  2 -1</clus>
<clus scale="  230.084">  2  9  1 -1</clus>
<clus scale="  230.084">  2  5  1 -1</clus>
</clustering>
</event>
<event>
 9    2  0.3662657E-004  0.1623014E+03  0.7546771E-02  0.1211989E+00
          4   -1    0    0  502    0 -0.00000000000E+00  0.00000000000E+00  0.55673765004E+03  0.55673765004E+03  0.00000000000E+00 0. -1.
         21   -1    0    0  501  502  0.00000000000E+00 -0.00000000000E+00 -0.31338067536E+03  0.31338067536E+03  0.00000000000E+00 0. -1.
         24    2    1    2    0    0  0.23393080150E+02  0.24855670525E+02  0.12131139503E+02  0.93244962346E+02  0.85920998022E+02 0.  0.
         23    2    1    2    0    0  0.66214595282E+02  0.74357057584E+02  0.47748316210E+03  0.49666741741E+03  0.93675016902E+02 0.  0.
        -13    1    3    3    0    0 -0.11909755528E+02 -0.24413959037E+02 -0.96666747529E+01  0.28832763887E+02  0.00000000000E+00 0.  1.
         14    1    3    3    0    0  0.35302835677E+02  0.49269629562E+02  0.21797814256E+02  0.64412198459E+02  0.00000000000E+00 0. -1.
        -11    1    4    4    0    0  0.27652041447E+02  0.35913744806E+01  0.26257332477E+02  0.38301186348E+02  0.00000000000E+00 0.  1.
         11    1    4    4    0    0  0.38562553834E+02  0.70765683103E+02  0.45122582962E+03  0.45836623106E+03  0.00000000000E+00 0. -1.
          3    1    1    2  501    0 -0.89607675431E+02 -0.99212728109E+02 -0.24625732692E+03  0.28020594565E+03  0.00000000000E+00 0. -1.
<scales pt_clust_5="13000.00000" pt_clust_6="13000.00000" pt_clust_7="13000.00000" pt_clust_8="13000.00000" pt_clust_9="132.53962"></scales>
<clustering>
<clus scale="   85.921">  5  6 -1 -1</clus>
<clus scale="   92.453">  1  5  2 -1</clus>
<clus scale="   93.675">  7  8 -1 -1</clus>
<clus scale="  132.540">  2  9  1 -1</clus>
<clus scale="  132.540">  2  5  1 -1</clus>
</clustering>
</event>
<event>
 9    2  0.1033155E-004  0.9458133E+02  0.7546771E-02  0.1300926E+00
          2   -1    0    0  502    0 -0.00000000000E+00  0.00000000000E+00  0.36648423830E+03  0.36648423830E+03  0.00000000000E+00 0. -1.
         21   -1    0    0  501  502  0.00000000000E+00 -0.00000000000E+00 -0.51630238026E+02  0.51630238026E+02  0.00000000000E+00 0.  1.
         23    2    1    2    0    0  0.84439523417E+01 -0.19451912284E+02  0.21823292268E+03  0.23878630121E+03  0.94570671378E+02 0.  0.
         24    2    1    2    0    0  0.11671785162E+02 -0.28931566257E+02  0.93028503674E+02  0.12680665116E+03  0.80326572109E+02 0.  0.
        -11    1    4    4    0    0 -0.20694277698E+01  0.27089195385E+02  0.19947909388E+02  0.33704986676E+02  0.00000000000E+00 0.  1.
         12    1    4    4    0    0  0.13741212932E+02 -0.56020761642E+02  0.73080594286E+02  0.93101664480E+02  0.00000000000E+00 0. -1.
        -13    1    3    3    0    0 -0.39557578523E+02  0.92041692030E+01  0.10267558858E+03  0.11041646272E+03  0.00000000000E+00 0. -1.
         13    1    3    3    0    0  0.48001530864E+02 -0.28656081487E+02  0.11555733409E+03  0.12836983849E+03  0.00000000000E+00 0.  1.
          1    1    1    2  501    0 -0.20115737504E+02  0.48383478541E+02  0.35925739224E+01  0.52521523954E+02  0.00000000000E+00 0. -1.
<scales pt_clust_5="13000.00000" pt_clust_6="13000.00000" pt_clust_7="13000.00000" pt_clust_8="13000.00000" pt_clust_9="52.39851"></scales>
<clustering>
<clus scale="   52.399">  2  9  1 -1</clus>
<clus scale="   80.327">  5  6 -1 -1</clus>
<clus scale="   80.339">  2  5  1 -1</clus>
<clus scale="   94.571">  7  8 -1 -1</clus>
<clus scale="   52.399">  2  5  1 -1</clus>
</clustering>
</event>
<event>
 9    2  0.1476768E-004  0.1360001E+03  0.7546771E-02  0.1235108E+00
         -3   -1    0    0    0  501 -0.00000000000E+00  0.00000000000E+00  0.25979651749E+03  0.25979651749E+03  0.00000000000E+00 0.  1.
         21   -1    0    0  501  502  0.00000000000E+00 -0.00000000000E+00 -0.94777307486E+03  0.94777307486E+03  0.00000000000E+00 0.  1.
         24    2    1    2    0    0 -0.41557190359E+02  0.33177512264E+02 -0.23806265080E+03  0.25705768771E+03  0.81099209090E+02 0.  0.
         23    2    1    2    0    0 -0.14972416748E+02  0.51865061599E+02  0.23521933487E+03  0.25781038567E+03  0.90685729768E+02 0.  0.
        -11    1    3    3    0    0 -0.44000797020E+02 -0.13843774922E+02 -0.82431016779E+02  0.94459476865E+02  0.00000000000E+00 0.  1.
         12    1    3    3    0    0  0.24436066614E+01  0.47021287186E+02 -0.15563163402E+03  0.16259821085E+03  0.00000000000E+00 0. -1.
        -13    1    4    4    0    0  0.59617797892E+01  0.67516633219E+02  0.10487547184E+03  0.12487154669E+03  0.00000000000E+00 0. -1.
         13    1    4    4    0    0 -0.20934196537E+02 -0.15651571619E+02  0.13034386303E+03  0.13293883898E+03  0.00000000000E+00 0.  1.
         -4    1    1    2    0  502  0.56529607107E+02 -0.85042573863E+02 -0.68513324144E+03  0.69270151896E+03  0.00000000000E+00 0.  1.
<scales pt_clust_5="13000.00000" pt_clust_6="13000.00000" pt_clust_7="13000.00000" pt_clust_8="13000.00000" pt_clust_9="101.35154"></scales>
<clustering>
<clus scale="   81.099">  5  6 -1 -1</clus>
<clus scale="   90.686">  7  8 -1 -1</clus>
<clus scale="   96.979">  1  5  2 -1</clus>
<clus scale="  101.352">  2  9  1 -1</clus>
<clus scale="  101.352">  2  5  1 -1</clus>
</clustering>
</event>
<event>
 9    2  0.1033155E-004  0.9701539E+02  0.7546771E-02  0.1292629E+00
         -3   -1    0    0    0  501 -0.00000000000E+00  0.00000000000E+00  0.25009424194E+02  0.25009424194E+02  0.00000000000E+00 0.  1.
         21   -1    0    0  501  502  0.00000000000E+00 -0.00000000000E+00 -0.57411147231E+03  0.57411147231E+03  0.00000000000E+00 0. -1.
         24    2    1    2    0    0 -0.27394349973E+02 -0.63060326530E+01 -0.25525155366E+03  0.26942991457E+03  0.81540828798E+02 0.  0.
         23    2    1    2    0    0  0.31468134269E+02 -0.18484753595E+02 -0.28694806732E+03  0.30363676344E+03  0.92326383985E+02 0.  0.
        -13    1    3    3    0    0 -0.30937685879E+02  0.28976990552E+02 -0.19468480065E+03  0.19924602378E+03  0.00000000000E+00 0.  1.
         14    1    3    3    0    0  0.35433359061E+01 -0.35283023205E+02 -0.60566753004E+02  0.70183890782E+02  0.00000000000E+00 0. -1.
        -11    1    4    4    0    0  0.31726494649E+02 -0.50082431798E+02 -0.23877410005E+03  0.24602416811E+03  0.00000000000E+00 0.  1.
         11    1    4    4    0    0 -0.25836038027E+00  0.31597678202E+02 -0.48173967273E+02  0.57612595330E+02  0.00000000000E+00 0. -1.
         -4    1    1    2    0  502 -0.40737842961E+01  0.24790786248E+02 -0.69024271362E+01  0.26054218500E+02  0.00000000000E+00 0.  1.
<scales pt_clust_5="13000.00000" pt_clust_6="13000.00000" pt_clust_7="13000.00000" pt_clust_8="13000.00000" pt_clust_9="25.12328"></scales>
<clustering>
<clus scale="   25.123">  2  9  1 -1</clus>
<clus scale="   81.541">  5  6 -1 -1</clus>
<clus scale="   86.814">  1  5  2 -1</clus>
<clus scale="   92.326">  7  8 -1 -1</clus>
<clus scale="   25.123">  2  5  1 -1</clus>
</clustering>
</event>
<event>
 9    2  0.1033155E-004  0.1638118E+03  0.7546771E-02  0.1186291E+00
         21   -1    0    0  501  502  0.00000000000E+00  0.00000000000E+00  0.11337330129E+03  0.11337330129E+03  0.00000000000E+00 0.  1.
          2   -1    0    0  502    0 -0.00000000000E+00 -0.00000000000E+00 -0.56894642778E+03  0.56894642778E+03  0.00000000000E+00 0. -1.
         23    2    1    2    0    0 -0.24162370986E+02  0.13607998108E+03 -0.39887646743E+03  0.43201710424E+03  0.91840953064E+02 0.  0.
         24    2    1    2    0    0 -0.18945062307E+02 -0.13268568342E+03 -0.10309090120E+03  0.18688182569E+03  0.79578118172E+02 0.  0.
        -11    1    4    4    0    0  0.13780065753E+02 -0.71025581007E+02 -0.13986490980E+02  0.73689519604E+02  0.00000000000E+00 0.  1.
         12    1    4    4    0    0 -0.32725128060E+02 -0.61660102413E+02 -0.89104410216E+02  0.11319230608E+03  0.00000000000E+00 0. -1.
        -11    1    3    3    0    0 -0.40497446905E+02  0.69674581421E+02 -0.30749943125E+03  0.31788439836E+03  0.00000000000E+00 0. -1.
         11    1    3    3    0    0  0.16335075920E+02  0.66405399662E+02 -0.91377036185E+02  0.11413270588E+03  0.00000000000E+00 0.  1.
          1    1    1    2  501    0  0.43107433293E+02 -0.33942976625E+01  0.46394242132E+02  0.63420799149E+02  0.00000000000E+00 0. -1.
<scales pt_clust_5="13000.00000" pt_clust_6="13000.00000" pt_clust_7="13000.00000" pt_clust_8="13000.00000" pt_clust_9="43.24086"></scales>
<clustering>
<clus scale="   43.241">  1  9  2 -1</clus>
<clus scale="   79.578">  5  6 -1 -1</clus>
<clus scale="   91.841">  7  8 -1 -1</clus>
<clus scale="  157.265">  1  5  2 -1</clus>
<clus scale="   43.241">  1  5  2 -1</clus>
</clustering>
</event>
<event>
 9    2  0.1033155E-004  0.9317306E+02  0.7546771E-02  0.1299068E+00
          2   -1    0    0  502    0 -0.00000000000E+00  0.00000000000E+00  0.98966551698E+03  0.98966551698E+03  0.00000000000E+00 0. -1.
         21   -1    0    0  501  502  0.00000000000E+00 -0.00000000000E+00 -0.28955225942E+02  0.28955225942E+02  0.00000000000E+00 0. -1.
         24    2    1    2    0    0  0.23387497454E+02  0.16502959299E+02  0.66332473246E+03  0.66916423473E+03  0.83437099979E+02 0.  0.
         23    2    1    2    0    0  0.10405098451E+02 -0.29741932794E+02  0.29831364264E+03  0.31315125654E+03  0.89887882635E+02 0.  0.
        -13    1    3    3    0    0 -0.18833257202E+02 -0.18956662875E+02  0.11449279064E+03  0.11756974846E+03  0.00000000000E+00 0.  1.
         14    1    3    3    0    0  0.42220754656E+02  0.35459622174E+02  0.54883194182E+03  0.55159448627E+03  0.00000000000E+00 0. -1.
        -11    1    4    4    0    0 -0.40037027365E+02 -0.12581163944E+02  0.13245946163E+03  0.13894876114E+03  0.00000000000E+00 0.  1.
         11    1    4    4    0    0  0.50442125816E+02 -0.17160768850E+02  0.16585418101E+03  0.17420249540E+03  0.00000000000E+00 0. -1.
          1    1    1    2  501    0 -0.33792595905E+02  0.13238973495E+02 -0.92808406455E+00  0.36305251648E+02  0.00000000000E+00 0. -1.
<scales pt_clust_5="13000.00000" pt_clust_6="13000.00000" pt_clust_7="13000.00000" pt_clust_8="13000.00000" pt_clust_9="36.29339"></scales>
<clustering>
<clus scale="   36.293">  2  9  1 -1</clus>
<clus scale="   83.437">  5  6 -1 -1</clus>
<clus scale="   86.966">  1  5  2 -1</clus>
<clus scale="   89.888">  7  8 -1 -1</clus>
<clus scale="   36.293">  2  5  1 -1</clus>
</clustering>
</event>
<event>
 9    2  0.1047509E-004  0.1178906E+03  0.7546771E-02  0.1250717E+00
         21   -1    0    0  501  502  0.00000000000E+00  0.00000000000E+00  0.21540083669E+03  0.21540083669E+03  0.00000000000E+00 0.  1.
         -1   -1    0    0    0  501 -0.00000000000E+00 -0.00000000000E+00 -0.49736017402E+03  0.49736017402E+03  0.00000000000E+00 0.  1.
         24    2    1    2    0    0 -0.25312137235E+02  0.76161017613E+02 -0.41362689498E+03  0.42866867520E+03  0.78920339256E+02 0.  0.
         23    2    1    2    0    0  0.56417103986E+01 -0.48220778648E+02 -0.38652492452E+02  0.11037848427E+03  0.91281554689E+02 0.  0.
        -13    1    3    3    0    0 -0.34268964726E+02  0.85521664972E+02 -0.39721289201E+03  0.40775776964E+03  0.00000000000E+00 0.  1.
         14    1    3    3    0    0  0.89568274907E+01 -0.93606473588E+01 -0.16414002971E+02  0.20910905557E+02  0.00000000000E+00 0. -1.
        -11    1    4    4    0    0  0.40912724668E+02 -0.10304841201E+02 -0.40606231789E+02  0.58556868530E+02  0.00000000000E+00 0.  1.
         11    1    4    4    0    0 -0.35271014270E+02 -0.37915937447E+02  0.19537393365E+01  0.51821615736E+02  0.00000000000E+00 0. -1.
         -2    1    1    2    0  502  0.19670426837E+02 -0.27940238965E+02  0.17032005011E+03  0.17371385124E+03  0.00000000000E+00 0.  1.
<scales pt_clust_5="13000.00000" pt_clust_6="13000.00000" pt_clust_7="13000.00000" pt_clust_8="13000.00000" pt_clust_9="34.16991"></scales>
<clustering>
<clus scale="   34.170">  1  9  2 -1</clus>
<clus scale="   78.920">  5  6 -1 -1</clus>
<clus scale="   91.282">  7  8 -1 -1</clus>
<clus scale="  108.602">  2  5  1 -1</clus>
<clus scale="   34.170">  1  5  2 -1</clus>
</clustering>
</event>
<event>
 9    2  0.1033155E-004  0.9904378E+02  0.7546771E-02  0.1287249E+00
          2   -1    0    0  502    0 -0.00000000000E+00  0.00000000000E+00  0.32627147300E+02  0.32627147300E+02  0.00000000000E+00 0. -1.
         21   -1    0    0  501  502  0.00000000000E+00 -0.00000000000E+00 -0.73818226023E+03  0.73818226023E+03  0.00000000000E+00 0. -1.
         24    2    1    2    0    0 -0.60144345065E+02  0.28958079084E+02 -0.11702289330E+03  0.15702017049E+03  0.80653975705E+02 0.  0.
         23    2    1    2    0    0  0.13677497211E+01  0.12704505197E+01 -0.19752959316E+03  0.21723973689E+03  0.90397335836E+02 0.  0.
        -13    1    3    3    0    0 -0.20045048654E+02  0.21775211364E+02 -0.11215310089E+03  0.11599259392E+03  0.00000000000E+00 0.  1.
         14    1    3    3    0    0 -0.40099296411E+02  0.71828677201E+01 -0.48697924154E+01  0.41027576573E+02  0.00000000000E+00 0. -1.
        -11    1    4    4    0    0 -0.43671582702E+02 -0.53423409076E+01 -0.81853095953E+02  0.92928343681E+02  0.00000000000E+00 0. -1.
         11    1    4    4    0    0  0.45039332423E+02  0.66127914273E+01 -0.11567649720E+03  0.12431139320E+03  0.00000000000E+00 0.  1.
          1    1    1    2  501    0  0.58776595344E+02 -0.30228529603E+02 -0.39100262647E+03  0.39654950015E+03  0.00000000000E+00 0. -1.
<scales pt_clust_5="13000.00000" pt_clust_6="13000.00000" pt_clust_7="13000.00000" pt_clust_8="13000.00000" pt_clust_9="66.09427"></scales>
<clustering>
<clus scale="   66.094">  2  9  1 -1</clus>
<clus scale="   80.654">  5  6 -1 -1</clus>
<clus scale="   90.239">  1  5  2 -1</clus>
<clus scale="   90.397">  7  8 -1 -1</clus>
<clus scale="   66.094">  2  5  1 -1</clus>
</clustering>
</event>
<event>
 9    2  0.1033155E-004  0.1179121E+03  0.7546771E-02  0.1249787E+00
         21   -1    0    0  501  502  0.00000000000E+00  0.00000000000E+00  0.65510967637E+02  0.65510967637E+02  0.00000000000E+00 0.  1.
          4   -1    0    0  502    0 -0.00000000000E+00 -0.00000000000E+00 -0.33601900045E+03  0.33601900045E+03  0.00000000000E+00 0. -1.
         23    2    1    2    0    0 -0.65798076736E+02 -0.48639470117E+02 -0.21822124088E+03  0.25077734817E+03  0.92593646812E+02 0.  0.
         24    2    1    2    0    0  0.52138999281E+02  0.26816370650E+02 -0.66368352093E+02  0.12140797128E+03  0.83051456031E+02 0.  0.
        -13    1    4    4    0    0 -0.12627212362E+02  0.32261060322E+02 -0.11974181565E+02  0.36655197848E+02  0.00000000000E+00 0.  1.
         14    1    4    4    0    0  0.64766211643E+02 -0.54446896723E+01 -0.54394170528E+02  0.84752773428E+02  0.00000000000E+00 0. -1.
        -11    1    3    3    0    0  0.61781208264E+00  0.24567880668E+02 -0.48476480355E+02  0.54350083716E+02  0.00000000000E+00 0.  1.
         11    1    3    3    0    0 -0.66415888818E+02 -0.73207350785E+02 -0.16974476052E+03  0.19642726446E+03  0.00000000000E+00 0. -1.
          3    1    1    2  501    0  0.13659077454E+02  0.21823099467E+02  0.14081560160E+02  0.29344648640E+02  0.00000000000E+00 0. -1.
<scales pt_clust_5="13000.00000" pt_clust_6="13000.00000" pt_clust_7="13000.00000" pt_clust_8="13000.00000" pt_clust_9="25.74525"></scales>
<clustering>
<clus scale="   25.745">  1  9  2 -1</clus>
<clus scale="   83.051">  5  6 -1 -1</clus>
<clus scale="   92.594">  7  8 -1 -1</clus>
<clus scale="  110.577">  1  5  2 -1</clus>
<clus scale="   25.745">  1  5  2 -1</clus>
</clustering>
</event>
<event>
 9    2  0.1033155E-004  0.9338002E+02  0.7546771E-02  0.1297237E+00
          2   -1    0    0  502    0 -0.00000000000E+00  0.00000000000E+00  0.75606000939E+02  0.75606000939E+02  0.00000000000E+00 0. -1.
         21   -1    0    0  501  502  0.00000000000E+00 -0.00000000000E+00 -0.63413537543E+03  0.63413537543E+03  0.00000000000E+00 0. -1.
         23    2    1    2    0    0  0.37803527412E+02  0.83409000865E+01 -0.44731335543E+02  0.10270096211E+03  0.83951878716E+02 0.  0.
         24    2    1    2    0    0 -0.51481945048E+02 -0.30393568947E+02 -0.55198505474E+03  0.56087042954E+03  0.79460546045E+02 0.  0.
        -13    1    4    4    0    0 -0.23470524367E+02 -0.27696932076E+02 -0.77826376575E+02  0.85877415257E+02  0.00000000000E+00 0.  1.
         14    1    4    4    0    0 -0.28011420681E+02 -0.26966368712E+01 -0.47415867817E+03  0.47499301428E+03  0.00000000000E+00 0. -1.
        -13    1    3    3    0    0  0.33078832739E+02  0.28924899672E+02 -0.61603685907E+02  0.75669499230E+02  0.00000000000E+00 0.  1.
         13    1    3    3    0    0  0.47246946732E+01 -0.20583999585E+02  0.16872350364E+02  0.27031462881E+02  0.00000000000E+00 0. -1.
          1    1    1    2  501    0  0.13678417636E+02  0.22052668861E+02  0.38187015796E+02  0.46169984712E+02  0.00000000000E+00 0. -1.
<scales pt_clust_5="13000.00000" pt_clust_6="13000.00000" pt_clust_7="13000.00000" pt_clust_8="13000.00000" pt_clust_9="25.95034"></scales>
<clustering>
<clus scale="   25.950">  2  9  1 -1</clus>
<clus scale="   79.461">  5  6 -1 -1</clus>
<clus scale="   83.952">  7  8 -1 -1</clus>
<clus scale="   89.364">  2  5  1 -1</clus>
<clus scale="   25.950">  2  5  1 -1</clus>
</clustering>
</event>
<event>
 9    2  0.1033155E-004  0.1181681E+03  0.7546771E-02  0.1249197E+00
         21   -1    0    0  501  502  0.00000000000E+00  0.00000000000E+00  0.23314806944E+02  0.23314806944E+02  0.00000000000E+00 0.  1.
         -1   -1    0    0    0  501 -0.00000000000E+00 -0.00000000000E+00 -0.10007734746E+04  0.10007734746E+04  0.00000000000E+00 0.  1.
         23    2    1    2    0    0 -0.65274257476E+02 -0.42155288836E+02 -0.66968394733E+03  0.68012216221E+03  0.89731650772E+02 0.  0.
         24    2    1    2    0    0  0.77198093963E+02  0.14977837094E+02 -0.17545834562E+03  0.20836223010E+03  0.80282666682E+02 0.  0.
        -13    1    4    4    0    0  0.84403630291E+02  0.11799646715E+01 -0.97940562446E+02  0.12929701812E+03  0.00000000000E+00 0.  1.
         14    1    4    4    0    0 -0.72055363273E+01  0.13797872422E+02 -0.77517783178E+02  0.79065211983E+02  0.00000000000E+00 0. -1.
        -11    1    3    3    0    0 -0.22081548729E+01  0.25324410646E+02 -0.11263348965E+03  0.11546646575E+03  0.00000000000E+00 0. -1.
         11    1    3    3    0    0 -0.63066102603E+02 -0.67479699482E+02 -0.55705045768E+03  0.56465569646E+03  0.00000000000E+00 0.  1.
         -2    1    1    2    0  502 -0.11923836487E+02  0.27177451742E+02 -0.13231637466E+03  0.13560388918E+03  0.00000000000E+00 0.  1.
<scales pt_clust_5="13000.00000" pt_clust_6="13000.00000" pt_clust_7="13000.00000" pt_clust_8="13000.00000" pt_clust_9="29.67815"></scales>
<clustering>
<clus scale="   29.678">  1  9  2 -1</clus>
<clus scale="   80.283">  5  6 -1 -1</clus>
<clus scale="   89.732">  7  8 -1 -1</clus>
<clus scale="  111.163">  1  5  2 -1</clus>
<clus scale="   29.678">  1  5  2 -1</clus>
</clustering>
</event>
<event>
 9    2  0.1033155E-004  0.1114947E+03  0.7546771E-02  0.1264787E+00
         21   -1    0    0  501  502  0.00000000000E+00  0.00000000000E+00  0.35500694683E+02  0.35500694683E+02  0.00000000000E+00 0. -1.
          2   -1    0    0  502    0 -0.00000000000E+00 -0.00000000000E+00 -0.59650438948E+03  0.59650438948E+03  0.00000000000E+00 0. -1.
         23    2    1    2    0    0 -0.43689767283E+01  0.19697142530E+02 -0.16113256427E+03  0.19114170916E+03  0.10081857135E+03 0.  0.
         24    2    1    2    0    0  0.68142993317E+02 -0.40463989410E+02 -0.21730035332E+03  0.24636279452E+03  0.84819696959E+02 0.  0.
        -13    1    4    4    0    0 -0.11733652971E+02 -0.25663553243E+02 -0.98358202754E+02  0.10232610921E+03  0.00000000000E+00 0.  1.
         14    1    4    4    0    0  0.79876646288E+02 -0.14800436167E+02 -0.11894215056E+03  0.14403668531E+03  0.00000000000E+00 0. -1.
        -13    1    3    3    0    0 -0.46086636297E+01 -0.41410394442E+02 -0.62609070077E+02  0.75206091537E+02  0.00000000000E+00 0.  1.
         13    1    3    3    0    0  0.23968690139E+00  0.61107536972E+02 -0.98523494196E+02  0.11593561762E+03  0.00000000000E+00 0. -1.
          1    1    1    2  501    0 -0.63774016589E+02  0.20766846880E+02 -0.18257077720E+03  0.19450058048E+03  0.00000000000E+00 0. -1.
<scales pt_clust_5="13000.00000" pt_clust_6="13000.00000" pt_clust_7="13000.00000" pt_clust_8="13000.00000" pt_clust_9="67.07005"></scales>
<clustering>
<clus scale="   67.070">  1  9  2 -1</clus>
<clus scale="   84.820">  5  6 -1 -1</clus>
<clus scale="   97.268">  1  5  2 -1</clus>
<clus scale="  100.819">  7  8 -1 -1</clus>
<clus scale="   67.070">  1  5  2 -1</clus>
</clustering>
</event>
<event>
 9    2  0.1033155E-004  0.1036646E+03  0.7546771E-02  0.1277024E+00
          2   -1    0    0  502    0 -0.00000000000E+00  0.00000000000E+00  0.99069268898E+03  0.99069268898E+03  0.00000000000E+00 0. -1.
         21   -1    0    0  501  502  0.00000000000E+00 -0.00000000000E+00 -0.24112124556E+02  0.24112124556E+02  0.00000000000E+00 0.  1.
         24    2    1    2    0    0  0.27417999792E+02 -0.74648260482E+02  0.53990483331E+03  0.55175977085E+03  0.81348055897E+02 0.  0.
         23    2    1    2    0    0 -0.27875796607E+02 -0.96793374276E+01  0.23535626120E+03  0.25396493144E+03  0.90746168555E+02 0.  0.
        -11    1    3    3    0    0  0.47423277266E+02 -0.79535534892E+02  0.46126953543E+03  0.47047258460E+03  0.00000000000E+00 0.  1.
         12    1    3    3    0    0 -0.20005277474E+02  0.48872744102E+01  0.78635297872E+02  0.81287186256E+02  0.00000000000E+00 0. -1.
        -13    1    4    4    0    0 -0.29103392934E+01 -0.43139266639E+02  0.61573253452E+02  0.75237835838E+02  0.00000000000E+00 0.  1.
         13    1    4    4    0    0 -0.24965457313E+02  0.33459929211E+02  0.17378300774E+03  0.17872709560E+03  0.00000000000E+00 0. -1.
          1    1    1    2  501    0  0.45779681517E+00  0.84327597909E+02  0.19131946993E+03  0.20908011125E+03  0.00000000000E+00 0. -1.
<scales pt_clust_5="13000.00000" pt_clust_6="13000.00000" pt_clust_7="13000.00000" pt_clust_8="13000.00000" pt_clust_9="84.32884"></scales>
<clustering>
<clus scale="   81.348">  5  6 -1 -1</clus>
<clus scale="   84.329">  2  9  1 -1</clus>
<clus scale="   90.746">  7  8 -1 -1</clus>
<clus scale="   95.546">  1  5  2 -1</clus>
<clus scale="   84.329">  2  5  1 -1</clus>
</clustering>
</event>
<event>
 9    2  0.1033155E-004  0.1122692E+03  0.7546771E-02  0.1260842E+00
         21   -1    0    0  501  502  0.00000000000E+00  0.00000000000E+00  0.24583147193E+03  0.24583147193E+03  0.00000000000E+00 0.  1.
          4   -1    0    0  502    0 -0.00000000000E+00 -0.00000000000E+00 -0.19139708772E+03  0.19139708772E+03  0.00000000000E+00 0. -1.
         24    2    1    2    0    0  0.26112572671E+02 -0.60893486354E+02 -0.14475243248E+03  0.17794007719E+03  0.79495416408E+02 0.  0.
         23    2    1    2    0    0 -0.48061566260E+02  0.43205822126E+02  0.81805265457E+02  0.13856963406E+03  0.91284088479E+02 0.  0.
        -11    1    3    3    0    0  0.34519599798E+02  0.12033749209E+01 -0.24523546461E+02  0.42361010522E+02  0.00000000000E+00 0.  1.
         12    1    3    3    0    0 -0.84070271274E+01 -0.62096861275E+02 -0.12022888602E+03  0.13557906667E+03  0.00000000000E+00 0. -1.
        -13    1    4    4    0    0 -0.51625751263E+02  0.70788439265E+01  0.87482610979E+02  0.10182600576E+03  0.00000000000E+00 0.  1.
         13    1    4    4    0    0  0.35641850026E+01  0.36126978199E+02 -0.56773455219E+01  0.36743628301E+02  0.00000000000E+00 0. -1.
          3    1    1    2  501    0  0.21948993590E+02  0.17687664229E+02  0.11738155124E+03  0.12071884839E+03  0.00000000000E+00 0. -1.
<scales pt_clust_5="13000.00000" pt_clust_6="13000.00000" pt_clust_7="13000.00000" pt_clust_8="13000.00000" pt_clust_9="28.18886"></scales>
<clustering>
<clus scale="   28.189">  1  9  2 -1</clus>
<clus scale="   79.495">  5  6 -1 -1</clus>
<clus scale="   91.284">  7  8 -1 -1</clus>
<clus scale="  102.913">  2  5  1 -1</clus>
<clus scale="   28.189">  1  5  2 -1</clus>
</clustering>
</event>
<event>
 9    2  0.1033155E-004  0.1607841E+03  0.7546771E-02  0.1192097E+00
          2   -1    0    0  502    0 -0.00000000000E+00  0.00000000000E+00  0.25107646502E+04  0.25107646502E+04  0.00000000000E+00 0. -1.
         21   -1    0    0  501  502  0.00000000000E+00 -0.00000000000E+00 -0.23985747159E+02  0.23985747159E+02  0.00000000000E+00 0. -1.
         24    2    1    2    0    0 -0.10602240142E+03 -0.61388060697E+02  0.11449052155E+04  0.11542104950E+04  0.79904135368E+02 0.  0.
         23    2    1    2    0    0 -0.51347995952E+02  0.11589545058E+03  0.58323639279E+03  0.60383722912E+03  0.91576947130E+02 0.  0.
        -11    1    3    3    0    0 -0.51962698156E+02 -0.34817882550E+02  0.26648340427E+03  0.27372579655E+03  0.00000000000E+00 0.  1.
         12    1    3    3    0    0 -0.54059703260E+02 -0.26570178147E+02  0.87842181119E+03  0.88048469848E+03  0.00000000000E+00 0. -1.
        -11    1    4    4    0    0  0.22612837753E+02  0.39554116286E+02  0.24809004515E+03  0.25223905139E+03  0.00000000000E+00 0.  1.
         11    1    4    4    0    0 -0.73960833705E+02  0.76341334294E+02  0.33514634764E+03  0.35159817773E+03  0.00000000000E+00 0. -1.
          1    1    1    2  501    0  0.15737039737E+03 -0.54507389884E+02  0.75863729474E+03  0.77670267316E+03  0.00000000000E+00 0. -1.
<scales pt_clust_5="13000.00000" pt_clust_6="13000.00000" pt_clust_7="13000.00000" pt_clust_8="13000.00000" pt_clust_9="132.15605"></scales>
<clustering>
<clus scale="   79.904">  5  6 -1 -1</clus>
<clus scale="   91.577">  7  8 -1 -1</clus>
<clus scale="  146.267">  1  5  2 -1</clus>
<clus scale="  132.156">  2  9  1 -1</clus>
<clus scale="  132.156">  2  5  1 -1</clus>
</clustering>
</event>
<event>
 9    2  0.1033155E-004  0.9186831E+02  0.7546771E-02  0.1304362E+00
         21   -1    0    0  501  502  0.00000000000E+00  0.00000000000E+00  0.18397833004E+03  0.18397833004E+03  0.00000000000E+00 0.  1.
          4   -1    0    0  502    0 -0.00000000000E+00 -0.00000000000E+00 -0.14473974511E+03  0.14473974511E+03  0.00000000000E+00 0. -1.
         24    2    1    2    0    0 -0.31263999993E+00 -0.12912134782E+01 -0.80315913942E+02  0.11453396598E+03  0.81643238271E+02 0.  0.
         23    2    1    2    0    0 -0.41909402905E+00  0.41133081682E+02  0.13661477434E+02  0.10104153589E+03  0.91272394297E+02 0.  0.
        -11    1    3    3    0    0 -0.93841211142E+00  0.31913908204E+02 -0.51266727703E+01  0.32336680841E+02  0.00000000000E+00 0.  1.
         12    1    3    3    0    0  0.62577211148E+00 -0.33205121682E+02 -0.75189241172E+02  0.82197285142E+02  0.00000000000E+00 0. -1.
        -13    1    4    4    0    0 -0.31345404038E+02  0.43271564015E+02 -0.18335467166E+02  0.56490282021E+02  0.00000000000E+00 0.  1.
         13    1    4    4    0    0  0.30926310009E+02 -0.21384823330E+01  0.31996944599E+02  0.44551253868E+02  0.00000000000E+00 0. -1.
          3    1    1    2  501    0  0.73173402899E+00 -0.39841868204E+02  0.10589302144E+03  0.11314257327E+03  0.00000000000E+00 0. -1.
<scales pt_clust_5="13000.00000" pt_clust_6="13000.00000" pt_clust_7="13000.00000" pt_clust_8="13000.00000" pt_clust_9="39.84859"></scales>
<clustering>
<clus scale="   39.849">  1  9  2 -1</clus>
<clus scale="   81.643">  5  6 -1 -1</clus>
<clus scale="   82.309">  2  5  1 -1</clus>
<clus scale="   91.272">  7  8 -1 -1</clus>
<clus scale="   39.849">  1  5  2 -1</clus>
</clustering>
</event>
<event>
 9    2  0.1033155E-004  0.1121015E+03  0.7546771E-02  0.1264392E+00
          2   -1    0    0  502    0 -0.00000000000E+00  0.00000000000E+00  0.49858868315E+03  0.49858868315E+03  0.00000000000E+00 0. -1.
         21   -1    0    0  501  502  0.00000000000E+00 -0.00000000000E+00 -0.19377348121E+03  0.19377348121E+03  0.00000000000E+00 0. -1.
         24    2    1    2    0    0 -0.48845828361E+02 -0.16435275390E+02  0.42730444792E+03  0.43790350323E+03  0.80711546299E+02 0.  0.
         23    2    1    2    0    0  0.46757702622E+02  0.77513281374E+02 -0.20600007542E+02  0.13564662473E+03  0.98899216100E+02 0.  0.
        -13    1    3    3    0    0 -0.13284659908E+02 -0.38499738873E+02  0.10062975782E+03  0.10855901732E+03  0.00000000000E+00 0.  1.
         14    1    3    3    0    0 -0.35561168453E+02  0.22064463482E+02  0.32667469010E+03  0.32934448592E+03  0.00000000000E+00 0. -1.
        -13    1    4    4    0    0  0.73664187385E+02  0.64155718528E+02  0.25551689766E+01  0.97718460955E+02  0.00000000000E+00 0. -1.
         13    1    4    4    0    0 -0.26906484763E+02  0.13357562846E+02 -0.23155176518E+02  0.37928163772E+02  0.00000000000E+00 0.  1.
          1    1    1    2  501    0  0.20881257396E+01 -0.61078005984E+02 -0.10188923844E+03  0.11881203640E+03  0.00000000000E+00 0. -1.
<scales pt_clust_5="13000.00000" pt_clust_6="13000.00000" pt_clust_7="13000.00000" pt_clust_8="13000.00000" pt_clust_9="61.11369"></scales>
<clustering>
<clus scale="   61.114">  2  9  1 -1</clus>
<clus scale="   80.712">  5  6 -1 -1</clus>
<clus scale="   96.437">  1  5  2 -1</clus>
<clus scale="   98.899">  7  8 -1 -1</clus>
<clus scale="   61.114">  2  5  1 -1</clus>
</clustering>
</event>
<event>
 9    2  0.1033155E-004  0.1157905E+03  0.7546771E-02  0.1254035E+00
         21   -1    0    0  501  502  0.00000000000E+00  0.00000000000E+00  0.26792535883E+02  0.26792535883E+02  0.00000000000E+00 0.  1.
          2   -1    0    0  502    0 -0.00000000000E+00 -0.00000000000E+00 -0.68264617985E+03  0.68264617985E+03  0.00000000000E+00 0. -1.
         24    2    1    2    0    0 -0.34586723984E+02 -0.65808464265E+02 -0.44350709135E+03  0.45667483453E+03  0.79538474773E+02 0.  0.
         23    2    1    2    0    0  0.46219596074E+02  0.49004651379E+02 -0.15431559040E+03  0.19123921610E+03  0.90672098330E+02 0.  0.
        -13    1    3    3    0    0 -0.13026262109E+02 -0.66728482886E+02 -0.18209065614E+03  0.19436918734E+03  0.00000000000E+00 0.  1.
         14    1    3    3    0    0 -0.21560461875E+02  0.92001862040E+00 -0.26141643521E+03  0.26230564719E+03  0.00000000000E+00 0. -1.
        -11    1    4    4    0    0  0.53671752617E+02  0.89128584066E+01 -0.13611031120E+03  0.14658142068E+03  0.00000000000E+00 0.  1.
         11    1    4    4    0    0 -0.74521565434E+01  0.40091792972E+02 -0.18205279202E+02  0.44657795419E+02  0.00000000000E+00 0. -1.
          1    1    1    2  501    0 -0.11632872090E+02  0.16803812886E+02 -0.58030962221E+02  0.61524665110E+02  0.00000000000E+00 0. -1.
<scales pt_clust_5="13000.00000" pt_clust_6="13000.00000" pt_clust_7="13000.00000" pt_clust_8="13000.00000" pt_clust_9="20.43752"></scales>
<clustering>
<clus scale="   20.438">  1  9  2 -1</clus>
<clus scale="   79.538">  5  6 -1 -1</clus>
<clus scale="   90.672">  7  8 -1 -1</clus>
<clus scale="  107.296">  2  5  1 -1</clus>
<clus scale="   20.438">  1  5  2 -1</clus>
</clustering>
</event>
<event>
 9    2  0.1033155E-004  0.1605357E+03  0.7546771E-02  0.1206147E+00
         21   -1    0    0  501  502  0.00000000000E+00  0.00000000000E+00  0.10165229517E+03  0.10165229517E+03  0.00000000000E+00 0. -1.
          2   -1    0    0  502    0 -0.00000000000E+00 -0.00000000000E+00 -0.66474097343E+03  0.66474097343E+03  0.00000000000E+00 0. -1.
         24    2    1    2    0    0  0.13010883895E+02 -0.72313200888E+02 -0.86731497696E+02  0.13871108422E+03  0.79497987836E+02 0.  0.
         23    2    1    2    0    0  0.56448032812E+02 -0.50599219017E+02 -0.47173095364E+03  0.48642565868E+03  0.91286184228E+02 0.  0.
        -13    1    3    3    0    0 -0.28507803272E+02 -0.57444436898E+02 -0.50026874179E+02  0.81334164520E+02  0.00000000000E+00 0.  1.
         14    1    3    3    0    0  0.41518687167E+02 -0.14868763990E+02 -0.36704623516E+02  0.57376919699E+02  0.00000000000E+00 0. -1.
        -11    1    4    4    0    0 -0.15235967460E+02 -0.43698656671E+02 -0.16626856218E+03  0.17258893959E+03  0.00000000000E+00 0.  1.
         11    1    4    4    0    0  0.71684000272E+02 -0.69005623464E+01 -0.30546239146E+03  0.31383671909E+03  0.00000000000E+00 0. -1.
          1    1    1    2  501    0 -0.69458916707E+02  0.12291241991E+03 -0.46262269299E+01  0.14125652570E+03  0.00000000000E+00 0. -1.
<scales pt_clust_5="13000.00000" pt_clust_6="13000.00000" pt_clust_7="13000.00000" pt_clust_8="13000.00000" pt_clust_9="132.05507"></scales>
<clustering>
<clus scale="   79.498">  5  6 -1 -1</clus>
<clus scale="   91.286">  7  8 -1 -1</clus>
<clus scale="  108.252">  2  5  1 -1</clus>
<clus scale="  132.055">  1  9  2 -1</clus>
<clus scale="  132.055">  1  5  2 -1</clus>
</clustering>
</event>
<event>
 9    2  0.1033155E-004  0.9412094E+02  0.7546771E-02  0.1300647E+00
          2   -1    0    0  502    0 -0.00000000000E+00  0.00000000000E+00  0.51162551941E+03  0.51162551941E+03  0.00000000000E+00 0. -1.
         21   -1    0    0  501  502  0.00000000000E+00 -0.00000000000E+00 -0.43948453921E+02  0.43948453921E+02  0.00000000000E+00 0. -1.
         24    2    1    2    0    0 -0.63710368254E+01  0.17372924324E+02  0.38653794605E+03  0.39534911092E+03  0.80913083955E+02 0.  0.
         23    2    1    2    0    0 -0.11978846099E+02  0.10768327383E+02  0.83988071320E+02  0.12650891993E+03  0.93225860520E+02 0.  0.
        -13    1    3    3    0    0 -0.36547109899E+02  0.32595681482E+02  0.21396116244E+03  0.21949384667E+03  0.00000000000E+00 0.  1.
         14    1    3    3    0    0  0.30176073074E+02 -0.15222757158E+02  0.17257678361E+03  0.17585526425E+03  0.00000000000E+00 0. -1.
        -13    1    4    4    0    0  0.10939162155E+02  0.48753264442E+02  0.39631805372E+02  0.63774807404E+02  0.00000000000E+00 0. -1.
         13    1    4    4    0    0 -0.22918008254E+02 -0.37984937059E+02  0.44356265948E+02  0.62734112527E+02  0.00000000000E+00 0.  1.
          1    1    1    2  501    0  0.18349882925E+02 -0.28141251707E+02 -0.28489518788E+01  0.33715942487E+02  0.00000000000E+00 0. -1.
<scales pt_clust_5="13000.00000" pt_clust_6="13000.00000" pt_clust_7="13000.00000" pt_clust_8="13000.00000" pt_clust_9="33.59536"></scales>
<clustering>
<clus scale="   33.595">  2  9  1 -1</clus>
<clus scale="   80.913">  5  6 -1 -1</clus>
<clus scale="   81.943">  1  5  2 -1</clus>
<clus scale="   93.226">  7  8 -1 -1</clus>
<clus scale="   33.595">  2  5  1 -1</clus>
</clustering>
</event>
<event>
 9    2  0.1033155E-004  0.1087653E+03  0.7546771E-02  0.1266257E+00
          2   -1    0    0  502    0 -0.00000000000E+00  0.00000000000E+00  0.21016601698E+04  0.21016601698E+04  0.00000000000E+00 0. -1.
         21   -1    0    0  501  502  0.00000000000E+00 -0.00000000000E+00 -0.18585164831E+02  0.18585164831E+02  0.00000000000E+00 0. -1.
         24    2    1    2    0    0  0.33838790663E+02 -0.73789448961E+02  0.17068474669E+04  0.17103912190E+04  0.74296031993E+02 0.  0.
         23    2    1    2    0    0  0.16603170024E+02  0.29599390452E+02  0.26551282761E+03  0.28041339642E+03  0.83563281986E+02 0.  0.
        -11    1    3    3    0    0  0.24265585231E+02 -0.12728991130E+02  0.16148774334E+03  0.16379602282E+03  0.00000000000E+00 0.  1.
         12    1    3    3    0    0  0.95732054322E+01 -0.61060457831E+02  0.15453597235E+04  0.15465951962E+04  0.00000000000E+00 0. -1.
        -11    1    4    4    0    0  0.80722080665E+01  0.57074737559E+02  0.21152625691E+03  0.21923969434E+03  0.00000000000E+00 0. -1.
         11    1    4    4    0    0  0.85309619576E+01 -0.27475347107E+02  0.53986570699E+02  0.61173702083E+02  0.00000000000E+00 0.  1.
          1    1    1    2  501    0 -0.50441960687E+02  0.44190058510E+02  0.11071471049E+03  0.12944071920E+03  0.00000000000E+00 0. -1.
<scales pt_clust_5="13000.00000" pt_clust_6="13000.00000" pt_clust_7="13000.00000" pt_clust_8="13000.00000" pt_clust_9="67.06081"></scales>
<clustering>
<clus scale="   67.061">  2  9  1 -1</clus>
<clus scale="   74.296">  5  6 -1 -1</clus>
<clus scale="   83.563">  7  8 -1 -1</clus>
<clus scale="  101.818">  1  5  2 -1</clus>
<clus scale="   67.061">  2  5  1 -1</clus>
</clustering>
</event>
<event>
 9    2  0.1033155E-004  0.9604824E+02  0.7546771E-02  0.1294383E+00
         21   -1    0    0  501  502  0.00000000000E+00  0.00000000000E+00  0.83392809727E+02  0.83392809727E+02  0.00000000000E+00 0. -1.
          2   -1    0    0  502    0 -0.00000000000E+00 -0.00000000000E+00 -0.40634676584E+03  0.40634676584E+03  0.00000000000E+00 0. -1.
         24    2    1    2    0    0  0.30464713628E+02 -0.87464046604E+00 -0.31640562913E+03  0.32810639578E+03  0.81316794278E+02 0.  0.
         23    2    1    2    0    0 -0.23090952068E+02  0.28276564506E+02 -0.49537750426E+02  0.11012271165E+03  0.91325060830E+02 0.  0.
        -13    1    3    3    0    0 -0.15422554437E+02 -0.28923910529E+02 -0.10727598094E+03  0.11217211718E+03  0.00000000000E+00 0.  1.
         14    1    3    3    0    0  0.45887268064E+02  0.28049270063E+02 -0.20912964819E+03  0.21593427859E+03  0.00000000000E+00 0. -1.
        -13    1    4    4    0    0  0.69174151800E+01 -0.22288609080E+02  0.10938709552E+02  0.25773786958E+02  0.00000000000E+00 0.  1.
         13    1    4    4    0    0 -0.30008367248E+02  0.50565173586E+02 -0.60476459978E+02  0.84348924689E+02  0.00000000000E+00 0. -1.
          1    1    1    2  501    0 -0.73737615597E+01 -0.27401924040E+02  0.42989423442E+02  0.51510468145E+02  0.00000000000E+00 0. -1.
<scales pt_clust_5="13000.00000" pt_clust_6="13000.00000" pt_clust_7="13000.00000" pt_clust_8="13000.00000" pt_clust_9="28.37671"></scales>
<clustering>
<clus scale="   28.377">  1  9  2 -1</clus>
<clus scale="   81.317">  5  6 -1 -1</clus>
<clus scale="   86.588">  2  5  1 -1</clus>
<clus scale="   91.325">  7  8 -1 -1</clus>
<clus scale="   28.377">  1  5  2 -1</clus>
</clustering>
</event>
<event>
 9    2  0.1033155E-004  0.1009508E+03  0.7546771E-02  0.1285098E+00
          2   -1    0    0  502    0 -0.00000000000E+00  0.00000000000E+00  0.79947806741E+03  0.79947806741E+03  0.00000000000E+00 0. -1.
         21   -1    0    0  501  502  0.00000000000E+00 -0.00000000000E+00 -0.28422337464E+02  0.28422337464E+02  0.00000000000E+00 0. -1.
         24    2    1    2    0    0  0.43169701748E+02 -0.96947959066E+01  0.63824037249E+03  0.64460865315E+03  0.78815800616E+02 0.  0.
         23    2    1    2    0    0 -0.15194223533E+02  0.21387095981E+02  0.10119711716E+03  0.13948478444E+03  0.92341086563E+02 0.  0.
        -13    1    3    3    0    0 -0.19514385022E+02 -0.15127349953E+02  0.11647574809E+03  0.11906404929E+03  0.00000000000E+00 0.  1.
         14    1    3    3    0    0  0.62684086771E+02  0.54325540459E+01  0.52176462440E+03  0.52554460387E+03  0.00000000000E+00 0. -1.
        -11    1    4    4    0    0 -0.43811902441E+02  0.41988240408E+02  0.66170782320E+02  0.89783448146E+02  0.00000000000E+00 0.  1.
         11    1    4    4    0    0  0.28617678908E+02 -0.20601144428E+02  0.35026334836E+02  0.49701336299E+02  0.00000000000E+00 0. -1.
          1    1    1    2  501    0 -0.27975478215E+02 -0.11692300074E+02  0.31618240302E+02  0.43806967279E+02  0.00000000000E+00 0. -1.
<scales pt_clust_5="13000.00000" pt_clust_6="13000.00000" pt_clust_7="13000.00000" pt_clust_8="13000.00000" pt_clust_9="30.32057"></scales>
<clustering>
<clus scale="   30.321">  2  9  1 -1</clus>
<clus scale="   78.816">  5  6 -1 -1</clus>
<clus scale="   88.747">  1  5  2 -1</clus>
<clus scale="   92.341">  7  8 -1 -1</clus>
<clus scale="   30.321">  2  5  1 -1</clus>
</clustering>
</event>
<event>
 9    2  0.1033155E-004  0.1502588E+03  0.7546771E-02  0.1210079E+00
          2   -1    0    0  502    0 -0.00000000000E+00  0.00000000000E+00  0.47935183279E+03  0.47935183279E+03  0.00000000000E+00 0. -1.
         21   -1    0    0  501  502  0.00000000000E+00 -0.00000000000E+00 -0.21958896012E+03  0.21958896012E+03  0.00000000000E+00 0.  1.
         24    2    1    2    0    0  0.79086520570E+02  0.57559215515E+02  0.41632465846E+03  0.43493873340E+03  0.79232187560E+02 0.  0.
         23    2    1    2    0    0 -0.24767904872E+02 -0.31010126299E+02 -0.38062925312E+02  0.13097068696E+03  0.11886739466E+03 0.  0.
        -13    1    3    3    0    0  0.62789385498E+02  0.27197064095E+02  0.13342473171E+03  0.14994781178E+03  0.00000000000E+00 0.  1.
         14    1    3    3    0    0  0.16297135072E+02  0.30362151421E+02  0.28289992675E+03  0.28499092162E+03  0.00000000000E+00 0. -1.
        -11    1    4    4    0    0 -0.59997511878E+02 -0.31511080792E+02 -0.59113443499E+02  0.89928020364E+02  0.00000000000E+00 0.  1.
         11    1    4    4    0    0  0.35229607006E+02  0.50095449334E+00  0.21050518187E+02  0.41042666594E+02  0.00000000000E+00 0. -1.
          1    1    1    2  501    0 -0.54318615698E+02 -0.26549089217E+02 -0.11849886048E+03  0.13303137255E+03  0.00000000000E+00 0. -1.
<scales pt_clust_5="13000.00000" pt_clust_6="13000.00000" pt_clust_7="13000.00000" pt_clust_8="13000.00000" pt_clust_9="60.45962"></scales>
<clustering>
<clus scale="   60.460">  2  9  1 -1</clus>
<clus scale="   79.232">  5  6 -1 -1</clus>
<clus scale="  118.867">  7  8 -1 -1</clus>
<clus scale="  121.351">  1  5  2 -1</clus>
<clus scale="   60.460">  2  5  1 -1</clus>
</clustering>
</event>
<event>
 9    2  0.1033155E-004  0.1199764E+03  0.7546771E-02  0.1247564E+00
         -1   -1    0    0    0  501 -0.00000000000E+00  0.00000000000E+00  0.25574421948E+03  0.25574421948E+03  0.00000000000E+00 0.  1.
         21   -1    0    0  501  502  0.00000000000E+00 -0.00000000000E+00 -0.35955885971E+03  0.35955885971E+03  0.00000000000E+00 0.  1.
         24    2    1    2    0    0 -0.80123742443E+02 -0.12421998589E+02  0.21686239506E+03  0.24514683925E+03  0.80582592737E+02 0.  0.
         23    2    1    2    0    0 -0.97806011977E+01  0.71486376561E+01 -0.16587698316E+03  0.19106504675E+03  0.94042093590E+02 0.  0.
        -11    1    3    3    0    0 -0.61700396427E+02  0.19245897350E+02  0.18708562837E+03  0.19793528192E+03  0.00000000000E+00 0.  1.
         12    1    3    3    0    0 -0.18423346015E+02 -0.31667895938E+02  0.29776766684E+02  0.47211557332E+02  0.00000000000E+00 0. -1.
        -13    1    4    4    0    0 -0.24997294449E+02 -0.24812858553E+02 -0.14657154542E+03  0.15074402345E+03  0.00000000000E+00 0.  1.
         13    1    4    4    0    0  0.15216693252E+02  0.31961496209E+02 -0.19305437740E+02  0.40321023298E+02  0.00000000000E+00 0. -1.
         -2    1    1    2    0  502  0.89904343640E+02  0.52733609328E+01 -0.15480005212E+03  0.17909119319E+03  0.00000000000E+00 0.  1.
<scales pt_clust_5="13000.00000" pt_clust_6="13000.00000" pt_clust_7="13000.00000" pt_clust_8="13000.00000" pt_clust_9="90.05887"></scales>
<clustering>
<clus scale="   80.583">  5  6 -1 -1</clus>
<clus scale="   90.059">  2  9  1 -1</clus>
<clus scale="   94.042">  7  8 -1 -1</clus>
<clus scale="  109.745">  1  5  2 -1</clus>
<clus scale="   90.059">  2  5  1 -1</clus>
</clustering>
</event>
<event>
 9    2  0.1033155E-004  0.9235652E+02  0.7546771E-02  0.1301543E+00
         21   -1    0    0  501  502  0.00000000000E+00  0.00000000000E+00  0.91288238208E+02  0.91288238208E+02  0.00000000000E+00 0.  1.
         -1   -1    0    0    0  501 -0.00000000000E+00 -0.00000000000E+00 -0.16701627908E+03  0.16701627908E+03  0.00000000000E+00 0.  1.
         23    2    1    2    0    0  0.34965285852E+02 -0.79127539392E+01 -0.54642369554E+02  0.11165761710E+03  0.90534258794E+02 0.  0.
         24    2    1    2    0    0  0.17216629350E+02  0.13037796728E+02  0.83901779592E+01  0.86496721235E+02  0.83336013995E+02 0.  0.
        -11    1    4    4    0    0  0.31496015375E+02 -0.97740761256E+01  0.35391061558E+02  0.48374154120E+02  0.00000000000E+00 0.  1.
         12    1    4    4    0    0 -0.14279386025E+02  0.22811872853E+02 -0.27000883599E+02  0.38122567115E+02  0.00000000000E+00 0. -1.
        -13    1    3    3    0    0  0.38310527615E+02 -0.45228514530E+02 -0.39604185110E+02  0.71286790719E+02  0.00000000000E+00 0. -1.
         13    1    3    3    0    0 -0.33452417629E+01  0.37315760591E+02 -0.15038184444E+02  0.40370826377E+02  0.00000000000E+00 0.  1.
         -2    1    1    2    0  502 -0.52181915202E+02 -0.51250427886E+01 -0.29475849274E+02  0.60150178954E+02  0.00000000000E+00 0.  1.
<scales pt_clust_5="13000.00000" pt_clust_6="13000.00000" pt_clust_7="13000.00000" pt_clust_8="13000.00000" pt_clust_9="52.43302"></scales>
<clustering>
<clus scale="   52.433">  1  9  2 -1</clus>
<clus scale="   83.336">  5  6 -1 -1</clus>
<clus scale="   85.312">  1  5  2 -1</clus>
<clus scale="   90.534">  7  8 -1 -1</clus>
<clus scale="   52.433">  1  5  2 -1</clus>
</clustering>
</event>
<event>
 9    2  0.1033155E-004  0.1038745E+03  0.7546771E-02  0.1277581E+00
         21   -1    0    0  501  502  0.00000000000E+00  0.00000000000E+00  0.54194076144E+02  0.54194076144E+02  0.00000000000E+00 0. -1.
          2   -1    0    0  502    0 -0.00000000000E+00 -0.00000000000E+00 -0.44812028336E+03  0.44812028336E+03  0.00000000000E+00 0. -1.
         24    2    1    2    0    0 -0.21178294145E+02  0.63607797998E+02 -0.27211277048E+03  0.29177695618E+03  0.81203203103E+02 0.  0.
         23    2    1    2    0    0  0.19076457802E+02  0.12589183469E+02 -0.62382863873E+02  0.11388136010E+03  0.92492938595E+02 0.  0.
        -11    1    3    3    0    0  0.26964483425E+02  0.43274788765E+02 -0.10577936795E+03  0.11742685125E+03  0.00000000000E+00 0.  1.
         12    1    3    3    0    0 -0.48142777570E+02  0.20333009233E+02 -0.16633340252E+03  0.17435010494E+03  0.00000000000E+00 0. -1.
        -11    1    4    4    0    0 -0.33398569031E+02  0.68696781204E+01 -0.26998241604E+01  0.34204472533E+02  0.00000000000E+00 0.  1.
         11    1    4    4    0    0  0.52475026833E+02  0.57195053483E+01 -0.59683039713E+02  0.79676887564E+02  0.00000000000E+00 0. -1.
          1    1    1    2  501    0  0.21018363421E+01 -0.76196981467E+02 -0.59430572872E+02  0.96656043228E+02  0.00000000000E+00 0. -1.
<scales pt_clust_5="13000.00000" pt_clust_6="13000.00000" pt_clust_7="13000.00000" pt_clust_8="13000.00000" pt_clust_9="76.22596"></scales>
<clustering>
<clus scale="   76.226">  1  9  2 -1</clus>
<clus scale="   81.203">  5  6 -1 -1</clus>
<clus scale="   92.493">  7  8 -1 -1</clus>
<clus scale="   93.962">  2  5  1 -1</clus>
<clus scale="   76.226">  1  5  2 -1</clus>
</clustering>
</event>
<event>
 9    2  0.1033155E-004  0.1209860E+03  0.7546771E-02  0.1244788E+00
         21   -1    0    0  501  502  0.00000000000E+00  0.00000000000E+00  0.18148546855E+03  0.18148546855E+03  0.00000000000E+00 0. -1.
         -3   -1    0    0    0  501 -0.00000000000E+00 -0.00000000000E+00 -0.23460102837E+03  0.23460102837E+03  0.00000000000E+00 0.  1.
         23    2    1    2    0    0  0.14245029521E+02  0.72024601571E+02 -0.17447903103E+03  0.21109437426E+03  0.93420760424E+02 0.  0.
         24    2    1    2    0    0 -0.37158482291E+02 -0.95849026519E+02  0.96820789277E+02  0.16382207555E+03  0.83039860981E+02 0.  0.
        -13    1    4    4    0    0  0.73023356581E+01 -0.77782568032E+02  0.82768092564E+02  0.11381568056E+03  0.00000000000E+00 0.  1.
         14    1    4    4    0    0 -0.44460817949E+02 -0.18066458487E+02  0.14052696713E+02  0.50006394990E+02  0.00000000000E+00 0. -1.
        -11    1    3    3    0    0 -0.30497938042E+02  0.44972653916E+02 -0.13516255635E+03  0.14567628655E+03  0.00000000000E+00 0.  1.
         11    1    3    3    0    0  0.44742967563E+02  0.27051947655E+02 -0.39316474687E+02  0.65418087714E+02  0.00000000000E+00 0. -1.
         -4    1    1    2    0  502  0.22913452769E+02  0.23824424948E+02  0.24542681930E+02  0.41170047100E+02  0.00000000000E+00 0.  1.
<scales pt_clust_5="13000.00000" pt_clust_6="13000.00000" pt_clust_7="13000.00000" pt_clust_8="13000.00000" pt_clust_9="33.05495"></scales>
<clustering>
<clus scale="   33.055">  1  9  2 -1</clus>
<clus scale="   83.040">  5  6 -1 -1</clus>
<clus scale="   93.421">  7  8 -1 -1</clus>
<clus scale="  113.163">  1  5  2 -1</clus>
<clus scale="   33.055">  1  5  2 -1</clus>
</clustering>
</event>
<event>
 9    2  0.1033155E-004  0.1519124E+03  0.7546771E-02  0.1202419E+00
          2   -1    0    0  502    0 -0.00000000000E+00  0.00000000000E+00  0.55667920889E+03  0.55667920889E+03  0.00000000000E+00 0. -1.
         21   -1    0    0  501  502  0.00000000000E+00 -0.00000000000E+00 -0.13860472687E+03  0.13860472687E+03  0.00000000000E+00 0. -1.
         23    2    1    2    0    0 -0.96206842773E+02  0.88557466869E+02  0.11138207575E+03  0.19653607937E+03  0.95510638991E+02 0.  0.
         24    2    1    2    0    0  0.29090626128E+02 -0.96901829409E+02 -0.51271260017E+02  0.13445099763E+03  0.72194872317E+02 0.  0.
        -13    1    4    4    0    0 -0.19866437323E+02 -0.46964880997E+02 -0.64790859457E+01  0.51403831896E+02  0.00000000000E+00 0.  1.
         14    1    4    4    0    0  0.48957063451E+02 -0.49936948413E+02 -0.44792174071E+02  0.83047165734E+02  0.00000000000E+00 0. -1.
        -13    1    3    3    0    0 -0.24713625123E+02  0.84130491061E+02  0.43631500726E+02  0.97940852806E+02  0.00000000000E+00 0.  1.
         13    1    3    3    0    0 -0.71493217650E+02  0.44269758083E+01  0.67750575020E+02  0.98595226560E+02  0.00000000000E+00 0. -1.
          1    1    1    2  501    0  0.67116216645E+02  0.83443625400E+01  0.35796366629E+03  0.36429685877E+03  0.00000000000E+00 0. -1.
<scales pt_clust_5="13000.00000" pt_clust_6="13000.00000" pt_clust_7="13000.00000" pt_clust_8="13000.00000" pt_clust_9="67.63298"></scales>
<clustering>
<clus scale="   67.633">  2  9  1 -1</clus>
<clus scale="   72.195">  5  6 -1 -1</clus>
<clus scale="   95.511">  7  8 -1 -1</clus>
<clus scale="  138.446">  2  5  1 -1</clus>
<clus scale="   67.633">  2  5  1 -1</clus>
</clustering>
</event>
<event>
 9    2  0.1033155E-004  0.1014236E+03  0.7546771E-02  0.1288155E+00
          2   -1    0    0  502    0 -0.00000000000E+00  0.00000000000E+00  0.26551252243E+03  0.26551252243E+03  0.00000000000E+00 0. -1.
         21   -1    0    0  501  502  0.00000000000E+00 -0.00000000000E+00 -0.95018008669E+02  0.95018008669E+02  0.00000000000E+00 0. -1.
         24    2    1    2    0    0 -0.20048700691E+02  0.14812730280E+02  0.10053234866E+03  0.13105016429E+03  0.80287141284E+02 0.  0.
         23    2    1    2    0    0 -0.25425062726E+02 -0.25559778797E+02  0.12067067902E+03  0.16052592102E+03  0.99536035877E+02 0.  0.
        -11    1    3    3    0    0  0.62317812385E+00  0.37720756420E+02  0.91386213325E+02  0.98867000570E+02  0.00000000000E+00 0.  1.
         12    1    3    3    0    0 -0.20671878815E+02 -0.22908026140E+02  0.91461353320E+01  0.32183163718E+02  0.00000000000E+00 0. -1.
        -13    1    4    4    0    0 -0.24232640327E+02  0.35799258647E+02  0.37938759779E+02  0.57516582570E+02  0.00000000000E+00 0.  1.
         13    1    4    4    0    0 -0.11924223982E+01 -0.61359037444E+02  0.82731919243E+02  0.10300933845E+03  0.00000000000E+00 0. -1.
          1    1    1    2  501    0  0.45473763417E+02  0.10747048517E+02 -0.50708513914E+02  0.68954445792E+02  0.00000000000E+00 0. -1.
<scales pt_clust_5="13000.00000" pt_clust_6="13000.00000" pt_clust_7="13000.00000" pt_clust_8="13000.00000" pt_clust_9="46.72646"></scales>
<clustering>
<clus scale="   46.726">  2  9  1 -1</clus>
<clus scale="   80.287">  5  6 -1 -1</clus>
<clus scale="   82.616">  1  5  2 -1</clus>
<clus scale="   99.536">  7  8 -1 -1</clus>
<clus scale="   46.726">  2  5  1 -1</clus>
</clustering>
</event>
<event>
 9    2  0.1033155E-004  0.1085871E+03  0.7546771E-02  0.1266967E+00
         -1   -1    0    0    0  501 -0.00000000000E+00  0.00000000000E+00  0.46334156224E+03  0.46334156224E+03  0.00000000000E+00 0.  1.
         21   -1    0    0  501  502  0.00000000000E+00 -0.00000000000E+00 -0.35110722119E+02  0.35110722119E+02  0.00000000000E+00 0.  1.
         24    2    1    2    0    0  0.10528183172E+02 -0.54890369693E+02  0.25888362649E+03  0.27687731706E+03  0.80724973287E+02 0.  0.
         23    2    1    2    0    0 -0.34351224758E+02  0.64349681766E+02  0.14928423011E+03  0.18902440351E+03  0.90130769312E+02 0.  0.
        -13    1    3    3    0    0 -0.26786860947E+02 -0.52660958371E+02  0.13237894330E+03  0.14496515818E+03  0.00000000000E+00 0.  1.
         14    1    3    3    0    0  0.37315044119E+02 -0.22294113220E+01  0.12650468319E+03  0.13191215888E+03  0.00000000000E+00 0. -1.
        -11    1    4    4    0    0 -0.52846181566E+02  0.12890784451E+02  0.42413539957E+02  0.68976804808E+02  0.00000000000E+00 0.  1.
         11    1    4    4    0    0  0.18494956808E+02  0.51458897315E+02  0.10687069015E+03  0.12004759870E+03  0.00000000000E+00 0. -1.
         -2    1    1    2    0  502  0.23823041586E+02 -0.94593120732E+01  0.20062983528E+02  0.32550563795E+02  0.00000000000E+00 0.  1.
<scales pt_clust_5="13000.00000" pt_clust_6="13000.00000" pt_clust_7="13000.00000" pt_clust_8="13000.00000" pt_clust_9="25.63232"></scales>
<clustering>
<clus scale="   25.632">  2  9  1 -1</clus>
<clus scale="   80.725">  5  6 -1 -1</clus>
<clus scale="   90.131">  7  8 -1 -1</clus>
<clus scale="  100.916">  1  5  2 -1</clus>
<clus scale="   25.632">  2  5  1 -1</clus>
</clustering>
</event>
<event>
 9    2  0.1033155E-004  0.9821937E+02  0.7546771E-02  0.1297716E+00
         21   -1    0    0  501  502  0.00000000000E+00  0.00000000000E+00  0.49124736697E+03  0.49124736697E+03  0.00000000000E+00 0. -1.
          2   -1    0    0  502    0 -0.00000000000E+00 -0.00000000000E+00 -0.24846644562E+03  0.24846644562E+03  0.00000000000E+00 0. -1.
         24    2    1    2    0    0 -0.79814698374E+01 -0.14143801813E+02 -0.17170563703E+03  0.18753971637E+03  0.73651669622E+02 0.  0.
         23    2    1    2    0    0  0.75857011227E+02 -0.16415079315E+02 -0.72560860983E+01  0.12391273619E+03  0.96322242617E+02 0.  0.
        -13    1    3    3    0    0  0.84488392539E+01 -0.34031488906E+02 -0.39404082544E+02  0.52746628737E+02  0.00000000000E+00 0.  1.
         14    1    3    3    0    0 -0.16430309091E+02  0.19887687093E+02 -0.13230155448E+03  0.13479308763E+03  0.00000000000E+00 0. -1.
        -13    1    4    4    0    0  0.34194903042E+02  0.34797523427E+02  0.19685043274E+02  0.52608554052E+02  0.00000000000E+00 0. -1.
         13    1    4    4    0    0  0.41662108185E+02 -0.51212602742E+02 -0.26941129373E+02  0.71304182135E+02  0.00000000000E+00 0.  1.
          1    1    1    2  501    0 -0.67875541389E+02  0.30558881128E+02  0.42174264447E+03  0.42826136004E+03  0.00000000000E+00 0. -1.
<scales pt_clust_5="13000.00000" pt_clust_6="13000.00000" pt_clust_7="13000.00000" pt_clust_8="13000.00000" pt_clust_9="74.43745"></scales>
<clustering>
<clus scale="   73.652">  5  6 -1 -1</clus>
<clus scale="   74.437">  1  9  2 -1</clus>
<clus scale="   76.116">  2  5  1 -1</clus>
<clus scale="   96.322">  7  8 -1 -1</clus>
<clus scale="   74.437">  1  5  2 -1</clus>
</clustering>
</event>
<event>
 9    2  0.1033155E-004  0.1967026E+03  0.7546771E-02  0.1174750E+00
          2   -1    0    0  502    0 -0.00000000000E+00  0.00000000000E+00  0.84912126102E+02  0.84912126102E+02  0.00000000000E+00 0. -1.
         21   -1    0    0  501  502  0.00000000000E+00 -0.00000000000E+00 -0.84697036955E+03  0.84697036955E+03  0.00000000000E+00 0. -1.
         23    2    1    2    0    0 -0.76878736024E+02  0.29245253457E+01 -0.72637472796E+02  0.13831615840E+03  0.89085713325E+02 0.  0.
         24    2    1    2    0    0  0.18898800211E+03  0.85195804989E+02 -0.55369345337E+03  0.59670195546E+03  0.80634937963E+02 0.  0.
        -13    1    4    4    0    0  0.60438968294E+02  0.68817296468E+02 -0.19862745977E+03  0.21872712899E+03  0.00000000000E+00 0.  1.
         14    1    4    4    0    0  0.12854903382E+03  0.16378508521E+02 -0.35506599360E+03  0.37797482648E+03  0.00000000000E+00 0. -1.
        -13    1    3    3    0    0  0.16584439770E+02 -0.15165168422E+02 -0.12515040654E+02  0.25722601314E+02  0.00000000000E+00 0.  1.
         13    1    3    3    0    0 -0.93463175795E+02  0.18089693768E+02 -0.60122432142E+02  0.11259355708E+03  0.00000000000E+00 0. -1.
          1    1    1    2  501    0 -0.11210926609E+03 -0.88120330335E+02 -0.13572731728E+03  0.19686438179E+03  0.00000000000E+00 0. -1.
<scales pt_clust_5="13000.00000" pt_clust_6="13000.00000" pt_clust_7="13000.00000" pt_clust_8="13000.00000" pt_clust_9="179.41556"></scales>
<clustering>
<clus scale="   80.635">  5  6 -1 -1</clus>
<clus scale="   89.086">  7  8 -1 -1</clus>
<clus scale="  117.708">  1  7  2 -1</clus>
<clus scale="  179.416">  2  9  1 -1</clus>
<clus scale="  179.416">  2  5  1 -1</clus>
</clustering>
</event>
<event>
 9    2  0.1033155E-004  0.9643311E+02  0.7546771E-02  0.1292677E+00
          2   -1    0    0  502    0 -0.00000000000E+00  0.00000000000E+00  0.56665016614E+03  0.56665016614E+03  0.00000000000E+00 0. -1.
         21   -1    0    0  501  502  0.00000000000E+00 -0.00000000000E+00 -0.60285107110E+02  0.60285107110E+02  0.00000000000E+00 0.  1.
         23    2    1    2    0    0  0.29006030139E+02 -0.21318429996E+02  0.39717029448E+03  0.40988291368E+03  0.94678059024E+02 0.  0.
         24    2    1    2    0    0  0.45419065956E+02 -0.12833873075E+02  0.88995606051E+02  0.13271090632E+03  0.86396567694E+02 0.  0.
        -13    1    4    4    0    0  0.32015379047E+02 -0.34413791335E+02  0.78150629450E+01  0.47648386524E+02  0.00000000000E+00 0.  1.
         14    1    4    4    0    0  0.13403686909E+02  0.21579918260E+02  0.81180543106E+02  0.85062519795E+02  0.00000000000E+00 0. -1.
        -13    1    3    3    0    0 -0.28539701944E+02 -0.31681850875E+02  0.17959918759E+03  0.18459177242E+03  0.00000000000E+00 0. -1.
         13    1    3    3    0    0  0.57545732083E+02  0.10363420880E+02  0.21757110689E+03  0.22529114125E+03  0.00000000000E+00 0.  1.
          1    1    1    2  501    0 -0.74425096095E+02  0.34152303071E+02  0.20199158499E+02  0.84341453259E+02  0.00000000000E+00 0. -1.
<scales pt_clust_5="13000.00000" pt_clust_6="13000.00000" pt_clust_7="13000.00000" pt_clust_8="13000.00000" pt_clust_9="81.88696"></scales>
<clustering>
<clus scale="   81.887">  2  9  1 -1</clus>
<clus scale="   86.397">  5  6 -1 -1</clus>
<clus scale="   88.316">  2  5  1 -1</clus>
<clus scale="   94.678">  7  8 -1 -1</clus>
<clus scale="   81.887">  2  5  1 -1</clus>
</clustering>
</event>
<event>
 9    2  0.1159567E-004  0.9413988E+02  0.7546771E-02  0.1301768E+00
         21   -1    0    0  501  502  0.00000000000E+00  0.00000000000E+00  0.23236263894E+03  0.23236263894E+03  0.00000000000E+00 0.  1.
          2   -1    0    0  502    0 -0.00000000000E+00 -0.00000000000E+00 -0.21176969802E+03  0.21176969802E+03  0.00000000000E+00 0. -1.
         23    2    1    2    0    0  0.14858227498E+01 -0.24541483732E+02 -0.18695111929E+03  0.20923178343E+03  0.90679248447E+02 0.  0.
         24    2    1    2    0    0 -0.19914246266E+02  0.33097210794E+02  0.13640991517E+03  0.16092167918E+03  0.76132248804E+02 0.  0.
        -13    1    4    4    0    0  0.14788921275E+02  0.40248384636E+02  0.41748587609E+02  0.59846380222E+02  0.00000000000E+00 0.  1.
         14    1    4    4    0    0 -0.34703167541E+02 -0.71511738424E+01  0.94661327558E+02  0.10107529896E+03  0.00000000000E+00 0. -1.
        -11    1    3    3    0    0  0.24015227504E+02  0.10738639060E+02 -0.11247231632E+02  0.28610308288E+02  0.00000000000E+00 0.  1.
         11    1    3    3    0    0 -0.22529404755E+02 -0.35280122792E+02 -0.17570388766E+03  0.18062147514E+03  0.00000000000E+00 0. -1.
          1    1    1    2  501    0  0.18428423517E+02 -0.85557270621E+01  0.71134145043E+02  0.73978874349E+02  0.00000000000E+00 0. -1.
<scales pt_clust_5="13000.00000" pt_clust_6="13000.00000" pt_clust_7="13000.00000" pt_clust_8="13000.00000" pt_clust_9="20.31766"></scales>
<clustering>
<clus scale="   20.318">  1  9  2 -1</clus>
<clus scale="   76.132">  5  6 -1 -1</clus>
<clus scale="   80.223">  1  5  2 -1</clus>
<clus scale="   90.679">  7  8 -1 -1</clus>
<clus scale="   20.318">  1  5  2 -1</clus>
</clustering>
</event>
<event>
 9    2  0.1371500E-004  0.1056961E+03  0.7546771E-02  0.1272574E+00
         21   -1    0    0  501  502  0.00000000000E+00  0.00000000000E+00  0.20742425324E+03  0.20742425324E+03  0.00000000000E+00 0. -1.
          2   -1    0    0  502    0 -0.00000000000E+00 -0.00000000000E+00 -0.11208916124E+04  0.11208916124E+04  0.00000000000E+00 0. -1.
         24    2    1    2    0    0  0.16559101632E+02 -0.46347355485E+02 -0.71105247115E+03  0.71729168128E+03  0.80557172844E+02 0.  0.
         23    2    1    2    0    0  0.29583430928E+02  0.86889189573E+02 -0.39162752452E+03  0.41209154394E+03  0.89567918235E+02 0.  0.
        -13    1    3    3    0    0 -0.26911101216E+02 -0.11260298557E+02 -0.11558238858E+03  0.11920692196E+03  0.00000000000E+00 0.  1.
         14    1    3    3    0    0  0.43470202848E+02 -0.35087056928E+02 -0.59547008257E+03  0.59808475932E+03  0.00000000000E+00 0. -1.
        -13    1    4    4    0    0 -0.29302665995E+02  0.51427224026E+02 -0.16680760939E+03  0.17699769534E+03  0.00000000000E+00 0.  1.
         13    1    4    4    0    0  0.58886096923E+02  0.35461965547E+02 -0.22481991513E+03  0.23509384860E+03  0.00000000000E+00 0. -1.
          1    1    1    2  501    0 -0.46142532559E+02 -0.40541834088E+02  0.18921263650E+03  0.19893264044E+03  0.00000000000E+00 0. -1.
<scales pt_clust_5="13000.00000" pt_clust_6="13000.00000" pt_clust_7="13000.00000" pt_clust_8="13000.00000" pt_clust_9="61.42291"></scales>
<clustering>
<clus scale="   61.423">  1  9  2 -1</clus>
<clus scale="   80.557">  5  6 -1 -1</clus>
<clus scale="   89.568">  7  8 -1 -1</clus>
<clus scale="   98.177">  2  5  1 -1</clus>
<clus scale="   61.423">  1  5  2 -1</clus>
</clustering>
</event>
<event>
 9    2  0.1033155E-004  0.1664462E+03  0.7546771E-02  0.1194046E+00
          2   -1    0    0  502    0 -0.00000000000E+00  0.00000000000E+00  0.74385339328E+03  0.74385339328E+03  0.00000000000E+00 0. -1.
         21   -1    0    0  501  502  0.00000000000E+00 -0.00000000000E+00 -0.25872680408E+03  0.25872680408E+03  0.00000000000E+00 0. -1.
         24    2    1    2    0    0 -0.96103246656E+02  0.13202965961E+02  0.51050061125E+03  0.52589515502E+03  0.80899243851E+02 0.  0.
         23    2    1    2    0    0  0.11289044998E+02  0.10544211478E+03  0.17798058534E+03  0.22643876298E+03  0.91388962775E+02 0.  0.
        -13    1    3    3    0    0 -0.10623701547E+02  0.34216724044E+02  0.19885145564E+03  0.20205333120E+03  0.00000000000E+00 0.  1.
         14    1    3    3    0    0 -0.85479545109E+02 -0.21013758083E+02  0.31164915562E+03  0.32384182382E+03  0.00000000000E+00 0. -1.
        -11    1    4    4    0    0  0.47231344968E+02  0.67852271563E+02  0.13788132422E+03  0.16076688177E+03  0.00000000000E+00 0.  1.
         11    1    4    4    0    0 -0.35942299970E+02  0.37589843216E+02  0.40099261115E+02  0.65671881214E+02  0.00000000000E+00 0. -1.
          1    1    1    2  501    0  0.84814201658E+02 -0.11864508074E+03 -0.20335460739E+03  0.25024627936E+03  0.00000000000E+00 0. -1.
<scales pt_clust_5="13000.00000" pt_clust_6="13000.00000" pt_clust_7="13000.00000" pt_clust_8="13000.00000" pt_clust_9="139.11290"></scales>
<clustering>
<clus scale="   80.899">  5  6 -1 -1</clus>
<clus scale="   91.389">  7  8 -1 -1</clus>
<clus scale="  126.312">  1  5  2 -1</clus>
<clus scale="  139.113">  2  9  1 -1</clus>
<clus scale="  139.113">  2  5  1 -1</clus>
</clustering>
</event>
<event>
 9    2  0.1033155E-004  0.1863067E+03  0.7546771E-02  0.1166638E+00
         -3   -1    0    0    0  501 -0.00000000000E+00  0.00000000000E+00  0.22954226631E+03  0.22954226631E+03  0.00000000000E+00 0.  1.
         21   -1    0    0  501  502  0.00000000000E+00 -0.00000000000E+00 -0.28381990172E+03  0.28381990172E+03  0.00000000000E+00 0. -1.
         23    2    1    2    0    0 -0.13294545732E+03  0.43123291376E+02  0.12457882357E+03  0.21960924591E+03  0.11477902564E+03 0.  0.
         24    2    1    2    0    0  0.15822368440E+03 -0.71016938765E+02 -0.12471428013E+03  0.22781037243E+03  0.79156643571E+02 0.  0.
        -11    1    4    4    0    0  0.15707451330E+03 -0.62802752983E+02 -0.89004816213E+02  0.19115032257E+03  0.00000000000E+00 0.  1.
         12    1    4    4    0    0  0.11491710994E+01 -0.82141857825E+01 -0.35709463915E+02  0.36660049855E+02  0.00000000000E+00 0. -1.
        -11    1    3    3    0    0 -0.22351121667E+02  0.43523890028E+02  0.92190001783E+02  0.10436904748E+03  0.00000000000E+00 0.  1.
         11    1    3    3    0    0 -0.11059433566E+03 -0.40059865177E+00  0.32388821784E+02  0.11524019843E+03  0.00000000000E+00 0. -1.
         -4    1    1    2    0  502 -0.25278227076E+02  0.27893647389E+02 -0.54142178852E+02  0.65942549690E+02  0.00000000000E+00 0.  1.
<scales pt_clust_5="13000.00000" pt_clust_6="13000.00000" pt_clust_7="13000.00000" pt_clust_8="13000.00000" pt_clust_9="37.64365"></scales>
<clustering>
<clus scale="   37.644">  2  9  1 -1</clus>
<clus scale="   79.157">  5  6 -1 -1</clus>
<clus scale="  114.779">  7  8 -1 -1</clus>
<clus scale="  166.739">  2  5  1 -1</clus>
<clus scale="   37.644">  2  5  1 -1</clus>
</clustering>
</event>
<event>
 9    2  0.1033155E-004  0.1108558E+03  0.7546771E-02  0.1263332E+00
         21   -1    0    0  501  502  0.00000000000E+00  0.00000000000E+00  0.30642803965E+03  0.30642803965E+03  0.00000000000E+00 0. -1.
          2   -1    0    0  502    0 -0.00000000000E+00 -0.00000000000E+00 -0.65763717618E+02  0.65763717618E+02  0.00000000000E+00 0. -1.
         23    2    1    2    0    0 -0.15874894496E+02  0.68205249949E+02  0.26855700945E+02  0.11805155742E+03  0.91164538829E+02 0.  0.
         24    2    1    2    0    0  0.25062708041E+02 -0.46396000097E+02  0.10218553169E+03  0.14003597826E+03  0.79921612611E+02 0.  0.
        -11    1    4    4    0    0 -0.14256661491E+01 -0.58161375947E+02  0.92876626073E+02  0.10959400461E+03  0.00000000000E+00 0.  1.
         12    1    4    4    0    0  0.26488374190E+02  0.11765375850E+02  0.93089056161E+01  0.30441973653E+02  0.00000000000E+00 0. -1.
        -13    1    3    3    0    0 -0.13592236421E+02 -0.19819178725E+02  0.17022478701E+02  0.29450187052E+02  0.00000000000E+00 0.  1.
         13    1    3    3    0    0 -0.22826580745E+01  0.88024428674E+02  0.98332222444E+01  0.88601370367E+02  0.00000000000E+00 0. -1.
          1    1    1    2  501    0 -0.91878135450E+01 -0.21809249852E+02  0.11162308940E+03  0.11410422159E+03  0.00000000000E+00 0. -1.
<scales pt_clust_5="13000.00000" pt_clust_6="13000.00000" pt_clust_7="13000.00000" pt_clust_8="13000.00000" pt_clust_9="23.66557"></scales>
<clustering>
<clus scale="   23.666">  1  9  2 -1</clus>
<clus scale="   79.922">  5  6 -1 -1</clus>
<clus scale="   91.165">  7  8 -1 -1</clus>
<clus scale="  101.811">  1  5  2 -1</clus>
<clus scale="   23.666">  1  5  2 -1</clus>
</clustering>
</event>
<event>
 9    2  0.1033155E-004  0.1225476E+03  0.7546771E-02  0.1239348E+00
         -1   -1    0    0    0  501 -0.00000000000E+00  0.00000000000E+00  0.11440327090E+04  0.11440327090E+04  0.00000000000E+00 0.  1.
         21   -1    0    0  501  502  0.00000000000E+00 -0.00000000000E+00 -0.22380434449E+02  0.22380434449E+02  0.00000000000E+00 0.  1.
         24    2    1    2    0    0 -0.96536393533E+00  0.79516392395E+02  0.55378606239E+03  0.56527371407E+03  0.80818193095E+02 0.  0.
         23    2    1    2    0    0 -0.15241918838E+02 -0.11917770902E+03  0.34976284663E+03  0.37886758207E+03  0.82285803393E+02 0.  0.
        -11    1    3    3    0    0 -0.15142163546E+02  0.91149634678E+02  0.49948624757E+03  0.50796068010E+03  0.00000000000E+00 0.  1.
         12    1    3    3    0    0  0.14176799610E+02 -0.11633242283E+02  0.54299814826E+02  0.57313033974E+02  0.00000000000E+00 0. -1.
        -13    1    4    4    0    0  0.19427400796E+02 -0.36457116920E+02  0.20064749473E+03  0.20485595528E+03  0.00000000000E+00 0. -1.
         13    1    4    4    0    0 -0.34669319634E+02 -0.82720592101E+02  0.14911535191E+03  0.17401162678E+03  0.00000000000E+00 0.  1.
         -2    1    1    2    0  502  0.16207282773E+02  0.39661316626E+02  0.21810336549E+03  0.22227184727E+03  0.00000000000E+00 0.  1.
<scales pt_clust_5="13000.00000" pt_clust_6="13000.00000" pt_clust_7="13000.00000" pt_clust_8="13000.00000" pt_clust_9="42.84505"></scales>
<clustering>
<clus scale="   42.845">  2  9  1 -1</clus>
<clus scale="   80.818">  5  6 -1 -1</clus>
<clus scale="   82.286">  7  8 -1 -1</clus>
<clus scale="  121.567">  1  5  2 -1</clus>
<clus scale="   42.845">  2  5  1 -1</clus>
</clustering>
</event>
<event>
 9    2  0.1033155E-004  0.1086969E+03  0.7546771E-02  0.1263199E+00
         21   -1    0    0  501  502  0.00000000000E+00  0.00000000000E+00  0.21293639337E+02  0.21293639337E+02  0.00000000000E+00 0. -1.
          2   -1    0    0  502    0 -0.00000000000E+00 -0.00000000000E+00 -0.91929281427E+03  0.91929281427E+03  0.00000000000E+00 0. -1.
         23    2    1    2    0    0 -0.52132953153E+01  0.53407220416E+02 -0.57148242741E+03  0.58118365347E+03  0.91119507131E+02 0.  0.
         24    2    1    2    0    0  0.31743788520E+02 -0.69066089595E+02 -0.27531906399E+03  0.29965106332E+03  0.90622182225E+02 0.  0.
        -13    1    4    4    0    0 -0.13912969431E+02  0.15697660692E+02 -0.35592851528E+02  0.41313900197E+02  0.00000000000E+00 0.  1.
         14    1    4    4    0    0  0.45656757952E+02 -0.84763750286E+02 -0.23972621246E+03  0.25833716312E+03  0.00000000000E+00 0. -1.
        -11    1    3    3    0    0 -0.26038865406E+02  0.72570193753E+02 -0.43799295358E+03  0.44472720056E+03  0.00000000000E+00 0. -1.
         11    1    3    3    0    0  0.20825570090E+02 -0.19162973337E+02 -0.13348947384E+03  0.13645645291E+03  0.00000000000E+00 0.  1.
          1    1    1    2  501    0 -0.26530493205E+02  0.15658869179E+02 -0.51197683531E+02  0.59751736817E+02  0.00000000000E+00 0. -1.
<scales pt_clust_5="13000.00000" pt_clust_6="13000.00000" pt_clust_7="13000.00000" pt_clust_8="13000.00000" pt_clust_9="30.80694"></scales>
<clustering>
<clus scale="   30.807">  1  9  2 -1</clus>
<clus scale="   90.622">  5  6 -1 -1</clus>
<clus scale="   91.120">  7  8 -1 -1</clus>
<clus scale="  108.280">  1  5  2 -1</clus>
<clus scale="   30.807">  1  5  2 -1</clus>
</clustering>
</event>
<event>
 9    2  0.1033155E-004  0.2139132E+03  0.7546771E-02  0.1178225E+00
         21   -1    0    0  501  502  0.00000000000E+00  0.00000000000E+00  0.23655350959E+03  0.23655350959E+03  0.00000000000E+00 0. -1.
          4   -1    0    0  502    0 -0.00000000000E+00 -0.00000000000E+00 -0.35927815038E+03  0.35927815038E+03  0.00000000000E+00 0. -1.
         24    2    1    2    0    0 -0.12392819080E+02  0.23657573609E+02 -0.16306680860E+03  0.18370751199E+03  0.80277039929E+02 0.  0.
         23    2    1    2    0    0 -0.73556624333E+02 -0.18725632850E+03  0.51038613506E+02  0.22701263193E+03  0.91947188323E+02 0.  0.
        -11    1    3    3    0    0 -0.21688612452E+02  0.87624867668E+01 -0.40688442391E+01  0.23743053255E+02  0.00000000000E+00 0.  1.
         12    1    3    3    0    0  0.92957933717E+01  0.14895086842E+02 -0.15899796436E+03  0.15996445874E+03  0.00000000000E+00 0. -1.
        -11    1    4    4    0    0 -0.58132600878E+02 -0.13512760830E+03  0.77812829093E+02  0.16641426075E+03  0.00000000000E+00 0. -1.
         11    1    4    4    0    0 -0.15424023455E+02 -0.52128720197E+02 -0.26774215588E+02  0.60598371176E+02  0.00000000000E+00 0.  1.
          3    1    1    2  501    0  0.85949443414E+02  0.16359875489E+03 -0.10696445698E+02  0.18511151605E+03  0.00000000000E+00 0. -1.
<scales pt_clust_5="13000.00000" pt_clust_6="13000.00000" pt_clust_7="13000.00000" pt_clust_8="13000.00000" pt_clust_9="193.14397"></scales>
<clustering>
<clus scale="   80.277">  5  6 -1 -1</clus>
<clus scale="   84.603">  2  5  1 -1</clus>
<clus scale="   91.947">  7  8 -1 -1</clus>
<clus scale="  193.144">  1  9  2 -1</clus>
<clus scale="  193.144">  1  5  2 -1</clus>
</clustering>
</event>
<event>
 9    2  0.1033155E-004  0.1044192E+03  0.7546771E-02  0.1275738E+00
         21   -1    0    0  501  502  0.00000000000E+00  0.00000000000E+00  0.83712827535E+02  0.83712827535E+02  0.00000000000E+00 0.  1.
         -3   -1    0    0    0  501 -0.00000000000E+00 -0.00000000000E+00 -0.20068922823E+03  0.20068922823E+03  0.00000000000E+00 0.  1.
         24    2    1    2    0    0  0.38698340071E+02  0.23180438649E+02 -0.10559305974E+03  0.14122496395E+03  0.82217406403E+02 0.  0.
         23    2    1    2    0    0 -0.36725494584E+02 -0.52692922331E+02 -0.15377003839E+02  0.11333034735E+03  0.92097824982E+02 0.  0.
        -11    1    3    3    0    0  0.47247387970E+02  0.23579024656E+02 -0.11617674525E+03  0.12761395775E+03  0.00000000000E+00 0.  1.
         12    1    3    3    0    0 -0.85490478997E+01 -0.39858600721E+00  0.10583685511E+02  0.13611006201E+02  0.00000000000E+00 0. -1.
        -13    1    4    4    0    0 -0.42615461731E+02  0.49399311883E+01  0.17939395677E+02  0.46500563609E+02  0.00000000000E+00 0. -1.
         13    1    4    4    0    0  0.58899671466E+01 -0.57632853519E+02 -0.33316399515E+02  0.66829783737E+02  0.00000000000E+00 0.  1.
         -4    1    1    2    0  502 -0.19728454862E+01  0.29512483682E+02  0.39936628860E+01  0.29846744473E+02  0.00000000000E+00 0.  1.
<scales pt_clust_5="13000.00000" pt_clust_6="13000.00000" pt_clust_7="13000.00000" pt_clust_8="13000.00000" pt_clust_9="29.57835"></scales>
<clustering>
<clus scale="   29.578">  1  9  2 -1</clus>
<clus scale="   82.217">  5  6 -1 -1</clus>
<clus scale="   92.098">  7  8 -1 -1</clus>
<clus scale="   95.818">  2  5  1 -1</clus>
<clus scale="   29.578">  1  5  2 -1</clus>
</clustering>
</event>
<event>
 9    2  0.1033155E-004  0.1007107E+03  0.7546771E-02  0.1288921E+00
         21   -1    0    0  501  502  0.00000000000E+00  0.00000000000E+00  0.10707674688E+03  0.10707674688E+03  0.00000000000E+00 0. -1.
          2   -1    0    0  502    0 -0.00000000000E+00 -0.00000000000E+00 -0.34136908132E+03  0.34136908132E+03  0.00000000000E+00 0. -1.
         24    2    1    2    0    0  0.37931069427E+02  0.47160794310E+02 -0.25474025694E+03  0.27067752819E+03  0.68635407848E+02 0.  0.
         23    2    1    2    0    0  0.92068557504E+01  0.11669791292E+02 -0.19589148935E+02  0.92410295806E+02  0.89078492316E+02 0.  0.
        -13    1    3    3    0    0  0.14738109611E+02  0.28693729495E+02 -0.30198423124E+02  0.44186952219E+02  0.00000000000E+00 0.  1.
         14    1    3    3    0    0  0.23192959817E+02  0.18467064816E+02 -0.22454183382E+03  0.22649057597E+03  0.00000000000E+00 0. -1.
        -13    1    4    4    0    0 -0.37547839150E+02  0.12352795100E+02 -0.22638235642E+02  0.45551306069E+02  0.00000000000E+00 0.  1.
         13    1    4    4    0    0  0.46754694900E+02 -0.68300380785E+00  0.30490867068E+01  0.46858989737E+02  0.00000000000E+00 0. -1.
          1    1    1    2  501    0 -0.47137925178E+02 -0.58830585602E+02  0.40037071437E+02  0.85358004204E+02  0.00000000000E+00 0. -1.
<scales pt_clust_5="13000.00000" pt_clust_6="13000.00000" pt_clust_7="13000.00000" pt_clust_8="13000.00000" pt_clust_9="75.38582"></scales>
<clustering>
<clus scale="   68.635">  5  6 -1 -1</clus>
<clus scale="   75.386">  1  9  2 -1</clus>
<clus scale="   83.177">  2  5  1 -1</clus>
<clus scale="   89.078">  7  8 -1 -1</clus>
<clus scale="   75.386">  1  5  2 -1</clus>
</clustering>
</event>
<event>
 9    2  0.1033155E-004  0.1103820E+03  0.7546771E-02  0.1271785E+00
         21   -1    0    0  501  502  0.00000000000E+00  0.00000000000E+00  0.18260459596E+03  0.18260459596E+03  0.00000000000E+00 0. -1.
          2   -1    0    0  502    0 -0.00000000000E+00 -0.00000000000E+00 -0.39908261971E+03  0.39908261971E+03  0.00000000000E+00 0. -1.
         24    2    1    2    0    0 -0.62283028424E+01 -0.24786657742E+02 -0.31991248690E+03  0.33176471344E+03  0.84087190748E+02 0.  0.
         23    2    1    2    0    0 -0.34772730995E+02  0.19596980038E+02 -0.22810143735E+02  0.11708531505E+03  0.10768232861E+03 0.  0.
        -13    1    3    3    0    0  0.29257445717E+02 -0.18750687038E+02 -0.59723272325E+02  0.69097435926E+02  0.00000000000E+00 0.  1.
         14    1    3    3    0    0 -0.35485748560E+02 -0.60359707038E+01 -0.26018921458E+03  0.26266727751E+03  0.00000000000E+00 0. -1.
        -11    1    4    4    0    0 -0.41620379489E+02 -0.10595784576E+02 -0.56734836245E+02  0.71157348765E+02  0.00000000000E+00 0. -1.
         11    1    4    4    0    0  0.68476484941E+01  0.30192764614E+02  0.33924692510E+02  0.45927966282E+02  0.00000000000E+00 0.  1.
          1    1    1    2  501    0  0.41001033838E+02  0.51896777043E+01  0.12624460689E+03  0.13283718718E+03  0.00000000000E+00 0. -1.
<scales pt_clust_5="13000.00000" pt_clust_6="13000.00000" pt_clust_7="13000.00000" pt_clust_8="13000.00000" pt_clust_9="41.32817"></scales>
<clustering>
<clus scale="   41.328">  1  9  2 -1</clus>
<clus scale="   84.087">  5  6 -1 -1</clus>
<clus scale="   87.518">  2  5  1 -1</clus>
<clus scale="  107.682">  7  8 -1 -1</clus>
<clus scale="   41.328">  1  5  2 -1</clus>
</clustering>
</event>
<event>
 9    2  0.1033155E-004  0.9144243E+02  0.7546771E-02  0.1305570E+00
         21   -1    0    0  501  502  0.00000000000E+00  0.00000000000E+00  0.75515103460E+02  0.75515103460E+02  0.00000000000E+00 0. -1.
          2   -1    0    0  502    0 -0.00000000000E+00 -0.00000000000E+00 -0.59527029486E+03  0.59527029486E+03  0.00000000000E+00 0. -1.
         24    2    1    2    0    0  0.48535868952E+01  0.11910468727E+02 -0.43167259201E+03  0.43920943577E+03  0.79989281819E+02 0.  0.
         23    2    1    2    0    0 -0.45223684271E+02 -0.60491391316E+02  0.67152366962E+01  0.11766160644E+03  0.89970935215E+02 0.  0.
        -13    1    3    3    0    0  0.26470413957E+02 -0.26165334304E+02 -0.20223853193E+03  0.20563494677E+03  0.00000000000E+00 0.  1.
         14    1    3    3    0    0 -0.21616827062E+02  0.38075803032E+02 -0.22943406008E+03  0.23357448900E+03  0.00000000000E+00 0. -1.
        -11    1    4    4    0    0 -0.51037008208E+02 -0.31226765516E+02 -0.32733033047E+02  0.68200722458E+02  0.00000000000E+00 0.  1.
         11    1    4    4    0    0  0.58133239368E+01 -0.29264625800E+02  0.39448269743E+02  0.49460883980E+02  0.00000000000E+00 0. -1.
          1    1    1    2  501    0  0.40370097376E+02  0.48580922589E+02 -0.94797836088E+02  0.11391435611E+03  0.00000000000E+00 0. -1.
<scales pt_clust_5="13000.00000" pt_clust_6="13000.00000" pt_clust_7="13000.00000" pt_clust_8="13000.00000" pt_clust_9="63.16530"></scales>
<clustering>
<clus scale="   63.165">  1  9  2 -1</clus>
<clus scale="   79.989">  5  6 -1 -1</clus>
<clus scale="   81.641">  2  5  1 -1</clus>
<clus scale="   89.971">  7  8 -1 -1</clus>
<clus scale="   63.165">  1  5  2 -1</clus>
</clustering>
</event>
<event>
 9    2  0.1033155E-004  0.1903878E+03  0.7546771E-02  0.1159039E+00
         21   -1    0    0  501  502  0.00000000000E+00  0.00000000000E+00  0.20151619971E+03  0.20151619971E+03  0.00000000000E+00 0. -1.
          2   -1    0    0  502    0 -0.00000000000E+00 -0.00000000000E+00 -0.33261601636E+03  0.33261601636E+03  0.00000000000E+00 0. -1.
         23    2    1    2    0    0 -0.47947410371E+02 -0.16201798035E+03 -0.19406437486E+03  0.27371884017E+03  0.93339390161E+02 0.  0.
         24    2    1    2    0    0  0.10317014262E+03  0.13058631983E+03  0.31057066359E+02  0.18931072141E+03  0.84718018235E+02 0.  0.
        -11    1    4    4    0    0  0.45614937687E+02  0.20654817993E+01  0.32946833084E+01  0.45780385465E+02  0.00000000000E+00 0.  1.
         12    1    4    4    0    0  0.57555204935E+02  0.12852083803E+03  0.27762383050E+02  0.14353033594E+03  0.00000000000E+00 0. -1.
        -13    1    3    3    0    0 -0.63571090749E+02 -0.88517365645E+02 -0.72795755383E+02  0.13105658931E+03  0.00000000000E+00 0.  1.
         13    1    3    3    0    0  0.15623680378E+02 -0.73500614709E+02 -0.12126861947E+03  0.14266225086E+03  0.00000000000E+00 0. -1.
          1    1    1    2  501    0 -0.55222732251E+02  0.31431660527E+02  0.31907491846E+02  0.71102654498E+02  0.00000000000E+00 0. -1.
<scales pt_clust_5="13000.00000" pt_clust_6="13000.00000" pt_clust_7="13000.00000" pt_clust_8="13000.00000" pt_clust_9="63.54132"></scales>
<clustering>
<clus scale="   63.541">  1  9  2 -1</clus>
<clus scale="   84.718">  5  6 -1 -1</clus>
<clus scale="   93.339">  7  8 -1 -1</clus>
<clus scale="  186.313">  1  5  2 -1</clus>
<clus scale="   63.541">  1  5  2 -1</clus>
</clustering>
</event>
<event>
 9    2  0.1033155E-004  0.8412398E+02  0.7546771E-02  0.1318838E+00
         21   -1    0    0  501  502  0.00000000000E+00  0.00000000000E+00  0.16335262664E+02  0.16335262664E+02  0.00000000000E+00 0.  1.
          2   -1    0    0  502    0 -0.00000000000E+00 -0.00000000000E+00 -0.82033402981E+03  0.82033402981E+03  0.00000000000E+00 0. -1.
         24    2    1    2    0    0 -0.45692418801E+01 -0.26531709733E+02 -0.59873785860E+03  0.60463462106E+03  0.79819747358E+02 0.  0.
         23    2    1    2    0    0 -0.22985043241E+01  0.15200615216E+01 -0.16639777724E+03  0.18531110714E+03  0.81513142792E+02 0.  0.
        -11    1    3    3    0    0  0.34786208880E+02 -0.96305336643E+00 -0.18510244062E+03  0.18834521848E+03  0.00000000000E+00 0.  1.
         12    1    3    3    0    0 -0.39355450760E+02 -0.25568656366E+02 -0.41363541798E+03  0.41628940258E+03  0.00000000000E+00 0. -1.
        -11    1    4    4    0    0 -0.33056094610E+02 -0.24592180536E+02 -0.82464477554E+02  0.92183896601E+02  0.00000000000E+00 0. -1.
         11    1    4    4    0    0  0.30757590286E+02  0.26112242057E+02 -0.83933299690E+02  0.93127210536E+02  0.00000000000E+00 0.  1.
          1    1    1    2  501    0  0.68677462042E+01  0.25011648211E+02 -0.38863131301E+02  0.46723564276E+02  0.00000000000E+00 0. -1.
<scales pt_clust_5="13000.00000" pt_clust_6="13000.00000" pt_clust_7="13000.00000" pt_clust_8="13000.00000" pt_clust_9="25.93740"></scales>
<clustering>
<clus scale="   25.937">  1  9  2 -1</clus>
<clus scale="   79.820">  5  6 -1 -1</clus>
<clus scale="   81.513">  7  8 -1 -1</clus>
<clus scale="   82.484">  2  5  1 -1</clus>
<clus scale="   25.937">  1  5  2 -1</clus>
</clustering>
</event>
<event>
 9    2  0.1033155E-004  0.1026324E+03  0.7546771E-02  0.1280269E+00
          2   -1    0    0  502    0 -0.00000000000E+00  0.00000000000E+00  0.62263671562E+03  0.62263671562E+03  0.00000000000E+00 0. -1.
         21   -1    0    0  501  502  0.00000000000E+00 -0.00000000000E+00 -0.36578939112E+02  0.36578939112E+02  0.00000000000E+00 0.  1.
         24    2    1    2    0    0  0.15430615647E+02  0.38881339796E+02  0.46747635497E+03  0.47623920149E+03  0.80745105707E+02 0.  0.
         23    2    1    2    0    0 -0.12789275137E+02 -0.64657090131E+02  0.99856495090E+02  0.15100789282E+03  0.92130121126E+02 0.  0.
        -11    1    3    3    0    0 -0.19280247869E+02  0.25273700998E+02  0.68407700399E+02  0.75432760747E+02  0.00000000000E+00 0.  1.
         12    1    3    3    0    0  0.34710863516E+02  0.13607638798E+02  0.39906865457E+03  0.40080644074E+03  0.00000000000E+00 0. -1.
        -13    1    4    4    0    0  0.22207636026E+02 -0.10953169544E+02 -0.75850951211E+01  0.25897580754E+02  0.00000000000E+00 0.  1.
         13    1    4    4    0    0 -0.34996911163E+02 -0.53703920587E+02  0.10744159021E+03  0.12511031206E+03  0.00000000000E+00 0. -1.
          1    1    1    2  501    0 -0.26413405096E+01  0.25775750335E+02  0.18724926442E+02  0.31968560419E+02  0.00000000000E+00 0. -1.
<scales pt_clust_5="13000.00000" pt_clust_6="13000.00000" pt_clust_7="13000.00000" pt_clust_8="13000.00000" pt_clust_9="25.91073"></scales>
<clustering>
<clus scale="   25.911">  2  9  1 -1</clus>
<clus scale="   80.745">  5  6 -1 -1</clus>
<clus scale="   92.130">  7  8 -1 -1</clus>
<clus scale="   92.549">  1  5  2 -1</clus>
<clus scale="   25.911">  2  5  1 -1</clus>
</clustering>
</event>
<event>
 9    2  0.1033155E-004  0.9540549E+02  0.7546771E-02  0.1296688E+00
         21   -1    0    0  501  502  0.00000000000E+00  0.00000000000E+00  0.20711088330E+02  0.20711088330E+02  0.00000000000E+00 0.  1.
          2   -1    0    0  502    0 -0.00000000000E+00 -0.00000000000E+00 -0.66645266256E+03  0.66645266256E+03  0.00000000000E+00 0. -1.
         24    2    1    2    0    0 -0.62693986537E+01  0.36507105185E+02 -0.36816095990E+03  0.37864039093E+03  0.80336661358E+02 0.  0.
         23    2    1    2    0    0 -0.47252072208E+00 -0.11295607423E+02 -0.26278791850E+03  0.27852507758E+03  0.91601936151E+02 0.  0.
        -11    1    3    3    0    0  0.36623660964E+02  0.10924315348E+02 -0.17530657994E+03  0.17942416275E+03  0.00000000000E+00 0.  1.
         12    1    3    3    0    0 -0.42893059618E+02  0.25582789838E+02 -0.19285437996E+03  0.19921622818E+03  0.00000000000E+00 0. -1.
        -13    1    4    4    0    0  0.36212987315E+02 -0.20795343405E+02 -0.65852711112E+02  0.77976960177E+02  0.00000000000E+00 0. -1.
         13    1    4    4    0    0 -0.36685508037E+02  0.94997359821E+01 -0.19693520739E+03  0.20054811740E+03  0.00000000000E+00 0.  1.
          1    1    1    2  501    0  0.67419193757E+01 -0.25211497762E+02 -0.14792695832E+02  0.29998282389E+02  0.00000000000E+00 0. -1.
<scales pt_clust_5="13000.00000" pt_clust_6="13000.00000" pt_clust_7="13000.00000" pt_clust_8="13000.00000" pt_clust_9="26.09738"></scales>
<clustering>
<clus scale="   26.097">  1  9  2 -1</clus>
<clus scale="   80.337">  5  6 -1 -1</clus>
<clus scale="   84.648">  2  5  1 -1</clus>
<clus scale="   91.602">  7  8 -1 -1</clus>
<clus scale="   26.097">  1  5  2 -1</clus>
</clustering>
</event>
<event>
 9    2  0.1033155E-004  0.1309526E+03  0.7546771E-02  0.1239829E+00
         21   -1    0    0  501  502  0.00000000000E+00  0.00000000000E+00  0.88372712220E+02  0.88372712220E+02  0.00000000000E+00 0. -1.
          2   -1    0    0  502    0 -0.00000000000E+00 -0.00000000000E+00 -0.51273265799E+03  0.51273265799E+03  0.00000000000E+00 0. -1.
         23    2    1    2    0    0  0.29918368588E+02 -0.15807227928E+02 -0.64344362396E+02  0.11778692370E+03  0.92674619988E+02 0.  0.
         24    2    1    2    0    0  0.74813675501E+02  0.34027942161E+02 -0.35892312764E+03  0.37700763358E+03  0.80956515076E+02 0.  0.
        -11    1    4    4    0    0 -0.79839850334E+01  0.24602123265E+02 -0.42119242685E+02  0.49427108862E+02  0.00000000000E+00 0.  1.
         12    1    4    4    0    0  0.82797660534E+02  0.94258188960E+01 -0.31680388495E+03  0.32758052472E+03  0.00000000000E+00 0. -1.
        -11    1    3    3    0    0  0.48721186038E+02 -0.30227319134E+02 -0.96000315857E+01  0.58134373631E+02  0.00000000000E+00 0. -1.
         11    1    3    3    0    0 -0.18802817450E+02  0.14420091207E+02 -0.54744330811E+02  0.59652550074E+02  0.00000000000E+00 0.  1.
          1    1    1    2  501    0 -0.10473204409E+03 -0.18220714233E+02 -0.10924557378E+01  0.10631081293E+03  0.00000000000E+00 0. -1.
<scales pt_clust_5="13000.00000" pt_clust_6="13000.00000" pt_clust_7="13000.00000" pt_clust_8="13000.00000" pt_clust_9="102.93014"></scales>
<clustering>
<clus scale="   80.957">  5  6 -1 -1</clus>
<clus scale="   92.675">  7  8 -1 -1</clus>
<clus scale="   98.659">  2  7  1 -1</clus>
<clus scale="  102.930">  1  9  2 -1</clus>
<clus scale="  102.930">  1  5  2 -1</clus>
</clustering>
</event>
<event>
 9    2  0.1033155E-004  0.1104000E+03  0.7546771E-02  0.1261508E+00
          2   -1    0    0  502    0 -0.00000000000E+00  0.00000000000E+00  0.35497359785E+03  0.35497359785E+03  0.00000000000E+00 0. -1.
         21   -1    0    0  501  502  0.00000000000E+00 -0.00000000000E+00 -0.12251680735E+03  0.12251680735E+03  0.00000000000E+00 0. -1.
         24    2    1    2    0    0  0.50879889371E+01  0.71833562642E+02  0.27594968433E+03  0.29807035944E+03  0.86670424822E+02 0.  0.
         23    2    1    2    0    0  0.37300536026E+02 -0.97900547755E+01 -0.22472119994E+02  0.10139404464E+03  0.91041644052E+02 0.  0.
        -11    1    3    3    0    0  0.18415960758E+02  0.16878486946E+02  0.11248466557E+02  0.27396330632E+02  0.00000000000E+00 0.  1.
         12    1    3    3    0    0 -0.13327971821E+02  0.54955075696E+02  0.26470121778E+03  0.27067402881E+03  0.00000000000E+00 0. -1.
        -11    1    4    4    0    0  0.38202512728E+02 -0.46047522331E+02 -0.22612254962E+01  0.59874196716E+02  0.00000000000E+00 0.  1.
         11    1    4    4    0    0 -0.90197670171E+00  0.36257467556E+02 -0.20210894498E+02  0.41519847927E+02  0.00000000000E+00 0. -1.
          1    1    1    2  501    0 -0.42388524964E+02 -0.62043507867E+02 -0.21020773838E+02  0.78026001113E+02  0.00000000000E+00 0. -1.
<scales pt_clust_5="13000.00000" pt_clust_6="13000.00000" pt_clust_7="13000.00000" pt_clust_8="13000.00000" pt_clust_9="75.14109"></scales>
<clustering>
<clus scale="   75.141">  2  9  1 -1</clus>
<clus scale="   86.670">  5  6 -1 -1</clus>
<clus scale="   91.042">  7  8 -1 -1</clus>
<clus scale="  106.824">  1  5  2 -1</clus>
<clus scale="   75.141">  2  5  1 -1</clus>
</clustering>
</event>
<event>
 9    2  0.1033155E-004  0.1134511E+03  0.7546771E-02  0.1258921E+00
          2   -1    0    0  502    0 -0.00000000000E+00  0.00000000000E+00  0.10019825254E+04  0.10019825254E+04  0.00000000000E+00 0. -1.
         21   -1    0    0  501  502  0.00000000000E+00 -0.00000000000E+00 -0.12109432099E+03  0.12109432099E+03  0.00000000000E+00 0. -1.
         24    2    1    2    0    0 -0.34951594967E+02  0.53076090819E+02  0.82245463452E+03  0.82894983022E+03  0.81777195888E+02 0.  0.
         23    2    1    2    0    0 -0.76613741778E+02 -0.20681862540E+02 -0.62238797695E+02  0.12662170077E+03  0.76563583377E+02 0.  0.
        -11    1    3    3    0    0 -0.46598643677E+02  0.64744929271E+01  0.24331795259E+03  0.24782449174E+03  0.00000000000E+00 0.  1.
         12    1    3    3    0    0  0.11647048710E+02  0.46601597892E+02  0.57913668193E+03  0.58112533848E+03  0.00000000000E+00 0. -1.
        -11    1    4    4    0    0 -0.24047462640E+02  0.25115144148E+02 -0.40960345954E+02  0.53728957422E+02  0.00000000000E+00 0.  1.
         11    1    4    4    0    0 -0.52566279138E+02 -0.45797006688E+02 -0.21278451741E+02  0.72892743346E+02  0.00000000000E+00 0. -1.
          1    1    1    2  501    0  0.11156533674E+03 -0.32394228278E+02  0.12067236757E+03  0.16750531539E+03  0.00000000000E+00 0. -1.
<scales pt_clust_5="13000.00000" pt_clust_6="13000.00000" pt_clust_7="13000.00000" pt_clust_8="13000.00000" pt_clust_9="83.72085"></scales>
<clustering>
<clus scale="   76.564">  7  8 -1 -1</clus>
<clus scale="   81.777">  5  6 -1 -1</clus>
<clus scale="  103.567">  1  5  2 -1</clus>
<clus scale="   83.721">  2  9  1 -1</clus>
<clus scale="   83.721">  2  5  1 -1</clus>
</clustering>
</event>
<event>
 9    2  0.1033155E-004  0.9526909E+02  0.7546771E-02  0.1292945E+00
         21   -1    0    0  501  502  0.00000000000E+00  0.00000000000E+00  0.18857938821E+02  0.18857938821E+02  0.00000000000E+00 0.  1.
          2   -1    0    0  502    0 -0.00000000000E+00 -0.00000000000E+00 -0.10033569563E+04  0.10033569563E+04  0.00000000000E+00 0. -1.
         24    2    1    2    0    0  0.95420459398E+01  0.20440419147E+02 -0.75001642190E+03  0.75544262152E+03  0.87521768244E+02 0.  0.
         23    2    1    2    0    0 -0.33914283153E+02 -0.24163523125E+02 -0.20411572253E+03  0.22765687472E+03  0.91817046198E+02 0.  0.
        -13    1    3    3    0    0 -0.13102737033E+02 -0.17888148223E+02 -0.59578195865E+02  0.63570661371E+02  0.00000000000E+00 0.  1.
         14    1    3    3    0    0  0.22644782973E+02  0.38328567371E+02 -0.69043822604E+03  0.69187196015E+03  0.00000000000E+00 0. -1.
        -11    1    4    4    0    0  0.14603201479E+02 -0.43469122760E+02 -0.69466170825E+02  0.83236812866E+02  0.00000000000E+00 0.  1.
         11    1    4    4    0    0 -0.48517484632E+02  0.19305599635E+02 -0.13464955170E+03  0.14442006185E+03  0.00000000000E+00 0. -1.
          1    1    1    2  501    0  0.24372237213E+02  0.37231039780E+01 -0.30366873018E+02  0.39115398847E+02  0.00000000000E+00 0. -1.
<scales pt_clust_5="13000.00000" pt_clust_6="13000.00000" pt_clust_7="13000.00000" pt_clust_8="13000.00000" pt_clust_9="24.65497"></scales>
<clustering>
<clus scale="   24.655">  1  9  2 -1</clus>
<clus scale="   87.522">  5  6 -1 -1</clus>
<clus scale="   91.137">  2  5  1 -1</clus>
<clus scale="   91.817">  7  8 -1 -1</clus>
<clus scale="   24.655">  1  5  2 -1</clus>
</clustering>
</event>
<event>
 9    2  0.1033155E-004  0.9356990E+02  0.7546771E-02  0.1298545E+00
         21   -1    0    0  501  502  0.00000000000E+00  0.00000000000E+00  0.11399997103E+03  0.11399997103E+03  0.00000000000E+00 0. -1.
          2   -1    0    0  502    0 -0.00000000000E+00 -0.00000000000E+00 -0.14524737333E+03  0.14524737333E+03  0.00000000000E+00 0. -1.
         23    2    1    2    0    0 -0.28132937328E+01 -0.17270790293E+01 -0.13972820666E+02  0.91257146424E+02  0.90120639326E+02 0.  0.
         24    2    1    2    0    0 -0.11259899133E+02  0.59042397082E+02  0.10075918865E+02  0.10294290500E+03  0.82963411019E+02 0.  0.
        -11    1    4    4    0    0  0.28814210069E+02  0.54640363378E+02  0.10311180713E+02  0.62627058527E+02  0.00000000000E+00 0.  1.
         12    1    4    4    0    0 -0.40074109201E+02  0.44020337036E+01 -0.23526184875E+00  0.40315846477E+02  0.00000000000E+00 0. -1.
        -11    1    3    3    0    0  0.28235316099E+01  0.31883807254E+02 -0.37906019078E+02  0.49612657438E+02  0.00000000000E+00 0.  1.
         11    1    3    3    0    0 -0.56368253427E+01 -0.33610886283E+02  0.23933198412E+02  0.41644488986E+02  0.00000000000E+00 0. -1.
          1    1    1    2  501    0  0.14073192865E+02 -0.57315318052E+02 -0.27350500499E+02  0.65047292937E+02  0.00000000000E+00 0. -1.
<scales pt_clust_5="13000.00000" pt_clust_6="13000.00000" pt_clust_7="13000.00000" pt_clust_8="13000.00000" pt_clust_9="59.01783"></scales>
<clustering>
<clus scale="   59.018">  1  9  2 -1</clus>
<clus scale="   82.963">  5  6 -1 -1</clus>
<clus scale="   86.698">  1  5  2 -1</clus>
<clus scale="   90.121">  7  8 -1 -1</clus>
<clus scale="   59.018">  1  5  2 -1</clus>
</clustering>
</event>
<event>
 9    2  0.1033155E-004  0.1544051E+03  0.7546771E-02  0.1206219E+00
          2   -1    0    0  502    0 -0.00000000000E+00  0.00000000000E+00  0.89178493070E+03  0.89178493070E+03  0.00000000000E+00 0. -1.
         21   -1    0    0  501  502  0.00000000000E+00 -0.00000000000E+00 -0.80182999270E+02  0.80182999270E+02  0.00000000000E+00 0. -1.
         24    2    1    2    0    0 -0.39318402799E+02 -0.78785415918E+02  0.33435624311E+03  0.35573887437E+03  0.83683755103E+02 0.  0.
         23    2    1    2    0    0  0.83265531262E+02 -0.46214988717E+02  0.46481522753E+03  0.48314649621E+03  0.91150245123E+02 0.  0.
        -13    1    3    3    0    0 -0.21072427187E+02 -0.53014090502E+02  0.31169403644E+03  0.31687176165E+03  0.00000000000E+00 0.  1.
         14    1    3    3    0    0 -0.18245975612E+02 -0.25771325416E+02  0.22662206673E+02  0.38867112717E+02  0.00000000000E+00 0. -1.
        -11    1    4    4    0    0  0.44301885483E+01 -0.43014971733E+02  0.86682082500E+02  0.96869488438E+02  0.00000000000E+00 0.  1.
         11    1    4    4    0    0  0.78835342713E+02 -0.32000169841E+01  0.37813314503E+03  0.38627700778E+03  0.00000000000E+00 0. -1.
          1    1    1    2  501    0 -0.43947128462E+02  0.12500040463E+03  0.12430460797E+02  0.13308255939E+03  0.00000000000E+00 0. -1.
<scales pt_clust_5="13000.00000" pt_clust_6="13000.00000" pt_clust_7="13000.00000" pt_clust_8="13000.00000" pt_clust_9="124.62966"></scales>
<clustering>
<clus scale="   83.684">  5  6 -1 -1</clus>
<clus scale="   91.150">  7  8 -1 -1</clus>
<clus scale="  121.474">  1  5  2 -1</clus>
<clus scale="  124.630">  2  9  1 -1</clus>
<clus scale="  124.630">  2  5  1 -1</clus>
</clustering>
</event>
<event>
 9    2  0.1033155E-004  0.9257645E+02  0.7546771E-02  0.1303188E+00
          2   -1    0    0  502    0 -0.00000000000E+00  0.00000000000E+00  0.26417769717E+03  0.26417769717E+03  0.00000000000E+00 0. -1.
         21   -1    0    0  501  502  0.00000000000E+00 -0.00000000000E+00 -0.21555445363E+03  0.21555445363E+03  0.00000000000E+00 0.  1.
         24    2    1    2    0    0  0.15604974304E+02  0.56229679768E+01  0.23128038572E+03  0.24532754976E+03  0.80124009261E+02 0.  0.
         23    2    1    2    0    0 -0.49936006186E+02 -0.26071244874E+02 -0.13730200297E+03  0.17395759589E+03  0.90752909737E+02 0.  0.
        -11    1    3    3    0    0 -0.17467382745E+02 -0.24229183222E+02  0.46613169565E+02  0.55361993791E+02  0.00000000000E+00 0.  1.
         12    1    3    3    0    0  0.33072357049E+02  0.29852151199E+02  0.18466721616E+03  0.18996555597E+03  0.00000000000E+00 0. -1.
        -13    1    4    4    0    0 -0.36913468792E+02 -0.55797029606E+02 -0.59018474813E+02  0.89213749278E+02  0.00000000000E+00 0. -1.
         13    1    4    4    0    0 -0.13022537395E+02  0.29725784732E+02 -0.78283528155E+02  0.84743846612E+02  0.00000000000E+00 0.  1.
          1    1    1    2  501    0  0.34331031882E+02  0.20448276898E+02 -0.45355139211E+02  0.60447005145E+02  0.00000000000E+00 0. -1.
<scales pt_clust_5="13000.00000" pt_clust_6="13000.00000" pt_clust_7="13000.00000" pt_clust_8="13000.00000" pt_clust_9="39.95938"></scales>
<clustering>
<clus scale="   39.959">  2  9  1 -1</clus>
<clus scale="   80.124">  5  6 -1 -1</clus>
<clus scale="   82.184">  1  5  2 -1</clus>
<clus scale="   90.753">  7  8 -1 -1</clus>
<clus scale="   39.959">  2  5  1 -1</clus>
</clustering>
</event>
<event>
 9    2  0.1033155E-004  0.1006518E+03  0.7546771E-02  0.1283959E+00
          4   -1    0    0  502    0 -0.00000000000E+00  0.00000000000E+00  0.29961617901E+03  0.29961617901E+03  0.00000000000E+00 0. -1.
         21   -1    0    0  501  502  0.00000000000E+00 -0.00000000000E+00 -0.79774054927E+02  0.79774054927E+02  0.00000000000E+00 0. -1.
         23    2    1    2    0    0  0.31932918246E+01 -0.18426230737E+01  0.27071781966E+02  0.94672383412E+02  0.90644285146E+02 0.  0.
         24    2    1    2    0    0  0.27831648214E+02  0.80514613495E+02  0.72628038507E+02  0.13779609551E+03  0.80347547135E+02 0.  0.
        -13    1    4    4    0    0 -0.16502591764E+02  0.35920596109E+02 -0.27588104344E+01  0.39626200862E+02  0.00000000000E+00 0.  1.
         14    1    4    4    0    0  0.44334239977E+02  0.44594017386E+02  0.75386848942E+02  0.98169894644E+02  0.00000000000E+00 0. -1.
        -11    1    3    3    0    0  0.35298997867E+02  0.14205812536E+02 -0.13618069031E+02  0.40413811554E+02  0.00000000000E+00 0. -1.
         11    1    3    3    0    0 -0.32105706042E+02 -0.16048435609E+02  0.40689850997E+02  0.54258571858E+02  0.00000000000E+00 0.  1.
          3    1    1    2  501    0 -0.31024940038E+02 -0.78671990422E+02  0.12014230361E+03  0.14692175502E+03  0.00000000000E+00 0. -1.
<scales pt_clust_5="13000.00000" pt_clust_6="13000.00000" pt_clust_7="13000.00000" pt_clust_8="13000.00000" pt_clust_9="84.56853"></scales>
<clustering>
<clus scale="   80.348">  5  6 -1 -1</clus>
<clus scale="   84.569">  2  9  1 -1</clus>
<clus scale="   90.644">  7  8 -1 -1</clus>
<clus scale="   91.488">  2  5  1 -1</clus>
<clus scale="   84.569">  2  5  1 -1</clus>
</clustering>
</event>
<event>
 9    2  0.1033155E-004  0.1035839E+03  0.7546771E-02  0.1274423E+00
          2   -1    0    0  502    0 -0.00000000000E+00  0.00000000000E+00  0.37716601063E+03  0.37716601063E+03  0.00000000000E+00 0. -1.
         21   -1    0    0  501  502  0.00000000000E+00 -0.00000000000E+00 -0.11725088186E+03  0.11725088186E+03  0.00000000000E+00 0.  1.
         24    2    1    2    0    0  0.29874604093E+02  0.54559747141E+02  0.29332047107E+03  0.31065580560E+03  0.81245755729E+02 0.  0.
         23    2    1    2    0    0  0.35342175654E+02 -0.61883702647E+02 -0.15427527096E+01  0.11080840839E+03  0.84837852707E+02 0.  0.
        -13    1    3    3    0    0  0.28514120338E+02  0.18905666412E+01  0.27483588633E+02  0.39648164460E+02  0.00000000000E+00 0.  1.
         14    1    3    3    0    0  0.13604837552E+01  0.52669180500E+02  0.26583688244E+03  0.27100764114E+03  0.00000000000E+00 0. -1.
        -11    1    4    4    0    0  0.14170031401E+01 -0.20084442427E+02  0.38680593024E+02  0.43607121004E+02  0.00000000000E+00 0. -1.
         11    1    4    4    0    0  0.33925172513E+02 -0.41799260219E+02 -0.40223345734E+02  0.67201287391E+02  0.00000000000E+00 0.  1.
          1    1    1    2  501    0 -0.65216779747E+02  0.73239555053E+01 -0.31862589590E+02  0.72952678499E+02  0.00000000000E+00 0. -1.
<scales pt_clust_5="13000.00000" pt_clust_6="13000.00000" pt_clust_7="13000.00000" pt_clust_8="13000.00000" pt_clust_9="65.62674"></scales>
<clustering>
<clus scale="   65.627">  2  9  1 -1</clus>
<clus scale="   81.246">  5  6 -1 -1</clus>
<clus scale="   84.838">  7  8 -1 -1</clus>
<clus scale="  100.663">  1  5  2 -1</clus>
<clus scale="   65.627">  2  5  1 -1</clus>
</clustering>
</event>
<event>
 9    2  0.1033155E-004  0.9373744E+02  0.7546771E-02  0.1299440E+00
          2   -1    0    0  502    0 -0.00000000000E+00  0.00000000000E+00  0.77485685481E+02  0.77485685481E+02  0.00000000000E+00 0. -1.
         21   -1    0    0  501  502  0.00000000000E+00 -0.00000000000E+00 -0.17446996742E+03  0.17446996742E+03  0.00000000000E+00 0.  1.
         24    2    1    2    0    0 -0.99869109210E+01 -0.19907751832E+02  0.87656100160E+01  0.86102920192E+02  0.82709249627E+02 0.  0.
         23    2    1    2    0    0  0.24315629231E+02 -0.72738954231E+01 -0.91070295288E+02  0.13179917674E+03  0.91831720697E+02 0.  0.
        -13    1    3    3    0    0  0.22304494357E+02 -0.44927321841E+01  0.34992054906E+02  0.41738699280E+02  0.00000000000E+00 0.  1.
         14    1    3    3    0    0 -0.32291405278E+02 -0.15415019648E+02 -0.26226444890E+02  0.44364220912E+02  0.00000000000E+00 0. -1.
        -11    1    4    4    0    0 -0.33991008506E+02  0.72320813199E+01 -0.39572447945E+02  0.52665646259E+02  0.00000000000E+00 0.  1.
         11    1    4    4    0    0  0.58306637738E+02 -0.14505976743E+02 -0.51497847343E+02  0.79133530481E+02  0.00000000000E+00 0. -1.
          1    1    1    2  501    0 -0.14328718310E+02  0.27181647255E+02 -0.14679596669E+02  0.34053555971E+02  0.00000000000E+00 0. -1.
<scales pt_clust_5="13000.00000" pt_clust_6="13000.00000" pt_clust_7="13000.00000" pt_clust_8="13000.00000" pt_clust_9="30.72709"></scales>
<clustering>
<clus scale="   30.727">  2  9  1 -1</clus>
<clus scale="   82.709">  5  6 -1 -1</clus>
<clus scale="   84.820">  1  5  2 -1</clus>
<clus scale="   91.832">  7  8 -1 -1</clus>
<clus scale="   30.727">  2  5  1 -1</clus>
</clustering>
</event>
<event>
 9    2  0.1033155E-004  0.2486133E+03  0.7546771E-02  0.1127922E+00
         21   -1    0    0  501  502  0.00000000000E+00  0.00000000000E+00  0.63407192023E+02  0.63407192023E+02  0.00000000000E+00 0. -1.
          2   -1    0    0  502    0 -0.00000000000E+00 -0.00000000000E+00 -0.19913219148E+04  0.19913219148E+04  0.00000000000E+00 0. -1.
         23    2    1    2    0    0 -0.15536842495E+03 -0.94986950744E+01 -0.56211310803E+03  0.58915343404E+03  0.83072558287E+02 0.  0.
         24    2    1    2    0    0  0.33791597069E+03  0.22862334117E+02 -0.91159391797E+03  0.97587492221E+03  0.81354182138E+02 0.  0.
        -13    1    4    4    0    0  0.28643094355E+02 -0.15193048995E+02 -0.14064920663E+03  0.14433798848E+03  0.00000000000E+00 0.  1.
         14    1    4    4    0    0  0.30927287633E+03  0.38055383112E+02 -0.77094471134E+03  0.83153693373E+03  0.00000000000E+00 0. -1.
        -13    1    3    3    0    0 -0.89129700216E+02  0.22077714938E+02 -0.20569301291E+03  0.22525795106E+03  0.00000000000E+00 0.  1.
         13    1    3    3    0    0 -0.66238724735E+02 -0.31576410012E+02 -0.35642009513E+03  0.36389548298E+03  0.00000000000E+00 0. -1.
          1    1    1    2  501    0 -0.18254754574E+03 -0.13363639043E+02 -0.45420769680E+03  0.48970075059E+03  0.00000000000E+00 0. -1.
<scales pt_clust_5="13000.00000" pt_clust_6="13000.00000" pt_clust_7="13000.00000" pt_clust_8="13000.00000" pt_clust_9="234.92567"></scales>
<clustering>
<clus scale="   81.354">  5  6 -1 -1</clus>
<clus scale="   83.073">  7  8 -1 -1</clus>
<clus scale="  176.439">  2  7  1 -1</clus>
<clus scale="  234.926">  1  9  2 -1</clus>
<clus scale="  234.926">  1  5  2 -1</clus>
</clustering>
</event>
<event>
 9    2  0.1033155E-004  0.1070091E+03  0.7546771E-02  0.1276826E+00
         21   -1    0    0  501  502  0.00000000000E+00  0.00000000000E+00  0.55504931559E+02  0.55504931559E+02  0.00000000000E+00 0.  1.
         -3   -1    0    0    0  501 -0.00000000000E+00 -0.00000000000E+00 -0.27088146228E+03  0.27088146228E+03  0.00000000000E+00 0.  1.
         23    2    1    2    0    0 -0.26859238236E+01  0.61257827229E+02 -0.15480998930E+03  0.18998286525E+03  0.91474699885E+02 0.  0.
         24    2    1    2    0    0 -0.29436135406E+02 -0.44304460800E+02 -0.39191735152E+02  0.94259422646E+02  0.67227043212E+02 0.  0.
        -11    1    4    4    0    0 -0.10466221611E+02 -0.52553457062E+02 -0.43784063757E+01  0.53764096630E+02  0.00000000000E+00 0.  1.
         12    1    4    4    0    0 -0.18969913795E+02  0.82489962626E+01 -0.34813328776E+02  0.40495326017E+02  0.00000000000E+00 0. -1.
        -13    1    3    3    0    0  0.52661236856E+01  0.37904833598E+02 -0.16021995636E+03  0.16472687360E+03  0.00000000000E+00 0.  1.
         13    1    3    3    0    0 -0.79520475092E+01  0.23352993632E+02  0.54099670571E+01  0.25255991659E+02  0.00000000000E+00 0. -1.
         -4    1    1    2    0  502  0.32122059230E+02 -0.16953366429E+02 -0.21374806270E+02  0.42144105941E+02  0.00000000000E+00 0.  1.
<scales pt_clust_5="13000.00000" pt_clust_6="13000.00000" pt_clust_7="13000.00000" pt_clust_8="13000.00000" pt_clust_9="36.32139"></scales>
<clustering>
<clus scale="   36.321">  1  9  2 -1</clus>
<clus scale="   67.227">  5  6 -1 -1</clus>
<clus scale="   87.194">  1  5  2 -1</clus>
<clus scale="   91.475">  7  8 -1 -1</clus>
<clus scale="   36.321">  1  5  2 -1</clus>
</clustering>
</event>
<event>
 9    2  0.1033155E-004  0.1068190E+03  0.7546771E-02  0.1270293E+00
         21   -1    0    0  501  502  0.00000000000E+00  0.00000000000E+00  0.18230557724E+03  0.18230557724E+03  0.00000000000E+00 0. -1.
          2   -1    0    0  502    0 -0.00000000000E+00 -0.00000000000E+00 -0.15464745452E+03  0.15464745452E+03  0.00000000000E+00 0. -1.
         23    2    1    2    0    0  0.14695613178E+02 -0.71370313327E+02 -0.42837511042E+02  0.12363296992E+03  0.90224033545E+02 0.  0.
         24    2    1    2    0    0  0.69083748835E+01  0.10532334506E+02  0.11020612630E+03  0.13752484309E+03  0.81295980698E+02 0.  0.
        -11    1    4    4    0    0 -0.29729536894E+02 -0.17410448966E+02  0.33569795068E+02  0.48103016933E+02  0.00000000000E+00 0.  1.
         12    1    4    4    0    0  0.36637911777E+02  0.27942783472E+02  0.76636331236E+02  0.89421826155E+02  0.00000000000E+00 0. -1.
        -11    1    3    3    0    0  0.38583725219E+02 -0.78350653925E+02 -0.19437385567E+02  0.89472569986E+02  0.00000000000E+00 0.  1.
         11    1    3    3    0    0 -0.23888112041E+02  0.69803405981E+01 -0.23400125474E+02  0.34160399939E+02  0.00000000000E+00 0. -1.
          1    1    1    2  501    0 -0.21603988061E+02  0.60837978821E+02 -0.39710492540E+02  0.75795218747E+02  0.00000000000E+00 0. -1.
<scales pt_clust_5="13000.00000" pt_clust_6="13000.00000" pt_clust_7="13000.00000" pt_clust_8="13000.00000" pt_clust_9="64.56002"></scales>
<clustering>
<clus scale="   64.560">  1  9  2 -1</clus>
<clus scale="   81.296">  5  6 -1 -1</clus>
<clus scale="   90.224">  7  8 -1 -1</clus>
<clus scale="   99.393">  1  5  2 -1</clus>
<clus scale="   64.560">  1  5  2 -1</clus>
</clustering>
</event>
<event>
 9    2  0.1033155E-004  0.1000799E+03  0.7546771E-02  0.1286026E+00
         21   -1    0    0  501  502  0.00000000000E+00  0.00000000000E+00  0.20231401569E+03  0.20231401569E+03  0.00000000000E+00 0. -1.
         -1   -1    0    0    0  501 -0.00000000000E+00 -0.00000000000E+00 -0.61520114834E+02  0.61520114834E+02  0.00000000000E+00 0.  1.
         24    2    1    2    0    0 -0.46192807452E+02  0.12976730092E+02  0.39696807178E+02  0.10080289599E+03  0.79266741797E+02 0.  0.
         23    2    1    2    0    0  0.23375560427E+02 -0.29387044755E+02  0.68344093640E+02  0.11987240924E+03  0.91041002508E+02 0.  0.
        -11    1    3    3    0    0 -0.61927500996E+02  0.18577077154E+02  0.82262680785E+01  0.65175107685E+02  0.00000000000E+00 0.  1.
         12    1    3    3    0    0  0.15734693544E+02 -0.56003470626E+01  0.31470539100E+02  0.35627788303E+02  0.00000000000E+00 0. -1.
        -13    1    4    4    0    0  0.11766953779E+02 -0.58769529322E+02  0.64496994956E+02  0.88046471459E+02  0.00000000000E+00 0. -1.
         13    1    4    4    0    0  0.11608606648E+02  0.29382484566E+02  0.38470986841E+01  0.31825937785E+02  0.00000000000E+00 0.  1.
         -2    1    1    2    0  502  0.22817247025E+02  0.16410314664E+02  0.32753000034E+02  0.43158825289E+02  0.00000000000E+00 0.  1.
<scales pt_clust_5="13000.00000" pt_clust_6="13000.00000" pt_clust_7="13000.00000" pt_clust_8="13000.00000" pt_clust_9="28.10561"></scales>
<clustering>
<clus scale="   28.106">  1  9  2 -1</clus>
<clus scale="   79.267">  5  6 -1 -1</clus>
<clus scale="   89.503">  2  5  1 -1</clus>
<clus scale="   91.041">  7  8 -1 -1</clus>
<clus scale="   28.106">  1  5  2 -1</clus>
</clustering>
</event>
<event>
 9    2  0.1033155E-004  0.9932251E+02  0.7546771E-02  0.1286886E+00
         21   -1    0    0  501  502  0.00000000000E+00  0.00000000000E+00  0.14674573804E+02  0.14674573804E+02  0.00000000000E+00 0. -1.
          2   -1    0    0  502    0 -0.00000000000E+00 -0.00000000000E+00 -0.87938789734E+03  0.87938789734E+03  0.00000000000E+00 0. -1.
         24    2    1    2    0    0 -0.18665418743E+02 -0.35277846799E+02 -0.40405514068E+03  0.41393621541E+03  0.80558732552E+02 0.  0.
         23    2    1    2    0    0  0.43999416846E+02  0.18184311407E+02 -0.31348438820E+03  0.32981282903E+03  0.90760248372E+02 0.  0.
        -13    1    3    3    0    0  0.27982895496E+02  0.11897997797E+01 -0.86927118703E+02  0.91327881996E+02  0.00000000000E+00 0.  1.
         14    1    3    3    0    0 -0.46648314239E+02 -0.36467646579E+02 -0.31712802197E+03  0.32260833341E+03  0.00000000000E+00 0. -1.
        -11    1    4    4    0    0 -0.15815407760E+02 -0.19821074296E+02 -0.14225932554E+03  0.14450161871E+03  0.00000000000E+00 0.  1.
         11    1    4    4    0    0  0.59814824606E+02  0.38005385704E+02 -0.17122506266E+03  0.18531121031E+03  0.00000000000E+00 0. -1.
          1    1    1    2  501    0 -0.25333998103E+02  0.17093535392E+02 -0.14717379466E+03  0.15031342671E+03  0.00000000000E+00 0. -1.
<scales pt_clust_5="13000.00000" pt_clust_6="13000.00000" pt_clust_7="13000.00000" pt_clust_8="13000.00000" pt_clust_9="30.56144"></scales>
<clustering>
<clus scale="   30.561">  1  9  2 -1</clus>
<clus scale="   80.559">  5  6 -1 -1</clus>
<clus scale="   90.096">  2  5  1 -1</clus>
<clus scale="   90.760">  7  8 -1 -1</clus>
<clus scale="   30.561">  1  5  2 -1</clus>
</clustering>
</event>
<event>
 9    2  0.1033155E-004  0.1135342E+03  0.7546771E-02  0.1255869E+00
          2   -1    0    0  502    0 -0.00000000000E+00  0.00000000000E+00  0.37753142175E+03  0.37753142175E+03  0.00000000000E+00 0. -1.
         21   -1    0    0  501  502  0.00000000000E+00 -0.00000000000E+00 -0.57127536386E+02  0.57127536386E+02  0.00000000000E+00 0. -1.
         24    2    1    2    0    0 -0.70956812210E+02 -0.16631325266E+01  0.23492858053E+03  0.25842835953E+03  0.80970018224E+02 0.  0.
         23    2    1    2    0    0  0.82743832297E+02 -0.27596873806E+02  0.69988071693E+02  0.14108893952E+03  0.86021098854E+02 0.  0.
        -13    1    3    3    0    0 -0.15547975924E+02  0.14655204902E+02  0.58115990519E+01  0.22142476591E+02  0.00000000000E+00 0.  1.
         14    1    3    3    0    0 -0.55408836286E+02 -0.16318337429E+02  0.22911698148E+03  0.23628588294E+03  0.00000000000E+00 0. -1.
        -13    1    4    4    0    0  0.60975326323E+02 -0.41806071983E+02  0.83719034608E+02  0.11168981525E+03  0.00000000000E+00 0. -1.
         13    1    4    4    0    0  0.21768505974E+02  0.14209198178E+02 -0.13730962914E+02  0.29399124268E+02  0.00000000000E+00 0.  1.
          1    1    1    2  501    0 -0.11787020087E+02  0.29260006332E+02  0.15487233144E+02  0.35141659089E+02  0.00000000000E+00 0. -1.
<scales pt_clust_5="13000.00000" pt_clust_6="13000.00000" pt_clust_7="13000.00000" pt_clust_8="13000.00000" pt_clust_9="31.54492"></scales>
<clustering>
<clus scale="   31.545">  2  9  1 -1</clus>
<clus scale="   80.970">  5  6 -1 -1</clus>
<clus scale="   86.021">  7  8 -1 -1</clus>
<clus scale="  109.757">  1  5  2 -1</clus>
<clus scale="   31.545">  2  5  1 -1</clus>
</clustering>
</event>
<event>
 9    2  0.1033155E-004  0.9622453E+02  0.7546771E-02  0.1293219E+00
         21   -1    0    0  501  502  0.00000000000E+00  0.00000000000E+00  0.53807602414E+02  0.53807602414E+02  0.00000000000E+00 0. -1.
          2   -1    0    0  502    0 -0.00000000000E+00 -0.00000000000E+00 -0.52137409912E+03  0.52137409912E+03  0.00000000000E+00 0. -1.
         24    2    1    2    0    0 -0.35051414065E+02  0.67627513318E+01 -0.34586260970E+03  0.35722341678E+03  0.81934658572E+02 0.  0.
         23    2    1    2    0    0  0.14224604964E+02 -0.30326010515E+02 -0.14811818952E+03  0.17688884918E+03  0.90711965016E+02 0.  0.
        -11    1    3    3    0    0  0.26444268674E+02  0.87168959452E+01 -0.10908630383E+03  0.11258377016E+03  0.00000000000E+00 0.  1.
         12    1    3    3    0    0 -0.61495682739E+02 -0.19541446134E+01 -0.23677630587E+03  0.24463964662E+03  0.00000000000E+00 0. -1.
        -11    1    4    4    0    0  0.33373100426E+02  0.21471201830E+02 -0.45649902878E+02  0.60487105840E+02  0.00000000000E+00 0.  1.
         11    1    4    4    0    0 -0.19148495461E+02 -0.51797212345E+02 -0.10246828664E+03  0.11640174334E+03  0.00000000000E+00 0. -1.
          1    1    1    2  501    0  0.20826809100E+02  0.23563259183E+02  0.26414302516E+02  0.41069435570E+02  0.00000000000E+00 0. -1.
<scales pt_clust_5="13000.00000" pt_clust_6="13000.00000" pt_clust_7="13000.00000" pt_clust_8="13000.00000" pt_clust_9="31.44810"></scales>
<clustering>
<clus scale="   31.448">  1  9  2 -1</clus>
<clus scale="   81.935">  5  6 -1 -1</clus>
<clus scale="   87.999">  2  5  1 -1</clus>
<clus scale="   90.712">  7  8 -1 -1</clus>
<clus scale="   31.448">  1  5  2 -1</clus>
</clustering>
</event>
<event>
 9    2  0.1033155E-004  0.1230097E+03  0.7546771E-02  0.1239679E+00
         21   -1    0    0  501  502  0.00000000000E+00  0.00000000000E+00  0.39950931704E+02  0.39950931704E+02  0.00000000000E+00 0.  1.
         -1   -1    0    0    0  501 -0.00000000000E+00 -0.00000000000E+00 -0.74523625612E+03  0.74523625612E+03  0.00000000000E+00 0.  1.
         23    2    1    2    0    0  0.64939628167E+01  0.94795195083E+02 -0.32622193691E+03  0.35204333484E+03  0.92116539894E+02 0.  0.
         24    2    1    2    0    0  0.65127848670E+02 -0.54147449138E+02 -0.17501323504E+03  0.21310206638E+03  0.87231160338E+02 0.  0.
        -13    1    4    4    0    0  0.31071007504E+02 -0.45015838294E+02 -0.27097566291E+02  0.61041881553E+02  0.00000000000E+00 0.  1.
         14    1    4    4    0    0  0.34056841167E+02 -0.91316108438E+01 -0.14791566875E+03  0.15206018482E+03  0.00000000000E+00 0. -1.
        -13    1    3    3    0    0  0.46540319148E+02  0.29590918570E+02 -0.15434638158E+03  0.16390371953E+03  0.00000000000E+00 0. -1.
         13    1    3    3    0    0 -0.40046356331E+02  0.65204276513E+02 -0.17187555533E+03  0.18813961532E+03  0.00000000000E+00 0.  1.
         -2    1    1    2    0  502 -0.71621811487E+02 -0.40647745945E+02 -0.20405015246E+03  0.22004178660E+03  0.00000000000E+00 0.  1.
<scales pt_clust_5="13000.00000" pt_clust_6="13000.00000" pt_clust_7="13000.00000" pt_clust_8="13000.00000" pt_clust_9="82.35247"></scales>
<clustering>
<clus scale="   82.352">  1  9  2 -1</clus>
<clus scale="   87.231">  5  6 -1 -1</clus>
<clus scale="   92.117">  7  8 -1 -1</clus>
<clus scale="  119.395">  1  5  2 -1</clus>
<clus scale="   82.352">  1  5  2 -1</clus>
</clustering>
</event>
<event>
 9    2  0.1033155E-004  0.1437088E+03  0.7546771E-02  0.1210805E+00
         21   -1    0    0  501  502  0.00000000000E+00  0.00000000000E+00  0.55259506205E+03  0.55259506205E+03  0.00000000000E+00 0.  1.
         -3   -1    0    0    0  501 -0.00000000000E+00 -0.00000000000E+00 -0.11912246581E+03  0.11912246581E+03  0.00000000000E+00 0.  1.
         23    2    1    2    0    0  0.90611046963E+02 -0.66498456116E+02 -0.20472350333E+01  0.14504078663E+03  0.91652780198E+02 0.  0.
         24    2    1    2    0    0 -0.47992568434E+02  0.10030791736E+03  0.44999327039E+03  0.47038380364E+03  0.80012589131E+02 0.  0.
        -13    1    4    4    0    0 -0.54755075075E+02  0.47090796685E+02  0.16103010183E+03  0.17648329971E+03  0.00000000000E+00 0.  1.
         14    1    4    4    0    0  0.67625066418E+01  0.53217120671E+02  0.28896316856E+03  0.29390050394E+03  0.00000000000E+00 0. -1.
        -11    1    3    3    0    0  0.10790442056E+03 -0.49486704133E+02  0.75552571231E+01  0.11895116549E+03  0.00000000000E+00 0.  1.
         11    1    3    3    0    0 -0.17293373592E+02 -0.17011751982E+02 -0.96024921563E+01  0.26089621142E+02  0.00000000000E+00 0. -1.
         -4    1    1    2    0  502 -0.42618478530E+02 -0.33809461240E+02 -0.14473439123E+02  0.56292937582E+02  0.00000000000E+00 0.  1.
<scales pt_clust_5="13000.00000" pt_clust_6="13000.00000" pt_clust_7="13000.00000" pt_clust_8="13000.00000" pt_clust_9="54.40053"></scales>
<clustering>
<clus scale="   54.401">  1  9  2 -1</clus>
<clus scale="   80.013">  5  6 -1 -1</clus>
<clus scale="   91.653">  7  8 -1 -1</clus>
<clus scale="  136.580">  1  5  2 -1</clus>
<clus scale="   54.401">  1  5  2 -1</clus>
</clustering>
</event>
<event>
 9    2  0.1033155E-004  0.2115953E+03  0.7546771E-02  0.1140928E+00
          2   -1    0    0  502    0 -0.00000000000E+00  0.00000000000E+00  0.11442684707E+04  0.11442684707E+04  0.00000000000E+00 0. -1.
         21   -1    0    0  501  502  0.00000000000E+00 -0.00000000000E+00 -0.92725060219E+02  0.92725060219E+02  0.00000000000E+00 0.  1.
         23    2    1    2    0    0 -0.55194827775E+02  0.12060773567E+03  0.14692650195E+03  0.21722999857E+03  0.89491789510E+02 0.  0.
         24    2    1    2    0    0  0.10035360497E+03 -0.25417884980E+03  0.37188747399E+03  0.46869075302E+03  0.81810726263E+02 0.  0.
        -13    1    4    4    0    0  0.92406653700E+02 -0.23530692443E+03  0.29203604945E+03  0.38625560515E+03  0.00000000000E+00 0.  1.
         14    1    4    4    0    0  0.79469512735E+01 -0.18871925372E+02  0.79851424542E+02  0.82435147863E+02  0.00000000000E+00 0. -1.
        -11    1    3    3    0    0  0.24918199911E+02  0.31664425914E+02  0.37914217021E+02  0.55326669949E+02  0.00000000000E+00 0.  1.
         11    1    3    3    0    0 -0.80113027686E+02  0.88943309756E+02  0.10901228492E+03  0.16190332863E+03  0.00000000000E+00 0. -1.
          1    1    1    2  501    0 -0.45158777198E+02  0.13357111413E+03  0.53272943451E+03  0.55107277930E+03  0.00000000000E+00 0. -1.
<scales pt_clust_5="13000.00000" pt_clust_6="13000.00000" pt_clust_7="13000.00000" pt_clust_8="13000.00000" pt_clust_9="140.99850"></scales>
<clustering>
<clus scale="   81.811">  5  6 -1 -1</clus>
<clus scale="   89.492">  7  8 -1 -1</clus>
<clus scale="  140.999">  2  9  1 -1</clus>
<clus scale="  208.463">  2  5  1 -1</clus>
<clus scale="  140.999">  2  5  1 -1</clus>
</clustering>
</event>
<event>
 9    2  0.1033155E-004  0.1011747E+03  0.7546771E-02  0.1280825E+00
         21   -1    0    0  501  502  0.00000000000E+00  0.00000000000E+00  0.30405010644E+03  0.30405010644E+03  0.00000000000E+00 0. -1.
          2   -1    0    0  502    0 -0.00000000000E+00 -0.00000000000E+00 -0.14385841058E+03  0.14385841058E+03  0.00000000000E+00 0. -1.
         23    2    1    2    0    0 -0.14928583997E+02  0.54385550879E+02 -0.82681143497E+02  0.13339594044E+03  0.88191012424E+02 0.  0.
         24    2    1    2    0    0 -0.15746745924E+02 -0.37001367799E+02  0.25898110919E+02  0.94691698430E+02  0.81723585189E+02 0.  0.
        -13    1    4    4    0    0  0.13948057694E+02 -0.49624448858E+02 -0.26409481535E+01  0.51615006007E+02  0.00000000000E+00 0.  1.
         14    1    4    4    0    0 -0.29694803619E+02  0.12623081059E+02  0.28539059073E+02  0.43076692423E+02  0.00000000000E+00 0. -1.
        -11    1    3    3    0    0  0.27707124985E+02  0.57015095478E+00 -0.24844777295E+01  0.27824134787E+02  0.00000000000E+00 0.  1.
         11    1    3    3    0    0 -0.42635708982E+02  0.53815399924E+02 -0.80196665768E+02  0.10557180566E+03  0.00000000000E+00 0. -1.
          1    1    1    2  501    0  0.30675329921E+02 -0.17384183080E+02  0.21697472844E+03  0.21982087814E+03  0.00000000000E+00 0. -1.
<scales pt_clust_5="13000.00000" pt_clust_6="13000.00000" pt_clust_7="13000.00000" pt_clust_8="13000.00000" pt_clust_9="35.25884"></scales>
<clustering>
<clus scale="   35.259">  1  9  2 -1</clus>
<clus scale="   81.724">  5  6 -1 -1</clus>
<clus scale="   88.191">  7  8 -1 -1</clus>
<clus scale="   95.590">  1  5  2 -1</clus>
<clus scale="   35.259">  1  5  2 -1</clus>
</clustering>
</event>
<event>
 9    2  0.1033155E-004  0.1161870E+03  0.7546771E-02  0.1253977E+00
          2   -1    0    0  502    0 -0.00000000000E+00  0.00000000000E+00  0.49306161118E+03  0.49306161118E+03  0.00000000000E+00 0. -1.
         21   -1    0    0  501  502  0.00000000000E+00 -0.00000000000E+00 -0.53213794091E+02  0.53213794091E+02  0.00000000000E+00 0.  1.
         24    2    1    2    0    0 -0.48343275018E+02 -0.52602811984E+02  0.33451073003E+03  0.35094146795E+03  0.78475202178E+02 0.  0.
         23    2    1    2    0    0  0.23597021209E+02  0.74586901032E+02  0.10859995278E+03  0.16207249505E+03  0.91397585814E+02 0.  0.
        -13    1    3    3    0    0 -0.25883407277E+02  0.11602647738E+02  0.42381500921E+02  0.50997684527E+02  0.00000000000E+00 0.  1.
         14    1    3    3    0    0 -0.22459867741E+02 -0.64205459722E+02  0.29212922911E+03  0.29994378342E+03  0.00000000000E+00 0. -1.
        -11    1    4    4    0    0  0.31824155121E+02  0.35318502260E+02  0.11213440549E+03  0.12179613436E+03  0.00000000000E+00 0. -1.
         11    1    4    4    0    0 -0.82271339127E+01  0.39268398772E+02 -0.35344527074E+01  0.40276360691E+02  0.00000000000E+00 0.  1.
          1    1    1    2  501    0  0.24746253809E+02 -0.21984089048E+02 -0.32628657206E+01  0.33261442265E+02  0.00000000000E+00 0. -1.
<scales pt_clust_5="13000.00000" pt_clust_6="13000.00000" pt_clust_7="13000.00000" pt_clust_8="13000.00000" pt_clust_9="33.10102"></scales>
<clustering>
<clus scale="   33.101">  2  9  1 -1</clus>
<clus scale="   78.475">  5  6 -1 -1</clus>
<clus scale="   91.398">  7  8 -1 -1</clus>
<clus scale="  106.322">  1  5  2 -1</clus>
<clus scale="   33.101">  2  5  1 -1</clus>
</clustering>
</event>
<event>
 9    2  0.1033155E-004  0.1226355E+03  0.7546771E-02  0.1245907E+00
          2   -1    0    0  502    0 -0.00000000000E+00  0.00000000000E+00  0.81183991297E+03  0.81183991297E+03  0.00000000000E+00 0. -1.
         21   -1    0    0  501  502  0.00000000000E+00 -0.00000000000E+00 -0.29764926830E+02  0.29764926830E+02  0.00000000000E+00 0.  1.
         24    2    1    2    0    0 -0.86655010272E+02 -0.23501116247E+02  0.45741272114E+03  0.47104648518E+03  0.67801183362E+02 0.  0.
         23    2    1    2    0    0  0.62671549241E+02  0.33881067897E+02  0.32434779865E+03  0.34442315444E+03  0.91379237148E+02 0.  0.
        -13    1    3    3    0    0 -0.97110750630E+02 -0.19934068091E+02  0.37442498642E+03  0.38732665208E+03  0.00000000000E+00 0.  1.
         14    1    3    3    0    0  0.10455740358E+02 -0.35670481566E+01  0.82987734726E+02  0.83719833098E+02  0.00000000000E+00 0. -1.
        -11    1    4    4    0    0  0.35170550749E+02  0.56626969503E+02  0.27825775854E+03  0.28613102157E+03  0.00000000000E+00 0.  1.
         11    1    4    4    0    0  0.27500998493E+02 -0.22745901606E+02  0.46090040107E+02  0.58292132874E+02  0.00000000000E+00 0. -1.
          1    1    1    2  501    0  0.23983461031E+02 -0.10379951650E+02  0.31446634782E+00  0.26135200178E+02  0.00000000000E+00 0. -1.
<scales pt_clust_5="13000.00000" pt_clust_6="13000.00000" pt_clust_7="13000.00000" pt_clust_8="13000.00000" pt_clust_9="26.13331"></scales>
<clustering>
<clus scale="   26.133">  2  9  1 -1</clus>
<clus scale="   67.801">  5  6 -1 -1</clus>
<clus scale="   91.379">  7  8 -1 -1</clus>
<clus scale="  106.237">  1  5  2 -1</clus>
<clus scale="   26.133">  2  5  1 -1</clus>
</clustering>
</event>
<event>
 9    2  0.1033155E-004  0.2202720E+03  0.7546771E-02  0.1134963E+00
          2   -1    0    0  502    0 -0.00000000000E+00  0.00000000000E+00  0.94905321282E+02  0.94905321282E+02  0.00000000000E+00 0. -1.
         21   -1    0    0  501  502  0.00000000000E+00 -0.00000000000E+00 -0.11339835777E+04  0.11339835777E+04  0.00000000000E+00 0. -1.
         24    2    1    2    0    0 -0.15736804516E+03 -0.89265205260E+02 -0.15214678914E+03  0.24735412833E+03  0.72817860800E+02 0.  0.
         23    2    1    2    0    0  0.25821598158E+03  0.11138227137E+03 -0.77415088332E+03  0.82863306689E+03  0.90783621230E+02 0.  0.
        -11    1    3    3    0    0 -0.77230210030E+02 -0.70125843063E+01 -0.81637941080E+02  0.11259855729E+03  0.00000000000E+00 0.  1.
         12    1    3    3    0    0 -0.80137835126E+02 -0.82252620954E+02 -0.70508848057E+02  0.13475557104E+03  0.00000000000E+00 0. -1.
        -13    1    4    4    0    0  0.12783142884E+03  0.98985904740E+02 -0.36974625010E+03  0.40354847664E+03  0.00000000000E+00 0. -1.
         13    1    4    4    0    0  0.13038455274E+03  0.12396366626E+02 -0.40440463322E+03  0.42508459025E+03  0.00000000000E+00 0.  1.
          1    1    1    2  501    0 -0.10084793643E+03 -0.22117066106E+02 -0.11278058397E+03  0.15290170377E+03  0.00000000000E+00 0. -1.
<scales pt_clust_5="13000.00000" pt_clust_6="13000.00000" pt_clust_7="13000.00000" pt_clust_8="13000.00000" pt_clust_9="103.24477"></scales>
<clustering>
<clus scale="   72.818">  5  6 -1 -1</clus>
<clus scale="   90.784">  7  8 -1 -1</clus>
<clus scale="  103.245">  2  9  1 -1</clus>
<clus scale="  213.496">  1  5  2 -1</clus>
<clus scale="  103.245">  2  5  1 -1</clus>
</clustering>
</event>
<event>
 9    2  0.1033155E-004  0.9145178E+02  0.7546771E-02  0.1305265E+00
         21   -1    0    0  501  502  0.00000000000E+00  0.00000000000E+00  0.84777194409E+02  0.84777194409E+02  0.00000000000E+00 0. -1.
          4   -1    0    0  502    0 -0.00000000000E+00 -0.00000000000E+00 -0.45741471792E+03  0.45741471792E+03  0.00000000000E+00 0. -1.
         24    2    1    2    0    0 -0.16646782387E+02 -0.13948240704E+02 -0.31018182244E+03  0.32138668751E+03  0.81270973621E+02 0.  0.
         23    2    1    2    0    0 -0.67808101942E+01 -0.34964362671E+02 -0.11120861699E+03  0.14787963485E+03  0.90733366887E+02 0.  0.
        -13    1    3    3    0    0 -0.35469385263E+02  0.23068741426E+02 -0.16971913646E+03  0.17491377705E+03  0.00000000000E+00 0.  1.
         14    1    3    3    0    0  0.18822602877E+02 -0.37016982129E+02 -0.14046268598E+03  0.14647291046E+03  0.00000000000E+00 0. -1.
        -13    1    4    4    0    0  0.15329242437E+02  0.27019309156E+02 -0.43554827680E+02  0.53498147213E+02  0.00000000000E+00 0.  1.
         13    1    4    4    0    0 -0.22110052631E+02 -0.61983671827E+02 -0.67653789305E+02  0.94381487633E+02  0.00000000000E+00 0. -1.
          3    1    1    2  501    0  0.23427592581E+02  0.48912603374E+02  0.48752915914E+02  0.72925589974E+02  0.00000000000E+00 0. -1.
<scales pt_clust_5="13000.00000" pt_clust_6="13000.00000" pt_clust_7="13000.00000" pt_clust_8="13000.00000" pt_clust_9="54.23371"></scales>
<clustering>
<clus scale="   54.234">  1  9  2 -1</clus>
<clus scale="   81.271">  5  6 -1 -1</clus>
<clus scale="   82.072">  2  5  1 -1</clus>
<clus scale="   90.733">  7  8 -1 -1</clus>
<clus scale="   54.234">  1  5  2 -1</clus>
</clustering>
</event>
<event>
 9    2  0.1033155E-004  0.8267298E+02  0.7546771E-02  0.1322016E+00
          2   -1    0    0  502    0 -0.00000000000E+00  0.00000000000E+00  0.60507191063E+03  0.60507191063E+03  0.00000000000E+00 0. -1.
         21   -1    0    0  501  502  0.00000000000E+00 -0.00000000000E+00 -0.19817799908E+02  0.19817799908E+02  0.00000000000E+00 0.  1.
         24    2    1    2    0    0  0.20132043213E+01 -0.28831181743E+02  0.36115773084E+03  0.37048493439E+03  0.77387919146E+02 0.  0.
         23    2    1    2    0    0  0.30682133485E+02  0.20481147876E+02  0.15128742849E+03  0.17415609029E+03  0.77984530721E+02 0.  0.
        -13    1    3    3    0    0 -0.15398055269E+02  0.15382287303E+02  0.37507929042E+02  0.43365419516E+02  0.00000000000E+00 0.  1.
         14    1    3    3    0    0  0.17411259591E+02 -0.44213469045E+02  0.32364980180E+03  0.32711951487E+03  0.00000000000E+00 0. -1.
        -11    1    4    4    0    0  0.27034528632E+01  0.37193892066E+02  0.27999264775E+02  0.46633175877E+02  0.00000000000E+00 0.  1.
         11    1    4    4    0    0  0.27978680622E+02 -0.16712744191E+02  0.12328816371E+03  0.12752291441E+03  0.00000000000E+00 0. -1.
          1    1    1    2  501    0 -0.32695337806E+02  0.83500338670E+01  0.72808951390E+02  0.80248685860E+02  0.00000000000E+00 0. -1.
<scales pt_clust_5="13000.00000" pt_clust_6="13000.00000" pt_clust_7="13000.00000" pt_clust_8="13000.00000" pt_clust_9="33.74475"></scales>
<clustering>
<clus scale="   33.745">  2  9  1 -1</clus>
<clus scale="   77.388">  5  6 -1 -1</clus>
<clus scale="   77.985">  7  8 -1 -1</clus>
<clus scale="   82.110">  1  5  2 -1</clus>
<clus scale="   33.745">  2  5  1 -1</clus>
</clustering>
</event>
<event>
 9    2  0.1033155E-004  0.2395368E+03  0.7546771E-02  0.1149147E+00
         21   -1    0    0  501  502  0.00000000000E+00  0.00000000000E+00  0.72289114752E+03  0.72289114752E+03  0.00000000000E+00 0. -1.
          2   -1    0    0  502    0 -0.00000000000E+00 -0.00000000000E+00 -0.30773557337E+03  0.30773557337E+03  0.00000000000E+00 0. -1.
         24    2    1    2    0    0 -0.85367448532E+02 -0.16493570468E+02 -0.20818152641E+03  0.23932730478E+03  0.79864708971E+02 0.  0.
         23    2    1    2    0    0 -0.11360834324E+03  0.15168607413E+03  0.14587606512E+03  0.25666176393E+03  0.93166055799E+02 0.  0.
        -11    1    3    3    0    0 -0.51504657340E+02 -0.10477916179E+02 -0.35908858230E+02  0.63655027724E+02  0.00000000000E+00 0.  1.
         12    1    3    3    0    0 -0.33862791192E+02 -0.60156542885E+01 -0.17227266818E+03  0.17567227706E+03  0.00000000000E+00 0. -1.
        -13    1    4    4    0    0 -0.10195799455E+03  0.99638018336E+02  0.58084130585E+02  0.15393808358E+03  0.00000000000E+00 0. -1.
         13    1    4    4    0    0 -0.11650348691E+02  0.52048055791E+02  0.87791934535E+02  0.10272368036E+03  0.00000000000E+00 0.  1.
          1    1    1    2  501    0  0.19897579177E+03 -0.13519250366E+03  0.47746103545E+03  0.53463765218E+03  0.00000000000E+00 0. -1.
<scales pt_clust_5="13000.00000" pt_clust_6="13000.00000" pt_clust_7="13000.00000" pt_clust_8="13000.00000" pt_clust_9="220.67612"></scales>
<clustering>
<clus scale="   79.865">  5  6 -1 -1</clus>
<clus scale="   93.166">  7  8 -1 -1</clus>
<clus scale="  118.059">  2  5  1 -1</clus>
<clus scale="  220.676">  1  9  2 -1</clus>
<clus scale="  220.676">  1  5  2 -1</clus>
</clustering>
</event>
<event>
 9    2  0.1033155E-004  0.1694754E+03  0.7546771E-02  0.1196462E+00
          2   -1    0    0  502    0 -0.00000000000E+00  0.00000000000E+00  0.74068317088E+03  0.74068317088E+03  0.00000000000E+00 0. -1.
         21   -1    0    0  501  502  0.00000000000E+00 -0.00000000000E+00 -0.92067290134E+02  0.92067290134E+02  0.00000000000E+00 0. -1.
         23    2    1    2    0    0  0.17916637875E+02 -0.56686257219E+02  0.15147548339E+03  0.18927713237E+03  0.96678193500E+02 0.  0.
         24    2    1    2    0    0 -0.33081982883E+02 -0.10099362967E+03  0.46243831022E+03  0.48130930899E+03  0.80717589981E+02 0.  0.
        -11    1    4    4    0    0 -0.20048331033E+02 -0.77880624988E+02  0.17436908220E+03  0.19202058263E+03  0.00000000000E+00 0.  1.
         12    1    4    4    0    0 -0.13033651849E+02 -0.23113004685E+02  0.28806922802E+03  0.28928872636E+03  0.00000000000E+00 0. -1.
        -11    1    3    3    0    0 -0.27546870182E+02  0.12336189896E+02  0.31881721380E+02  0.43902799411E+02  0.00000000000E+00 0.  1.
         11    1    3    3    0    0  0.45463508056E+02 -0.69022447115E+02  0.11959376201E+03  0.14537433296E+03  0.00000000000E+00 0. -1.
          1    1    1    2  501    0  0.15165345008E+02  0.15767988689E+03  0.34702087131E+02  0.16216401966E+03  0.00000000000E+00 0. -1.
<scales pt_clust_5="13000.00000" pt_clust_6="13000.00000" pt_clust_7="13000.00000" pt_clust_8="13000.00000" pt_clust_9="149.01872"></scales>
<clustering>
<clus scale="   80.718">  5  6 -1 -1</clus>
<clus scale="   96.678">  7  8 -1 -1</clus>
<clus scale="  113.495">  1  7  2 -1</clus>
<clus scale="  149.019">  2  9  1 -1</clus>
<clus scale="  149.019">  2  5  1 -1</clus>
</clustering>
</event>
<event>
 9    2  0.1033155E-004  0.1136023E+03  0.7546771E-02  0.1262025E+00
          2   -1    0    0  502    0 -0.00000000000E+00  0.00000000000E+00  0.55797029429E+03  0.55797029429E+03  0.00000000000E+00 0. -1.
         21   -1    0    0  501  502  0.00000000000E+00 -0.00000000000E+00 -0.41177176340E+02  0.41177176340E+02  0.00000000000E+00 0. -1.
         24    2    1    2    0    0 -0.24409034471E+02 -0.36402800719E+02  0.26501444893E+03  0.28113364406E+03  0.82960851121E+02 0.  0.
         23    2    1    2    0    0 -0.10886920283E+02  0.73461866408E+02  0.23026346000E+03  0.26249731560E+03  0.10182538403E+03 0.  0.
        -13    1    3    3    0    0 -0.30300177315E+02 -0.58871099124E+02  0.22813551981E+03  0.23754941056E+03  0.00000000000E+00 0.  1.
         14    1    3    3    0    0  0.58911428446E+01  0.22468298405E+02  0.36878929119E+02  0.43584233504E+02  0.00000000000E+00 0. -1.
        -11    1    4    4    0    0  0.32622970571E+02  0.15832561926E+02  0.15091617671E+03  0.15521153507E+03  0.00000000000E+00 0.  1.
         11    1    4    4    0    0 -0.43509890854E+02  0.57629304482E+02  0.79347283295E+02  0.10728578053E+03  0.00000000000E+00 0. -1.
          1    1    1    2  501    0  0.35295954754E+02 -0.37059065689E+02  0.21515209025E+02  0.55516510978E+02  0.00000000000E+00 0. -1.
<scales pt_clust_5="13000.00000" pt_clust_6="13000.00000" pt_clust_7="13000.00000" pt_clust_8="13000.00000" pt_clust_9="51.17791"></scales>
<clustering>
<clus scale="   51.178">  2  9  1 -1</clus>
<clus scale="   82.961">  5  6 -1 -1</clus>
<clus scale="   97.055">  1  5  2 -1</clus>
<clus scale="  101.825">  7  8 -1 -1</clus>
<clus scale="   51.178">  2  5  1 -1</clus>
</clustering>
</event>
<event>
 9    2  0.1033155E-004  0.3932809E+03  0.7546771E-02  0.1087633E+00
          2   -1    0    0  502    0 -0.00000000000E+00  0.00000000000E+00  0.11435285653E+04  0.11435285653E+04  0.00000000000E+00 0. -1.
         21   -1    0    0  501  502  0.00000000000E+00 -0.00000000000E+00 -0.21633113500E+03  0.21633113500E+03  0.00000000000E+00 0. -1.
         24    2    1    2    0    0 -0.21632041540E+02  0.94303672186E+02  0.19313371582E+03  0.23002692162E+03  0.79060892184E+02 0.  0.
         23    2    1    2    0    0  0.38604946834E+03  0.17776748939E+02  0.13467845973E+03  0.41946332174E+03  0.91983617900E+02 0.  0.
        -11    1    3    3    0    0 -0.16617447227E+02  0.58274047530E+02  0.39944916778E+02  0.72578237401E+02  0.00000000000E+00 0.  1.
         12    1    3    3    0    0 -0.50145943127E+01  0.36029624656E+02  0.15318879905E+03  0.15744868422E+03  0.00000000000E+00 0. -1.
        -11    1    4    4    0    0  0.22183137948E+03  0.37812335715E+02  0.39100355060E+02  0.22840265196E+03  0.00000000000E+00 0. -1.
         11    1    4    4    0    0  0.16421808885E+03 -0.20035586776E+02  0.95578104672E+02  0.19106066978E+03  0.00000000000E+00 0.  1.
          1    1    1    2  501    0 -0.36441742680E+03 -0.11208042112E+03  0.59938525479E+03  0.71036945698E+03  0.00000000000E+00 0. -1.
<scales pt_clust_5="13000.00000" pt_clust_6="13000.00000" pt_clust_7="13000.00000" pt_clust_8="13000.00000" pt_clust_9="382.37286"></scales>
<clustering>
<clus scale="   79.061">  5  6 -1 -1</clus>
<clus scale="   91.984">  7  8 -1 -1</clus>
<clus scale="  124.947">  1  5  2 -1</clus>
<clus scale="  382.373">  2  9  1 -1</clus>
<clus scale="  382.373">  2  5  1 -1</clus>
</clustering>
</event>
<event>
 9    2  0.1033155E-004  0.1157214E+03  0.7546771E-02  0.1254486E+00
         21   -1    0    0  501  502  0.00000000000E+00  0.00000000000E+00  0.13564103077E+03  0.13564103077E+03  0.00000000000E+00 0. -1.
          2   -1    0    0  502    0 -0.00000000000E+00 -0.00000000000E+00 -0.15541470730E+03  0.15541470730E+03  0.00000000000E+00 0. -1.
         23    2    1    2    0    0 -0.14787914795E+02  0.91029882841E+02 -0.55481397339E+02  0.14130404465E+03  0.91561594518E+02 0.  0.
         24    2    1    2    0    0  0.18547559005E+02 -0.36338167102E+02  0.31163517330E+02  0.94742889754E+02  0.79627733945E+02 0.  0.
        -13    1    4    4    0    0  0.31134873225E+02  0.84606688185E-01 -0.15040519986E+02  0.34577517702E+02  0.00000000000E+00 0.  1.
         14    1    4    4    0    0 -0.12587314219E+02 -0.36422773790E+02  0.46204037316E+02  0.60165372052E+02  0.00000000000E+00 0. -1.
        -13    1    3    3    0    0  0.29749622552E+02  0.85666198928E+01  0.25618726721E+01  0.31064291558E+02  0.00000000000E+00 0.  1.
         13    1    3    3    0    0 -0.44537537347E+02  0.82463262948E+02 -0.58043270011E+02  0.11023975310E+03  0.00000000000E+00 0. -1.
          1    1    1    2  501    0 -0.37596442107E+01 -0.54691715739E+02  0.45442034871E+01  0.55008803663E+02  0.00000000000E+00 0. -1.
<scales pt_clust_5="13000.00000" pt_clust_6="13000.00000" pt_clust_7="13000.00000" pt_clust_8="13000.00000" pt_clust_9="54.82079"></scales>
<clustering>
<clus scale="   54.821">  1  9  2 -1</clus>
<clus scale="   79.628">  5  6 -1 -1</clus>
<clus scale="   91.562">  7  8 -1 -1</clus>
<clus scale="  106.529">  1  5  2 -1</clus>
<clus scale="   54.821">  1  5  2 -1</clus>
</clustering>
</event>
<event>
 9    2  0.1033155E-004  0.1030240E+03  0.7546771E-02  0.1279551E+00
         21   -1    0    0  501  502  0.00000000000E+00  0.00000000000E+00  0.24749158920E+03  0.24749158920E+03  0.00000000000E+00 0.  1.
          2   -1    0    0  502    0 -0.00000000000E+00 -0.00000000000E+00 -0.16065423970E+03  0.16065423970E+03  0.00000000000E+00 0. -1.
         23    2    1    2    0    0  0.22016236763E+02  0.47924244445E+02 -0.11308868390E+03  0.15450793542E+03  0.91116429890E+02 0.  0.
         24    2    1    2    0    0 -0.24606236837E+02 -0.23393945262E+02  0.46058526708E+02  0.97805761700E+02  0.79321091602E+02 0.  0.
        -13    1    4    4    0    0 -0.39666638077E+02  0.13037645994E+02  0.70479761396E+01  0.42344968498E+02  0.00000000000E+00 0.  1.
         14    1    4    4    0    0  0.15060401240E+02 -0.36431591256E+02  0.39010550568E+02  0.55460793202E+02  0.00000000000E+00 0. -1.
        -11    1    3    3    0    0 -0.18726271073E+02  0.45220613259E+02 -0.10049100096E+03  0.11177664499E+03  0.00000000000E+00 0. -1.
         11    1    3    3    0    0  0.40742507836E+02  0.27036311854E+01 -0.12597682937E+02  0.42731290429E+02  0.00000000000E+00 0.  1.
          1    1    1    2  501    0  0.25900000745E+01 -0.24530299183E+02  0.15386750670E+03  0.15583213178E+03  0.00000000000E+00 0. -1.
<scales pt_clust_5="13000.00000" pt_clust_6="13000.00000" pt_clust_7="13000.00000" pt_clust_8="13000.00000" pt_clust_9="24.66665"></scales>
<clustering>
<clus scale="   24.667">  1  9  2 -1</clus>
<clus scale="   79.321">  5  6 -1 -1</clus>
<clus scale="   91.116">  7  8 -1 -1</clus>
<clus scale="   92.756">  1  5  2 -1</clus>
<clus scale="   24.667">  1  5  2 -1</clus>
</clustering>
</event>
<event>
 9    2  0.1033155E-004  0.1045743E+03  0.7546771E-02  0.1283012E+00
         21   -1    0    0  501  502  0.00000000000E+00  0.00000000000E+00  0.47196090047E+02  0.47196090047E+02  0.00000000000E+00 0.  1.
          2   -1    0    0  502    0 -0.00000000000E+00 -0.00000000000E+00 -0.40092948116E+03  0.40092948116E+03  0.00000000000E+00 0. -1.
         24    2    1    2    0    0 -0.26906278495E+02 -0.20747731440E+01 -0.25111065802E+03  0.26506868432E+03  0.80477278335E+02 0.  0.
         23    2    1    2    0    0  0.22310968414E+01  0.28050990519E+01 -0.11609100947E+03  0.15493585501E+03  0.10254340697E+03 0.  0.
        -13    1    3    3    0    0  0.22108107575E+02  0.19580851952E+02 -0.64942515229E+02  0.71342192761E+02  0.00000000000E+00 0.  1.
         14    1    3    3    0    0 -0.49014386070E+02 -0.21655625096E+02 -0.18616814279E+03  0.19372649156E+03  0.00000000000E+00 0. -1.
        -11    1    4    4    0    0  0.33550288849E+02 -0.26160134326E+02 -0.10115377757E+03  0.10973632592E+03  0.00000000000E+00 0. -1.
         11    1    4    4    0    0 -0.31319192008E+02  0.28965233377E+02 -0.14937231899E+02  0.45199529084E+02  0.00000000000E+00 0.  1.
          1    1    1    2  501    0  0.24675181654E+02 -0.73032590792E+00  0.13468276378E+02  0.28121031883E+02  0.00000000000E+00 0. -1.
<scales pt_clust_5="13000.00000" pt_clust_6="13000.00000" pt_clust_7="13000.00000" pt_clust_8="13000.00000" pt_clust_9="24.68599"></scales>
<clustering>
<clus scale="   24.686">  1  9  2 -1</clus>
<clus scale="   80.477">  5  6 -1 -1</clus>
<clus scale="   83.050">  2  5  1 -1</clus>
<clus scale="  102.543">  7  8 -1 -1</clus>
<clus scale="   24.686">  1  5  2 -1</clus>
</clustering>
</event>
<event>
 9    2  0.1033155E-004  0.1499070E+03  0.7546771E-02  0.1212828E+00
          2   -1    0    0  502    0 -0.00000000000E+00  0.00000000000E+00  0.19020517192E+04  0.19020517192E+04  0.00000000000E+00 0. -1.
         21   -1    0    0  501  502  0.00000000000E+00 -0.00000000000E+00 -0.48824460099E+02  0.48824460099E+02  0.00000000000E+00 0. -1.
         23    2    1    2    0    0  0.54979695407E+02 -0.42163451249E+02  0.44879427680E+02  0.12368676419E+03  0.92107160844E+02 0.  0.
         24    2    1    2    0    0  0.70370668703E+02  0.35536862467E+02  0.98907772059E+03  0.99835882930E+03  0.11059256339E+03 0.  0.
        -13    1    4    4    0    0 -0.13458020554E+02 -0.19765043810E+02  0.73546319488E+02  0.77335867385E+02  0.00000000000E+00 0.  1.
         14    1    4    4    0    0  0.83828689257E+02  0.55301906277E+02  0.91553140110E+03  0.92102296192E+03  0.00000000000E+00 0. -1.
        -13    1    3    3    0    0  0.51147063778E+02 -0.13555033859E+02  0.68382976423E+02  0.86463822148E+02  0.00000000000E+00 0.  1.
         13    1    3    3    0    0  0.38326316287E+01 -0.28608417390E+02 -0.23503548743E+02  0.37222942042E+02  0.00000000000E+00 0. -1.
          1    1    1    2  501    0 -0.12535036411E+03  0.66265887818E+01  0.81927011083E+03  0.82883058581E+03  0.00000000000E+00 0. -1.
<scales pt_clust_5="13000.00000" pt_clust_6="13000.00000" pt_clust_7="13000.00000" pt_clust_8="13000.00000" pt_clust_9="101.19982"></scales>
<clustering>
<clus scale="   92.107">  7  8 -1 -1</clus>
<clus scale="  110.593">  5  6 -1 -1</clus>
<clus scale="  115.257">  1  7  2 -1</clus>
<clus scale="  101.200">  2  9  1 -1</clus>
<clus scale="  101.200">  2  5  1 -1</clus>
</clustering>
</event>
<event>
 9    2  0.1033155E-004  0.2065192E+03  0.7546771E-02  0.1180139E+00
         21   -1    0    0  501  502  0.00000000000E+00  0.00000000000E+00  0.42555624689E+02  0.42555624689E+02  0.00000000000E+00 0. -1.
          2   -1    0    0  502    0 -0.00000000000E+00 -0.00000000000E+00 -0.15331309156E+04  0.15331309156E+04  0.00000000000E+00 0. -1.
         24    2    1    2    0    0 -0.48145110553E+02 -0.35571446488E+02 -0.34245957504E+03  0.35410258392E+03  0.67281497666E+02 0.  0.
         23    2    1    2    0    0  0.53175406708E+02 -0.16181463267E+03 -0.78724988373E+03  0.81023165367E+03  0.87757358477E+02 0.  0.
        -13    1    3    3    0    0  0.46629266177E+01 -0.35871980690E+02 -0.16676179182E+03  0.17064008056E+03  0.00000000000E+00 0.  1.
         14    1    3    3    0    0 -0.52808037170E+02  0.30053420128E+00 -0.17569778322E+03  0.18346250336E+03  0.00000000000E+00 0. -1.
        -11    1    4    4    0    0 -0.22338509366E+02 -0.52774370906E+02 -0.28919637389E+03  0.29481975153E+03  0.00000000000E+00 0.  1.
         11    1    4    4    0    0  0.75513916074E+02 -0.10904026176E+03 -0.49805350984E+03  0.51541190214E+03  0.00000000000E+00 0. -1.
          1    1    1    2  501    0 -0.50302961552E+01  0.19738607916E+03 -0.36086583218E+03  0.41135230272E+03  0.00000000000E+00 0. -1.
<scales pt_clust_5="13000.00000" pt_clust_6="13000.00000" pt_clust_7="13000.00000" pt_clust_8="13000.00000" pt_clust_9="186.94608"></scales>
<clustering>
<clus scale="   67.281">  5  6 -1 -1</clus>
<clus scale="   87.757">  7  8 -1 -1</clus>
<clus scale="   90.056">  2  5  1 -1</clus>
<clus scale="  186.946">  1  9  2 -1</clus>
<clus scale="  186.946">  1  5  2 -1</clus>
</clustering>
</event>
<event>
 9    2  0.1033155E-004  0.1104380E+03  0.7546771E-02  0.1273489E+00
         21   -1    0    0  501  502  0.00000000000E+00  0.00000000000E+00  0.33692700625E+03  0.33692700625E+03  0.00000000000E+00 0.  1.
          2   -1    0    0  502    0 -0.00000000000E+00 -0.00000000000E+00 -0.35199329889E+03  0.35199329889E+03  0.00000000000E+00 0. -1.
         24    2    1    2    0    0  0.10534743726E+02 -0.23492379429E+02 -0.31398885488E+03  0.32508389221E+03  0.80172709001E+02 0.  0.
         23    2    1    2    0    0 -0.56130899102E+02  0.33218653685E+02  0.10253209179E+03  0.16198788884E+03  0.10711250859E+03 0.  0.
        -13    1    3    3    0    0  0.10255087999E+02 -0.20868361426E+02 -0.18849050949E+02  0.29932291261E+02  0.00000000000E+00 0.  1.
         14    1    3    3    0    0  0.27965572718E+00 -0.26240180030E+01 -0.29513980393E+03  0.29515160095E+03  0.00000000000E+00 0. -1.
        -13    1    4    4    0    0  0.30356358937E+02 -0.44859662972E+01  0.19936676709E+02  0.36593763127E+02  0.00000000000E+00 0. -1.
         13    1    4    4    0    0 -0.86487258039E+02  0.37704619982E+02  0.82595415080E+02  0.12539412571E+03  0.00000000000E+00 0.  1.
          1    1    1    2  501    0  0.45596155375E+02 -0.97262742564E+01  0.19639047045E+03  0.20184852410E+03  0.00000000000E+00 0. -1.
<scales pt_clust_5="13000.00000" pt_clust_6="13000.00000" pt_clust_7="13000.00000" pt_clust_8="13000.00000" pt_clust_9="46.62199"></scales>
<clustering>
<clus scale="   46.622">  1  9  2 -1</clus>
<clus scale="   80.173">  5  6 -1 -1</clus>
<clus scale="   84.564">  2  5  1 -1</clus>
<clus scale="  107.113">  7  8 -1 -1</clus>
<clus scale="   46.622">  1  5  2 -1</clus>
</clustering>
</event>
<event>
 9    2  0.1033155E-004  0.9285938E+02  0.7546771E-02  0.1303841E+00
         21   -1    0    0  501  502  0.00000000000E+00  0.00000000000E+00  0.61433099441E+02  0.61433099441E+02  0.00000000000E+00 0. -1.
          4   -1    0    0  502    0 -0.00000000000E+00 -0.00000000000E+00 -0.46815694325E+03  0.46815694325E+03  0.00000000000E+00 0. -1.
         24    2    1    2    0    0 -0.11098833489E+02 -0.12615443182E+02 -0.26786950115E+03  0.27976501327E+03  0.78943394233E+02 0.  0.
         23    2    1    2    0    0 -0.30997901150E+02  0.21890680691E+02 -0.16990984254E+03  0.19669679615E+03  0.91543450045E+02 0.  0.
        -11    1    3    3    0    0 -0.13773110619E+00 -0.32622952972E+02 -0.44202455183E+02  0.54937537938E+02  0.00000000000E+00 0.  1.
         12    1    3    3    0    0 -0.10961102383E+02  0.20007509789E+02 -0.22366704597E+03  0.22482747533E+03  0.00000000000E+00 0. -1.
        -11    1    4    4    0    0 -0.24394689591E+02 -0.11977174954E+02 -0.15780743752E+03  0.16013038730E+03  0.00000000000E+00 0. -1.
         11    1    4    4    0    0 -0.66032115595E+01  0.33867855645E+02 -0.12102405021E+02  0.36566408849E+02  0.00000000000E+00 0.  1.
          3    1    1    2  501    0  0.42096734640E+02 -0.92752375086E+01  0.31055499878E+02  0.53128233274E+02  0.00000000000E+00 0. -1.
<scales pt_clust_5="13000.00000" pt_clust_6="13000.00000" pt_clust_7="13000.00000" pt_clust_8="13000.00000" pt_clust_9="43.10644"></scales>
<clustering>
<clus scale="   43.106">  1  9  2 -1</clus>
<clus scale="   78.943">  5  6 -1 -1</clus>
<clus scale="   80.466">  2  5  1 -1</clus>
<clus scale="   91.543">  7  8 -1 -1</clus>
<clus scale="   43.106">  1  5  2 -1</clus>
</clustering>
</event>
<event>
 9    2  0.1033155E-004  0.9532919E+02  0.7546771E-02  0.1291975E+00
          2   -1    0    0  502    0 -0.00000000000E+00  0.00000000000E+00  0.10705210699E+04  0.10705210699E+04  0.00000000000E+00 0. -1.
         21   -1    0    0  501  502  0.00000000000E+00 -0.00000000000E+00 -0.56306631888E+02  0.56306631888E+02  0.00000000000E+00 0. -1.
         24    2    1    2    0    0  0.52574650366E+01 -0.31542952044E+02  0.85905154906E+03  0.86417064279E+03  0.88310458897E+02 0.  0.
         23    2    1    2    0    0 -0.24504976402E+02 -0.45343771954E+02  0.20939487428E+02  0.10677904087E+03  0.91141373215E+02 0.  0.
        -13    1    3    3    0    0  0.37158408396E+02 -0.23247975851E+02  0.22307177493E+03  0.22733726590E+03  0.00000000000E+00 0.  1.
         14    1    3    3    0    0 -0.31900943359E+02 -0.82949761924E+01  0.63597977413E+03  0.63683337689E+03  0.00000000000E+00 0. -1.
        -11    1    4    4    0    0 -0.12626109503E+02 -0.21970810675E+02  0.56892996412E+02  0.62281202651E+02  0.00000000000E+00 0.  1.
         11    1    4    4    0    0 -0.11878866898E+02 -0.23372961279E+02 -0.35953508984E+02  0.44497838217E+02  0.00000000000E+00 0. -1.
          1    1    1    2  501    0  0.19247511365E+02  0.76886723998E+02  0.13422340154E+03  0.15587801815E+03  0.00000000000E+00 0. -1.
<scales pt_clust_5="13000.00000" pt_clust_6="13000.00000" pt_clust_7="13000.00000" pt_clust_8="13000.00000" pt_clust_9="79.25929"></scales>
<clustering>
<clus scale="   79.259">  2  9  1 -1</clus>
<clus scale="   88.310">  5  6 -1 -1</clus>
<clus scale="   91.141">  7  8 -1 -1</clus>
<clus scale="   92.626">  1  5  2 -1</clus>
<clus scale="   79.259">  2  5  1 -1</clus>
</clustering>
</event>
<event>
 9    2  0.1033155E-004  0.9380899E+02  0.7546771E-02  0.1300993E+00
          2   -1    0    0  502    0 -0.00000000000E+00  0.00000000000E+00  0.16371278172E+03  0.16371278172E+03  0.00000000000E+00 0. -1.
         21   -1    0    0  501  502  0.00000000000E+00 -0.00000000000E+00 -0.76354086858E+02  0.76354086858E+02  0.00000000000E+00 0.  1.
         24    2    1    2    0    0 -0.47201381312E+01  0.25261022249E+02  0.68293009424E+02  0.10872940287E+03  0.80608615935E+02 0.  0.
         23    2    1    2    0    0 -0.12995381055E+02  0.39220874619E+01  0.25436868432E+01  0.93410299325E+02  0.92383715980E+02 0.  0.
        -11    1    3    3    0    0  0.27735890541E+02  0.39956078583E+02  0.34573538385E+02  0.59674931054E+02  0.00000000000E+00 0.  1.
         12    1    3    3    0    0 -0.32456028673E+02 -0.14695056334E+02  0.33719471039E+02  0.49054471814E+02  0.00000000000E+00 0. -1.
        -11    1    4    4    0    0 -0.14322124808E+02  0.38420136321E+02 -0.26054281850E+02  0.48580404863E+02  0.00000000000E+00 0.  1.
         11    1    4    4    0    0  0.13267437530E+01 -0.34498048859E+02  0.28597968694E+02  0.44829894462E+02  0.00000000000E+00 0. -1.
          1    1    1    2  501    0  0.17715519186E+02 -0.29183109711E+02  0.16521998595E+02  0.37927166385E+02  0.00000000000E+00 0. -1.
<scales pt_clust_5="13000.00000" pt_clust_6="13000.00000" pt_clust_7="13000.00000" pt_clust_8="13000.00000" pt_clust_9="34.13934"></scales>
<clustering>
<clus scale="   34.139">  2  9  1 -1</clus>
<clus scale="   80.609">  5  6 -1 -1</clus>
<clus scale="   82.238">  1  5  2 -1</clus>
<clus scale="   92.384">  7  8 -1 -1</clus>
<clus scale="   34.139">  2  5  1 -1</clus>
</clustering>
</event>
<event>
 9    2  0.1033155E-004  0.1133617E+03  0.7546771E-02  0.1257694E+00
         -1   -1    0    0    0  501 -0.00000000000E+00  0.00000000000E+00  0.15074869107E+03  0.15074869107E+03  0.00000000000E+00 0.  1.
         21   -1    0    0  501  502  0.00000000000E+00 -0.00000000000E+00 -0.11548308535E+03  0.11548308535E+03  0.00000000000E+00 0.  1.
         24    2    1    2    0    0 -0.91764599327E+01 -0.80970188200E+02  0.27681891036E+02  0.11839825232E+03  0.81311009515E+02 0.  0.
         23    2    1    2    0    0  0.27893836332E+02  0.47684338243E+02 -0.89473588517E+01  0.10622145398E+03  0.90283330891E+02 0.  0.
        -11    1    3    3    0    0  0.31652808024E+02 -0.55571486353E+02  0.29166836572E+02  0.70290786786E+02  0.00000000000E+00 0.  1.
         12    1    3    3    0    0 -0.40829267957E+02 -0.25398701847E+02 -0.14849455361E+01  0.48107465539E+02  0.00000000000E+00 0. -1.
        -11    1    4    4    0    0  0.57067905924E+02  0.41216564438E+02 -0.21797616562E+02  0.73693196148E+02  0.00000000000E+00 0.  1.
         11    1    4    4    0    0 -0.29174069592E+02  0.64677738046E+01  0.12850257711E+02  0.32528257835E+02  0.00000000000E+00 0. -1.
         -2    1    1    2    0  502 -0.18717376399E+02  0.33285849957E+02  0.16531073539E+02  0.41612070112E+02  0.00000000000E+00 0.  1.
<scales pt_clust_5="13000.00000" pt_clust_6="13000.00000" pt_clust_7="13000.00000" pt_clust_8="13000.00000" pt_clust_9="38.18756"></scales>
<clustering>
<clus scale="   38.188">  2  9  1 -1</clus>
<clus scale="   81.311">  5  6 -1 -1</clus>
<clus scale="   90.283">  7  8 -1 -1</clus>
<clus scale="  106.354">  1  5  2 -1</clus>
<clus scale="   38.188">  2  5  1 -1</clus>
</clustering>
</event>
<event>
 9    2  0.1033155E-004  0.2885626E+03  0.7546771E-02  0.1091644E+00
         -1   -1    0    0    0  501 -0.00000000000E+00  0.00000000000E+00  0.22828956541E+03  0.22828956541E+03  0.00000000000E+00 0.  1.
         21   -1    0    0  501  502  0.00000000000E+00 -0.00000000000E+00 -0.10879064270E+04  0.10879064270E+04  0.00000000000E+00 0. -1.
         23    2    1    2    0    0 -0.23847776701E+03 -0.13092893920E+03  0.82060905326E+02  0.29808032133E+03  0.90021404672E+02 0.  0.
         24    2    1    2    0    0  0.27974427954E+03  0.96608837629E+02 -0.89913867824E+03  0.94962940611E+03  0.75865122400E+02 0.  0.
        -13    1    4    4    0    0  0.44883308396E+02  0.62212141810E+01 -0.23675462967E+03  0.24105179847E+03  0.00000000000E+00 0.  1.
         14    1    4    4    0    0  0.23486097114E+03  0.90387623448E+02 -0.66238404857E+03  0.70857760763E+03  0.00000000000E+00 0. -1.
        -11    1    3    3    0    0 -0.18180571833E+03 -0.13305093428E+03  0.86198435708E+02  0.24121782821E+03  0.00000000000E+00 0.  1.
         11    1    3    3    0    0 -0.56672048685E+02  0.21219950808E+01 -0.41375303819E+01  0.56862493113E+02  0.00000000000E+00 0. -1.
         -2    1    1    2    0  502 -0.41266512521E+02  0.34320101567E+02 -0.42539088726E+02  0.68486265024E+02  0.00000000000E+00 0.  1.
<scales pt_clust_5="13000.00000" pt_clust_6="13000.00000" pt_clust_7="13000.00000" pt_clust_8="13000.00000" pt_clust_9="53.67306"></scales>
<clustering>
<clus scale="   53.673">  2  9  1 -1</clus>
<clus scale="   75.865">  5  6 -1 -1</clus>
<clus scale="   90.021">  7  8 -1 -1</clus>
<clus scale="  284.464">  2  5  1 -1</clus>
<clus scale="   53.673">  2  5  1 -1</clus>
</clustering>
</event>
<event>
 9    2  0.1033155E-004  0.9415692E+02  0.7546771E-02  0.1299988E+00
          2   -1    0    0  502    0 -0.00000000000E+00  0.00000000000E+00  0.13794294255E+03  0.13794294255E+03  0.00000000000E+00 0. -1.
         21   -1    0    0  501  502  0.00000000000E+00 -0.00000000000E+00 -0.10197932970E+03  0.10197932970E+03  0.00000000000E+00 0.  1.
         24    2    1    2    0    0 -0.23637416347E+02 -0.77659028075E+00  0.49544380163E+02  0.97542398954E+02  0.80625947709E+02 0.  0.
         23    2    1    2    0    0 -0.10048534307E+01  0.29947651786E+02 -0.29001378473E+02  0.10119750404E+03  0.92206199863E+02 0.  0.
        -11    1    3    3    0    0  0.27055671446E+02  0.67433748773E+01  0.25331432113E+01  0.27998201312E+02  0.00000000000E+00 0.  1.
         12    1    3    3    0    0 -0.50693087794E+02 -0.75199651580E+01  0.47011236952E+02  0.69544197643E+02  0.00000000000E+00 0. -1.
        -11    1    4    4    0    0  0.17202477341E+02 -0.16707523124E+02 -0.42965875631E+02  0.49205010155E+02  0.00000000000E+00 0.  1.
         11    1    4    4    0    0 -0.18207330771E+02  0.46655174910E+02  0.13964497158E+02  0.51992493887E+02  0.00000000000E+00 0. -1.
          1    1    1    2  501    0  0.24642269778E+02 -0.29171061506E+02  0.15420611153E+02  0.41182369256E+02  0.00000000000E+00 0. -1.
<scales pt_clust_5="13000.00000" pt_clust_6="13000.00000" pt_clust_7="13000.00000" pt_clust_8="13000.00000" pt_clust_9="38.18630"></scales>
<clustering>
<clus scale="   38.186">  2  9  1 -1</clus>
<clus scale="   80.626">  5  6 -1 -1</clus>
<clus scale="   82.850">  1  5  2 -1</clus>
<clus scale="   92.206">  7  8 -1 -1</clus>
<clus scale="   38.186">  2  5  1 -1</clus>
</clustering>
</event>
<event>
 9    2  0.1033155E-004  0.3653463E+03  0.7546771E-02  0.1056728E+00
         21   -1    0    0  501  502  0.00000000000E+00  0.00000000000E+00  0.12658871301E+03  0.12658871301E+03  0.00000000000E+00 0.  1.
          2   -1    0    0  502    0 -0.00000000000E+00 -0.00000000000E+00 -0.25332112450E+04  0.25332112450E+04  0.00000000000E+00 0. -1.
         23    2    1    2    0    0  0.28373369076E+03  0.21251125694E+03 -0.78052741335E+03  0.86196502182E+03  0.89971185696E+02 0.  0.
         24    2    1    2    0    0 -0.38361715282E+03 -0.47134634594E+02 -0.41960436884E+03  0.57597321628E+03  0.79331745216E+02 0.  0.
        -13    1    4    4    0    0 -0.21438129018E+03 -0.56668634598E+02 -0.20044554281E+03  0.29891317696E+03  0.00000000000E+00 0.  1.
         14    1    4    4    0    0 -0.16923586265E+03  0.95340000040E+01 -0.21915882603E+03  0.27706003932E+03  0.00000000000E+00 0. -1.
        -13    1    3    3    0    0  0.45760496233E+02  0.41618436981E+02 -0.23193051502E+03  0.24003724942E+03  0.00000000000E+00 0. -1.
         13    1    3    3    0    0  0.23797319453E+03  0.17089281996E+03 -0.54859689833E+03  0.62192777240E+03  0.00000000000E+00 0.  1.
          1    1    1    2  501    0  0.99883462066E+02 -0.16537662235E+03 -0.12064907499E+04  0.12218617200E+04  0.00000000000E+00 0. -1.
<scales pt_clust_5="13000.00000" pt_clust_6="13000.00000" pt_clust_7="13000.00000" pt_clust_8="13000.00000" pt_clust_9="193.19982"></scales>
<clustering>
<clus scale="   79.332">  5  6 -1 -1</clus>
<clus scale="   89.971">  7  8 -1 -1</clus>
<clus scale="  193.200">  1  9  2 -1</clus>
<clus scale="  362.873">  1  5  2 -1</clus>
<clus scale="  193.200">  1  5  2 -1</clus>
</clustering>
</event>
<event>
 9    2  0.1033155E-004  0.8825256E+02  0.7546771E-02  0.1315701E+00
         21   -1    0    0  501  502  0.00000000000E+00  0.00000000000E+00  0.37830661647E+03  0.37830661647E+03  0.00000000000E+00 0. -1.
          4   -1    0    0  502    0 -0.00000000000E+00 -0.00000000000E+00 -0.31192908857E+02  0.31192908857E+02  0.00000000000E+00 0. -1.
         24    2    1    2    0    0 -0.25613403158E+02  0.59549389444E+01  0.51451617202E+02  0.92585537200E+02  0.72341586011E+02 0.  0.
         23    2    1    2    0    0  0.11526039219E+02  0.84925177303E+01  0.18343016265E+03  0.20288246425E+03  0.85496767752E+02 0.  0.
        -11    1    3    3    0    0  0.52911740111E+01  0.34399909867E+02  0.26349283504E+02  0.43653580179E+02  0.00000000000E+00 0.  1.
         12    1    3    3    0    0 -0.30904577169E+02 -0.28444970922E+02  0.25102333698E+02  0.48931957021E+02  0.00000000000E+00 0. -1.
        -13    1    4    4    0    0  0.39730654747E+02 -0.21778380655E+02  0.94802870932E+02  0.10507334166E+03  0.00000000000E+00 0.  1.
         13    1    4    4    0    0 -0.28204615528E+02  0.30270898385E+02  0.88627291715E+02  0.97809122595E+02  0.00000000000E+00 0. -1.
          3    1    1    2  501    0  0.14087363939E+02 -0.14447456675E+02  0.11223192776E+03  0.11403152387E+03  0.00000000000E+00 0. -1.
<scales pt_clust_5="13000.00000" pt_clust_6="13000.00000" pt_clust_7="13000.00000" pt_clust_8="13000.00000" pt_clust_9="20.17877"></scales>
<clustering>
<clus scale="   20.179">  1  9  2 -1</clus>
<clus scale="   72.342">  5  6 -1 -1</clus>
<clus scale="   75.579">  2  5  1 -1</clus>
<clus scale="   85.497">  7  8 -1 -1</clus>
<clus scale="   20.179">  1  5  2 -1</clus>
</clustering>
</event>
<event>
 9    2  0.1033155E-004  0.1463904E+03  0.7546771E-02  0.1207363E+00
          2   -1    0    0  502    0 -0.00000000000E+00  0.00000000000E+00  0.20489676014E+03  0.20489676014E+03  0.00000000000E+00 0. -1.
         21   -1    0    0  501  502  0.00000000000E+00 -0.00000000000E+00 -0.21599012814E+03  0.21599012814E+03  0.00000000000E+00 0. -1.
         24    2    1    2    0    0 -0.10414173004E+03  0.16764836766E+02 -0.19770362126E+02  0.13423791339E+03  0.80637401272E+02 0.  0.
         23    2    1    2    0    0  0.12754512375E+03  0.49048410142E+02 -0.71832033069E+02  0.18006189423E+03  0.92676532356E+02 0.  0.
        -13    1    3    3    0    0  0.46830349336E+01  0.21018568175E+02  0.59364134753E+01  0.22337234145E+02  0.00000000000E+00 0.  1.
         14    1    3    3    0    0 -0.10882476498E+03 -0.42537314088E+01 -0.25706775601E+02  0.11190067924E+03  0.00000000000E+00 0. -1.
        -11    1    4    4    0    0  0.37529547345E+02 -0.16030058659E+02 -0.53806844003E+02  0.67532260188E+02  0.00000000000E+00 0. -1.
         11    1    4    4    0    0  0.90015576405E+02  0.65078468801E+02 -0.18025189065E+02  0.11252963404E+03  0.00000000000E+00 0.  1.
          1    1    1    2  501    0 -0.23403393708E+02 -0.65813246908E+02  0.80509027185E+02  0.10658708066E+03  0.00000000000E+00 0. -1.
<scales pt_clust_5="13000.00000" pt_clust_6="13000.00000" pt_clust_7="13000.00000" pt_clust_8="13000.00000" pt_clust_9="69.85061"></scales>
<clustering>
<clus scale="   69.851">  2  9  1 -1</clus>
<clus scale="   80.637">  5  6 -1 -1</clus>
<clus scale="   92.677">  7  8 -1 -1</clus>
<clus scale="  139.081">  1  5  2 -1</clus>
<clus scale="   69.851">  2  5  1 -1</clus>
</clustering>
</event>
<event>
 9    2  0.1033155E-004  0.9250704E+02  0.7546771E-02  0.1301640E+00
          2   -1    0    0  502    0 -0.00000000000E+00  0.00000000000E+00  0.29966612482E+03  0.29966612482E+03  0.00000000000E+00 0. -1.
         21   -1    0    0  501  502  0.00000000000E+00 -0.00000000000E+00 -0.76509219815E+02  0.76509219815E+02  0.00000000000E+00 0.  1.
         23    2    1    2    0    0  0.14600291852E+02 -0.34313325479E+02  0.17650566025E+03  0.20200115918E+03  0.90882602199E+02 0.  0.
         24    2    1    2    0    0  0.29958871125E+02 -0.26127497235E+02  0.33686403935E+02  0.97972484998E+02  0.82967788543E+02 0.  0.
        -13    1    4    4    0    0  0.37596616200E+02  0.17312167302E+02 -0.16996956114E+01  0.41425905561E+02  0.00000000000E+00 0.  1.
         14    1    4    4    0    0 -0.76377450756E+01 -0.43439664537E+02  0.35386099546E+02  0.56546579437E+02  0.00000000000E+00 0. -1.
        -11    1    3    3    0    0  0.52891686781E+02 -0.13745984298E+02  0.10327332572E+03  0.11684118461E+03  0.00000000000E+00 0.  1.
         11    1    3    3    0    0 -0.38291394929E+02 -0.20567341181E+02  0.73232334525E+02  0.85159974570E+02  0.00000000000E+00 0. -1.
          1    1    1    2  501    0 -0.44559162977E+02  0.60440822714E+02  0.12964840824E+02  0.76201700461E+02  0.00000000000E+00 0. -1.
<scales pt_clust_5="13000.00000" pt_clust_6="13000.00000" pt_clust_7="13000.00000" pt_clust_8="13000.00000" pt_clust_9="75.09069"></scales>
<clustering>
<clus scale="   75.091">  2  9  1 -1</clus>
<clus scale="   82.968">  5  6 -1 -1</clus>
<clus scale="   84.744">  2  5  1 -1</clus>
<clus scale="   90.883">  7  8 -1 -1</clus>
<clus scale="   75.091">  2  5  1 -1</clus>
</clustering>
</event>
<event>
 9    2  0.1033155E-004  0.1222228E+03  0.7546771E-02  0.1243733E+00
         21   -1    0    0  501  502  0.00000000000E+00  0.00000000000E+00  0.10329203318E+03  0.10329203318E+03  0.00000000000E+00 0.  1.
          2   -1    0    0  502    0 -0.00000000000E+00 -0.00000000000E+00 -0.26253449846E+03  0.26253449846E+03  0.00000000000E+00 0. -1.
         23    2    1    2    0    0  0.49653884063E+02 -0.84506636617E+02 -0.12873398425E+03  0.18551623718E+03  0.90757675825E+02 0.  0.
         24    2    1    2    0    0 -0.62078632719E+02  0.34017688181E+02 -0.60198642157E+02  0.12043530835E+03  0.76614797720E+02 0.  0.
        -13    1    4    4    0    0 -0.68028400247E+02  0.49285503770E+02 -0.36427325058E+02  0.91563497820E+02  0.00000000000E+00 0.  1.
         14    1    4    4    0    0  0.59497675288E+01 -0.15267815589E+02 -0.23771317099E+02  0.28871810528E+02  0.00000000000E+00 0. -1.
        -13    1    3    3    0    0 -0.11811946192E+02 -0.65272981874E+02 -0.84309265683E+02  0.10727598294E+03  0.00000000000E+00 0.  1.
         13    1    3    3    0    0  0.61465830255E+02 -0.19233654743E+02 -0.44424718569E+02  0.78240254240E+02  0.00000000000E+00 0. -1.
          1    1    1    2  501    0  0.12424748656E+02  0.50488948436E+02  0.29690161129E+02  0.59874986106E+02  0.00000000000E+00 0. -1.
<scales pt_clust_5="13000.00000" pt_clust_6="13000.00000" pt_clust_7="13000.00000" pt_clust_8="13000.00000" pt_clust_9="51.99527"></scales>
<clustering>
<clus scale="   51.995">  1  9  2 -1</clus>
<clus scale="   76.615">  5  6 -1 -1</clus>
<clus scale="   90.758">  7  8 -1 -1</clus>
<clus scale="  112.122">  1  5  2 -1</clus>
<clus scale="   51.995">  1  5  2 -1</clus>
</clustering>
</event>
<event>
 9    2  0.1033155E-004  0.1067461E+03  0.7546771E-02  0.1270630E+00
         21   -1    0    0  501  502  0.00000000000E+00  0.00000000000E+00  0.10099810675E+03  0.10099810675E+03  0.00000000000E+00 0.  1.
         -1   -1    0    0    0  501 -0.00000000000E+00 -0.00000000000E+00 -0.23811746955E+03  0.23811746955E+03  0.00000000000E+00 0.  1.
         24    2    1    2    0    0 -0.60487530063E+02 -0.20835876312E+02 -0.17703767133E+03  0.20460356009E+03  0.80171096390E+02 0.  0.
         23    2    1    2    0    0  0.27806546703E+02  0.14282739133E+02  0.26148385022E+02  0.98448169023E+02  0.89616422982E+02 0.  0.
        -11    1    3    3    0    0 -0.78912797647E+02 -0.18111603279E+02 -0.12132193714E+03  0.14585702670E+03  0.00000000000E+00 0.  1.
         12    1    3    3    0    0  0.18425267584E+02 -0.27242730334E+01 -0.55715734192E+02  0.58746533393E+02  0.00000000000E+00 0. -1.
        -11    1    4    4    0    0  0.29723447530E+02 -0.27932470550E+02 -0.10931414375E+02  0.42227977271E+02  0.00000000000E+00 0. -1.
         11    1    4    4    0    0 -0.19169008278E+01  0.42215209683E+02  0.37079799396E+02  0.56220191752E+02  0.00000000000E+00 0.  1.
         -2    1    1    2    0  502  0.32680983361E+02  0.65531371794E+01  0.13769923517E+02  0.36063847188E+02  0.00000000000E+00 0.  1.
<scales pt_clust_5="13000.00000" pt_clust_6="13000.00000" pt_clust_7="13000.00000" pt_clust_8="13000.00000" pt_clust_9="33.33152"></scales>
<clustering>
<clus scale="   33.332">  1  9  2 -1</clus>
<clus scale="   80.171">  5  6 -1 -1</clus>
<clus scale="   89.616">  7  8 -1 -1</clus>
<clus scale="   98.950">  2  5  1 -1</clus>
<clus scale="   33.332">  1  5  2 -1</clus>
</clustering>
</event>
<event>
 9    2  0.1033155E-004  0.1004136E+03  0.7546771E-02  0.1284370E+00
         -1   -1    0    0    0  501 -0.00000000000E+00  0.00000000000E+00  0.50720662995E+03  0.50720662995E+03  0.00000000000E+00 0.  1.
         21   -1    0    0  501  502  0.00000000000E+00 -0.00000000000E+00 -0.45700589255E+02  0.45700589255E+02  0.00000000000E+00 0.  1.
         23    2    1    2    0    0 -0.55861093021E+02  0.27826091281E+01  0.34778393676E+03  0.36356481411E+03  0.89986125372E+02 0.  0.
         24    2    1    2    0    0  0.25755832867E+02  0.13301782105E+02  0.12694498920E+03  0.15273804709E+03  0.79834706815E+02 0.  0.
        -11    1    4    4    0    0 -0.67534444183E+01  0.41398973477E+02  0.61063582108E+02  0.74082690801E+02  0.00000000000E+00 0.  1.
         12    1    4    4    0    0  0.32509277285E+02 -0.28097191373E+02  0.65881407094E+02  0.78655356292E+02  0.00000000000E+00 0. -1.
        -13    1    3    3    0    0 -0.73084133418E+02  0.25485966442E+02  0.25926513805E+03  0.27057205482E+03  0.00000000000E+00 0.  1.
         13    1    3    3    0    0  0.17223040396E+02 -0.22703357314E+02  0.88518798717E+02  0.92992759288E+02  0.00000000000E+00 0. -1.
         -2    1    1    2    0  502  0.30105260154E+02 -0.16084391233E+02 -0.13222885269E+02  0.36604358007E+02  0.00000000000E+00 0.  1.
<scales pt_clust_5="13000.00000" pt_clust_6="13000.00000" pt_clust_7="13000.00000" pt_clust_8="13000.00000" pt_clust_9="34.13260"></scales>
<clustering>
<clus scale="   34.133">  2  9  1 -1</clus>
<clus scale="   79.835">  5  6 -1 -1</clus>
<clus scale="   89.986">  7  8 -1 -1</clus>
<clus scale="   91.427">  2  5  1 -1</clus>
<clus scale="   34.133">  2  5  1 -1</clus>
</clustering>
</event>
<event>
 9    2  0.1033155E-004  0.1273275E+03  0.7546771E-02  0.1235151E+00
         21   -1    0    0  501  502  0.00000000000E+00  0.00000000000E+00  0.41894243945E+02  0.41894243945E+02  0.00000000000E+00 0. -1.
          2   -1    0    0  502    0 -0.00000000000E+00 -0.00000000000E+00 -0.61909402990E+03  0.61909402990E+03  0.00000000000E+00 0. -1.
         23    2    1    2    0    0 -0.70542822435E+02  0.15682882927E+02 -0.27033555584E+03  0.29487312173E+03  0.92987109600E+02 0.  0.
         24    2    1    2    0    0  0.11830475759E+03  0.12464667679E+00 -0.18055891085E+03  0.23015885725E+03  0.79847029225E+02 0.  0.
        -11    1    4    4    0    0  0.65819315987E+02 -0.39212111125E+02 -0.10705114292E+03  0.13164239141E+03  0.00000000000E+00 0.  1.
         12    1    4    4    0    0  0.52485441600E+02  0.39336757802E+02 -0.73507767938E+02  0.98516465840E+02  0.00000000000E+00 0. -1.
        -11    1    3    3    0    0 -0.32599090655E+02 -0.32051035593E+02 -0.18118498216E+03  0.18686349926E+03  0.00000000000E+00 0.  1.
         11    1    3    3    0    0 -0.37943731780E+02  0.47733918520E+02 -0.89150573679E+02  0.10800962247E+03  0.00000000000E+00 0. -1.
          1    1    1    2  501    0 -0.47761935152E+02 -0.15807529604E+02 -0.12630531926E+03  0.13595629487E+03  0.00000000000E+00 0. -1.
<scales pt_clust_5="13000.00000" pt_clust_6="13000.00000" pt_clust_7="13000.00000" pt_clust_8="13000.00000" pt_clust_9="50.30987"></scales>
<clustering>
<clus scale="   50.310">  1  9  2 -1</clus>
<clus scale="   79.847">  5  6 -1 -1</clus>
<clus scale="   92.987">  7  8 -1 -1</clus>
<clus scale="  118.073">  1  5  2 -1</clus>
<clus scale="   50.310">  1  5  2 -1</clus>
</clustering>
</event>
<event>
 9    2  0.1033155E-004  0.1390265E+03  0.7546771E-02  0.1234995E+00
          2   -1    0    0  502    0 -0.00000000000E+00  0.00000000000E+00  0.43094305496E+03  0.43094305496E+03  0.00000000000E+00 0. -1.
         21   -1    0    0  501  502  0.00000000000E+00 -0.00000000000E+00 -0.69919105283E+02  0.69919105283E+02  0.00000000000E+00 0. -1.
         23    2    1    2    0    0 -0.18173431780E+02  0.50254106445E+01  0.83509889445E+02  0.12350557435E+03  0.89017958216E+02 0.  0.
         24    2    1    2    0    0  0.44861610862E+02  0.10502142078E+03  0.12555350981E+03  0.18784518018E+03  0.80498850556E+02 0.  0.
        -13    1    4    4    0    0  0.39537276461E+02  0.93844051226E+02  0.54069722239E+02  0.11529716841E+03  0.00000000000E+00 0.  1.
         14    1    4    4    0    0  0.53243344011E+01  0.11177369555E+02  0.71483787567E+02  0.72548011770E+02  0.00000000000E+00 0. -1.
        -13    1    3    3    0    0 -0.75339602289E+01 -0.21137221888E+02  0.91453670953E+02  0.94166430519E+02  0.00000000000E+00 0.  1.
         13    1    3    3    0    0 -0.10639471551E+02  0.26162632533E+02 -0.79437815087E+01  0.29339143828E+02  0.00000000000E+00 0. -1.
          1    1    1    2  501    0 -0.26688179082E+02 -0.11004683143E+03  0.15196055042E+03  0.18951140571E+03  0.00000000000E+00 0. -1.
<scales pt_clust_5="13000.00000" pt_clust_6="13000.00000" pt_clust_7="13000.00000" pt_clust_8="13000.00000" pt_clust_9="113.35040"></scales>
<clustering>
<clus scale="   80.499">  5  6 -1 -1</clus>
<clus scale="   89.018">  7  8 -1 -1</clus>
<clus scale="   90.993">  1  7  2 -1</clus>
<clus scale="  113.350">  2  9  1 -1</clus>
<clus scale="  113.350">  2  5  1 -1</clus>
</clustering>
</event>
<event>
 9    2  0.1033155E-004  0.1240268E+03  0.7546771E-02  0.1240054E+00
         21   -1    0    0  501  502  0.00000000000E+00  0.00000000000E+00  0.40812972056E+03  0.40812972056E+03  0.00000000000E+00 0. -1.
          4   -1    0    0  502    0 -0.00000000000E+00 -0.00000000000E+00 -0.27053721000E+03  0.27053721000E+03  0.00000000000E+00 0. -1.
         24    2    1    2    0    0 -0.22736193793E+02  0.78680042397E+02  0.12032741430E+02  0.11482531245E+03  0.79577521535E+02 0.  0.
         23    2    1    2    0    0  0.53822482967E+02 -0.81887709669E+02  0.33044885793E+03  0.35658287833E+03  0.91391710477E+02 0.  0.
        -13    1    3    3    0    0  0.27088023852E+02  0.34137775969E+02 -0.95149752423E+01  0.44605868875E+02  0.00000000000E+00 0.  1.
         14    1    3    3    0    0 -0.49824217644E+02  0.44542266429E+02  0.21547716672E+02  0.70219443577E+02  0.00000000000E+00 0. -1.
        -11    1    4    4    0    0  0.76241432179E+02 -0.71299278502E+02  0.29794873866E+03  0.31570523272E+03  0.00000000000E+00 0. -1.
         11    1    4    4    0    0 -0.22418949212E+02 -0.10588431168E+02  0.32500119266E+02  0.40877645611E+02  0.00000000000E+00 0.  1.
          3    1    1    2  501    0 -0.31086289175E+02  0.32076672721E+01 -0.20488908880E+03  0.20725873978E+03  0.00000000000E+00 0. -1.
<scales pt_clust_5="13000.00000" pt_clust_6="13000.00000" pt_clust_7="13000.00000" pt_clust_8="13000.00000" pt_clust_9="31.25136"></scales>
<clustering>
<clus scale="   31.251">  1  9  2 -1</clus>
<clus scale="   79.578">  5  6 -1 -1</clus>
<clus scale="   91.392">  7  8 -1 -1</clus>
<clus scale="  115.598">  2  5  1 -1</clus>
<clus scale="   31.251">  1  5  2 -1</clus>
</clustering>
</event>
<event>
 9    2  0.1033155E-004  0.1351703E+03  0.7546771E-02  0.1221323E+00
          2   -1    0    0  502    0 -0.00000000000E+00  0.00000000000E+00  0.78856239593E+03  0.78856239593E+03  0.00000000000E+00 0. -1.
         21   -1    0    0  501  502  0.00000000000E+00 -0.00000000000E+00 -0.25499839931E+03  0.25499839931E+03  0.00000000000E+00 0. -1.
         24    2    1    2    0    0  0.10804037300E+03 -0.19306000777E+02  0.73929302510E+03  0.75151034758E+03  0.78537772444E+02 0.  0.
         23    2    1    2    0    0 -0.36188893736E+02 -0.50187053499E+02 -0.82856109296E+02  0.13365324462E+03  0.84673954565E+02 0.  0.
        -13    1    3    3    0    0  0.34103426936E+02 -0.29469800101E+02  0.12851828068E+03  0.13619273591E+03  0.00000000000E+00 0.  1.
         14    1    3    3    0    0  0.73936946062E+02  0.10163799324E+02  0.61077474442E+03  0.61531761167E+03  0.00000000000E+00 0. -1.
        -13    1    4    4    0    0 -0.59291685237E+02 -0.33608773981E+02 -0.79968526650E+02  0.10507149414E+03  0.00000000000E+00 0.  1.
         13    1    4    4    0    0  0.23102791502E+02 -0.16578279518E+02 -0.28875826459E+01  0.28581750480E+02  0.00000000000E+00 0. -1.
          1    1    1    2  501    0 -0.71851479262E+02  0.69493054276E+02 -0.12287291917E+03  0.15839720304E+03  0.00000000000E+00 0. -1.
<scales pt_clust_5="13000.00000" pt_clust_6="13000.00000" pt_clust_7="13000.00000" pt_clust_8="13000.00000" pt_clust_9="99.95959"></scales>
<clustering>
<clus scale="   78.538">  5  6 -1 -1</clus>
<clus scale="   84.674">  7  8 -1 -1</clus>
<clus scale="   99.960">  2  9  1 -1</clus>
<clus scale="  131.414">  1  5  2 -1</clus>
<clus scale="   99.960">  2  5  1 -1</clus>
</clustering>
</event>
<event>
 9    2  0.1033155E-004  0.9781750E+02  0.7546771E-02  0.1290355E+00
          2   -1    0    0  502    0 -0.00000000000E+00  0.00000000000E+00  0.12199160292E+03  0.12199160292E+03  0.00000000000E+00 0. -1.
         21   -1    0    0  501  502  0.00000000000E+00 -0.00000000000E+00 -0.17226615620E+03  0.17226615620E+03  0.00000000000E+00 0.  1.
         24    2    1    2    0    0  0.61690866626E+01 -0.78144880659E+01 -0.30680201578E+02  0.87232776473E+02  0.81050346503E+02 0.  0.
         23    2    1    2    0    0 -0.70083160953E+02  0.30520295152E+02 -0.54292210609E+02  0.13083768725E+03  0.91256333520E+02 0.  0.
        -11    1    3    3    0    0  0.94404170218E+01  0.28450615174E+02  0.10960776993E+02  0.31917042620E+02  0.00000000000E+00 0.  1.
         12    1    3    3    0    0 -0.32713303592E+01 -0.36265103240E+02 -0.41640978571E+02  0.55315733853E+02  0.00000000000E+00 0. -1.
        -11    1    4    4    0    0 -0.18619606880E+02 -0.26588320051E+02 -0.41848051209E+02  0.52961192523E+02  0.00000000000E+00 0.  1.
         11    1    4    4    0    0 -0.51463554073E+02  0.57108615202E+02 -0.12444159400E+02  0.77876494730E+02  0.00000000000E+00 0. -1.
          1    1    1    2  501    0  0.63914074290E+02 -0.22705807086E+02  0.34697858907E+02  0.76187295401E+02  0.00000000000E+00 0. -1.
<scales pt_clust_5="13000.00000" pt_clust_6="13000.00000" pt_clust_7="13000.00000" pt_clust_8="13000.00000" pt_clust_9="67.82748"></scales>
<clustering>
<clus scale="   67.827">  2  9  1 -1</clus>
<clus scale="   81.050">  5  6 -1 -1</clus>
<clus scale="   88.373">  1  5  2 -1</clus>
<clus scale="   91.256">  7  8 -1 -1</clus>
<clus scale="   67.827">  2  5  1 -1</clus>
</clustering>
</event>
<event>
 9    2  0.1033155E-004  0.9580129E+02  0.7546771E-02  0.1294731E+00
         -1   -1    0    0    0  501 -0.00000000000E+00  0.00000000000E+00  0.12275974194E+03  0.12275974194E+03  0.00000000000E+00 0.  1.
         21   -1    0    0  501  502  0.00000000000E+00 -0.00000000000E+00 -0.33459751517E+03  0.33459751517E+03  0.00000000000E+00 0.  1.
         24    2    1    2    0    0 -0.10951528409E+02 -0.34518733820E+02  0.77151421289E+02  0.11804074922E+03  0.81668829486E+02 0.  0.
         23    2    1    2    0    0  0.40612336514E+01 -0.33131089094E+01 -0.65315711704E+02  0.11236155334E+03  0.91277084550E+02 0.  0.
        -11    1    3    3    0    0 -0.28406978462E+02 -0.71842349839E+01  0.80277565552E+02  0.85457926423E+02  0.00000000000E+00 0.  1.
         12    1    3    3    0    0  0.17455450053E+02 -0.27334498837E+02 -0.31261442631E+01  0.32582822793E+02  0.00000000000E+00 0. -1.
        -11    1    4    4    0    0  0.32714893809E+02 -0.35012610596E+02 -0.27189292466E+02  0.55094507916E+02  0.00000000000E+00 0.  1.
         11    1    4    4    0    0 -0.28653660157E+02  0.31699501687E+02 -0.38126419238E+02  0.57267045423E+02  0.00000000000E+00 0. -1.
         -2    1    1    2    0  502  0.68902947573E+01  0.37831842730E+02 -0.22367348281E+03  0.22695495456E+03  0.00000000000E+00 0.  1.
<scales pt_clust_5="13000.00000" pt_clust_6="13000.00000" pt_clust_7="13000.00000" pt_clust_8="13000.00000" pt_clust_9="38.45419"></scales>
<clustering>
<clus scale="   38.454">  2  9  1 -1</clus>
<clus scale="   81.669">  5  6 -1 -1</clus>
<clus scale="   86.696">  1  5  2 -1</clus>
<clus scale="   91.277">  7  8 -1 -1</clus>
<clus scale="   38.454">  2  5  1 -1</clus>
</clustering>
</event>
<event>
 9    2  0.1033155E-004  0.1034690E+03  0.7546771E-02  0.1278117E+00
         21   -1    0    0  501  502  0.00000000000E+00  0.00000000000E+00  0.22404246963E+02  0.22404246963E+02  0.00000000000E+00 0. -1.
          4   -1    0    0  502    0 -0.00000000000E+00 -0.00000000000E+00 -0.67800793246E+03  0.67800793246E+03  0.00000000000E+00 0. -1.
         24    2    1    2    0    0  0.46120255995E+02  0.66399390389E+01 -0.31863755895E+03  0.33187419123E+03  0.80245984478E+02 0.  0.
         23    2    1    2    0    0 -0.46231942731E+02 -0.38527847822E+02 -0.19930554396E+03  0.22723233651E+03  0.91049696957E+02 0.  0.
        -11    1    3    3    0    0  0.62633068350E+02  0.77121006059E+01 -0.30156943443E+03  0.30810144681E+03  0.00000000000E+00 0.  1.
         12    1    3    3    0    0 -0.16512812355E+02 -0.10721615669E+01 -0.17068124526E+02  0.23772744418E+02  0.00000000000E+00 0. -1.
        -13    1    4    4    0    0  0.19295717384E+02 -0.19465752826E+02 -0.16236285802E+02  0.31856823744E+02  0.00000000000E+00 0. -1.
         13    1    4    4    0    0 -0.65527660114E+02 -0.19062094996E+02 -0.18306925816E+03  0.19537551277E+03  0.00000000000E+00 0.  1.
          3    1    1    2  501    0  0.11168673569E+00  0.31887908783E+02 -0.13766058258E+03  0.14130565168E+03  0.00000000000E+00 0. -1.
<scales pt_clust_5="13000.00000" pt_clust_6="13000.00000" pt_clust_7="13000.00000" pt_clust_8="13000.00000" pt_clust_9="31.88812"></scales>
<clustering>
<clus scale="   31.888">  1  9  2 -1</clus>
<clus scale="   80.246">  5  6 -1 -1</clus>
<clus scale="   91.050">  7  8 -1 -1</clus>
<clus scale="   94.102">  2  5  1 -1</clus>
<clus scale="   31.888">  1  5  2 -1</clus>
</clustering>
</event>
<event>
 9    2  0.1033155E-004  0.1635469E+03  0.7546771E-02  0.1212000E+00
         -1   -1    0    0    0  501 -0.00000000000E+00  0.00000000000E+00  0.16621929702E+03  0.16621929702E+03  0.00000000000E+00 0.  1.
         21   -1    0    0  501  502  0.00000000000E+00 -0.00000000000E+00 -0.23790067461E+03  0.23790067461E+03  0.00000000000E+00 0. -1.
         24    2    1    2    0    0 -0.38554459081E+01 -0.40388086667E+02 -0.31967357461E+02  0.95823142257E+02  0.80709978572E+02 0.  0.
         23    2    1    2    0    0  0.13452977503E+03  0.45467153986E+02 -0.52193291051E+02  0.17692975047E+03  0.91730444837E+02 0.  0.
        -11    1    3    3    0    0  0.12390271302E+02 -0.41957776379E+02  0.14882991066E+02  0.46211224228E+02  0.00000000000E+00 0.  1.
         12    1    3    3    0    0 -0.16245717210E+02  0.15696897112E+01 -0.46850348527E+02  0.49611918029E+02  0.00000000000E+00 0. -1.
        -13    1    4    4    0    0  0.50358156377E+02  0.63045114478E+01 -0.65803531395E+02  0.83101116252E+02  0.00000000000E+00 0. -1.
         13    1    4    4    0    0  0.84171618654E+02  0.39162642538E+02  0.13610240344E+02  0.93828634220E+02  0.00000000000E+00 0.  1.
         -2    1    1    2    0  502 -0.13067432912E+03 -0.50790673186E+01  0.12479270923E+02  0.13136707890E+03  0.00000000000E+00 0.  1.
<scales pt_clust_5="13000.00000" pt_clust_6="13000.00000" pt_clust_7="13000.00000" pt_clust_8="13000.00000" pt_clust_9="135.39992"></scales>
<clustering>
<clus scale="   80.710">  5  6 -1 -1</clus>
<clus scale="   90.334">  1  5  2 -1</clus>
<clus scale="   91.730">  7  8 -1 -1</clus>
<clus scale="  135.400">  2  9  1 -1</clus>
<clus scale="  135.400">  2  5  1 -1</clus>
</clustering>
</event>
<event>
 9    2  0.1033155E-004  0.9387453E+02  0.7546771E-02  0.1301038E+00
         21   -1    0    0  501  502  0.00000000000E+00  0.00000000000E+00  0.56377920486E+02  0.56377920486E+02  0.00000000000E+00 0.  1.
          2   -1    0    0  502    0 -0.00000000000E+00 -0.00000000000E+00 -0.39673567088E+03  0.39673567088E+03  0.00000000000E+00 0. -1.
         24    2    1    2    0    0 -0.34196073450E+01  0.21001120819E+02 -0.29355056464E+03  0.30506709101E+03  0.80257430993E+02 0.  0.
         23    2    1    2    0    0  0.16540101487E+02  0.18426633650E+02 -0.17524968408E+02  0.97212029353E+02  0.92357665347E+02 0.  0.
        -13    1    3    3    0    0 -0.15638537043E+02 -0.27389481370E+02 -0.86029979897E+02  0.91629170964E+02  0.00000000000E+00 0.  1.
         14    1    3    3    0    0  0.12218929698E+02  0.48390602189E+02 -0.20752058474E+03  0.21343792005E+03  0.00000000000E+00 0. -1.
        -13    1    4    4    0    0 -0.36378813863E+02 -0.39928276826E+01  0.16252931235E+01  0.36633350225E+02  0.00000000000E+00 0.  1.
         13    1    4    4    0    0  0.52918915350E+02  0.22419461333E+02 -0.19150261531E+02  0.60578679129E+02  0.00000000000E+00 0. -1.
          1    1    1    2  501    0 -0.13120494142E+02 -0.39427754469E+02 -0.29282217348E+02  0.50834471000E+02  0.00000000000E+00 0. -1.
<scales pt_clust_5="13000.00000" pt_clust_6="13000.00000" pt_clust_7="13000.00000" pt_clust_8="13000.00000" pt_clust_9="41.55352"></scales>
<clustering>
<clus scale="   41.554">  1  9  2 -1</clus>
<clus scale="   80.257">  5  6 -1 -1</clus>
<clus scale="   81.998">  2  5  1 -1</clus>
<clus scale="   92.358">  7  8 -1 -1</clus>
<clus scale="   41.554">  1  5  2 -1</clus>
</clustering>
</event>
<event>
 9    2  0.1033155E-004  0.1168812E+03  0.7546771E-02  0.1250952E+00
          2   -1    0    0  502    0 -0.00000000000E+00  0.00000000000E+00  0.66451713059E+03  0.66451713059E+03  0.00000000000E+00 0. -1.
         21   -1    0    0  501  502  0.00000000000E+00 -0.00000000000E+00 -0.39826691802E+02  0.39826691802E+02  0.00000000000E+00 0. -1.
         24    2    1    2    0    0 -0.51021312671E+02  0.30648992752E+02  0.29708522689E+03  0.31369797844E+03  0.81266564674E+02 0.  0.
         23    2    1    2    0    0  0.76261046757E+02 -0.89000024002E+02  0.25165683459E+03  0.29160018256E+03  0.89234256602E+02 0.  0.
        -13    1    3    3    0    0  0.12811853298E+01  0.45443785403E+02  0.15655495949E+03  0.16302218993E+03  0.00000000000E+00 0.  1.
         14    1    3    3    0    0 -0.52302498001E+02 -0.14794792651E+02  0.14053026740E+03  0.15067578851E+03  0.00000000000E+00 0. -1.
        -11    1    4    4    0    0  0.61600420829E+02 -0.29011750776E+02  0.19939393414E+03  0.21069939369E+03  0.00000000000E+00 0.  1.
         11    1    4    4    0    0  0.14660625928E+02 -0.59988273226E+02  0.52262900450E+02  0.80900788876E+02  0.00000000000E+00 0. -1.
          1    1    1    2  501    0 -0.25239734086E+02  0.58351031251E+02  0.75948377306E+02  0.99045661390E+02  0.00000000000E+00 0. -1.
<scales pt_clust_5="13000.00000" pt_clust_6="13000.00000" pt_clust_7="13000.00000" pt_clust_8="13000.00000" pt_clust_9="63.57584"></scales>
<clustering>
<clus scale="   63.576">  2  9  1 -1</clus>
<clus scale="   81.267">  5  6 -1 -1</clus>
<clus scale="   89.234">  7  8 -1 -1</clus>
<clus scale="  110.918">  1  5  2 -1</clus>
<clus scale="   63.576">  2  5  1 -1</clus>
</clustering>
</event>
<event>
 9    2  0.1033155E-004  0.2709643E+03  0.7546771E-02  0.1100729E+00
          2   -1    0    0  502    0 -0.00000000000E+00  0.00000000000E+00  0.10241296186E+04  0.10241296186E+04  0.00000000000E+00 0. -1.
         21   -1    0    0  501  502  0.00000000000E+00 -0.00000000000E+00 -0.59394830635E+02  0.59394830635E+02  0.00000000000E+00 0. -1.
         24    2    1    2    0    0  0.67357281600E+02  0.25013975106E+02  0.14834374577E+03  0.18325173222E+03  0.80078886836E+02 0.  0.
         23    2    1    2    0    0  0.57595060908E+02  0.12243041851E+03  0.22469221493E+03  0.27780951385E+03  0.91570388865E+02 0.  0.
        -11    1    3    3    0    0  0.49830857843E+02  0.95319883026E+01  0.15139369628E+03  0.15966848301E+03  0.00000000000E+00 0.  1.
         12    1    3    3    0    0  0.17526423757E+02  0.15481986803E+02 -0.30499505079E+01  0.23583249207E+02  0.00000000000E+00 0. -1.
        -13    1    4    4    0    0  0.57955496216E+02  0.81538252941E+02  0.81928322519E+02  0.12930420049E+03  0.00000000000E+00 0.  1.
         13    1    4    4    0    0 -0.36043530821E+00  0.40892165571E+02  0.14276389241E+03  0.14850531336E+03  0.00000000000E+00 0. -1.
          1    1    1    2  501    0 -0.12495234251E+03 -0.14744439362E+03  0.59169882722E+03  0.62246320312E+03  0.00000000000E+00 0. -1.
<scales pt_clust_5="13000.00000" pt_clust_6="13000.00000" pt_clust_7="13000.00000" pt_clust_8="13000.00000" pt_clust_9="193.26918"></scales>
<clustering>
<clus scale="   80.079">  5  6 -1 -1</clus>
<clus scale="   91.570">  7  8 -1 -1</clus>
<clus scale="  106.628">  5  7 -1 -1</clus>
<clus scale="  193.269">  2  9  1 -1</clus>
<clus scale="  193.269">  2  5  1 -1</clus>
</clustering>
</event>
<event>
 9    2  0.1033155E-004  0.1611873E+03  0.7546771E-02  0.1189425E+00
         21   -1    0    0  501  502  0.00000000000E+00  0.00000000000E+00  0.43060007608E+02  0.43060007608E+02  0.00000000000E+00 0.  1.
          2   -1    0    0  502    0 -0.00000000000E+00 -0.00000000000E+00 -0.92272653539E+03  0.92272653539E+03  0.00000000000E+00 0. -1.
         23    2    1    2    0    0 -0.56624896545E+02  0.13869969552E+03 -0.36606428697E+03  0.40638117993E+03  0.93266375292E+02 0.  0.
         24    2    1    2    0    0  0.81303858019E+02 -0.85460440313E+02 -0.23667966199E+03  0.27633366880E+03  0.80182478921E+02 0.  0.
        -13    1    4    4    0    0  0.81807854568E+02 -0.83373699636E+02 -0.15233954917E+03  0.19196623948E+03  0.00000000000E+00 0.  1.
         14    1    4    4    0    0 -0.50399654925E+00 -0.20867406770E+01 -0.84340112818E+02  0.84367429316E+02  0.00000000000E+00 0. -1.
        -11    1    3    3    0    0 -0.33954088962E+02  0.14787579108E+03 -0.30672568255E+03  0.34219990368E+03  0.00000000000E+00 0.  1.
         11    1    3    3    0    0 -0.22670807583E+02 -0.91760955593E+01 -0.59338604428E+02  0.64181276254E+02  0.00000000000E+00 0. -1.
          1    1    1    2  501    0 -0.24678961473E+02 -0.53239255207E+02 -0.27692257882E+03  0.28307169427E+03  0.00000000000E+00 0. -1.
<scales pt_clust_5="13000.00000" pt_clust_6="13000.00000" pt_clust_7="13000.00000" pt_clust_8="13000.00000" pt_clust_9="58.68111"></scales>
<clustering>
<clus scale="   58.681">  1  9  2 -1</clus>
<clus scale="   80.182">  5  6 -1 -1</clus>
<clus scale="   93.266">  7  8 -1 -1</clus>
<clus scale="  153.987">  1  5  2 -1</clus>
<clus scale="   58.681">  1  5  2 -1</clus>
</clustering>
</event>
<event>
 9    2  0.1033155E-004  0.4462256E+03  0.7546771E-02  0.1029014E+00
         21   -1    0    0  501  502  0.00000000000E+00  0.00000000000E+00  0.32903740176E+03  0.32903740176E+03  0.00000000000E+00 0. -1.
          2   -1    0    0  502    0 -0.00000000000E+00 -0.00000000000E+00 -0.12572475778E+04  0.12572475778E+04  0.00000000000E+00 0. -1.
         24    2    1    2    0    0 -0.20608169429E+03  0.42776425677E+03 -0.90703192282E+03  0.10268549645E+04  0.79197759025E+02 0.  0.
         23    2    1    2    0    0  0.27506821291E+02 -0.35035597043E+03 -0.33534084331E+02  0.36440772244E+03  0.90346677463E+02 0.  0.
        -13    1    3    3    0    0 -0.30349096472E+02  0.10655861410E+03 -0.15615955653E+03  0.19147222512E+03  0.00000000000E+00 0.  1.
         14    1    3    3    0    0 -0.17573259782E+03  0.32120564267E+03 -0.75087236629E+03  0.83538273940E+03  0.00000000000E+00 0. -1.
        -13    1    4    4    0    0  0.17080906906E+02 -0.95728583501E+02 -0.49408570048E+02  0.10907303000E+03  0.00000000000E+00 0.  1.
         13    1    4    4    0    0  0.10425914385E+02 -0.25462738693E+03  0.15874485717E+02  0.25533469244E+03  0.00000000000E+00 0. -1.
          1    1    1    2  501    0  0.17857487300E+03 -0.77408286344E+02  0.12355831093E+02  0.19502229263E+03  0.00000000000E+00 0. -1.
<scales pt_clust_5="13000.00000" pt_clust_6="13000.00000" pt_clust_7="13000.00000" pt_clust_8="13000.00000" pt_clust_9="194.63049"></scales>
<clustering>
<clus scale="   79.198">  5  6 -1 -1</clus>
<clus scale="   90.347">  7  8 -1 -1</clus>
<clus scale="  194.630">  1  9  2 -1</clus>
<clus scale="  444.103">  2  5  1 -1</clus>
<clus scale="  194.630">  1  5  2 -1</clus>
</clustering>
</event>
<event>
 9    2  0.1033155E-004  0.1453878E+03  0.7546771E-02  0.1207464E+00
         21   -1    0    0  501  502  0.00000000000E+00  0.00000000000E+00  0.87697971850E+02  0.87697971850E+02  0.00000000000E+00 0.  1.
          2   -1    0    0  502    0 -0.00000000000E+00 -0.00000000000E+00 -0.60066309357E+03  0.60066309357E+03  0.00000000000E+00 0. -1.
         24    2    1    2    0    0 -0.13156159925E+03  0.28758796739E+02 -0.41120210686E+03  0.44050695876E+03  0.82605600540E+02 0.  0.
         23    2    1    2    0    0  0.53335089355E+02 -0.72801088106E+02 -0.94079701733E+02  0.15775336538E+03  0.88828507948E+02 0.  0.
        -13    1    3    3    0    0 -0.14138934621E+03  0.32008360531E+02 -0.39892470732E+03  0.42444835313E+03  0.00000000000E+00 0.  1.
         14    1    3    3    0    0  0.98277469621E+01 -0.32495637916E+01 -0.12277399543E+02  0.16058605629E+02  0.00000000000E+00 0. -1.
        -13    1    4    4    0    0  0.16174134553E+02 -0.70465374139E+02 -0.20272928968E+02  0.75086371799E+02  0.00000000000E+00 0.  1.
         13    1    4    4    0    0  0.37160954802E+02 -0.23357139674E+01 -0.73806772765E+02  0.82666993580E+02  0.00000000000E+00 0. -1.
          1    1    1    2  501    0  0.78226509895E+02  0.44042291367E+02 -0.76833131276E+01  0.90100741284E+02  0.00000000000E+00 0. -1.
<scales pt_clust_5="13000.00000" pt_clust_6="13000.00000" pt_clust_7="13000.00000" pt_clust_8="13000.00000" pt_clust_9="89.77255"></scales>
<clustering>
<clus scale="   82.606">  5  6 -1 -1</clus>
<clus scale="   88.829">  7  8 -1 -1</clus>
<clus scale="   89.773">  1  9  2 -1</clus>
<clus scale="  141.671">  2  5  1 -1</clus>
<clus scale="   89.773">  1  5  2 -1</clus>
</clustering>
</event>
<event>
 9    2  0.1033155E-004  0.1619471E+03  0.7546771E-02  0.1188562E+00
         21   -1    0    0  501  502  0.00000000000E+00  0.00000000000E+00  0.37599187459E+03  0.37599187459E+03  0.00000000000E+00 0. -1.
          2   -1    0    0  502    0 -0.00000000000E+00 -0.00000000000E+00 -0.36099256808E+03  0.36099256808E+03  0.00000000000E+00 0. -1.
         23    2    1    2    0    0 -0.12009397912E+03  0.75314466551E+02 -0.30256641854E+03  0.34714839416E+03  0.94184591335E+02 0.  0.
         24    2    1    2    0    0  0.87965136094E+02 -0.93791963498E+00  0.94533864370E+02  0.15254436268E+03  0.81205826209E+02 0.  0.
        -13    1    4    4    0    0  0.73084869521E+02  0.33557694995E+02  0.76011124350E+02  0.11065806826E+03  0.00000000000E+00 0.  1.
         14    1    4    4    0    0  0.14880266573E+02 -0.34495614630E+02  0.18522740019E+02  0.41886294415E+02  0.00000000000E+00 0. -1.
        -11    1    3    3    0    0 -0.13247657447E+03  0.59394397917E+02 -0.23134914280E+03  0.27313030436E+03  0.00000000000E+00 0. -1.
         11    1    3    3    0    0  0.12382595349E+02  0.15920068633E+02 -0.71217275741E+02  0.74018089794E+02  0.00000000000E+00 0.  1.
          1    1    1    2  501    0  0.32128843030E+02 -0.74376546916E+02  0.22303186068E+03  0.23729168583E+03  0.00000000000E+00 0. -1.
<scales pt_clust_5="13000.00000" pt_clust_6="13000.00000" pt_clust_7="13000.00000" pt_clust_8="13000.00000" pt_clust_9="81.01934"></scales>
<clustering>
<clus scale="   81.019">  1  9  2 -1</clus>
<clus scale="   81.206">  5  6 -1 -1</clus>
<clus scale="   94.185">  7  8 -1 -1</clus>
<clus scale="  154.760">  1  5  2 -1</clus>
<clus scale="   81.019">  1  5  2 -1</clus>
</clustering>
</event>
<event>
 9    2  0.1033155E-004  0.8289601E+02  0.7546771E-02  0.1326851E+00
         21   -1    0    0  501  502  0.00000000000E+00  0.00000000000E+00  0.61480018671E+02  0.61480018671E+02  0.00000000000E+00 0.  1.
          4   -1    0    0  502    0 -0.00000000000E+00 -0.00000000000E+00 -0.35451979821E+03  0.35451979821E+03  0.00000000000E+00 0. -1.
         23    2    1    2    0    0 -0.12664416201E+02 -0.89964614043E+01 -0.20504491997E+03  0.22150268371E+03  0.82332836282E+02 0.  0.
         24    2    1    2    0    0 -0.57529649441E+02  0.12654133590E+02 -0.20141508642E+02  0.96800343820E+02  0.74127178090E+02 0.  0.
        -11    1    4    4    0    0 -0.51585370444E+02  0.23297455462E+01  0.19660176262E+02  0.55253965367E+02  0.00000000000E+00 0.  1.
         12    1    4    4    0    0 -0.59442789968E+01  0.10324388044E+02 -0.39801684905E+02  0.41546378453E+02  0.00000000000E+00 0. -1.
        -11    1    3    3    0    0 -0.40209799376E+02  0.62372424937E+01 -0.56309489386E+02  0.69472942608E+02  0.00000000000E+00 0. -1.
         11    1    3    3    0    0  0.27545383175E+02 -0.15233703898E+02 -0.14873543059E+03  0.15202974111E+03  0.00000000000E+00 0.  1.
          3    1    1    2  501    0  0.70194065642E+02 -0.36576721861E+01 -0.67853350924E+02  0.97696789347E+02  0.00000000000E+00 0. -1.
<scales pt_clust_5="13000.00000" pt_clust_6="13000.00000" pt_clust_7="13000.00000" pt_clust_8="13000.00000" pt_clust_9="70.28930"></scales>
<clustering>
<clus scale="   70.289">  1  9  2 -1</clus>
<clus scale="   74.127">  5  6 -1 -1</clus>
<clus scale="   74.752">  1  5  2 -1</clus>
<clus scale="   82.333">  7  8 -1 -1</clus>
<clus scale="   70.289">  1  5  2 -1</clus>
</clustering>
</event>
<event>
 9    2  0.1033155E-004  0.1252202E+03  0.7546771E-02  0.1249917E+00
          2   -1    0    0  502    0 -0.00000000000E+00  0.00000000000E+00  0.67767433652E+03  0.67767433652E+03  0.00000000000E+00 0. -1.
         21   -1    0    0  501  502  0.00000000000E+00 -0.00000000000E+00 -0.10284604042E+03  0.10284604042E+03  0.00000000000E+00 0. -1.
         23    2    1    2    0    0  0.30787737538E+01 -0.23540922726E+02  0.71533266873E+02  0.11660484014E+03  0.88972055076E+02 0.  0.
         24    2    1    2    0    0 -0.10093870489E+03  0.94090874816E+01  0.54275025954E+03  0.55745901944E+03  0.76847648311E+02 0.  0.
        -11    1    4    4    0    0 -0.34900323949E+02  0.27093971729E+01  0.54878085085E+02  0.65092070695E+02  0.00000000000E+00 0.  1.
         12    1    4    4    0    0 -0.66038380939E+02  0.66996903086E+01  0.48787217446E+03  0.49236694875E+03  0.00000000000E+00 0. -1.
        -13    1    3    3    0    0 -0.36181570199E+02 -0.25864572569E+01  0.50816984136E+01  0.36628123648E+02  0.00000000000E+00 0. -1.
         13    1    3    3    0    0  0.39260343953E+02 -0.20954465469E+02  0.66451568460E+02  0.79976716494E+02  0.00000000000E+00 0.  1.
          1    1    1    2  501    0  0.97859931134E+02  0.14131835245E+02 -0.39455230315E+02  0.10645651736E+03  0.00000000000E+00 0. -1.
<scales pt_clust_5="13000.00000" pt_clust_6="13000.00000" pt_clust_7="13000.00000" pt_clust_8="13000.00000" pt_clust_9="98.86622"></scales>
<clustering>
<clus scale="   76.848">  5  6 -1 -1</clus>
<clus scale="   88.972">  7  8 -1 -1</clus>
<clus scale="   92.085">  1  7  2 -1</clus>
<clus scale="   98.866">  2  9  1 -1</clus>
<clus scale="   98.866">  2  5  1 -1</clus>
</clustering>
</event>
<event>
 9    2  0.1116709E-004  0.9458025E+02  0.7546771E-02  0.1297213E+00
         21   -1    0    0  501  502  0.00000000000E+00  0.00000000000E+00  0.41536174563E+03  0.41536174563E+03  0.00000000000E+00 0. -1.
         -1   -1    0    0    0  501 -0.00000000000E+00 -0.00000000000E+00 -0.12280899733E+03  0.12280899733E+03  0.00000000000E+00 0.  1.
         23    2    1    2    0    0  0.12970951528E+02 -0.29762978397E+02 -0.86755123462E+02  0.12817707551E+03  0.88593627159E+02 0.  0.
         24    2    1    2    0    0  0.30878229769E+02  0.53105167662E+02  0.19795873168E+03  0.22196409768E+03  0.79415220873E+02 0.  0.
        -13    1    4    4    0    0  0.74197431763E+01 -0.20190863622E+02  0.63430766699E+02  0.66978994667E+02  0.00000000000E+00 0.  1.
         14    1    4    4    0    0  0.23458486593E+02  0.73296031284E+02  0.13452796498E+03  0.15498510302E+03  0.00000000000E+00 0. -1.
        -13    1    3    3    0    0  0.36726311002E+02 -0.12855689745E+02 -0.90756269087E+02  0.98746093883E+02  0.00000000000E+00 0. -1.
         13    1    3    3    0    0 -0.23755359474E+02 -0.16907288652E+02  0.40011456246E+01  0.29430981628E+02  0.00000000000E+00 0.  1.
         -2    1    1    2    0  502 -0.43849181297E+02 -0.23342189265E+02  0.18134914008E+03  0.18802956977E+03  0.00000000000E+00 0.  1.
<scales pt_clust_5="13000.00000" pt_clust_6="13000.00000" pt_clust_7="13000.00000" pt_clust_8="13000.00000" pt_clust_9="49.67503"></scales>
<clustering>
<clus scale="   49.675">  1  9  2 -1</clus>
<clus scale="   79.415">  5  6 -1 -1</clus>
<clus scale="   86.043">  1  5  2 -1</clus>
<clus scale="   88.594">  7  8 -1 -1</clus>
<clus scale="   49.675">  1  5  2 -1</clus>
</clustering>
</event>
<event>
 9    2  0.1033155E-004  0.9955201E+02  0.7546771E-02  0.1285868E+00
         21   -1    0    0  501  502  0.00000000000E+00  0.00000000000E+00  0.70508134509E+02  0.70508134509E+02  0.00000000000E+00 0. -1.
          2   -1    0    0  502    0 -0.00000000000E+00 -0.00000000000E+00 -0.27203074722E+03  0.27203074722E+03  0.00000000000E+00 0. -1.
         24    2    1    2    0    0  0.18731589591E+02 -0.88518763083E+01 -0.93461306674E+02  0.12534717215E+03  0.80917671482E+02 0.  0.
         23    2    1    2    0    0 -0.66845070942E+02  0.41530312214E+02 -0.10451544342E+03  0.15892198843E+03  0.90220231375E+02 0.  0.
        -13    1    3    3    0    0 -0.20162552654E+02  0.21477595816E+02 -0.56480376205E+02  0.63701244477E+02  0.00000000000E+00 0.  1.
         14    1    3    3    0    0  0.38894142246E+02 -0.30329472125E+02 -0.36980930469E+02  0.61645927673E+02  0.00000000000E+00 0. -1.
        -13    1    4    4    0    0 -0.42981776857E+02  0.10523727961E+02 -0.11078568461E+03  0.11929647902E+03  0.00000000000E+00 0. -1.
         13    1    4    4    0    0 -0.23863294085E+02  0.31006584253E+02  0.62702411811E+01  0.39625509411E+02  0.00000000000E+00 0.  1.
          1    1    1    2  501    0  0.48113481351E+02 -0.32678435906E+02 -0.35458626082E+01  0.58269721148E+02  0.00000000000E+00 0. -1.
<scales pt_clust_5="13000.00000" pt_clust_6="13000.00000" pt_clust_7="13000.00000" pt_clust_8="13000.00000" pt_clust_9="58.16173"></scales>
<clustering>
<clus scale="   58.162">  1  9  2 -1</clus>
<clus scale="   80.918">  5  6 -1 -1</clus>
<clus scale="   90.220">  7  8 -1 -1</clus>
<clus scale="   91.206">  2  5  1 -1</clus>
<clus scale="   58.162">  1  5  2 -1</clus>
</clustering>
</event>
<event>
 9    2  0.1033155E-004  0.1257251E+03  0.7546771E-02  0.1236707E+00
          2   -1    0    0  502    0 -0.00000000000E+00  0.00000000000E+00  0.20480865826E+04  0.20480865826E+04  0.00000000000E+00 0. -1.
         21   -1    0    0  501  502  0.00000000000E+00 -0.00000000000E+00 -0.37549536432E+02  0.37549536432E+02  0.00000000000E+00 0. -1.
         24    2    1    2    0    0 -0.52123056830E+02 -0.71173184243E+02  0.17989825075E+04  0.18029540921E+04  0.80764848971E+02 0.  0.
         23    2    1    2    0    0  0.38379435006E+02  0.56128004127E+02  0.57089361955E+02  0.12687851153E+03  0.90640099077E+02 0.  0.
        -13    1    3    3    0    0  0.26575621287E+01 -0.28373552647E+02  0.16139121837E+03  0.16388790832E+03  0.00000000000E+00 0.  1.
         14    1    3    3    0    0 -0.54780618959E+02 -0.42799631596E+02  0.16375912891E+04  0.16390661838E+04  0.00000000000E+00 0. -1.
        -13    1    4    4    0    0  0.10139093848E+02  0.49757336234E+02 -0.11817872322E+02  0.52136895184E+02  0.00000000000E+00 0. -1.
         13    1    4    4    0    0  0.28240341158E+02  0.63706678928E+01  0.68907234278E+02  0.74741616345E+02  0.00000000000E+00 0.  1.
          1    1    1    2  501    0  0.13743621824E+02  0.15045180116E+02  0.15446517673E+03  0.15580351539E+03  0.00000000000E+00 0. -1.
<scales pt_clust_5="13000.00000" pt_clust_6="13000.00000" pt_clust_7="13000.00000" pt_clust_8="13000.00000" pt_clust_9="20.37756"></scales>
<clustering>
<clus scale="   20.378">  2  9  1 -1</clus>
<clus scale="   80.765">  5  6 -1 -1</clus>
<clus scale="   90.640">  7  8 -1 -1</clus>
<clus scale="  118.803">  1  5  2 -1</clus>
<clus scale="   20.378">  2  5  1 -1</clus>
</clustering>
</event>
<event>
 9    2  0.1033155E-004  0.1512542E+03  0.7546771E-02  0.1224413E+00
          2   -1    0    0  502    0 -0.00000000000E+00  0.00000000000E+00  0.60077948570E+03  0.60077948570E+03  0.00000000000E+00 0. -1.
         21   -1    0    0  501  502  0.00000000000E+00 -0.00000000000E+00 -0.59351970711E+02  0.59351970711E+02  0.00000000000E+00 0.  1.
         24    2    1    2    0    0 -0.11531907859E+02 -0.31365969769E+02  0.86539095383E+02  0.12337018486E+03  0.81328829597E+02 0.  0.
         23    2    1    2    0    0 -0.11203290371E+03  0.37546090045E+02  0.17469901311E+03  0.23047291060E+03  0.92935122245E+02 0.  0.
        -11    1    3    3    0    0  0.19626228353E+02 -0.47640644020E+02  0.61394188933E+02  0.80150272842E+02  0.00000000000E+00 0.  1.
         12    1    3    3    0    0 -0.31158136212E+02  0.16274674251E+02  0.25144906450E+02  0.43219912015E+02  0.00000000000E+00 0. -1.
        -11    1    4    4    0    0 -0.94131483077E+02 -0.91675312058E+01  0.82170957379E+02  0.12528705428E+03  0.00000000000E+00 0.  1.
         11    1    4    4    0    0 -0.17901420633E+02  0.46713621250E+02  0.92528055734E+02  0.10518585632E+03  0.00000000000E+00 0. -1.
          1    1    1    2  501    0  0.12356481157E+03 -0.61801202759E+01  0.28018940649E+03  0.30628836095E+03  0.00000000000E+00 0. -1.
<scales pt_clust_5="13000.00000" pt_clust_6="13000.00000" pt_clust_7="13000.00000" pt_clust_8="13000.00000" pt_clust_9="119.33534"></scales>
<clustering>
<clus scale="   81.329">  5  6 -1 -1</clus>
<clus scale="   87.927">  1  5  2 -1</clus>
<clus scale="   92.935">  7  8 -1 -1</clus>
<clus scale="  119.335">  2  9  1 -1</clus>
<clus scale="  119.335">  2  5  1 -1</clus>
</clustering>
</event>
<event>
 9    2  0.1033155E-004  0.1115928E+03  0.7546771E-02  0.1262349E+00
          2   -1    0    0  502    0 -0.00000000000E+00  0.00000000000E+00  0.33392700641E+03  0.33392700641E+03  0.00000000000E+00 0. -1.
         21   -1    0    0  501  502  0.00000000000E+00 -0.00000000000E+00 -0.15134491224E+03  0.15134491224E+03  0.00000000000E+00 0. -1.
         24    2    1    2    0    0  0.52393470360E+02 -0.32228543655E+02  0.15354574033E+03  0.18409803664E+03  0.80821024232E+02 0.  0.
         23    2    1    2    0    0 -0.70960361975E+02 -0.10701701514E+02  0.13884056529E+03  0.18182271835E+03  0.92913394904E+02 0.  0.
        -13    1    3    3    0    0  0.65731157284E+02 -0.43682481922E+02  0.97953120400E+02  0.12579172493E+03  0.00000000000E+00 0.  1.
         14    1    3    3    0    0 -0.13337686924E+02  0.11453938267E+02  0.55592619929E+02  0.58306311707E+02  0.00000000000E+00 0. -1.
        -11    1    4    4    0    0  0.13665142681E+02  0.17010438355E+02  0.56395661723E+02  0.60469511315E+02  0.00000000000E+00 0.  1.
         11    1    4    4    0    0 -0.84625504656E+02 -0.27712139868E+02  0.82444903564E+02  0.12135320704E+03  0.00000000000E+00 0. -1.
          1    1    1    2  501    0  0.18566891615E+02  0.42930245169E+02 -0.10980421145E+03  0.11935116366E+03  0.00000000000E+00 0. -1.
<scales pt_clust_5="13000.00000" pt_clust_6="13000.00000" pt_clust_7="13000.00000" pt_clust_8="13000.00000" pt_clust_9="46.77323"></scales>
<clustering>
<clus scale="   46.773">  2  9  1 -1</clus>
<clus scale="   80.821">  5  6 -1 -1</clus>
<clus scale="   92.913">  7  8 -1 -1</clus>
<clus scale="  101.745">  1  5  2 -1</clus>
<clus scale="   46.773">  2  5  1 -1</clus>
</clustering>
</event>
<event>
 9    2  0.1033155E-004  0.1785673E+03  0.7546771E-02  0.1170985E+00
         21   -1    0    0  501  502  0.00000000000E+00  0.00000000000E+00  0.13488412149E+03  0.13488412149E+03  0.00000000000E+00 0.  1.
          2   -1    0    0  502    0 -0.00000000000E+00 -0.00000000000E+00 -0.63215160363E+03  0.63215160363E+03  0.00000000000E+00 0. -1.
         23    2    1    2    0    0 -0.15961447949E+03 -0.35373552280E+02 -0.25324624922E+03  0.31478770615E+03  0.90716960583E+02 0.  0.
         24    2    1    2    0    0  0.11529200933E+03  0.40914423097E+02  0.51940379539E+02  0.15293470709E+03  0.75663625174E+02 0.  0.
        -11    1    4    4    0    0  0.98603776005E+02 -0.11097425837E+01  0.36730904185E+02  0.10522877693E+03  0.00000000000E+00 0.  1.
         12    1    4    4    0    0  0.16688233326E+02  0.42024165681E+02  0.15209475354E+02  0.47705930169E+02  0.00000000000E+00 0. -1.
        -13    1    3    3    0    0 -0.13198780709E+03 -0.41463384402E+01 -0.23438814130E+03  0.26902745980E+03  0.00000000000E+00 0.  1.
         13    1    3    3    0    0 -0.27626672400E+02 -0.31227213839E+02 -0.18858107916E+02  0.45760246353E+02  0.00000000000E+00 0. -1.
          1    1    1    2  501    0  0.44322470157E+02 -0.55408708175E+01 -0.29596161247E+03  0.29931331187E+03  0.00000000000E+00 0. -1.
<scales pt_clust_5="13000.00000" pt_clust_6="13000.00000" pt_clust_7="13000.00000" pt_clust_8="13000.00000" pt_clust_9="44.66749"></scales>
<clustering>
<clus scale="   44.667">  1  9  2 -1</clus>
<clus scale="   75.664">  5  6 -1 -1</clus>
<clus scale="   90.717">  7  8 -1 -1</clus>
<clus scale="  171.411">  1  5  2 -1</clus>
<clus scale="   44.667">  1  5  2 -1</clus>
</clustering>
</event>
<event>
 9    2  0.1033155E-004  0.1170042E+03  0.7546771E-02  0.1253418E+00
         21   -1    0    0  501  502  0.00000000000E+00  0.00000000000E+00  0.25098146523E+03  0.25098146523E+03  0.00000000000E+00 0.  1.
          2   -1    0    0  502    0 -0.00000000000E+00 -0.00000000000E+00 -0.13639053741E+03  0.13639053741E+03  0.00000000000E+00 0. -1.
         24    2    1    2    0    0 -0.56514273349E+02 -0.33261044081E+02  0.21476578981E+01  0.10417070132E+03  0.80912066059E+02 0.  0.
         23    2    1    2    0    0  0.45404345538E+02  0.64906626691E+02  0.17359399662E+03  0.21345687666E+03  0.95679348617E+02 0.  0.
        -11    1    3    3    0    0 -0.10234648318E+02  0.19567108170E+02 -0.20748200352E+02  0.30300289869E+02  0.00000000000E+00 0.  1.
         12    1    3    3    0    0 -0.46279625031E+02 -0.52828152250E+02  0.22895858250E+02  0.73870411453E+02  0.00000000000E+00 0. -1.
        -11    1    4    4    0    0  0.30360730881E+02 -0.18732882541E+02  0.30054780080E+02  0.46647450880E+02  0.00000000000E+00 0. -1.
         11    1    4    4    0    0  0.15043614657E+02  0.83639509232E+02  0.14353921654E+03  0.16680942578E+03  0.00000000000E+00 0.  1.
          1    1    1    2  501    0  0.11109927811E+02 -0.31645582610E+02 -0.61150726692E+02  0.69744424649E+02  0.00000000000E+00 0. -1.
<scales pt_clust_5="13000.00000" pt_clust_6="13000.00000" pt_clust_7="13000.00000" pt_clust_8="13000.00000" pt_clust_9="33.53915"></scales>
<clustering>
<clus scale="   33.539">  1  9  2 -1</clus>
<clus scale="   80.912">  5  6 -1 -1</clus>
<clus scale="   95.679">  7  8 -1 -1</clus>
<clus scale="  105.272">  2  5  1 -1</clus>
<clus scale="   33.539">  1  5  2 -1</clus>
</clustering>
</event>
<event>
 9    2  0.1033155E-004  0.1616448E+03  0.7546771E-02  0.1214587E+00
          2   -1    0    0  502    0 -0.00000000000E+00  0.00000000000E+00  0.99068311094E+02  0.99068311094E+02  0.00000000000E+00 0. -1.
         21   -1    0    0  501  502  0.00000000000E+00 -0.00000000000E+00 -0.57093066421E+03  0.57093066421E+03  0.00000000000E+00 0.  1.
         24    2    1    2    0    0  0.93505420221E+01  0.40401706963E+02  0.23785393482E+02  0.91699087362E+02  0.78251179661E+02 0.  0.
         23    2    1    2    0    0  0.59438714509E+02  0.91337131680E+02 -0.18498910993E+03  0.23392237422E+03  0.92861584965E+02 0.  0.
        -11    1    3    3    0    0  0.30703125665E+02  0.36688642936E+02  0.41790263075E+02  0.63522944940E+02  0.00000000000E+00 0.  1.
         12    1    3    3    0    0 -0.21352583643E+02  0.37130640270E+01 -0.18004869593E+02  0.28176142422E+02  0.00000000000E+00 0. -1.
        -11    1    4    4    0    0  0.31643862716E+02  0.10688367518E+02 -0.12563974201E+03  0.13000353849E+03  0.00000000000E+00 0.  1.
         11    1    4    4    0    0  0.27794851793E+02  0.80648764162E+02 -0.59349367923E+02  0.10391883573E+03  0.00000000000E+00 0. -1.
          1    1    1    2  501    0 -0.68789256531E+02 -0.13173883864E+03 -0.31065863667E+03  0.34437751372E+03  0.00000000000E+00 0. -1.
<scales pt_clust_5="13000.00000" pt_clust_6="13000.00000" pt_clust_7="13000.00000" pt_clust_8="13000.00000" pt_clust_9="132.30934"></scales>
<clustering>
<clus scale="   78.251">  5  6 -1 -1</clus>
<clus scale="   88.561">  1  5  2 -1</clus>
<clus scale="   92.862">  7  8 -1 -1</clus>
<clus scale="  132.309">  2  9  1 -1</clus>
<clus scale="  132.309">  2  5  1 -1</clus>
</clustering>
</event>
<event>
 9    2  0.1033155E-004  0.9481535E+02  0.7546771E-02  0.1299173E+00
         21   -1    0    0  501  502  0.00000000000E+00  0.00000000000E+00  0.35158372431E+02  0.35158372431E+02  0.00000000000E+00 0.  1.
          2   -1    0    0  502    0 -0.00000000000E+00 -0.00000000000E+00 -0.60874459737E+03  0.60874459737E+03  0.00000000000E+00 0. -1.
         24    2    1    2    0    0  0.19058001806E+02 -0.31000126181E+02 -0.20922516466E+03  0.22671737641E+03  0.79381257124E+02 0.  0.
         23    2    1    2    0    0 -0.82492390697E+01 -0.27919440632E+02 -0.76947087371E+02  0.12359551092E+03  0.92235844191E+02 0.  0.
        -11    1    3    3    0    0 -0.22778322171E+02  0.13038177869E+02 -0.72576543108E+02  0.77176425497E+02  0.00000000000E+00 0.  1.
         12    1    3    3    0    0  0.41836323977E+02 -0.44038304049E+02 -0.13664862155E+03  0.14954095091E+03  0.00000000000E+00 0. -1.
        -11    1    4    4    0    0  0.33174278359E+02 -0.38856585146E+02 -0.26987351521E+02  0.57781347301E+02  0.00000000000E+00 0.  1.
         11    1    4    4    0    0 -0.41423517428E+02  0.10937144514E+02 -0.49959735850E+02  0.65814163616E+02  0.00000000000E+00 0. -1.
          1    1    1    2  501    0 -0.10808762736E+02  0.58919566813E+02 -0.28741397291E+03  0.29359008247E+03  0.00000000000E+00 0. -1.
<scales pt_clust_5="13000.00000" pt_clust_6="13000.00000" pt_clust_7="13000.00000" pt_clust_8="13000.00000" pt_clust_9="59.90282"></scales>
<clustering>
<clus scale="   59.903">  1  9  2 -1</clus>
<clus scale="   79.381">  5  6 -1 -1</clus>
<clus scale="   82.364">  2  5  1 -1</clus>
<clus scale="   92.236">  7  8 -1 -1</clus>
<clus scale="   59.903">  1  5  2 -1</clus>
</clustering>
</event>
<event>
 9    2  0.1033155E-004  0.1045466E+03  0.7546771E-02  0.1273810E+00
          2   -1    0    0  502    0 -0.00000000000E+00  0.00000000000E+00  0.72665092910E+03  0.72665092910E+03  0.00000000000E+00 0. -1.
         21   -1    0    0  501  502  0.00000000000E+00 -0.00000000000E+00 -0.10429065817E+03  0.10429065817E+03  0.00000000000E+00 0.  1.
         24    2    1    2    0    0  0.13213938114E+02 -0.54689631397E+02  0.67473561412E+03  0.68193263884E+03  0.81230603834E+02 0.  0.
         23    2    1    2    0    0  0.11851360558E+01  0.70307378637E+02 -0.58621681522E+02  0.12686704002E+03  0.87830588413E+02 0.  0.
        -11    1    3    3    0    0 -0.13240627610E+02 -0.49999335453E+02  0.20482727864E+03  0.21125686223E+03  0.00000000000E+00 0.  1.
         12    1    3    3    0    0  0.26454565724E+02 -0.46902959443E+01  0.46990833548E+03  0.47067577660E+03  0.00000000000E+00 0. -1.
        -11    1    4    4    0    0  0.19626830970E+02  0.86051914842E+02 -0.46190670566E+02  0.99617882879E+02  0.00000000000E+00 0.  1.
         11    1    4    4    0    0 -0.18441694914E+02 -0.15744536205E+02 -0.12431010956E+02  0.27249157143E+02  0.00000000000E+00 0. -1.
          1    1    1    2  501    0 -0.14399074170E+02 -0.15617747240E+02  0.62463383200E+01  0.22141908414E+02  0.00000000000E+00 0. -1.
<scales pt_clust_5="13000.00000" pt_clust_6="13000.00000" pt_clust_7="13000.00000" pt_clust_8="13000.00000" pt_clust_9="21.24258"></scales>
<clustering>
<clus scale="   21.243">  2  9  1 -1</clus>
<clus scale="   81.231">  5  6 -1 -1</clus>
<clus scale="   87.831">  7  8 -1 -1</clus>
<clus scale="   99.067">  1  5  2 -1</clus>
<clus scale="   21.243">  2  5  1 -1</clus>
</clustering>
</event>
<event>
 9    2  0.1033155E-004  0.1672762E+03  0.7546771E-02  0.1211395E+00
         21   -1    0    0  501  502  0.00000000000E+00  0.00000000000E+00  0.47853157397E+02  0.47853157397E+02  0.00000000000E+00 0. -1.
          2   -1    0    0  502    0 -0.00000000000E+00 -0.00000000000E+00 -0.10047320663E+04  0.10047320663E+04  0.00000000000E+00 0. -1.
         24    2    1    2    0    0  0.15797917033E+02  0.28650971310E+02 -0.41422187088E+03  0.42295821943E+03  0.79015471448E+02 0.  0.
         23    2    1    2    0    0 -0.11289394428E+03  0.77251566873E+02 -0.21166108762E+03  0.26879282451E+03  0.93468279403E+02 0.  0.
        -13    1    3    3    0    0 -0.23296404003E+02 -0.13320907348E+02 -0.99676435109E+02  0.10322577550E+03  0.00000000000E+00 0.  1.
         14    1    3    3    0    0  0.39094321036E+02  0.41971878657E+02 -0.31454543578E+03  0.31973244393E+03  0.00000000000E+00 0. -1.
        -11    1    4    4    0    0 -0.92321648760E+02  0.28954754224E+02 -0.18752381974E+03  0.21101385640E+03  0.00000000000E+00 0. -1.
         11    1    4    4    0    0 -0.20572295522E+02  0.48296812649E+02 -0.24137267879E+02  0.57778968109E+02  0.00000000000E+00 0.  1.
          1    1    1    2  501    0  0.97096027249E+02 -0.10590253818E+03 -0.33099595041E+03  0.36083417977E+03  0.00000000000E+00 0. -1.
<scales pt_clust_5="13000.00000" pt_clust_6="13000.00000" pt_clust_7="13000.00000" pt_clust_8="13000.00000" pt_clust_9="138.72639"></scales>
<clustering>
<clus scale="   79.015">  5  6 -1 -1</clus>
<clus scale="   85.521">  2  5  1 -1</clus>
<clus scale="   93.468">  7  8 -1 -1</clus>
<clus scale="  138.726">  1  9  2 -1</clus>
<clus scale="  138.726">  1  5  2 -1</clus>
</clustering>
</event>
<event>
 9    2  0.1033155E-004  0.1096233E+03  0.7546771E-02  0.1266156E+00
         21   -1    0    0  501  502  0.00000000000E+00  0.00000000000E+00  0.76848247793E+02  0.76848247793E+02  0.00000000000E+00 0. -1.
          2   -1    0    0  502    0 -0.00000000000E+00 -0.00000000000E+00 -0.32639653532E+03  0.32639653532E+03  0.00000000000E+00 0. -1.
         24    2    1    2    0    0 -0.65566916702E+02  0.50468775657E+01 -0.20992912998E+03  0.23418822302E+03  0.80308110713E+02 0.  0.
         23    2    1    2    0    0  0.25341521681E+02 -0.13500811764E+02  0.17856154459E+02  0.98395659322E+02  0.92403457088E+02 0.  0.
        -13    1    3    3    0    0  0.23637626373E+01  0.30409076530E+02 -0.49654041373E+02  0.58273691610E+02  0.00000000000E+00 0.  1.
         14    1    3    3    0    0 -0.67930679339E+02 -0.25362198964E+02 -0.16027508861E+03  0.17591453141E+03  0.00000000000E+00 0. -1.
        -11    1    4    4    0    0  0.22800312821E+02 -0.45739541209E+02 -0.14011957127E+02  0.52993347104E+02  0.00000000000E+00 0.  1.
         11    1    4    4    0    0  0.25412088600E+01  0.32238729445E+02  0.31868111586E+02  0.45402312218E+02  0.00000000000E+00 0. -1.
          1    1    1    2  501    0  0.40225395021E+02  0.84539341982E+01 -0.57475312001E+02  0.70660900770E+02  0.00000000000E+00 0. -1.
<scales pt_clust_5="13000.00000" pt_clust_6="13000.00000" pt_clust_7="13000.00000" pt_clust_8="13000.00000" pt_clust_9="41.10417"></scales>
<clustering>
<clus scale="   41.104">  1  9  2 -1</clus>
<clus scale="   80.308">  5  6 -1 -1</clus>
<clus scale="   92.403">  7  8 -1 -1</clus>
<clus scale="   99.641">  2  5  1 -1</clus>
<clus scale="   41.104">  1  5  2 -1</clus>
</clustering>
</event>
<event>
 9    2  0.1033155E-004  0.1560319E+03  0.7546771E-02  0.1195212E+00
          2   -1    0    0  502    0 -0.00000000000E+00  0.00000000000E+00  0.38149661242E+03  0.38149661242E+03  0.00000000000E+00 0. -1.
         21   -1    0    0  501  502  0.00000000000E+00 -0.00000000000E+00 -0.26658775856E+03  0.26658775856E+03  0.00000000000E+00 0. -1.
         23    2    1    2    0    0 -0.87811835675E+02  0.96184903499E+02  0.31392873210E+03  0.35197772412E+03  0.91512924196E+02 0.  0.
         24    2    1    2    0    0  0.71790888086E+02 -0.79801331988E+02 -0.46092749496E+02  0.14147224292E+03  0.79797680171E+02 0.  0.
        -13    1    4    4    0    0 -0.37781132343E+01 -0.50535575769E+02 -0.29875712245E+02  0.58827516862E+02  0.00000000000E+00 0.  1.
         14    1    4    4    0    0  0.75569001320E+02 -0.29265756218E+02 -0.16217037251E+02  0.82644726055E+02  0.00000000000E+00 0. -1.
        -13    1    3    3    0    0 -0.63424719980E+02  0.63360265105E+02  0.10053629263E+03  0.13470250345E+03  0.00000000000E+00 0.  1.
         13    1    3    3    0    0 -0.24387115696E+02  0.32824638394E+02  0.21339243947E+03  0.21727522067E+03  0.00000000000E+00 0. -1.
          1    1    1    2  501    0  0.16020947590E+02 -0.16383571511E+02 -0.15292712874E+03  0.15463440394E+03  0.00000000000E+00 0. -1.
<scales pt_clust_5="13000.00000" pt_clust_6="13000.00000" pt_clust_7="13000.00000" pt_clust_8="13000.00000" pt_clust_9="22.91489"></scales>
<clustering>
<clus scale="   22.915">  2  9  1 -1</clus>
<clus scale="   79.798">  5  6 -1 -1</clus>
<clus scale="   91.513">  7  8 -1 -1</clus>
<clus scale="  149.462">  2  5  1 -1</clus>
<clus scale="   22.915">  2  5  1 -1</clus>
</clustering>
</event>
<event>
 9    2  0.1033155E-004  0.1944557E+03  0.7546771E-02  0.1155378E+00
         21   -1    0    0  501  502  0.00000000000E+00  0.00000000000E+00  0.16778807833E+03  0.16778807833E+03  0.00000000000E+00 0.  1.
          2   -1    0    0  502    0 -0.00000000000E+00 -0.00000000000E+00 -0.68064507429E+03  0.68064507429E+03  0.00000000000E+00 0. -1.
         23    2    1    2    0    0 -0.52925482021E+02 -0.16933472640E+03 -0.59892228849E+03  0.63063203764E+03  0.86680465150E+02 0.  0.
         24    2    1    2    0    0  0.57085871284E+02  0.13655287444E+03  0.71035526845E+02  0.18149887657E+03  0.77397105277E+02 0.  0.
        -11    1    4    4    0    0  0.29147929426E+02  0.99969705949E+02  0.83874976604E+02  0.13371071609E+03  0.00000000000E+00 0.  1.
         12    1    4    4    0    0  0.27937941858E+02  0.36583168488E+02 -0.12839449760E+02  0.47788160480E+02  0.00000000000E+00 0. -1.
        -11    1    3    3    0    0 -0.63622633624E+02 -0.67799423446E+02 -0.23701401195E+03  0.25459819950E+03  0.00000000000E+00 0.  1.
         11    1    3    3    0    0  0.10697151603E+02 -0.10153530296E+03 -0.36190827654E+03  0.37603383814E+03  0.00000000000E+00 0. -1.
          1    1    1    2  501    0 -0.41603892633E+01  0.32781851965E+02  0.15029765686E+02  0.36302238411E+02  0.00000000000E+00 0. -1.
<scales pt_clust_5="13000.00000" pt_clust_6="13000.00000" pt_clust_7="13000.00000" pt_clust_8="13000.00000" pt_clust_9="33.04480"></scales>
<clustering>
<clus scale="   33.045">  1  9  2 -1</clus>
<clus scale="   77.397">  5  6 -1 -1</clus>
<clus scale="   86.680">  7  8 -1 -1</clus>
<clus scale="  190.499">  1  5  2 -1</clus>
<clus scale="   33.045">  1  5  2 -1</clus>
</clustering>
</event>
<event>
 9    2  0.1033155E-004  0.9579953E+02  0.7546771E-02  0.1292052E+00
         21   -1    0    0  501  502  0.00000000000E+00  0.00000000000E+00  0.30796336249E+02  0.30796336249E+02  0.00000000000E+00 0.  1.
          2   -1    0    0  502    0 -0.00000000000E+00 -0.00000000000E+00 -0.63605837303E+03  0.63605837303E+03  0.00000000000E+00 0. -1.
         23    2    1    2    0    0  0.21060487750E+02  0.75701719780E+01 -0.45709999718E+03  0.46672573733E+03  0.91605975901E+02 0.  0.
         24    2    1    2    0    0 -0.37659911049E+02 -0.30811009483E+02 -0.13740392498E+03  0.16960988919E+03  0.86718445023E+02 0.  0.
        -13    1    4    4    0    0 -0.10753877690E+02 -0.29347513177E+02 -0.17489893690E+01  0.31304654268E+02  0.00000000000E+00 0.  1.
         14    1    4    4    0    0 -0.26906033358E+02 -0.14634963067E+01 -0.13565493561E+03  0.13830523493E+03  0.00000000000E+00 0. -1.
        -13    1    3    3    0    0 -0.15646909158E+02  0.41473886168E+02 -0.21277100585E+03  0.21733938882E+03  0.00000000000E+00 0.  1.
         13    1    3    3    0    0  0.36707396908E+02 -0.33903714190E+02 -0.24432899132E+03  0.24938634851E+03  0.00000000000E+00 0. -1.
          1    1    1    2  501    0  0.16599423299E+02  0.23240837505E+02 -0.10758114623E+02  0.30519082752E+02  0.00000000000E+00 0. -1.
<scales pt_clust_5="13000.00000" pt_clust_6="13000.00000" pt_clust_7="13000.00000" pt_clust_8="13000.00000" pt_clust_9="28.56007"></scales>
<clustering>
<clus scale="   28.560">  1  9  2 -1</clus>
<clus scale="   86.718">  5  6 -1 -1</clus>
<clus scale="   91.137">  1  5  2 -1</clus>
<clus scale="   91.606">  7  8 -1 -1</clus>
<clus scale="   28.560">  1  5  2 -1</clus>
</clustering>
</event>
<event>
 9    2  0.1033155E-004  0.1127206E+03  0.7546771E-02  0.1260160E+00
         21   -1    0    0  501  502  0.00000000000E+00  0.00000000000E+00  0.47002719027E+02  0.47002719027E+02  0.00000000000E+00 0.  1.
          2   -1    0    0  502    0 -0.00000000000E+00 -0.00000000000E+00 -0.80877455443E+03  0.80877455443E+03  0.00000000000E+00 0. -1.
         24    2    1    2    0    0 -0.57301133006E+02 -0.39995098385E+02 -0.63888186742E+03  0.64751523964E+03  0.78885469636E+02 0.  0.
         23    2    1    2    0    0  0.53491213416E+02  0.12174901606E+02 -0.13965143820E+03  0.17555995865E+03  0.91155014937E+02 0.  0.
        -11    1    3    3    0    0 -0.14725499666E+02 -0.56806775896E+02 -0.31573142718E+03  0.32113888621E+03  0.00000000000E+00 0.  1.
         12    1    3    3    0    0 -0.42575633340E+02  0.16811677511E+02 -0.32315044023E+03  0.32637635343E+03  0.00000000000E+00 0. -1.
        -13    1    4    4    0    0 -0.22399886966E+02  0.11044703773E+01 -0.64070326800E+02  0.67882115223E+02  0.00000000000E+00 0. -1.
         13    1    4    4    0    0  0.75891100381E+02  0.11070431228E+02 -0.75581111399E+02  0.10767784343E+03  0.00000000000E+00 0.  1.
          1    1    1    2  501    0  0.38099195903E+01  0.27820196779E+02  0.16761470214E+02  0.32702075161E+02  0.00000000000E+00 0. -1.
<scales pt_clust_5="13000.00000" pt_clust_6="13000.00000" pt_clust_7="13000.00000" pt_clust_8="13000.00000" pt_clust_9="28.07987"></scales>
<clustering>
<clus scale="   28.080">  1  9  2 -1</clus>
<clus scale="   78.885">  5  6 -1 -1</clus>
<clus scale="   91.155">  7  8 -1 -1</clus>
<clus scale="  103.051">  2  5  1 -1</clus>
<clus scale="   28.080">  1  5  2 -1</clus>
</clustering>
</event>
<event>
 9    2  0.1033155E-004  0.1128445E+03  0.7546771E-02  0.1267804E+00
          2   -1    0    0  502    0 -0.00000000000E+00  0.00000000000E+00  0.46249429733E+03  0.46249429733E+03  0.00000000000E+00 0. -1.
         21   -1    0    0  501  502  0.00000000000E+00 -0.00000000000E+00 -0.92636190309E+02  0.92636190309E+02  0.00000000000E+00 0.  1.
         24    2    1    2    0    0  0.74677305772E+00 -0.39048427338E+02  0.35826946362E+03  0.36926515274E+03  0.80463700629E+02 0.  0.
         23    2    1    2    0    0 -0.19718763379E+02  0.22399962926E+02  0.63825554104E+02  0.12784979712E+03  0.10668308815E+03 0.  0.
        -11    1    3    3    0    0  0.37000335344E+02 -0.16702055160E+02  0.10758970781E+03  0.11499360281E+03  0.00000000000E+00 0.  1.
         12    1    3    3    0    0 -0.36253562286E+02 -0.22346372178E+02  0.25067975582E+03  0.25427154993E+03  0.00000000000E+00 0. -1.
        -11    1    4    4    0    0 -0.78209252599E+01  0.61879915437E+02  0.59820229926E+02  0.86421934223E+02  0.00000000000E+00 0. -1.
         11    1    4    4    0    0 -0.11897838119E+02 -0.39479952511E+02  0.40053241773E+01  0.41427862893E+02  0.00000000000E+00 0.  1.
          1    1    1    2  501    0  0.18971990321E+02  0.16648464411E+02 -0.52236910704E+02  0.58015537780E+02  0.00000000000E+00 0. -1.
<scales pt_clust_5="13000.00000" pt_clust_6="13000.00000" pt_clust_7="13000.00000" pt_clust_8="13000.00000" pt_clust_9="25.24099"></scales>
<clustering>
<clus scale="   25.241">  2  9  1 -1</clus>
<clus scale="   80.464">  5  6 -1 -1</clus>
<clus scale="   88.470">  1  5  2 -1</clus>
<clus scale="  106.683">  7  8 -1 -1</clus>
<clus scale="   25.241">  2  5  1 -1</clus>
</clustering>
</event>
<event>
 9    2  0.1033155E-004  0.9954534E+02  0.7546771E-02  0.1287456E+00
         21   -1    0    0  501  502  0.00000000000E+00  0.00000000000E+00  0.49390137766E+02  0.49390137766E+02  0.00000000000E+00 0.  1.
          2   -1    0    0  502    0 -0.00000000000E+00 -0.00000000000E+00 -0.77933826320E+03  0.77933826320E+03  0.00000000000E+00 0. -1.
         24    2    1    2    0    0 -0.38469886242E+02 -0.13163245418E+02 -0.57979536255E+03  0.58679981640E+03  0.80735115766E+02 0.  0.
         23    2    1    2    0    0  0.25867079888E+02 -0.17698590388E+02 -0.17490631543E+03  0.20040724064E+03  0.92674144190E+02 0.  0.
        -11    1    3    3    0    0  0.17046893324E+02 -0.28023387283E+02 -0.19614588705E+03  0.19886959499E+03  0.00000000000E+00 0.  1.
         12    1    3    3    0    0 -0.55516779567E+02  0.14860141865E+02 -0.38364947551E+03  0.38793022141E+03  0.00000000000E+00 0. -1.
        -13    1    4    4    0    0  0.10450512043E+02  0.32538519853E+02 -0.27347143590E+02  0.43770249471E+02  0.00000000000E+00 0.  1.
         13    1    4    4    0    0  0.15416567844E+02 -0.50237110242E+02 -0.14755917184E+03  0.15663699117E+03  0.00000000000E+00 0. -1.
          1    1    1    2  501    0  0.12602806355E+02  0.30861835806E+02  0.24753552545E+02  0.41521343920E+02  0.00000000000E+00 0. -1.
<scales pt_clust_5="13000.00000" pt_clust_6="13000.00000" pt_clust_7="13000.00000" pt_clust_8="13000.00000" pt_clust_9="33.33592"></scales>
<clustering>
<clus scale="   33.336">  1  9  2 -1</clus>
<clus scale="   80.735">  5  6 -1 -1</clus>
<clus scale="   88.538">  2  5  1 -1</clus>
<clus scale="   92.674">  7  8 -1 -1</clus>
<clus scale="   33.336">  1  5  2 -1</clus>
</clustering>
</event>
<event>
 9    2  0.1033155E-004  0.1471302E+03  0.7546771E-02  0.1205587E+00
          2   -1    0    0  502    0 -0.00000000000E+00  0.00000000000E+00  0.19749250927E+03  0.19749250927E+03  0.00000000000E+00 0. -1.
         21   -1    0    0  501  502  0.00000000000E+00 -0.00000000000E+00 -0.24845297021E+03  0.24845297021E+03  0.00000000000E+00 0.  1.
         24    2    1    2    0    0  0.31084507510E+02  0.10821439180E+03  0.13535537870E+03  0.20121408644E+03  0.97413699445E+02 0.  0.
         23    2    1    2    0    0 -0.10257173551E+02 -0.97303141411E+02 -0.17132264379E+03  0.21684539033E+03  0.89985354901E+02 0.  0.
        -11    1    3    3    0    0  0.37537219634E+02  0.45923586581E+01  0.66917769359E+02  0.76864299072E+02  0.00000000000E+00 0.  1.
         12    1    3    3    0    0 -0.64527121236E+01  0.10362203314E+03  0.68437609341E+02  0.12434978737E+03  0.00000000000E+00 0. -1.
        -11    1    4    4    0    0 -0.49492340208E+02 -0.56798212250E+02 -0.83357643107E+02  0.11235668791E+03  0.00000000000E+00 0.  1.
         11    1    4    4    0    0  0.39235166658E+02 -0.40504929161E+02 -0.87965000683E+02  0.10448870242E+03  0.00000000000E+00 0. -1.
          1    1    1    2  501    0 -0.20827333959E+02 -0.10911250392E+02 -0.14993195846E+02  0.27886002701E+02  0.00000000000E+00 0. -1.
<scales pt_clust_5="13000.00000" pt_clust_6="13000.00000" pt_clust_7="13000.00000" pt_clust_8="13000.00000" pt_clust_9="23.51241"></scales>
<clustering>
<clus scale="   23.512">  2  9  1 -1</clus>
<clus scale="   89.985">  7  8 -1 -1</clus>
<clus scale="   97.414">  5  6 -1 -1</clus>
<clus scale="  142.321">  2  7  1 -1</clus>
<clus scale="   23.512">  2  5  1 -1</clus>
</clustering>
</event>
<event>
 9    2  0.1033155E-004  0.1665248E+03  0.7546771E-02  0.1182279E+00
         21   -1    0    0  501  502  0.00000000000E+00  0.00000000000E+00  0.34052858021E+02  0.34052858021E+02  0.00000000000E+00 0.  1.
          4   -1    0    0  502    0 -0.00000000000E+00 -0.00000000000E+00 -0.15154691730E+04  0.15154691730E+04  0.00000000000E+00 0. -1.
         24    2    1    2    0    0  0.63695377662E+02 -0.11853672188E+03 -0.64724286485E+03  0.66666502521E+03  0.86086434252E+02 0.  0.
         23    2    1    2    0    0  0.10099773353E+02  0.15654754245E+03 -0.71462226232E+03  0.73731308357E+03  0.91304254786E+02 0.  0.
        -13    1    3    3    0    0  0.57298193028E+02 -0.20603229982E+02 -0.27911208126E+03  0.28567661772E+03  0.00000000000E+00 0.  1.
         14    1    3    3    0    0  0.63971846340E+01 -0.97933491900E+02 -0.36813078360E+03  0.38098840749E+03  0.00000000000E+00 0. -1.
        -11    1    4    4    0    0  0.41497425641E+02  0.10393618962E+03 -0.55843442538E+03  0.56953821233E+03  0.00000000000E+00 0. -1.
         11    1    4    4    0    0 -0.31397652288E+02  0.52611352836E+02 -0.15618783693E+03  0.16777487125E+03  0.00000000000E+00 0.  1.
          3    1    1    2  501    0 -0.73795151015E+02 -0.38010820571E+02 -0.11955118780E+03  0.14554392223E+03  0.00000000000E+00 0. -1.
<scales pt_clust_5="13000.00000" pt_clust_6="13000.00000" pt_clust_7="13000.00000" pt_clust_8="13000.00000" pt_clust_9="83.00932"></scales>
<clustering>
<clus scale="   83.009">  1  9  2 -1</clus>
<clus scale="   86.086">  5  6 -1 -1</clus>
<clus scale="   91.304">  7  8 -1 -1</clus>
<clus scale="  163.722">  2  5  1 -1</clus>
<clus scale="   83.009">  1  5  2 -1</clus>
</clustering>
</event>
<event>
 9    2  0.1033155E-004  0.9923182E+02  0.7546771E-02  0.1287208E+00
         -3   -1    0    0    0  501 -0.00000000000E+00  0.00000000000E+00  0.78531327675E+02  0.78531327675E+02  0.00000000000E+00 0.  1.
         21   -1    0    0  501  502  0.00000000000E+00 -0.00000000000E+00 -0.58312548274E+03  0.58312548274E+03  0.00000000000E+00 0.  1.
         23    2    1    2    0    0 -0.37230056882E+01 -0.34027674496E+02  0.17288038331E+02  0.98752251018E+02  0.91002128596E+02 0.  0.
         24    2    1    2    0    0 -0.62041406997E+02  0.80522046882E+02 -0.29967648568E+03  0.32655299672E+03  0.80609722608E+02 0.  0.
        -13    1    4    4    0    0 -0.63871423931E+02  0.95322819596E+02 -0.26147390655E+03  0.28554264575E+03  0.00000000000E+00 0.  1.
         14    1    4    4    0    0  0.18300169341E+01 -0.14800772714E+02 -0.38202579128E+02  0.41010350973E+02  0.00000000000E+00 0. -1.
        -11    1    3    3    0    0 -0.26338396446E+02  0.82396645346E+01  0.37640464113E+02  0.46673415748E+02  0.00000000000E+00 0.  1.
         11    1    3    3    0    0  0.22615390758E+02 -0.42267339031E+02 -0.20352425782E+02  0.52078835270E+02  0.00000000000E+00 0. -1.
         -4    1    1    2    0  502  0.65764412686E+02 -0.46494372386E+02 -0.22220570771E+03  0.23635156267E+03  0.00000000000E+00 0.  1.
<scales pt_clust_5="13000.00000" pt_clust_6="13000.00000" pt_clust_7="13000.00000" pt_clust_8="13000.00000" pt_clust_9="80.53996"></scales>
<clustering>
<clus scale="   80.540">  2  9  1 -1</clus>
<clus scale="   80.610">  5  6 -1 -1</clus>
<clus scale="   89.797">  2  5  1 -1</clus>
<clus scale="   91.002">  7  8 -1 -1</clus>
<clus scale="   80.540">  2  5  1 -1</clus>
</clustering>
</event>
<event>
 9    2  0.1033155E-004  0.2605872E+03  0.7546771E-02  0.1141510E+00
         -1   -1    0    0    0  501 -0.00000000000E+00  0.00000000000E+00  0.15622105679E+03  0.15622105679E+03  0.00000000000E+00 0.  1.
         21   -1    0    0  501  502  0.00000000000E+00 -0.00000000000E+00 -0.12969889361E+04  0.12969889361E+04  0.00000000000E+00 0.  1.
         23    2    1    2    0    0 -0.32322858281E+02 -0.53446028664E+02  0.37503126080E+02  0.11626854334E+03  0.90612607054E+02 0.  0.
         24    2    1    2    0    0  0.27214375811E+03  0.17340196990E+02 -0.25428881987E+03  0.38166098066E+03  0.81482468912E+02 0.  0.
        -13    1    4    4    0    0  0.24184147311E+03  0.16700737326E+02 -0.18156200912E+03  0.30287121999E+03  0.00000000000E+00 0.  1.
         14    1    4    4    0    0  0.30302284999E+02  0.63945966440E+00 -0.72726810750E+02  0.78789760671E+02  0.00000000000E+00 0. -1.
        -11    1    3    3    0    0  0.13610569533E+02 -0.50677658814E+02 -0.61594609712E+01  0.52833811762E+02  0.00000000000E+00 0.  1.
         11    1    3    3    0    0 -0.45933427814E+02 -0.27683698503E+01  0.43662587051E+02  0.63434731577E+02  0.00000000000E+00 0. -1.
         -2    1    1    2    0  502 -0.23982089983E+03  0.36105831674E+02 -0.92398218553E+03  0.95528046890E+03  0.00000000000E+00 0.  1.
<scales pt_clust_5="13000.00000" pt_clust_6="13000.00000" pt_clust_7="13000.00000" pt_clust_8="13000.00000" pt_clust_9="247.52030"></scales>
<clustering>
<clus scale="   81.482">  5  6 -1 -1</clus>
<clus scale="   90.613">  7  8 -1 -1</clus>
<clus scale="  110.054">  1  7  2 -1</clus>
<clus scale="  247.520">  2  9  1 -1</clus>
<clus scale="  247.520">  2  5  1 -1</clus>
</clustering>
</event>
<event>
 9    2  0.1033155E-004  0.9897052E+02  0.7546771E-02  0.1287090E+00
          2   -1    0    0  502    0 -0.00000000000E+00  0.00000000000E+00  0.10091476420E+03  0.10091476420E+03  0.00000000000E+00 0. -1.
         21   -1    0    0  501  502  0.00000000000E+00 -0.00000000000E+00 -0.41085963120E+03  0.41085963120E+03  0.00000000000E+00 0. -1.
         24    2    1    2    0    0 -0.25236547495E+02 -0.28148750155E+02  0.42045775722E+02  0.98471628465E+02  0.80619965838E+02 0.  0.
         23    2    1    2    0    0  0.87218765181E+02  0.34345757200E+02 -0.31536981260E+03  0.34104431826E+03  0.89812940516E+02 0.  0.
        -11    1    3    3    0    0  0.22364169861E+02 -0.11248307248E+02  0.40892434976E+02  0.47946550948E+02  0.00000000000E+00 0.  1.
         12    1    3    3    0    0 -0.47600717356E+02 -0.16900442908E+02  0.11533407462E+01  0.50525077518E+02  0.00000000000E+00 0. -1.
        -11    1    4    4    0    0  0.49762419294E+02 -0.27990653015E+02 -0.13933278469E+03  0.15057689039E+03  0.00000000000E+00 0. -1.
         11    1    4    4    0    0  0.37456345887E+02  0.62336410215E+02 -0.17603702790E+03  0.19046742787E+03  0.00000000000E+00 0.  1.
          1    1    1    2  501    0 -0.61982217686E+02 -0.61970070450E+01 -0.36620830119E+02  0.72258448670E+02  0.00000000000E+00 0. -1.
<scales pt_clust_5="13000.00000" pt_clust_6="13000.00000" pt_clust_7="13000.00000" pt_clust_8="13000.00000" pt_clust_9="62.29127"></scales>
<clustering>
<clus scale="   62.291">  2  9  1 -1</clus>
<clus scale="   80.620">  5  6 -1 -1</clus>
<clus scale="   89.813">  7  8 -1 -1</clus>
<clus scale="   90.710">  1  5  2 -1</clus>
<clus scale="   62.291">  2  5  1 -1</clus>
</clustering>
</event>
<event>
 9    2  0.1033155E-004  0.1358112E+03  0.7546771E-02  0.1224901E+00
          2   -1    0    0  502    0 -0.00000000000E+00  0.00000000000E+00  0.13110801049E+03  0.13110801049E+03  0.00000000000E+00 0. -1.
         21   -1    0    0  501  502  0.00000000000E+00 -0.00000000000E+00 -0.25688830518E+03  0.25688830518E+03  0.00000000000E+00 0. -1.
         24    2    1    2    0    0  0.97472688905E+02  0.33181178420E+02 -0.60017186758E+02  0.13562540125E+03  0.64732303183E+02 0.  0.
         23    2    1    2    0    0 -0.10636336569E+03  0.32533360423E+02 -0.10281097960E+03  0.17641046718E+03  0.90437659757E+02 0.  0.
        -13    1    3    3    0    0  0.32345953943E+02  0.35659389877E+02 -0.50480177065E+02  0.69757444760E+02  0.00000000000E+00 0.  1.
         14    1    3    3    0    0  0.65126734962E+02 -0.24782114574E+01 -0.95370096921E+01  0.65867956494E+02  0.00000000000E+00 0. -1.
        -13    1    4    4    0    0 -0.63646181712E+02 -0.27762827999E+02 -0.48249573114E+02  0.84555498761E+02  0.00000000000E+00 0.  1.
         13    1    4    4    0    0 -0.42717183982E+02  0.60296188422E+02 -0.54561406488E+02  0.91854968421E+02  0.00000000000E+00 0. -1.
          1    1    1    2  501    0  0.88906767895E+01 -0.65714538842E+02  0.37047871666E+02  0.75960447234E+02  0.00000000000E+00 0. -1.
<scales pt_clust_5="13000.00000" pt_clust_6="13000.00000" pt_clust_7="13000.00000" pt_clust_8="13000.00000" pt_clust_9="66.31327"></scales>
<clustering>
<clus scale="   64.732">  5  6 -1 -1</clus>
<clus scale="   66.313">  2  9  1 -1</clus>
<clus scale="   90.438">  7  8 -1 -1</clus>
<clus scale="  120.233">  1  5  2 -1</clus>
<clus scale="   66.313">  2  5  1 -1</clus>
</clustering>
</event>
<event>
 9    2  0.1033155E-004  0.2027284E+03  0.7546771E-02  0.1148838E+00
         21   -1    0    0  501  502  0.00000000000E+00  0.00000000000E+00  0.27527193295E+03  0.27527193295E+03  0.00000000000E+00 0.  1.
          2   -1    0    0  502    0 -0.00000000000E+00 -0.00000000000E+00 -0.75495402179E+03  0.75495402179E+03  0.00000000000E+00 0. -1.
         24    2    1    2    0    0  0.15446432235E+03 -0.98477513329E+02 -0.69465372953E+03  0.72236842922E+03  0.75599577171E+02 0.  0.
         23    2    1    2    0    0 -0.11629937790E+03  0.86290307897E+02  0.20404396692E+03  0.26633036556E+03  0.91248893943E+02 0.  0.
        -11    1    3    3    0    0  0.95157904548E+02 -0.41368153459E+02 -0.50603286075E+03  0.51656132944E+03  0.00000000000E+00 0.  1.
         12    1    3    3    0    0  0.59306417803E+02 -0.57109359870E+02 -0.18862086878E+03  0.20580709977E+03  0.00000000000E+00 0. -1.
        -11    1    4    4    0    0 -0.56019325852E+02  0.19893960379E+02  0.15066354177E+03  0.16196739594E+03  0.00000000000E+00 0. -1.
         11    1    4    4    0    0 -0.60280052053E+02  0.66396347519E+02  0.53380425150E+02  0.10436296962E+03  0.00000000000E+00 0.  1.
          1    1    1    2  501    0 -0.38164944447E+02  0.12187205432E+02  0.10927673759E+02  0.41527159964E+02  0.00000000000E+00 0. -1.
<scales pt_clust_5="13000.00000" pt_clust_6="13000.00000" pt_clust_7="13000.00000" pt_clust_8="13000.00000" pt_clust_9="40.06359"></scales>
<clustering>
<clus scale="   40.064">  1  9  2 -1</clus>
<clus scale="   75.600">  5  6 -1 -1</clus>
<clus scale="   91.249">  7  8 -1 -1</clus>
<clus scale="  196.183">  2  5  1 -1</clus>
<clus scale="   40.064">  1  5  2 -1</clus>
</clustering>
</event>
<event>
 9    2  0.1033155E-004  0.2580331E+03  0.7546771E-02  0.1156015E+00
          2   -1    0    0  502    0 -0.00000000000E+00  0.00000000000E+00  0.28116983523E+03  0.28116983523E+03  0.00000000000E+00 0. -1.
         21   -1    0    0  501  502  0.00000000000E+00 -0.00000000000E+00 -0.52527854480E+03  0.52527854480E+03  0.00000000000E+00 0. -1.
         24    2    1    2    0    0 -0.18878181333E+02 -0.71257341919E+01  0.14229414424E+03  0.16339978662E+03  0.77747700698E+02 0.  0.
         23    2    1    2    0    0  0.21315879096E+03  0.13061679747E+03 -0.29082399694E+03  0.39378905824E+03  0.89408093865E+02 0.  0.
        -13    1    3    3    0    0  0.26920951672E+02  0.13272301247E+02  0.58542654832E+02  0.65788555647E+02  0.00000000000E+00 0.  1.
         14    1    3    3    0    0 -0.45799133005E+02 -0.20398035439E+02  0.83751489408E+02  0.97611230972E+02  0.00000000000E+00 0. -1.
        -11    1    4    4    0    0  0.18649581702E+03  0.76515674402E+02 -0.24911144465E+03  0.32045569124E+03  0.00000000000E+00 0. -1.
         11    1    4    4    0    0  0.26662973942E+02  0.54101123069E+02 -0.41712552295E+02  0.73333367001E+02  0.00000000000E+00 0.  1.
          1    1    1    2  501    0 -0.19428060963E+03 -0.12349106328E+03 -0.95578856873E+02  0.24925953516E+03  0.00000000000E+00 0. -1.
<scales pt_clust_5="13000.00000" pt_clust_6="13000.00000" pt_clust_7="13000.00000" pt_clust_8="13000.00000" pt_clust_9="242.04821"></scales>
<clustering>
<clus scale="   77.748">  5  6 -1 -1</clus>
<clus scale="   80.324">  1  5  2 -1</clus>
<clus scale="   89.408">  7  8 -1 -1</clus>
<clus scale="  242.048">  2  9  1 -1</clus>
<clus scale="  242.048">  2  5  1 -1</clus>
</clustering>
</event>
<event>
 9    2  0.1033155E-004  0.9564168E+02  0.7546771E-02  0.1296586E+00
         21   -1    0    0  501  502  0.00000000000E+00  0.00000000000E+00  0.87296737983E+02  0.87296737983E+02  0.00000000000E+00 0. -1.
          2   -1    0    0  502    0 -0.00000000000E+00 -0.00000000000E+00 -0.12511945090E+03  0.12511945090E+03  0.00000000000E+00 0. -1.
         24    2    1    2    0    0 -0.10755730740E+02  0.30200114130E+02 -0.40219064163E+02  0.94640496533E+02  0.79445061675E+02 0.  0.
         23    2    1    2    0    0 -0.10821947293E+02 -0.23265814531E+02  0.49928555272E+00  0.95031911694E+02  0.91500832155E+02 0.  0.
        -11    1    3    3    0    0 -0.20893656022E+02  0.30150772387E+02  0.14162788339E+02  0.39321730773E+02  0.00000000000E+00 0.  1.
         12    1    3    3    0    0  0.10137925282E+02  0.49341743232E-01 -0.54381852502E+02  0.55318765760E+02  0.00000000000E+00 0. -1.
        -11    1    4    4    0    0 -0.40402827980E+02 -0.43160929857E+02 -0.30991891760E+01  0.59201852576E+02  0.00000000000E+00 0. -1.
         11    1    4    4    0    0  0.29580880687E+02  0.19895115326E+02  0.35984747287E+01  0.35830059118E+02  0.00000000000E+00 0.  1.
          1    1    1    2  501    0  0.21577678032E+02 -0.69342995994E+01  0.18970656952E+01  0.22743780655E+02  0.00000000000E+00 0. -1.
<scales pt_clust_5="13000.00000" pt_clust_6="13000.00000" pt_clust_7="13000.00000" pt_clust_8="13000.00000" pt_clust_9="22.66453"></scales>
<clustering>
<clus scale="   22.665">  1  9  2 -1</clus>
<clus scale="   79.445">  5  6 -1 -1</clus>
<clus scale="   84.181">  2  5  1 -1</clus>
<clus scale="   91.501">  7  8 -1 -1</clus>
<clus scale="   22.665">  1  5  2 -1</clus>
</clustering>
</event>
<event>
 9    2  0.1033155E-004  0.1384138E+03  0.7546771E-02  0.1218503E+00
         21   -1    0    0  501  502  0.00000000000E+00  0.00000000000E+00  0.90633084746E+02  0.90633084746E+02  0.00000000000E+00 0.  1.
         -1   -1    0    0    0  501 -0.00000000000E+00 -0.00000000000E+00 -0.48057133726E+03  0.48057133726E+03  0.00000000000E+00 0.  1.
         24    2    1    2    0    0  0.35683933078E+02 -0.92366553519E+02 -0.27547738084E+03  0.30370026012E+03  0.80877298156E+02 0.  0.
         23    2    1    2    0    0 -0.58393241483E+02  0.90834218799E+02 -0.16115152511E+03  0.21556113679E+03  0.94000870699E+02 0.  0.
        -13    1    3    3    0    0 -0.23215110081E+02 -0.15623189671E+02 -0.93626940665E+02  0.97719135331E+02  0.00000000000E+00 0.  1.
         14    1    3    3    0    0  0.58899043159E+02 -0.76743363847E+02 -0.18185044017E+03  0.20598112479E+03  0.00000000000E+00 0. -1.
        -11    1    4    4    0    0 -0.13542761902E+02  0.90784884453E+02 -0.75394826851E+02  0.11878418060E+03  0.00000000000E+00 0. -1.
         11    1    4    4    0    0 -0.44850479581E+02  0.49334346207E-01 -0.85756698259E+02  0.96776956187E+02  0.00000000000E+00 0.  1.
         -2    1    1    2    0  502  0.22709308404E+02  0.15323347192E+01  0.46690653434E+02  0.51943025094E+02  0.00000000000E+00 0.  1.
<scales pt_clust_5="13000.00000" pt_clust_6="13000.00000" pt_clust_7="13000.00000" pt_clust_8="13000.00000" pt_clust_9="22.76095"></scales>
<clustering>
<clus scale="   22.761">  1  9  2 -1</clus>
<clus scale="   80.877">  5  6 -1 -1</clus>
<clus scale="   94.001">  7  8 -1 -1</clus>
<clus scale="  129.859">  2  5  1 -1</clus>
<clus scale="   22.761">  1  5  2 -1</clus>
</clustering>
</event>
<event>
 9    2  0.1033155E-004  0.1219666E+03  0.7546771E-02  0.1242270E+00
          2   -1    0    0  502    0 -0.00000000000E+00  0.00000000000E+00  0.12362655108E+03  0.12362655108E+03  0.00000000000E+00 0. -1.
         21   -1    0    0  501  502  0.00000000000E+00 -0.00000000000E+00 -0.50999266833E+03  0.50999266833E+03  0.00000000000E+00 0. -1.
         24    2    1    2    0    0 -0.62800351707E+02  0.55952123006E+02  0.72389416853E+02  0.13768814126E+03  0.81506271704E+02 0.  0.
         23    2    1    2    0    0  0.18719298396E+02 -0.77854849610E+02 -0.40765625060E+03  0.42498035252E+03  0.89514756494E+02 0.  0.
        -11    1    3    3    0    0  0.59009855657E+01  0.38850703368E+02  0.44192934015E+01  0.39544012657E+02  0.00000000000E+00 0.  1.
         12    1    3    3    0    0 -0.68701337273E+02  0.17101419638E+02  0.67970123452E+02  0.98144128600E+02  0.00000000000E+00 0. -1.
        -13    1    4    4    0    0  0.44114735286E+02 -0.95744561507E+01 -0.19622417356E+03  0.20134971162E+03  0.00000000000E+00 0.  1.
         13    1    4    4    0    0 -0.25395436890E+02 -0.68280393460E+02 -0.21143207704E+03  0.22363064090E+03  0.00000000000E+00 0. -1.
          1    1    1    2  501    0  0.44081053311E+02  0.21902726604E+02 -0.51099283496E+02  0.70950725631E+02  0.00000000000E+00 0. -1.
<scales pt_clust_5="13000.00000" pt_clust_6="13000.00000" pt_clust_7="13000.00000" pt_clust_8="13000.00000" pt_clust_9="49.22264"></scales>
<clustering>
<clus scale="   49.223">  2  9  1 -1</clus>
<clus scale="   81.506">  5  6 -1 -1</clus>
<clus scale="   89.515">  7  8 -1 -1</clus>
<clus scale="  116.216">  1  5  2 -1</clus>
<clus scale="   49.223">  2  5  1 -1</clus>
</clustering>
</event>
<event>
 9    2  0.1033155E-004  0.9607394E+02  0.7546771E-02  0.1296528E+00
         21   -1    0    0  501  502  0.00000000000E+00  0.00000000000E+00  0.38497780965E+02  0.38497780965E+02  0.00000000000E+00 0. -1.
          2   -1    0    0  502    0 -0.00000000000E+00 -0.00000000000E+00 -0.49076960839E+03  0.49076960839E+03  0.00000000000E+00 0. -1.
         24    2    1    2    0    0  0.11464927638E+01  0.12976115044E+02 -0.16606994263E+03  0.18475727384E+03  0.79914519246E+02 0.  0.
         23    2    1    2    0    0 -0.28928257825E+02 -0.45602670895E+02 -0.80889477723E+02  0.13477336834E+03  0.93296867651E+02 0.  0.
        -13    1    3    3    0    0 -0.20878862794E+02  0.22209772613E+02 -0.15581050627E+03  0.15876433723E+03  0.00000000000E+00 0.  1.
         14    1    3    3    0    0  0.22025355558E+02 -0.92336575691E+01 -0.10259436358E+02  0.25992936616E+02  0.00000000000E+00 0. -1.
        -11    1    4    4    0    0 -0.58421728620E+02 -0.16420570358E+02 -0.26133325337E+02  0.66073324413E+02  0.00000000000E+00 0. -1.
         11    1    4    4    0    0  0.29493470795E+02 -0.29182100537E+02 -0.54756152386E+02  0.68700043926E+02  0.00000000000E+00 0.  1.
          1    1    1    2  501    0  0.27781765061E+02  0.32626555851E+02 -0.20531240707E+03  0.20973674717E+03  0.00000000000E+00 0. -1.
<scales pt_clust_5="13000.00000" pt_clust_6="13000.00000" pt_clust_7="13000.00000" pt_clust_8="13000.00000" pt_clust_9="42.85231"></scales>
<clustering>
<clus scale="   42.852">  1  9  2 -1</clus>
<clus scale="   79.915">  5  6 -1 -1</clus>
<clus scale="   83.140">  2  5  1 -1</clus>
<clus scale="   93.297">  7  8 -1 -1</clus>
<clus scale="   42.852">  1  5  2 -1</clus>
</clustering>
</event>
<event>
 9    2  0.1033155E-004  0.2103995E+03  0.7546771E-02  0.1168931E+00
          4   -1    0    0  502    0 -0.00000000000E+00  0.00000000000E+00  0.60963887019E+02  0.60963887019E+02  0.00000000000E+00 0. -1.
         21   -1    0    0  501  502  0.00000000000E+00 -0.00000000000E+00 -0.14912142111E+04  0.14912142111E+04  0.00000000000E+00 0. -1.
         23    2    1    2    0    0 -0.79475984107E+00 -0.60670105399E+02 -0.78265929779E+02  0.13486404214E+03  0.91549225920E+02 0.  0.
         24    2    1    2    0    0  0.15191574429E+03 -0.98403872787E+02 -0.77726541210E+03  0.80213604029E+03  0.80740267167E+02 0.  0.
        -13    1    4    4    0    0  0.77163178203E+02 -0.76004666450E+01 -0.37980856813E+03  0.38764219531E+03  0.00000000000E+00 0.  1.
         14    1    4    4    0    0  0.74752566086E+02 -0.90803406142E+02 -0.39745684397E+03  0.41449384498E+03  0.00000000000E+00 0. -1.
        -13    1    3    3    0    0 -0.22859871111E+02 -0.75914635042E+02 -0.72498029307E+02  0.10743169818E+03  0.00000000000E+00 0. -1.
         13    1    3    3    0    0  0.22065111270E+02  0.15244529643E+02 -0.57679004718E+01  0.27432343961E+02  0.00000000000E+00 0.  1.
          3    1    1    2  501    0 -0.15112098445E+03  0.15907397819E+03 -0.57471898217E+03  0.61517801565E+03  0.00000000000E+00 0. -1.
<scales pt_clust_5="13000.00000" pt_clust_6="13000.00000" pt_clust_7="13000.00000" pt_clust_8="13000.00000" pt_clust_9="194.29102"></scales>
<clustering>
<clus scale="   80.740">  5  6 -1 -1</clus>
<clus scale="   91.549">  7  8 -1 -1</clus>
<clus scale="  109.831">  1  7  2 -1</clus>
<clus scale="  194.291">  2  9  1 -1</clus>
<clus scale="  194.291">  2  5  1 -1</clus>
</clustering>
</event>
<event>
 9    2  0.1033155E-004  0.1060075E+03  0.7546771E-02  0.1272833E+00
          2   -1    0    0  502    0 -0.00000000000E+00  0.00000000000E+00  0.15377368434E+03  0.15377368434E+03  0.00000000000E+00 0. -1.
         21   -1    0    0  501  502  0.00000000000E+00 -0.00000000000E+00 -0.22499804694E+03  0.22499804694E+03  0.00000000000E+00 0.  1.
         24    2    1    2    0    0 -0.54093983246E+02  0.23522882529E+02  0.10839815384E+03  0.14760735621E+03  0.80983250276E+02 0.  0.
         23    2    1    2    0    0  0.21870977805E+02  0.14147448763E+02 -0.10843531990E+03  0.14441765819E+03  0.91759203464E+02 0.  0.
        -13    1    3    3    0    0 -0.41999469376E+01 -0.28081527076E+02  0.29604353514E+02  0.41019866701E+02  0.00000000000E+00 0.  1.
         14    1    3    3    0    0 -0.49894036308E+02  0.51604409605E+02  0.78793800324E+02  0.10658748951E+03  0.00000000000E+00 0. -1.
        -11    1    4    4    0    0 -0.26237705628E+02  0.30708710027E+02 -0.27662030821E+02  0.48955388031E+02  0.00000000000E+00 0.  1.
         11    1    4    4    0    0  0.48108683434E+02 -0.16561261264E+02 -0.80773289076E+02  0.95462270162E+02  0.00000000000E+00 0. -1.
          1    1    1    2  501    0  0.32223005440E+02 -0.37670331291E+02 -0.71187196540E+02  0.86746716886E+02  0.00000000000E+00 0. -1.
<scales pt_clust_5="13000.00000" pt_clust_6="13000.00000" pt_clust_7="13000.00000" pt_clust_8="13000.00000" pt_clust_9="49.57193"></scales>
<clustering>
<clus scale="   49.572">  2  9  1 -1</clus>
<clus scale="   80.983">  5  6 -1 -1</clus>
<clus scale="   91.759">  7  8 -1 -1</clus>
<clus scale="   96.830">  1  5  2 -1</clus>
<clus scale="   49.572">  2  5  1 -1</clus>
</clustering>
</event>
<event>
 9    2  0.1033155E-004  0.1039935E+03  0.7546771E-02  0.1280444E+00
          2   -1    0    0  502    0 -0.00000000000E+00  0.00000000000E+00  0.49891485371E+03  0.49891485371E+03  0.00000000000E+00 0. -1.
         21   -1    0    0  501  502  0.00000000000E+00 -0.00000000000E+00 -0.43213382116E+02  0.43213382116E+02  0.00000000000E+00 0. -1.
         24    2    1    2    0    0 -0.29979790006E+02 -0.23509017246E+01  0.21166002393E+03  0.22947637168E+03  0.83397391334E+02 0.  0.
         23    2    1    2    0    0  0.23193252382E+02  0.36372393085E+02  0.57245999445E+02  0.12266223695E+03  0.99539148006E+02 0.  0.
        -11    1    3    3    0    0  0.14559286390E+02  0.14468221276E+02  0.11083338183E+02  0.23326865035E+02  0.00000000000E+00 0.  1.
         12    1    3    3    0    0 -0.44539076396E+02 -0.16819123001E+02  0.20057668574E+03  0.20614950664E+03  0.00000000000E+00 0. -1.
        -13    1    4    4    0    0 -0.13352978511E+01 -0.28327330532E+02 -0.59234487460E+01  0.28970811526E+02  0.00000000000E+00 0.  1.
         13    1    4    4    0    0  0.24528550233E+02  0.64699723618E+02  0.63169448191E+02  0.93691425422E+02  0.00000000000E+00 0. -1.
          1    1    1    2  501    0  0.67865376243E+01 -0.34021491361E+02  0.18679544823E+03  0.18998962720E+03  0.00000000000E+00 0. -1.
<scales pt_clust_5="13000.00000" pt_clust_6="13000.00000" pt_clust_7="13000.00000" pt_clust_8="13000.00000" pt_clust_9="34.69179"></scales>
<clustering>
<clus scale="   34.692">  2  9  1 -1</clus>
<clus scale="   83.397">  5  6 -1 -1</clus>
<clus scale="   88.666">  1  5  2 -1</clus>
<clus scale="   99.539">  7  8 -1 -1</clus>
<clus scale="   34.692">  2  5  1 -1</clus>
</clustering>
</event>
<event>
 9    2  0.1033155E-004  0.1725189E+03  0.7546771E-02  0.1207600E+00
         21   -1    0    0  501  502  0.00000000000E+00  0.00000000000E+00  0.34214800092E+02  0.34214800092E+02  0.00000000000E+00 0.  1.
          2   -1    0    0  502    0 -0.00000000000E+00 -0.00000000000E+00 -0.22109292409E+04  0.22109292409E+04  0.00000000000E+00 0. -1.
         24    2    1    2    0    0  0.16199623746E+01  0.19111855910E+02 -0.11099356841E+04  0.11131509672E+04  0.82340546818E+02 0.  0.
         23    2    1    2    0    0  0.14411039019E+03 -0.25250193672E+02 -0.26041625805E+03  0.31254478738E+03  0.91990433304E+02 0.  0.
        -11    1    3    3    0    0  0.50095627920E+01 -0.23659708079E+02 -0.12717155358E+03  0.12945069156E+03  0.00000000000E+00 0.  1.
         12    1    3    3    0    0 -0.33896004175E+01  0.42771563989E+02 -0.98276413050E+03  0.98370027563E+03  0.00000000000E+00 0. -1.
        -11    1    4    4    0    0  0.10549393825E+03 -0.12093145941E+02 -0.96015876925E+02  0.14315817758E+03  0.00000000000E+00 0.  1.
         11    1    4    4    0    0  0.38616451941E+02 -0.13157047731E+02 -0.16440038112E+03  0.16938660980E+03  0.00000000000E+00 0. -1.
          1    1    1    2  501    0 -0.14573035256E+03  0.61383377625E+01 -0.80636249867E+03  0.81944828641E+03  0.00000000000E+00 0. -1.
<scales pt_clust_5="13000.00000" pt_clust_6="13000.00000" pt_clust_7="13000.00000" pt_clust_8="13000.00000" pt_clust_9="145.94706"></scales>
<clustering>
<clus scale="   82.341">  5  6 -1 -1</clus>
<clus scale="   84.545">  2  5  1 -1</clus>
<clus scale="   91.990">  7  8 -1 -1</clus>
<clus scale="  145.947">  1  9  2 -1</clus>
<clus scale="  145.947">  1  5  2 -1</clus>
</clustering>
</event>
<event>
 9    2  0.1033155E-004  0.1209044E+03  0.7546771E-02  0.1243869E+00
         -1   -1    0    0    0  501 -0.00000000000E+00  0.00000000000E+00  0.18073423097E+03  0.18073423097E+03  0.00000000000E+00 0.  1.
         21   -1    0    0  501  502  0.00000000000E+00 -0.00000000000E+00 -0.10660921904E+03  0.10660921904E+03  0.00000000000E+00 0.  1.
         23    2    1    2    0    0  0.48727747805E+02  0.74020605903E+02  0.91670321445E+02  0.15573907621E+03  0.89430243885E+02 0.  0.
         24    2    1    2    0    0 -0.45768835356E+02 -0.51016996859E+02 -0.10591228232E+02  0.10739114521E+03  0.81994900430E+02 0.  0.
        -11    1    4    4    0    0  0.10007898206E+02 -0.18594430169E+02 -0.32928740436E+02  0.39117934589E+02  0.00000000000E+00 0.  1.
         12    1    4    4    0    0 -0.55776733561E+02 -0.32422566689E+02  0.22337512204E+02  0.68273210624E+02  0.00000000000E+00 0. -1.
        -13    1    3    3    0    0  0.30015966490E+02  0.24775741084E+02 -0.10911662565E+02  0.40421033763E+02  0.00000000000E+00 0. -1.
         13    1    3    3    0    0  0.18711781315E+02  0.49244864820E+02  0.10258198401E+03  0.11531804245E+03  0.00000000000E+00 0.  1.
         -2    1    1    2    0  502 -0.29589124497E+01 -0.23003609044E+02 -0.69540812800E+01  0.24213228583E+02  0.00000000000E+00 0.  1.
<scales pt_clust_5="13000.00000" pt_clust_6="13000.00000" pt_clust_7="13000.00000" pt_clust_8="13000.00000" pt_clust_9="23.19313"></scales>
<clustering>
<clus scale="   23.193">  2  9  1 -1</clus>
<clus scale="   81.995">  5  6 -1 -1</clus>
<clus scale="   89.430">  7  8 -1 -1</clus>
<clus scale="  115.513">  2  5  1 -1</clus>
<clus scale="   23.193">  2  5  1 -1</clus>
</clustering>
</event>
<event>
 9    2  0.1033155E-004  0.9364519E+02  0.7546771E-02  0.1300558E+00
         21   -1    0    0  501  502  0.00000000000E+00  0.00000000000E+00  0.22914412527E+02  0.22914412527E+02  0.00000000000E+00 0.  1.
          2   -1    0    0  502    0 -0.00000000000E+00 -0.00000000000E+00 -0.68029149119E+03  0.68029149119E+03  0.00000000000E+00 0. -1.
         24    2    1    2    0    0  0.21351433631E+02  0.46686291097E+01 -0.42290137490E+03  0.43108551092E+03  0.80693649169E+02 0.  0.
         23    2    1    2    0    0 -0.50783024028E+01 -0.32766419713E+02 -0.12725887764E+03  0.16009473305E+03  0.91302104016E+02 0.  0.
        -11    1    3    3    0    0 -0.20256824380E+02 -0.25072777531E+02 -0.17906930914E+03  0.18194724670E+03  0.00000000000E+00 0.  1.
         12    1    3    3    0    0  0.41608258011E+02  0.29741406640E+02 -0.24383206576E+03  0.24913826422E+03  0.00000000000E+00 0. -1.
        -13    1    4    4    0    0  0.36156040252E+02 -0.41293831732E+02 -0.67669393428E+02  0.87129711309E+02  0.00000000000E+00 0.  1.
         13    1    4    4    0    0 -0.41234342655E+02  0.85274120188E+01 -0.59589484209E+02  0.72965021744E+02  0.00000000000E+00 0. -1.
          1    1    1    2  501    0 -0.16273131229E+02  0.28097790604E+02 -0.10721682613E+03  0.11202565975E+03  0.00000000000E+00 0. -1.
<scales pt_clust_5="13000.00000" pt_clust_6="13000.00000" pt_clust_7="13000.00000" pt_clust_8="13000.00000" pt_clust_9="32.47001"></scales>
<clustering>
<clus scale="   32.470">  1  9  2 -1</clus>
<clus scale="   80.694">  5  6 -1 -1</clus>
<clus scale="   83.336">  2  5  1 -1</clus>
<clus scale="   91.302">  7  8 -1 -1</clus>
<clus scale="   32.470">  1  5  2 -1</clus>
</clustering>
</event>
<event>
 9    2  0.1033155E-004  0.1332576E+03  0.7546771E-02  0.1243855E+00
         21   -1    0    0  501  502  0.00000000000E+00  0.00000000000E+00  0.54233072298E+02  0.54233072298E+02  0.00000000000E+00 0.  1.
         -1   -1    0    0    0  501 -0.00000000000E+00 -0.00000000000E+00 -0.78810421254E+03  0.78810421254E+03  0.00000000000E+00 0.  1.
         24    2    1    2    0    0 -0.66028004995E+00  0.30168428721E+02 -0.15422947374E+03  0.17673173016E+03  0.80850502871E+02 0.  0.
         23    2    1    2    0    0  0.72323133543E+01  0.65500079672E+02 -0.55443615519E+03  0.56645429185E+03  0.95542910632E+02 0.  0.
        -11    1    3    3    0    0  0.10544237084E+02  0.56459347794E+02 -0.96068028079E+02  0.11192812385E+03  0.00000000000E+00 0.  1.
         12    1    3    3    0    0 -0.11204517134E+02 -0.26290919073E+02 -0.58161445664E+02  0.64803606317E+02  0.00000000000E+00 0. -1.
        -11    1    4    4    0    0  0.49937887763E+02  0.49905249202E+02 -0.33843138011E+03  0.34571682860E+03  0.00000000000E+00 0. -1.
         11    1    4    4    0    0 -0.42705574408E+02  0.15594830471E+02 -0.21600477508E+03  0.22073746325E+03  0.00000000000E+00 0.  1.
         -2    1    1    2    0  502 -0.65720333043E+01 -0.95668508393E+02 -0.25205511306E+02  0.99151262827E+02  0.00000000000E+00 0.  1.
<scales pt_clust_5="13000.00000" pt_clust_6="13000.00000" pt_clust_7="13000.00000" pt_clust_8="13000.00000" pt_clust_9="92.89321"></scales>
<clustering>
<clus scale="   80.851">  5  6 -1 -1</clus>
<clus scale="   86.298">  2  5  1 -1</clus>
<clus scale="   92.893">  1  9  2 -1</clus>
<clus scale="   95.543">  7  8 -1 -1</clus>
<clus scale="   92.893">  1  5  2 -1</clus>
</clustering>
</event>
<event>
 9    2  0.1033155E-004  0.1359508E+03  0.7546771E-02  0.1221630E+00
         -1   -1    0    0    0  501 -0.00000000000E+00  0.00000000000E+00  0.57784140020E+03  0.57784140020E+03  0.00000000000E+00 0.  1.
         21   -1    0    0  501  502  0.00000000000E+00 -0.00000000000E+00 -0.11396443761E+03  0.11396443761E+03  0.00000000000E+00 0.  1.
         23    2    1    2    0    0  0.68345189572E+02 -0.67106629538E+02  0.47616487726E+03  0.49440392439E+03  0.92346550845E+02 0.  0.
         24    2    1    2    0    0 -0.10017394569E+03  0.89649056709E+02 -0.10319757731E+01  0.15680724752E+03  0.80719732014E+02 0.  0.
        -11    1    4    4    0    0 -0.50735594875E+02  0.93756614149E+02 -0.70395036003E+01  0.10683612636E+03  0.00000000000E+00 0.  1.
         12    1    4    4    0    0 -0.49438350819E+02 -0.41075574397E+01  0.60075278272E+01  0.49971121164E+02  0.00000000000E+00 0. -1.
        -13    1    3    3    0    0  0.69271273757E+02 -0.39753711557E+01  0.27116284989E+03  0.27989927492E+03  0.00000000000E+00 0.  1.
         13    1    3    3    0    0 -0.92608418449E+00 -0.63131258382E+02  0.20500202737E+03  0.21450464947E+03  0.00000000000E+00 0. -1.
         -2    1    1    2    0  502  0.31828756122E+02 -0.22542427171E+02 -0.11255938889E+02  0.40594665897E+02  0.00000000000E+00 0.  1.
<scales pt_clust_5="13000.00000" pt_clust_6="13000.00000" pt_clust_7="13000.00000" pt_clust_8="13000.00000" pt_clust_9="39.00296"></scales>
<clustering>
<clus scale="   39.003">  2  9  1 -1</clus>
<clus scale="   80.720">  5  6 -1 -1</clus>
<clus scale="   92.347">  7  8 -1 -1</clus>
<clus scale="  128.337">  2  5  1 -1</clus>
<clus scale="   39.003">  2  5  1 -1</clus>
</clustering>
</event>
<event>
 9    2  0.1033155E-004  0.1036102E+03  0.7546771E-02  0.1278102E+00
         -3   -1    0    0    0  501 -0.00000000000E+00  0.00000000000E+00  0.11831820391E+03  0.11831820391E+03  0.00000000000E+00 0.  1.
         21   -1    0    0  501  502  0.00000000000E+00 -0.00000000000E+00 -0.25956420581E+03  0.25956420581E+03  0.00000000000E+00 0. -1.
         23    2    1    2    0    0  0.27541136230E+02  0.47057331778E+02  0.46007059581E+00  0.10507336320E+03  0.89818112489E+02 0.  0.
         24    2    1    2    0    0  0.63454233120E+02 -0.53221495524E+02 -0.12436633012E+02  0.11460429899E+03  0.78233677019E+02 0.  0.
        -13    1    4    4    0    0  0.18335763942E+01 -0.34877942478E+02 -0.32032717503E+02  0.47391221386E+02  0.00000000000E+00 0.  1.
         14    1    4    4    0    0  0.61620656726E+02 -0.18343553046E+02  0.19596084491E+02  0.67213077604E+02  0.00000000000E+00 0. -1.
        -13    1    3    3    0    0  0.39337681216E+02  0.36535154494E+01 -0.30972249878E+02  0.50200414351E+02  0.00000000000E+00 0. -1.
         13    1    3    3    0    0 -0.11796544985E+02  0.43403816328E+02  0.31432320473E+02  0.54872948853E+02  0.00000000000E+00 0.  1.
         -4    1    1    2    0  502 -0.90995369350E+02  0.61641637461E+01 -0.12926943948E+03  0.15820474753E+03  0.00000000000E+00 0.  1.
<scales pt_clust_5="13000.00000" pt_clust_6="13000.00000" pt_clust_7="13000.00000" pt_clust_8="13000.00000" pt_clust_9="91.20392"></scales>
<clustering>
<clus scale="   78.234">  5  6 -1 -1</clus>
<clus scale="   89.818">  7  8 -1 -1</clus>
<clus scale="   91.204">  2  9  1 -1</clus>
<clus scale="   93.746">  2  5  1 -1</clus>
<clus scale="   91.204">  2  5  1 -1</clus>
</clustering>
</event>
<event>
 9    2  0.1033155E-004  0.1008569E+03  0.7546771E-02  0.1283707E+00
         21   -1    0    0  501  502  0.00000000000E+00  0.00000000000E+00  0.26579837838E+03  0.26579837838E+03  0.00000000000E+00 0.  1.
         -3   -1    0    0    0  501 -0.00000000000E+00 -0.00000000000E+00 -0.16946969634E+03  0.16946969634E+03  0.00000000000E+00 0.  1.
         23    2    1    2    0    0 -0.42999985186E+02 -0.21674761599E+02 -0.72333342337E+02  0.12581952554E+03  0.90992563302E+02 0.  0.
         24    2    1    2    0    0  0.90814262435E+01  0.47990523908E+02 -0.35738531081E+02  0.10058836854E+03  0.80344350106E+02 0.  0.
        -13    1    4    4    0    0 -0.34344713708E+02  0.15407470285E+02 -0.25159895672E+02  0.45276592744E+02  0.00000000000E+00 0.  1.
         14    1    4    4    0    0  0.43426139952E+02  0.32583053622E+02 -0.10578635410E+02  0.55311775795E+02  0.00000000000E+00 0. -1.
        -11    1    3    3    0    0  0.27499620862E+02  0.87052268455E+00 -0.10769668912E+02  0.29546111855E+02  0.00000000000E+00 0. -1.
         11    1    3    3    0    0 -0.70499606048E+02 -0.22545284283E+02 -0.61563673425E+02  0.96273413682E+02  0.00000000000E+00 0.  1.
         -4    1    1    2    0  502  0.33918558943E+02 -0.26315762309E+02  0.20440055546E+03  0.20886018065E+03  0.00000000000E+00 0.  1.
<scales pt_clust_5="13000.00000" pt_clust_6="13000.00000" pt_clust_7="13000.00000" pt_clust_8="13000.00000" pt_clust_9="42.93004"></scales>
<clustering>
<clus scale="   42.930">  1  9  2 -1</clus>
<clus scale="   80.344">  5  6 -1 -1</clus>
<clus scale="   90.993">  7  8 -1 -1</clus>
<clus scale="   91.366">  1  5  2 -1</clus>
<clus scale="   42.930">  1  5  2 -1</clus>
</clustering>
</event>
<event>
 9    2  0.1033155E-004  0.9392259E+02  0.7546771E-02  0.1299504E+00
         21   -1    0    0  501  502  0.00000000000E+00  0.00000000000E+00  0.30753971950E+03  0.30753971950E+03  0.00000000000E+00 0. -1.
          2   -1    0    0  502    0 -0.00000000000E+00 -0.00000000000E+00 -0.77589498544E+02  0.77589498544E+02  0.00000000000E+00 0. -1.
         24    2    1    2    0    0  0.52978113049E+01 -0.18048157203E+02 -0.23252616354E+01  0.83265715612E+02  0.81080020792E+02 0.  0.
         23    2    1    2    0    0  0.54091207262E+02  0.22895361853E+02  0.70129243145E+02  0.12911526399E+03  0.91118518167E+02 0.  0.
        -11    1    3    3    0    0 -0.24220741164E+02  0.21841996600E+02  0.53526174286E+01  0.33050985331E+02  0.00000000000E+00 0.  1.
         12    1    3    3    0    0  0.29518552469E+02 -0.39890153802E+02 -0.76778790640E+01  0.50214730281E+02  0.00000000000E+00 0. -1.
        -13    1    4    4    0    0  0.73991387066E+02  0.32485591913E+02  0.70173031154E+02  0.10702473239E+03  0.00000000000E+00 0.  1.
         13    1    4    4    0    0 -0.19900179804E+02 -0.95902300601E+01 -0.43788008942E-01  0.22090531597E+02  0.00000000000E+00 0. -1.
          1    1    1    2  501    0 -0.59389018567E+02 -0.48472046498E+01  0.16214623944E+03  0.17274823844E+03  0.00000000000E+00 0. -1.
<scales pt_clust_5="13000.00000" pt_clust_6="13000.00000" pt_clust_7="13000.00000" pt_clust_8="13000.00000" pt_clust_9="59.58650"></scales>
<clustering>
<clus scale="   59.586">  1  9  2 -1</clus>
<clus scale="   81.080">  5  6 -1 -1</clus>
<clus scale="   84.219">  2  5  1 -1</clus>
<clus scale="   91.119">  7  8 -1 -1</clus>
<clus scale="   59.586">  1  5  2 -1</clus>
</clustering>
</event>
<event>
 9    2  0.1033155E-004  0.1078498E+03  0.7546771E-02  0.1269613E+00
          2   -1    0    0  502    0 -0.00000000000E+00  0.00000000000E+00  0.49774529952E+03  0.49774529952E+03  0.00000000000E+00 0. -1.
         21   -1    0    0  501  502  0.00000000000E+00 -0.00000000000E+00 -0.33530718667E+02  0.33530718667E+02  0.00000000000E+00 0. -1.
         23    2    1    2    0    0  0.47776290964E+02 -0.28475896751E+02  0.22006110912E+03  0.24516450531E+03  0.92656852117E+02 0.  0.
         24    2    1    2    0    0 -0.20795302009E+02  0.57678857001E+02  0.21187004562E+03  0.23489621971E+03  0.80796179815E+02 0.  0.
        -13    1    4    4    0    0  0.44670768033E+01  0.69767152260E+02  0.17608396042E+03  0.18945440461E+03  0.00000000000E+00 0.  1.
         14    1    4    4    0    0 -0.25262378812E+02 -0.12088295259E+02  0.35786085201E+02  0.45441815100E+02  0.00000000000E+00 0. -1.
        -13    1    3    3    0    0 -0.58040891239E+01 -0.38414120759E+02  0.35152323272E+02  0.52392918945E+02  0.00000000000E+00 0.  1.
         13    1    3    3    0    0  0.53580380088E+02  0.99382240077E+01  0.18490878585E+03  0.19277158637E+03  0.00000000000E+00 0. -1.
          1    1    1    2  501    0 -0.26980988955E+02 -0.29202960250E+02  0.32283426112E+02  0.51215293164E+02  0.00000000000E+00 0. -1.
<scales pt_clust_5="13000.00000" pt_clust_6="13000.00000" pt_clust_7="13000.00000" pt_clust_8="13000.00000" pt_clust_9="39.75911"></scales>
<clustering>
<clus scale="   39.759">  2  9  1 -1</clus>
<clus scale="   80.796">  5  6 -1 -1</clus>
<clus scale="   92.657">  7  8 -1 -1</clus>
<clus scale="   97.848">  2  5  1 -1</clus>
<clus scale="   39.759">  2  5  1 -1</clus>
</clustering>
</event>
<event>
 9    2  0.1033155E-004  0.1134480E+03  0.7546771E-02  0.1258312E+00
         21   -1    0    0  501  502  0.00000000000E+00  0.00000000000E+00  0.20071135929E+03  0.20071135929E+03  0.00000000000E+00 0. -1.
          2   -1    0    0  502    0 -0.00000000000E+00 -0.00000000000E+00 -0.23405107996E+03  0.23405107996E+03  0.00000000000E+00 0. -1.
         24    2    1    2    0    0 -0.55827939914E+02  0.57242990440E+02 -0.16168922696E+02  0.11473375544E+03  0.80677640933E+02 0.  0.
         23    2    1    2    0    0  0.71752316999E+02  0.45406447796E+02  0.10248949154E+03  0.16157024181E+03  0.91600800576E+02 0.  0.
        -11    1    3    3    0    0 -0.45917600758E+02 -0.78355802305E+01 -0.14851967374E+02  0.48891750959E+02  0.00000000000E+00 0.  1.
         12    1    3    3    0    0 -0.99103391558E+01  0.65078570671E+02 -0.13169553225E+01  0.65842004481E+02  0.00000000000E+00 0. -1.
        -11    1    4    4    0    0  0.69168907618E+01  0.31372184212E+02  0.87984408421E+02  0.93665967380E+02  0.00000000000E+00 0. -1.
         11    1    4    4    0    0  0.64835426237E+02  0.14034263583E+02  0.14505083122E+02  0.67904274432E+02  0.00000000000E+00 0.  1.
          1    1    1    2  501    0 -0.15924377085E+02 -0.10264943824E+03 -0.11966028952E+03  0.15845844200E+03  0.00000000000E+00 0. -1.
<scales pt_clust_5="13000.00000" pt_clust_6="13000.00000" pt_clust_7="13000.00000" pt_clust_8="13000.00000" pt_clust_9="103.87735"></scales>
<clustering>
<clus scale="   80.678">  5  6 -1 -1</clus>
<clus scale="   91.601">  7  8 -1 -1</clus>
<clus scale="  103.877">  1  9  2 -1</clus>
<clus scale="  104.827">  2  5  1 -1</clus>
<clus scale="  103.877">  1  5  2 -1</clus>
</clustering>
</event>
<event>
 9    2  0.1033155E-004  0.9979566E+02  0.7546771E-02  0.1287658E+00
          4   -1    0    0  502    0 -0.00000000000E+00  0.00000000000E+00  0.95404586976E+02  0.95404586976E+02  0.00000000000E+00 0. -1.
         21   -1    0    0  501  502  0.00000000000E+00 -0.00000000000E+00 -0.18291444449E+03  0.18291444449E+03  0.00000000000E+00 0. -1.
         23    2    1    2    0    0 -0.56799462386E+02 -0.75417628163E+01 -0.18085637553E+02  0.11093021079E+03  0.93248937075E+02 0.  0.
         24    2    1    2    0    0  0.85813446002E+01 -0.35064510285E+02 -0.35753487749E+02  0.94766512824E+02  0.79995129289E+02 0.  0.
        -11    1    4    4    0    0  0.31506076350E+02 -0.16762616663E+02  0.12905241990E+02  0.37949485308E+02  0.00000000000E+00 0.  1.
         12    1    4    4    0    0 -0.22924731749E+02 -0.18301893622E+02 -0.48658729739E+02  0.56817027516E+02  0.00000000000E+00 0. -1.
        -11    1    3    3    0    0 -0.27344825889E+02  0.15211695726E+02 -0.51926674495E+02  0.60626023405E+02  0.00000000000E+00 0.  1.
         11    1    3    3    0    0 -0.29454636497E+02 -0.22753458542E+02  0.33841036942E+02  0.50304187381E+02  0.00000000000E+00 0. -1.
          3    1    1    2  501    0  0.48218117786E+02  0.42606273101E+02 -0.33670732209E+02  0.72622307853E+02  0.00000000000E+00 0. -1.
<scales pt_clust_5="13000.00000" pt_clust_6="13000.00000" pt_clust_7="13000.00000" pt_clust_8="13000.00000" pt_clust_9="64.34502"></scales>
<clustering>
<clus scale="   64.345">  2  9  1 -1</clus>
<clus scale="   79.995">  5  6 -1 -1</clus>
<clus scale="   87.539">  2  5  1 -1</clus>
<clus scale="   93.249">  7  8 -1 -1</clus>
<clus scale="   64.345">  2  5  1 -1</clus>
</clustering>
</event>
<event>
 9    2  0.1033155E-004  0.2024311E+03  0.7546771E-02  0.1150061E+00
          2   -1    0    0  502    0 -0.00000000000E+00  0.00000000000E+00  0.14116295438E+04  0.14116295438E+04  0.00000000000E+00 0. -1.
         21   -1    0    0  501  502  0.00000000000E+00 -0.00000000000E+00 -0.32029416795E+03  0.32029416795E+03  0.00000000000E+00 0. -1.
         24    2    1    2    0    0 -0.13779766807E+03 -0.10635044044E+03  0.10840746117E+04  0.11008440243E+04  0.79631579439E+02 0.  0.
         23    2    1    2    0    0  0.74245622060E+02 -0.15800588971E+03 -0.20627211336E+03  0.28536387702E+03  0.91684698706E+02 0.  0.
        -11    1    3    3    0    0 -0.75883473267E+02 -0.29072041960E+02  0.31050136469E+03  0.32095884878E+03  0.00000000000E+00 0.  1.
         12    1    3    3    0    0 -0.61914194803E+02 -0.77278398482E+02  0.77357324706E+03  0.77988517549E+03  0.00000000000E+00 0. -1.
        -13    1    4    4    0    0  0.65362218148E+02 -0.11730553163E+03 -0.20323807432E+03  0.24359499618E+03  0.00000000000E+00 0. -1.
         13    1    4    4    0    0  0.88834039119E+01 -0.40700358085E+02 -0.30340390412E+01  0.41768880835E+02  0.00000000000E+00 0.  1.
          1    1    1    2  501    0  0.63552046010E+02  0.26435633015E+03  0.21353287747E+03  0.34571581047E+03  0.00000000000E+00 0. -1.
<scales pt_clust_5="13000.00000" pt_clust_6="13000.00000" pt_clust_7="13000.00000" pt_clust_8="13000.00000" pt_clust_9="180.47795"></scales>
<clustering>
<clus scale="   79.632">  5  6 -1 -1</clus>
<clus scale="   91.685">  7  8 -1 -1</clus>
<clus scale="  191.415">  1  5  2 -1</clus>
<clus scale="  180.478">  2  9  1 -1</clus>
<clus scale="  180.478">  2  5  1 -1</clus>
</clustering>
</event>
<event>
 9    2  0.1033155E-004  0.1197773E+03  0.7546771E-02  0.1256096E+00
         21   -1    0    0  501  502  0.00000000000E+00  0.00000000000E+00  0.74647644499E+02  0.74647644499E+02  0.00000000000E+00 0.  1.
         -1   -1    0    0    0  501 -0.00000000000E+00 -0.00000000000E+00 -0.34246641635E+03  0.34246641635E+03  0.00000000000E+00 0.  1.
         24    2    1    2    0    0 -0.31109159397E+02  0.16511802755E+02 -0.14949997865E+03  0.17451692655E+03  0.82858280246E+02 0.  0.
         23    2    1    2    0    0  0.45605524999E+02 -0.30735356473E+02 -0.15600485074E+03  0.19978717017E+03  0.11203960846E+03 0.  0.
        -13    1    3    3    0    0 -0.26739589417E+02  0.49112287153E+02 -0.79763708639E+02  0.97412892409E+02  0.00000000000E+00 0.  1.
         14    1    3    3    0    0 -0.43695699802E+01 -0.32600484398E+02 -0.69736270013E+02  0.77104034137E+02  0.00000000000E+00 0. -1.
        -13    1    4    4    0    0  0.69355479448E+02  0.27548383069E+01 -0.48408277660E+02  0.84623477887E+02  0.00000000000E+00 0. -1.
         13    1    4    4    0    0 -0.23749954449E+02 -0.33490194780E+02 -0.10759657308E+03  0.11516369229E+03  0.00000000000E+00 0.  1.
         -2    1    1    2    0  502 -0.14496365602E+02  0.14223553719E+02  0.37686057540E+02  0.42809964132E+02  0.00000000000E+00 0.  1.
<scales pt_clust_5="13000.00000" pt_clust_6="13000.00000" pt_clust_7="13000.00000" pt_clust_8="13000.00000" pt_clust_9="20.30897"></scales>
<clustering>
<clus scale="   20.309">  1  9  2 -1</clus>
<clus scale="   82.858">  5  6 -1 -1</clus>
<clus scale="   93.055">  2  5  1 -1</clus>
<clus scale="  112.040">  7  8 -1 -1</clus>
<clus scale="   20.309">  1  5  2 -1</clus>
</clustering>
</event>
<event>
 9    2  0.1033155E-004  0.1003329E+03  0.7546771E-02  0.1286050E+00
         21   -1    0    0  501  502  0.00000000000E+00  0.00000000000E+00  0.71820085234E+03  0.71820085234E+03  0.00000000000E+00 0.  1.
         -3   -1    0    0    0  501 -0.00000000000E+00 -0.00000000000E+00 -0.46207374819E+02  0.46207374819E+02  0.00000000000E+00 0.  1.
         24    2    1    2    0    0 -0.35241905674E+02  0.17800030722E+02  0.17508143767E+02  0.91291440752E+02  0.80428595954E+02 0.  0.
         23    2    1    2    0    0  0.36692656629E+02  0.32744462068E+02  0.48323797801E+03  0.49456005234E+03  0.93016940061E+02 0.  0.
        -13    1    3    3    0    0 -0.33448907514E+02 -0.26846910722E+02 -0.10613507404E+01  0.42903525433E+02  0.00000000000E+00 0.  1.
         14    1    3    3    0    0 -0.17929981596E+01  0.44646941443E+02  0.18569494508E+02  0.48387915319E+02  0.00000000000E+00 0. -1.
        -13    1    4    4    0    0 -0.18485937617E+00  0.59511198604E+02  0.26103541342E+03  0.26773327023E+03  0.00000000000E+00 0.  1.
         13    1    4    4    0    0  0.36877516005E+02 -0.26766736536E+02  0.22220256459E+03  0.22682678211E+03  0.00000000000E+00 0. -1.
         -4    1    1    2    0  502 -0.14507509556E+01 -0.50544492789E+02  0.17124735575E+03  0.17855673407E+03  0.00000000000E+00 0.  1.
<scales pt_clust_5="13000.00000" pt_clust_6="13000.00000" pt_clust_7="13000.00000" pt_clust_8="13000.00000" pt_clust_9="50.56531"></scales>
<clustering>
<clus scale="   50.565">  1  9  2 -1</clus>
<clus scale="   80.429">  5  6 -1 -1</clus>
<clus scale="   88.788">  2  5  1 -1</clus>
<clus scale="   93.017">  7  8 -1 -1</clus>
<clus scale="   50.565">  1  5  2 -1</clus>
</clustering>
</event>
<event>
 9    2  0.1033155E-004  0.1339416E+03  0.7546771E-02  0.1241860E+00
         -1   -1    0    0    0  501 -0.00000000000E+00  0.00000000000E+00  0.43994349191E+02  0.43994349191E+02  0.00000000000E+00 0.  1.
         21   -1    0    0  501  502  0.00000000000E+00 -0.00000000000E+00 -0.84553764693E+03  0.84553764693E+03  0.00000000000E+00 0. -1.
         24    2    1    2    0    0 -0.28955954728E+02  0.22618410096E+02 -0.50696724576E+02  0.10197503390E+03  0.80490433389E+02 0.  0.
         23    2    1    2    0    0 -0.22380921252E+02  0.79158023182E+02 -0.41104604129E+03  0.42914613835E+03  0.91873074019E+02 0.  0.
        -11    1    3    3    0    0 -0.62300181320E+01 -0.28148690917E+02 -0.32518612695E+02  0.43458279969E+02  0.00000000000E+00 0.  1.
         12    1    3    3    0    0 -0.22725936596E+02  0.50767101012E+02 -0.18178111881E+02  0.58516753933E+02  0.00000000000E+00 0. -1.
        -13    1    4    4    0    0 -0.57753858903E+02  0.47588460969E+02 -0.27836228988E+03  0.28824596140E+03  0.00000000000E+00 0. -1.
         13    1    4    4    0    0  0.35372937651E+02  0.31569562213E+02 -0.13268375141E+03  0.14090017695E+03  0.00000000000E+00 0.  1.
         -2    1    1    2    0  502  0.51336875980E+02 -0.10177643328E+03 -0.33980053187E+03  0.35841082387E+03  0.00000000000E+00 0.  1.
<scales pt_clust_5="13000.00000" pt_clust_6="13000.00000" pt_clust_7="13000.00000" pt_clust_8="13000.00000" pt_clust_9="97.46641"></scales>
<clustering>
<clus scale="   80.490">  5  6 -1 -1</clus>
<clus scale="   88.480">  1  5  2 -1</clus>
<clus scale="   91.873">  7  8 -1 -1</clus>
<clus scale="   97.466">  2  9  1 -1</clus>
<clus scale="   97.466">  2  5  1 -1</clus>
</clustering>
</event>
<event>
 9    2  0.1033155E-004  0.9521123E+02  0.7546771E-02  0.1298849E+00
         21   -1    0    0  501  502  0.00000000000E+00  0.00000000000E+00  0.84908716909E+02  0.84908716909E+02  0.00000000000E+00 0. -1.
          4   -1    0    0  502    0 -0.00000000000E+00 -0.00000000000E+00 -0.17298316595E+03  0.17298316595E+03  0.00000000000E+00 0. -1.
         24    2    1    2    0    0 -0.77077191040E+01  0.14154357198E+01 -0.68580452727E+02  0.10616555859E+03  0.80662475433E+02 0.  0.
         23    2    1    2    0    0 -0.11379787627E+02 -0.37512780252E+02 -0.35251554434E+02  0.10795816422E+03  0.94210322597E+02 0.  0.
        -11    1    3    3    0    0 -0.34529953762E+02  0.27013157557E+02 -0.34214655619E+02  0.55611788742E+02  0.00000000000E+00 0.  1.
         12    1    3    3    0    0  0.26822234658E+02 -0.25597721837E+02 -0.34365797108E+02  0.50553769851E+02  0.00000000000E+00 0. -1.
        -11    1    4    4    0    0 -0.85049642784E+01 -0.68881111850E+02 -0.16640611699E+02  0.71371226308E+02  0.00000000000E+00 0. -1.
         11    1    4    4    0    0 -0.28748233482E+01  0.31368331598E+02 -0.18610942735E+02  0.36586937915E+02  0.00000000000E+00 0.  1.
          3    1    1    2  501    0  0.19087506731E+02  0.36097344532E+02  0.15757558122E+02  0.43768160041E+02  0.00000000000E+00 0. -1.
<scales pt_clust_5="13000.00000" pt_clust_6="13000.00000" pt_clust_7="13000.00000" pt_clust_8="13000.00000" pt_clust_9="40.83321"></scales>
<clustering>
<clus scale="   40.833">  1  9  2 -1</clus>
<clus scale="   80.662">  5  6 -1 -1</clus>
<clus scale="   81.829">  2  5  1 -1</clus>
<clus scale="   94.210">  7  8 -1 -1</clus>
<clus scale="   40.833">  1  5  2 -1</clus>
</clustering>
</event>
<event>
 9    2  0.1033155E-004  0.3011698E+03  0.7546771E-02  0.1105863E+00
         21   -1    0    0  501  502  0.00000000000E+00  0.00000000000E+00  0.42559075571E+03  0.42559075571E+03  0.00000000000E+00 0.  1.
         -3   -1    0    0    0  501 -0.00000000000E+00 -0.00000000000E+00 -0.36393664867E+03  0.36393664867E+03  0.00000000000E+00 0.  1.
         24    2    1    2    0    0 -0.32353472289E+02 -0.15102185304E+03 -0.27585843196E+02  0.17505613113E+03  0.77648715618E+02 0.  0.
         23    2    1    2    0    0  0.27800765227E+03  0.19600455274E+03  0.94116017054E+02  0.36468497370E+03  0.91821925269E+02 0.  0.
        -11    1    3    3    0    0  0.15525421693E+02 -0.91700242794E+02 -0.32863927081E+02  0.98640817872E+02  0.00000000000E+00 0.  1.
         12    1    3    3    0    0 -0.47878893981E+02 -0.59321610243E+02  0.52780838848E+01  0.76415313257E+02  0.00000000000E+00 0. -1.
        -13    1    4    4    0    0  0.74564812434E+02  0.96635030023E+02  0.75669986547E+01  0.12229268069E+03  0.00000000000E+00 0.  1.
         13    1    4    4    0    0  0.20344283984E+03  0.99369522716E+02  0.86549018399E+02  0.24239229301E+03  0.00000000000E+00 0. -1.
         -4    1    1    2    0  502 -0.24565417999E+03 -0.44982699702E+02 -0.48760668188E+01  0.24978629955E+03  0.00000000000E+00 0.  1.
<scales pt_clust_5="13000.00000" pt_clust_6="13000.00000" pt_clust_7="13000.00000" pt_clust_8="13000.00000" pt_clust_9="286.83090"></scales>
<clustering>
<clus scale="   77.649">  5  6 -1 -1</clus>
<clus scale="   91.822">  7  8 -1 -1</clus>
<clus scale="  172.869">  2  5  1 -1</clus>
<clus scale="  286.831">  1  9  2 -1</clus>
<clus scale="  286.831">  1  5  2 -1</clus>
</clustering>
</event>
<event>
 9    2  0.1033155E-004  0.1106674E+03  0.7546771E-02  0.1261573E+00
          2   -1    0    0  502    0 -0.00000000000E+00  0.00000000000E+00  0.26624889847E+03  0.26624889847E+03  0.00000000000E+00 0. -1.
         21   -1    0    0  501  502  0.00000000000E+00 -0.00000000000E+00 -0.29016284945E+03  0.29016284945E+03  0.00000000000E+00 0. -1.
         23    2    1    2    0    0  0.55735227334E+02 -0.33255875283E+02  0.17831439824E+03  0.21078406339E+03  0.91768883365E+02 0.  0.
         24    2    1    2    0    0 -0.79861654529E+02 -0.69875080835E+02 -0.18011412513E+02  0.13313307667E+03  0.78355563531E+02 0.  0.
        -13    1    4    4    0    0  0.13562753398E+02 -0.21814425475E+02 -0.10671273457E+02  0.27815346766E+02  0.00000000000E+00 0.  1.
         14    1    4    4    0    0 -0.93424407926E+02 -0.48060655360E+02 -0.73401390564E+01  0.10531772990E+03  0.00000000000E+00 0. -1.
        -13    1    3    3    0    0  0.27016730516E+02 -0.64079668794E+02  0.99135114448E+02  0.12109450275E+03  0.00000000000E+00 0. -1.
         13    1    3    3    0    0  0.28718496818E+02  0.30823793511E+02  0.79179283790E+02  0.89689560638E+02  0.00000000000E+00 0.  1.
          1    1    1    2  501    0  0.24126427194E+02  0.10313095612E+03 -0.18421693670E+03  0.21249460786E+03  0.00000000000E+00 0. -1.
<scales pt_clust_5="13000.00000" pt_clust_6="13000.00000" pt_clust_7="13000.00000" pt_clust_8="13000.00000" pt_clust_9="105.91543"></scales>
<clustering>
<clus scale="   78.356">  5  6 -1 -1</clus>
<clus scale="   91.769">  7  8 -1 -1</clus>
<clus scale="  105.915">  2  9  1 -1</clus>
<clus scale="  105.915">  2  5  1 -1</clus>
<clus scale="  105.915">  2  5  1 -1</clus>
</clustering>
</event>
<event>
 9    2  0.1033155E-004  0.1026214E+03  0.7546771E-02  0.1278887E+00
         21   -1    0    0  501  502  0.00000000000E+00  0.00000000000E+00  0.13089230501E+03  0.13089230501E+03  0.00000000000E+00 0.  1.
          2   -1    0    0  502    0 -0.00000000000E+00 -0.00000000000E+00 -0.38253826519E+03  0.38253826519E+03  0.00000000000E+00 0. -1.
         24    2    1    2    0    0  0.40614865520E+02  0.22844148899E+02 -0.33922461856E+03  0.35216326921E+03  0.82305552047E+02 0.  0.
         23    2    1    2    0    0 -0.47966287661E+02 -0.43860851726E+02  0.81012398223E+02  0.13805392172E+03  0.90946894231E+02 0.  0.
        -11    1    3    3    0    0  0.46595611262E+02  0.82826838336E+01 -0.83692297438E+02  0.96146526151E+02  0.00000000000E+00 0.  1.
         12    1    3    3    0    0 -0.59807457423E+01  0.14561465066E+02 -0.25553232113E+03  0.25601674305E+03  0.00000000000E+00 0. -1.
        -11    1    4    4    0    0 -0.58923141342E+02  0.73720225934E+01  0.42071548052E+02  0.72775672159E+02  0.00000000000E+00 0.  1.
         11    1    4    4    0    0  0.10956853681E+02 -0.51232874320E+02  0.38940850171E+02  0.65278249561E+02  0.00000000000E+00 0. -1.
          1    1    1    2  501    0  0.73514221410E+01  0.21016702827E+02  0.65662601583E+01  0.23213379282E+02  0.00000000000E+00 0. -1.
<scales pt_clust_5="13000.00000" pt_clust_6="13000.00000" pt_clust_7="13000.00000" pt_clust_8="13000.00000" pt_clust_9="22.26534"></scales>
<clustering>
<clus scale="   22.265">  1  9  2 -1</clus>
<clus scale="   82.306">  5  6 -1 -1</clus>
<clus scale="   90.947">  7  8 -1 -1</clus>
<clus scale="   95.047">  2  5  1 -1</clus>
<clus scale="   22.265">  1  5  2 -1</clus>
</clustering>
</event>
<event>
 9    2  0.1033155E-004  0.9691526E+02  0.7546771E-02  0.1295036E+00
         21   -1    0    0  501  502  0.00000000000E+00  0.00000000000E+00  0.15367319823E+03  0.15367319823E+03  0.00000000000E+00 0. -1.
          2   -1    0    0  502    0 -0.00000000000E+00 -0.00000000000E+00 -0.48831225035E+03  0.48831225035E+03  0.00000000000E+00 0. -1.
         23    2    1    2    0    0  0.14377576098E+02 -0.68984302876E+00 -0.40927856869E+03  0.42037874441E+03  0.94879667910E+02 0.  0.
         24    2    1    2    0    0 -0.93413289557E+02 -0.15081043224E+02  0.25057084910E+02  0.12698227612E+03  0.80889804146E+02 0.  0.
        -11    1    4    4    0    0  0.95355188512E+01 -0.19128073337E+02  0.25549854873E+01  0.21525270269E+02  0.00000000000E+00 0.  1.
         12    1    4    4    0    0 -0.10294880841E+03  0.40470301123E+01  0.22502099422E+02  0.10545700585E+03  0.00000000000E+00 0. -1.
        -11    1    3    3    0    0 -0.35134055805E+02  0.18263670663E+02 -0.23155532794E+03  0.23491665211E+03  0.00000000000E+00 0.  1.
         11    1    3    3    0    0  0.49511631902E+02 -0.18953513692E+02 -0.17772324075E+03  0.18546209229E+03  0.00000000000E+00 0. -1.
          1    1    1    2  501    0  0.79035713459E+02  0.15770886253E+02  0.49582431656E+02  0.94624428051E+02  0.00000000000E+00 0. -1.
<scales pt_clust_5="13000.00000" pt_clust_6="13000.00000" pt_clust_7="13000.00000" pt_clust_8="13000.00000" pt_clust_9="80.59383"></scales>
<clustering>
<clus scale="   80.594">  1  9  2 -1</clus>
<clus scale="   80.890">  5  6 -1 -1</clus>
<clus scale="   83.268">  1  5  2 -1</clus>
<clus scale="   94.880">  7  8 -1 -1</clus>
<clus scale="   80.594">  1  5  2 -1</clus>
</clustering>
</event>
<event>
 9    2  0.1033155E-004  0.9980372E+02  0.7546771E-02  0.1286083E+00
         21   -1    0    0  501  502  0.00000000000E+00  0.00000000000E+00  0.14640866433E+03  0.14640866433E+03  0.00000000000E+00 0. -1.
         -1   -1    0    0    0  501 -0.00000000000E+00 -0.00000000000E+00 -0.21763042641E+03  0.21763042641E+03  0.00000000000E+00 0.  1.
         24    2    1    2    0    0 -0.18490686646E+02 -0.35456428785E+02 -0.17799351903E+03  0.20005875486E+03  0.82114242015E+02 0.  0.
         23    2    1    2    0    0  0.47973426007E+01  0.14846718599E+02  0.61111041256E+02  0.11204606221E+03  0.92608429116E+02 0.  0.
        -11    1    3    3    0    0 -0.42379892479E+02 -0.41256883071E+02 -0.15685978141E+03  0.16764002121E+03  0.00000000000E+00 0.  1.
         12    1    3    3    0    0  0.23889205833E+02  0.58004542860E+01 -0.21133737623E+02  0.32418733645E+02  0.00000000000E+00 0. -1.
        -11    1    4    4    0    0 -0.25129352754E+02 -0.79622058367E+01 -0.12652318606E+02  0.29239737648E+02  0.00000000000E+00 0.  1.
         11    1    4    4    0    0  0.29926695354E+02  0.22808924436E+02  0.73763359862E+02  0.82806324558E+02  0.00000000000E+00 0. -1.
         -2    1    1    2    0  502  0.13693344045E+02  0.20609710186E+02  0.45660715693E+02  0.51934273680E+02  0.00000000000E+00 0.  1.
<scales pt_clust_5="13000.00000" pt_clust_6="13000.00000" pt_clust_7="13000.00000" pt_clust_8="13000.00000" pt_clust_9="24.74405"></scales>
<clustering>
<clus scale="   24.744">  1  9  2 -1</clus>
<clus scale="   82.114">  5  6 -1 -1</clus>
<clus scale="   90.151">  2  5  1 -1</clus>
<clus scale="   92.608">  7  8 -1 -1</clus>
<clus scale="   24.744">  1  5  2 -1</clus>
</clustering>
</event>
<event>
 9    2  0.1033155E-004  0.2749719E+03  0.7546771E-02  0.1120532E+00
         21   -1    0    0  501  502  0.00000000000E+00  0.00000000000E+00  0.17755926712E+03  0.17755926712E+03  0.00000000000E+00 0. -1.
          4   -1    0    0  502    0 -0.00000000000E+00 -0.00000000000E+00 -0.83025401750E+03  0.83025401750E+03  0.00000000000E+00 0. -1.
         23    2    1    2    0    0 -0.12435185631E+03 -0.31127052167E+02 -0.33594304582E+03  0.37067508160E+03  0.90055585827E+02 0.  0.
         24    2    1    2    0    0  0.20371415749E+03 -0.20523107889E+03 -0.14029372374E+03  0.33168614466E+03  0.81939709148E+02 0.  0.
        -11    1    4    4    0    0  0.11733425123E+03 -0.13844196269E+03 -0.12741785894E+03  0.22174042103E+03  0.00000000000E+00 0.  1.
         12    1    4    4    0    0  0.86379906269E+02 -0.66789116199E+02 -0.12875864799E+02  0.10994572363E+03  0.00000000000E+00 0. -1.
        -11    1    3    3    0    0 -0.61600748519E+02 -0.17151878205E+02 -0.61202767251E+02  0.88513376748E+02  0.00000000000E+00 0.  1.
         11    1    3    3    0    0 -0.62751107793E+02 -0.13975173962E+02 -0.27474027857E+03  0.28216170485E+03  0.00000000000E+00 0. -1.
          3    1    1    2  501    0 -0.79362301182E+02  0.23635813105E+03 -0.17645798082E+03  0.30545205836E+03  0.00000000000E+00 0. -1.
<scales pt_clust_5="13000.00000" pt_clust_6="13000.00000" pt_clust_7="13000.00000" pt_clust_8="13000.00000" pt_clust_9="262.47956"></scales>
<clustering>
<clus scale="   81.940">  5  6 -1 -1</clus>
<clus scale="   90.056">  7  8 -1 -1</clus>
<clus scale="  156.660">  2  7  1 -1</clus>
<clus scale="  262.480">  1  9  2 -1</clus>
<clus scale="  262.480">  1  5  2 -1</clus>
</clustering>
</event>
<event>
 9    2  0.1033155E-004  0.1070152E+03  0.7546771E-02  0.1269956E+00
         21   -1    0    0  501  502  0.00000000000E+00  0.00000000000E+00  0.97278513458E+02  0.97278513458E+02  0.00000000000E+00 0. -1.
          2   -1    0    0  502    0 -0.00000000000E+00 -0.00000000000E+00 -0.35267238692E+03  0.35267238692E+03  0.00000000000E+00 0. -1.
         23    2    1    2    0    0 -0.27201983619E+02 -0.33732228214E+02 -0.15375179965E+03  0.18331805162E+03  0.89933759071E+02 0.  0.
         24    2    1    2    0    0 -0.63516976448E+01  0.90164370386E+02 -0.14418642586E+03  0.18839949214E+03  0.80837401515E+02 0.  0.
        -13    1    4    4    0    0 -0.14357789626E+02  0.88098098054E+02 -0.69158447601E+02  0.11291727892E+03  0.00000000000E+00 0.  1.
         14    1    4    4    0    0  0.80060919813E+01  0.20662723321E+01 -0.75027978262E+02  0.75482213218E+02  0.00000000000E+00 0. -1.
        -11    1    3    3    0    0  0.28974514948E+02  0.41503420021E+00 -0.76933058522E+02  0.82209429285E+02  0.00000000000E+00 0.  1.
         11    1    3    3    0    0 -0.56176498567E+02 -0.34147262414E+02 -0.76818741127E+02  0.10110862233E+03  0.00000000000E+00 0. -1.
          1    1    1    2  501    0  0.33553681264E+02 -0.56432142172E+02  0.42544352053E+02  0.78233356620E+02  0.00000000000E+00 0. -1.
<scales pt_clust_5="13000.00000" pt_clust_6="13000.00000" pt_clust_7="13000.00000" pt_clust_8="13000.00000" pt_clust_9="65.65391"></scales>
<clustering>
<clus scale="   65.654">  1  9  2 -1</clus>
<clus scale="   80.837">  5  6 -1 -1</clus>
<clus scale="   89.934">  7  8 -1 -1</clus>
<clus scale="   99.493">  1  5  2 -1</clus>
<clus scale="   65.654">  1  5  2 -1</clus>
</clustering>
</event>
<event>
 9    2  0.1033155E-004  0.1340187E+03  0.7546771E-02  0.1225990E+00
          2   -1    0    0  502    0 -0.00000000000E+00  0.00000000000E+00  0.56538079973E+03  0.56538079973E+03  0.00000000000E+00 0. -1.
         21   -1    0    0  501  502  0.00000000000E+00 -0.00000000000E+00 -0.88991187523E+02  0.88991187523E+02  0.00000000000E+00 0.  1.
         23    2    1    2    0    0  0.67625682003E+01  0.78543640954E+02  0.82654060231E+02  0.14762609892E+03  0.93525053044E+02 0.  0.
         24    2    1    2    0    0  0.10028168764E+03  0.14646131074E+02  0.57817953861E+02  0.14207694389E+03  0.81067972495E+02 0.  0.
        -13    1    4    4    0    0  0.98319745266E+02  0.26255503317E+02  0.71239968797E+02  0.12422261033E+03  0.00000000000E+00 0.  1.
         14    1    4    4    0    0  0.19619423730E+01 -0.11609372243E+02 -0.13422014936E+02  0.17854333555E+02  0.00000000000E+00 0. -1.
        -13    1    3    3    0    0  0.18260931982E+02  0.13487318571E+02  0.78180875836E+02  0.81410188217E+02  0.00000000000E+00 0. -1.
         13    1    3    3    0    0 -0.11498363781E+02  0.65056322382E+02  0.44731843945E+01  0.66215910703E+02  0.00000000000E+00 0.  1.
          1    1    1    2  501    0 -0.10704425584E+03 -0.93189772028E+02  0.33591759812E+03  0.36466894445E+03  0.00000000000E+00 0. -1.
<scales pt_clust_5="13000.00000" pt_clust_6="13000.00000" pt_clust_7="13000.00000" pt_clust_8="13000.00000" pt_clust_9="106.71929"></scales>
<clustering>
<clus scale="   81.068">  5  6 -1 -1</clus>
<clus scale="   93.525">  7  8 -1 -1</clus>
<clus scale="  122.318">  1  7  2 -1</clus>
<clus scale="  106.719">  2  9  1 -1</clus>
<clus scale="  106.719">  2  5  1 -1</clus>
</clustering>
</event>
<event>
 9    2  0.1033155E-004  0.9513351E+02  0.7546771E-02  0.1295508E+00
         21   -1    0    0  501  502  0.00000000000E+00  0.00000000000E+00  0.16488463117E+03  0.16488463117E+03  0.00000000000E+00 0. -1.
          4   -1    0    0  502    0 -0.00000000000E+00 -0.00000000000E+00 -0.70228513098E+02  0.70228513098E+02  0.00000000000E+00 0. -1.
         24    2    1    2    0    0  0.12262369154E+02 -0.23037582302E+02  0.26742908538E+02  0.89513385377E+02  0.81341054266E+02 0.  0.
         23    2    1    2    0    0 -0.39437409456E+02  0.19717098951E+02  0.61838831126E+02  0.11755681864E+03  0.89730102628E+02 0.  0.
        -11    1    3    3    0    0 -0.26144168584E+02  0.15994394605E+02  0.87296966912E+01  0.31867629564E+02  0.00000000000E+00 0.  1.
         12    1    3    3    0    0  0.38406537737E+02 -0.39031976907E+02  0.18013211847E+02  0.57645755813E+02  0.00000000000E+00 0. -1.
        -13    1    4    4    0    0 -0.50068627228E+02 -0.12341640258E+02  0.65745305197E+02  0.83556140841E+02  0.00000000000E+00 0. -1.
         13    1    4    4    0    0  0.10631217772E+02  0.32058739209E+02 -0.39064740710E+01  0.34000677797E+02  0.00000000000E+00 0.  1.
          3    1    1    2  501    0  0.27175040302E+02  0.33204833508E+01  0.60743784105E+01  0.28042940255E+02  0.00000000000E+00 0. -1.
<scales pt_clust_5="13000.00000" pt_clust_6="13000.00000" pt_clust_7="13000.00000" pt_clust_8="13000.00000" pt_clust_9="27.37717"></scales>
<clustering>
<clus scale="   27.377">  1  9  2 -1</clus>
<clus scale="   81.341">  5  6 -1 -1</clus>
<clus scale="   87.265">  2  5  1 -1</clus>
<clus scale="   89.730">  7  8 -1 -1</clus>
<clus scale="   27.377">  1  5  2 -1</clus>
</clustering>
</event>
<event>
 9    2  0.1205176E-004  0.9640578E+02  0.7546771E-02  0.1295648E+00
         21   -1    0    0  501  502  0.00000000000E+00  0.00000000000E+00  0.11442603173E+03  0.11442603173E+03  0.00000000000E+00 0.  1.
         -3   -1    0    0    0  501 -0.00000000000E+00 -0.00000000000E+00 -0.41251154589E+03  0.41251154589E+03  0.00000000000E+00 0.  1.
         23    2    1    2    0    0  0.12205594987E+02 -0.26549405055E+02 -0.34166773274E+03  0.35513418651E+03  0.92355851853E+02 0.  0.
         24    2    1    2    0    0  0.92464326454E+01  0.26066106744E+02 -0.34758906255E+02  0.90576825821E+02  0.78936945559E+02 0.  0.
        -11    1    4    4    0    0 -0.13846136254E+02  0.38816134135E+02 -0.46124693177E+02  0.61853820246E+02  0.00000000000E+00 0.  1.
         12    1    4    4    0    0  0.23092568900E+02 -0.12750027392E+02  0.11365786922E+02  0.28723005574E+02  0.00000000000E+00 0. -1.
        -11    1    3    3    0    0 -0.11489812589E+02  0.30412045414E+02 -0.16022300757E+03  0.16348798260E+03  0.00000000000E+00 0. -1.
         11    1    3    3    0    0  0.23695407576E+02 -0.56961450469E+02 -0.18144472517E+03  0.19164620391E+03  0.00000000000E+00 0.  1.
         -4    1    1    2    0  502 -0.21452027632E+02  0.48329831158E+00  0.78341124847E+02  0.81226565292E+02  0.00000000000E+00 0.  1.
<scales pt_clust_5="13000.00000" pt_clust_6="13000.00000" pt_clust_7="13000.00000" pt_clust_8="13000.00000" pt_clust_9="21.45747"></scales>
<clustering>
<clus scale="   21.457">  1  9  2 -1</clus>
<clus scale="   78.937">  5  6 -1 -1</clus>
<clus scale="   83.639">  1  5  2 -1</clus>
<clus scale="   92.356">  7  8 -1 -1</clus>
<clus scale="   21.457">  1  5  2 -1</clus>
</clustering>
</event>
<event>
 9    2  0.1033155E-004  0.9950728E+02  0.7546771E-02  0.1287847E+00
         21   -1    0    0  501  502  0.00000000000E+00  0.00000000000E+00  0.37296061464E+03  0.37296061464E+03  0.00000000000E+00 0. -1.
          2   -1    0    0  502    0 -0.00000000000E+00 -0.00000000000E+00 -0.39449524450E+02  0.39449524450E+02  0.00000000000E+00 0. -1.
         23    2    1    2    0    0 -0.44933358306E+02  0.10429685914E+02  0.10344626046E+03  0.13078423071E+03  0.65388081210E+02 0.  0.
         24    2    1    2    0    0  0.78186195571E+02 -0.28981116205E+02  0.20689726979E+03  0.23705413944E+03  0.80219689017E+02 0.  0.
        -11    1    4    4    0    0 -0.19065652558E+00 -0.36927367153E+02  0.66449616743E+02  0.76021170473E+02  0.00000000000E+00 0.  1.
         12    1    4    4    0    0  0.78376852097E+02  0.79462509488E+01  0.14044765305E+03  0.16103296897E+03  0.00000000000E+00 0. -1.
        -11    1    3    3    0    0 -0.53503816336E+01  0.20798104076E+02  0.22068461291E+01  0.21588373876E+02  0.00000000000E+00 0.  1.
         11    1    3    3    0    0 -0.39582976673E+02 -0.10368418162E+02  0.10123941433E+03  0.10919585684E+03  0.00000000000E+00 0. -1.
          1    1    1    2  501    0 -0.33252837265E+02  0.18551430290E+02  0.23167559943E+02  0.44571768932E+02  0.00000000000E+00 0. -1.
<scales pt_clust_5="13000.00000" pt_clust_6="13000.00000" pt_clust_7="13000.00000" pt_clust_8="13000.00000" pt_clust_9="38.07766"></scales>
<clustering>
<clus scale="   38.078">  1  9  2 -1</clus>
<clus scale="   65.388">  7  8 -1 -1</clus>
<clus scale="   80.220">  5  6 -1 -1</clus>
<clus scale="   87.989">  2  7  1 -1</clus>
<clus scale="   38.078">  1  5  2 -1</clus>
</clustering>
</event>
