<event>
 9    1  0.6014990E-005  0.1248910E+03  0.7546771E-02  0.1249710E+00
         21   -1    0    0  501  502  0.00000000000E+00  0.00000000000E+00  0.15354394667E+03  0.15354394667E+03  0.00000000000E+00 0.  1.
          1   -1    0    0  502    0 -0.00000000000E+00 -0.00000000000E+00 -0.18381466864E+03  0.18381466864E+03  0.00000000000E+00 0. -1.
        -24    2    1    2    0    0  0.27614960898E+02  0.34365110329E+02 -0.46028564928E+02  0.10394578481E+03  0.82113035005E+02 0.  0.
         23    2    1    2    0    0 -0.52234300961E+02  0.61046116569E+02  0.46400554168E+02  0.13022179468E+03  0.91376440272E+02 0.  0.
         13    1    3    3    0    0  0.38752705182E+02  0.56445739812E+02 -0.33676768312E+02  0.76302152170E+02  0.00000000000E+00 0. -1.
        -14    1    3    3    0    0 -0.11137744284E+02 -0.22080629482E+02 -0.12351796616E+02  0.27643632643E+02  0.00000000000E+00 0.  1.
        -13    1    4    4    0    0 -0.11152294150E+02  0.72570756485E+02  0.47660685828E+02  0.87535303365E+02  0.00000000000E+00 0.  1.
         13    1    4    4    0    0 -0.41082006810E+02 -0.11524639916E+02 -0.12601316593E+01  0.42686491312E+02  0.00000000000E+00 0. -1.
          2    1    1    2  501    0  0.24619340063E+02 -0.95411226898E+02 -0.30642711210E+02  0.10319103582E+03  0.00000000000E+00 0. -1.
<scales pt_clust_5="13000.00000" pt_clust_6="13000.00000" pt_clust_7="13000.00000" pt_clust_8="13000.00000" pt_clust_9="85.13586"></scales>
<clustering>
<clus scale="   82.113">  5  6 -1 -1</clus>
<clus scale="   91.376">  7  8 -1 -1</clus>
<clus scale="   93.199">  2  5  1 -1</clus>
<clus scale="   85.136">  1  9  2 -1</clus>
<clus scale="   85.136">  1  5  2 -1</clus>
</clustering>
</event>
<event>
 9    1  0.6014990E-005  0.1831821E+03  0.7546771E-02  0.1165527E+00
         -4   -1    0    0    0  501 -0.00000000000E+00  0.00000000000E+00  0.45738632818E+03  0.45738632818E+03  0.00000000000E+00 0.  1.
         21   -1    0    0  501  502  0.00000000000E+00 -0.00000000000E+00 -0.17949160855E+03  0.17949160855E+03  0.00000000000E+00 0.  1.
        -24    2    1    2    0    0 -0.94950444877E+02  0.14077935030E+03  0.25883803533E+03  0.31974759770E+03  0.80043645884E+02 0.  0.
         23    2    1    2    0    0  0.76872296255E+02 -0.93267380970E+02 -0.10555064637E+03  0.18255250452E+03  0.87042079891E+02 0.  0.
         13    1    3    3    0    0 -0.46228181388E+02  0.20191875979E+02  0.11642088070E+03  0.12688017210E+03  0.00000000000E+00 0. -1.
        -14    1    3    3    0    0 -0.48722263489E+02  0.12058747432E+03  0.14241715464E+03  0.19286742560E+03  0.00000000000E+00 0.  1.
        -11    1    4    4    0    0  0.88938424688E+02 -0.46154153103E+02 -0.67747833668E+02  0.12095461215E+03  0.00000000000E+00 0. -1.
         11    1    4    4    0    0 -0.12066128433E+02 -0.47113227866E+02 -0.37802812700E+02  0.61597892362E+02  0.00000000000E+00 0.  1.
         -3    1    1    2    0  502  0.18078148622E+02 -0.47511969331E+02  0.12460733066E+03  0.13457783451E+03  0.00000000000E+00 0.  1.
<scales pt_clust_5="13000.00000" pt_clust_6="13000.00000" pt_clust_7="13000.00000" pt_clust_8="13000.00000" pt_clust_9="50.83512"></scales>
<clustering>
<clus scale="   50.835">  2  9  1 -1</clus>
<clus scale="   80.044">  5  6 -1 -1</clus>
<clus scale="   87.042">  7  8 -1 -1</clus>
<clus scale="  179.962">  1  5  2 -1</clus>
<clus scale="   50.835">  2  5  1 -1</clus>
</clustering>
</event>
<event>
 9    1  0.6014990E-005  0.1051369E+03  0.7546771E-02  0.1274406E+00
          1   -1    0    0  502    0 -0.00000000000E+00  0.00000000000E+00  0.13498925687E+03  0.13498925687E+03  0.00000000000E+00 0. -1.
         21   -1    0    0  501  502  0.00000000000E+00 -0.00000000000E+00 -0.28163007042E+03  0.28163007042E+03  0.00000000000E+00 0.  1.
        -24    2    1    2    0    0  0.20925979429E+02  0.49939680877E+02  0.77494799326E+02  0.12448176503E+03  0.80983933972E+02 0.  0.
         23    2    1    2    0    0 -0.28161142342E+02 -0.20951536731E+02 -0.23937746823E+03  0.25859692664E+03  0.91316927999E+02 0.  0.
         11    1    3    3    0    0 -0.30879318576E+02  0.21073610200E+02  0.22691515691E+02  0.43732530763E+02  0.00000000000E+00 0. -1.
        -12    1    3    3    0    0  0.51805298006E+02  0.28866070677E+02  0.54803283635E+02  0.80749234269E+02  0.00000000000E+00 0.  1.
        -11    1    4    4    0    0  0.25004615432E+02  0.18892491375E+02 -0.80705821140E+02  0.86577055789E+02  0.00000000000E+00 0.  1.
         11    1    4    4    0    0 -0.53165757774E+02 -0.39844028106E+02 -0.15867164709E+03  0.17201987085E+03  0.00000000000E+00 0. -1.
          2    1    1    2  501    0  0.72351629125E+01 -0.28988144147E+02  0.15241855357E+02  0.33540635625E+02  0.00000000000E+00 0. -1.
<scales pt_clust_5="13000.00000" pt_clust_6="13000.00000" pt_clust_7="13000.00000" pt_clust_8="13000.00000" pt_clust_9="29.87743"></scales>
<clustering>
<clus scale="   29.877">  2  9  1 -1</clus>
<clus scale="   80.984">  5  6 -1 -1</clus>
<clus scale="   91.317">  7  8 -1 -1</clus>
<clus scale="   96.298">  1  5  2 -1</clus>
<clus scale="   29.877">  2  5  1 -1</clus>
</clustering>
</event>
<event>
 9    1  0.6014990E-005  0.1261346E+03  0.7546771E-02  0.1237800E+00
         21   -1    0    0  501  502  0.00000000000E+00  0.00000000000E+00  0.43006447291E+03  0.43006447291E+03  0.00000000000E+00 0.  1.
         -4   -1    0    0    0  501 -0.00000000000E+00 -0.00000000000E+00 -0.92226283555E+02  0.92226283555E+02  0.00000000000E+00 0.  1.
         23    2    1    2    0    0 -0.78746707698E+01 -0.54153614988E+02  0.11414228348E+03  0.15848630020E+03  0.95366776286E+02 0.  0.
        -24    2    1    2    0    0  0.74258827336E+02  0.11645103285E+03  0.22109597296E+03  0.27272984857E+03  0.80143150349E+02 0.  0.
         13    1    4    4    0    0  0.40622271122E+02  0.13761636358E+02  0.10850630024E+03  0.11667548474E+03  0.00000000000E+00 0. -1.
        -14    1    4    4    0    0  0.33636556214E+02  0.10268939650E+03  0.11258967272E+03  0.15605436383E+03  0.00000000000E+00 0.  1.
        -11    1    3    3    0    0 -0.39023956568E+02 -0.58184869573E+02  0.10415931123E+03  0.12552892236E+03  0.00000000000E+00 0.  1.
         11    1    3    3    0    0  0.31149285798E+02  0.40312545852E+01  0.99829722426E+01  0.32957377839E+02  0.00000000000E+00 0. -1.
         -3    1    1    2    0  502 -0.66384156566E+02 -0.62297417865E+02  0.25999329136E+01  0.91074607695E+02  0.00000000000E+00 0.  1.
<scales pt_clust_5="13000.00000" pt_clust_6="13000.00000" pt_clust_7="13000.00000" pt_clust_8="13000.00000" pt_clust_9="91.03754"></scales>
<clustering>
<clus scale="   80.143">  5  6 -1 -1</clus>
<clus scale="   91.038">  1  9  2 -1</clus>
<clus scale="   95.367">  7  8 -1 -1</clus>
<clus scale="  115.057">  1  5  2 -1</clus>
<clus scale="   91.038">  1  5  2 -1</clus>
</clustering>
</event>
<event>
 9    1  0.6014990E-005  0.1295116E+03  0.7546771E-02  0.1230089E+00
         21   -1    0    0  501  502  0.00000000000E+00  0.00000000000E+00  0.93090754989E+03  0.93090754989E+03  0.00000000000E+00 0. -1.
          1   -1    0    0  502    0 -0.00000000000E+00 -0.00000000000E+00 -0.47637764388E+02  0.47637764388E+02  0.00000000000E+00 0. -1.
         23    2    1    2    0    0  0.66921616214E+02 -0.54014078408E+02  0.21867021902E+03  0.25124089360E+03  0.88934237230E+02 0.  0.
        -24    2    1    2    0    0  0.11650367709E+02  0.14661778522E+03  0.45487406710E+03  0.48495387237E+03  0.81469843453E+02 0.  0.
         11    1    4    4    0    0 -0.22067172191E+02  0.10489093869E+03  0.22971104480E+03  0.25348813229E+03  0.00000000000E+00 0. -1.
        -12    1    4    4    0    0  0.33717539900E+02  0.41726846526E+02  0.22516302230E+03  0.23146574007E+03  0.00000000000E+00 0.  1.
        -11    1    3    3    0    0  0.31959285694E+02 -0.19009490874E+02  0.19093623700E+03  0.19452352887E+03  0.00000000000E+00 0.  1.
         11    1    3    3    0    0  0.34962330519E+02 -0.35004587534E+02  0.27733982019E+02  0.56717364734E+02  0.00000000000E+00 0. -1.
          2    1    1    2  501    0 -0.78571983923E+02 -0.92603706813E+02  0.20972549939E+03  0.24235054831E+03  0.00000000000E+00 0. -1.
<scales pt_clust_5="13000.00000" pt_clust_6="13000.00000" pt_clust_7="13000.00000" pt_clust_8="13000.00000" pt_clust_9="121.44553"></scales>
<clustering>
<clus scale="   81.470">  5  6 -1 -1</clus>
<clus scale="   88.934">  7  8 -1 -1</clus>
<clus scale="  121.446">  1  9  2 -1</clus>
<clus scale="  124.504">  1  5  2 -1</clus>
<clus scale="  121.446">  1  5  2 -1</clus>
</clustering>
</event>
<event>
 9    1  0.6014990E-005  0.1187173E+03  0.7546771E-02  0.1247399E+00
         21   -1    0    0  501  502  0.00000000000E+00  0.00000000000E+00  0.40565354233E+02  0.40565354233E+02  0.00000000000E+00 0. -1.
          1   -1    0    0  502    0 -0.00000000000E+00 -0.00000000000E+00 -0.73564066919E+03  0.73564066919E+03  0.00000000000E+00 0. -1.
        -24    2    1    2    0    0  0.33463055404E+02  0.93309475750E+02 -0.51151688343E+03  0.52722189147E+03  0.80541706408E+02 0.  0.
         23    2    1    2    0    0 -0.34596902906E+02 -0.32987384150E+02 -0.14944129762E+03  0.17967309985E+03  0.87547747955E+02 0.  0.
         11    1    3    3    0    0  0.30053314380E+02  0.10767325585E+03 -0.47143569594E+03  0.48450835611E+03  0.00000000000E+00 0. -1.
        -12    1    3    3    0    0  0.34097410239E+01 -0.14363780103E+02 -0.40081187487E+02  0.42713535362E+02  0.00000000000E+00 0.  1.
        -13    1    4    4    0    0 -0.26033579781E+02 -0.57117190626E+01  0.87030135290E+00  0.26666991493E+02  0.00000000000E+00 0. -1.
         13    1    4    4    0    0 -0.85633231252E+01 -0.27275665087E+02 -0.15031159897E+03  0.15300610836E+03  0.00000000000E+00 0.  1.
          2    1    1    2  501    0  0.11338475021E+01 -0.60322091600E+02 -0.34117133912E+02  0.69311032106E+02  0.00000000000E+00 0. -1.
<scales pt_clust_5="13000.00000" pt_clust_6="13000.00000" pt_clust_7="13000.00000" pt_clust_8="13000.00000" pt_clust_9="60.33275"></scales>
<clustering>
<clus scale="   60.333">  1  9  2 -1</clus>
<clus scale="   80.542">  5  6 -1 -1</clus>
<clus scale="   87.548">  7  8 -1 -1</clus>
<clus scale="  113.649">  2  5  1 -1</clus>
<clus scale="   60.333">  1  5  2 -1</clus>
</clustering>
</event>
<event>
 9    1  0.6014990E-005  0.1709908E+03  0.7546771E-02  0.1178476E+00
         -4   -1    0    0    0  501 -0.00000000000E+00  0.00000000000E+00  0.25846290445E+03  0.25846290445E+03  0.00000000000E+00 0.  1.
         21   -1    0    0  501  502  0.00000000000E+00 -0.00000000000E+00 -0.22690741732E+03  0.22690741732E+03  0.00000000000E+00 0.  1.
         23    2    1    2    0    0  0.14852000221E+03  0.75071079922E+01  0.92280165522E+02  0.19842947221E+03  0.93509778983E+02 0.  0.
        -24    2    1    2    0    0 -0.13543900718E+03  0.39175911118E+02  0.46434368840E+02  0.16932504234E+03  0.81463750677E+02 0.  0.
         11    1    4    4    0    0 -0.61574496337E+02 -0.19373980310E+02  0.37486806787E+02  0.74646034023E+02  0.00000000000E+00 0. -1.
        -12    1    4    4    0    0 -0.73864510845E+02  0.58549891428E+02  0.89475620526E+01  0.94679008314E+02  0.00000000000E+00 0.  1.
        -13    1    3    3    0    0  0.12337440907E+03  0.15627523430E+01  0.24367527869E+02  0.12576749748E+03  0.00000000000E+00 0. -1.
         13    1    3    3    0    0  0.25145593140E+02  0.59443556492E+01  0.67912637653E+02  0.72661974729E+02  0.00000000000E+00 0.  1.
         -3    1    1    2    0  502 -0.13080995025E+02 -0.46683019110E+02 -0.10715904723E+03  0.11761580722E+03  0.00000000000E+00 0.  1.
<scales pt_clust_5="13000.00000" pt_clust_6="13000.00000" pt_clust_7="13000.00000" pt_clust_8="13000.00000" pt_clust_9="48.48110"></scales>
<clustering>
<clus scale="   48.481">  2  9  1 -1</clus>
<clus scale="   81.464">  5  6 -1 -1</clus>
<clus scale="   93.510">  7  8 -1 -1</clus>
<clus scale="  164.712">  2  5  1 -1</clus>
<clus scale="   48.481">  2  5  1 -1</clus>
</clustering>
</event>
<event>
 9    1  0.6014990E-005  0.9574147E+02  0.7546771E-02  0.1294432E+00
         21   -1    0    0  501  502  0.00000000000E+00  0.00000000000E+00  0.65453385975E+02  0.65453385975E+02  0.00000000000E+00 0.  1.
          1   -1    0    0  502    0 -0.00000000000E+00 -0.00000000000E+00 -0.19645964816E+03  0.19645964816E+03  0.00000000000E+00 0. -1.
         23    2    1    2    0    0  0.37486869097E+02  0.20506610557E+01 -0.65614374740E+02  0.11804291363E+03  0.90660976831E+02 0.  0.
        -24    2    1    2    0    0 -0.18020979285E+02 -0.19614174723E+02 -0.15287307021E+02  0.87320435646E+02  0.81741575597E+02 0.  0.
         11    1    4    4    0    0 -0.75920813919E+01 -0.25463422766E+02 -0.46688307934E+02  0.53719863147E+02  0.00000000000E+00 0. -1.
        -12    1    4    4    0    0 -0.10428897893E+02  0.58492480434E+01  0.31401000913E+02  0.33600572499E+02  0.00000000000E+00 0.  1.
        -11    1    3    3    0    0 -0.13914980068E+02 -0.31033223776E+02 -0.10124955057E+02  0.35485241484E+02  0.00000000000E+00 0.  1.
         11    1    3    3    0    0  0.51401849165E+02  0.33083884832E+02 -0.55489419684E+02  0.82557672145E+02  0.00000000000E+00 0. -1.
          2    1    1    2  501    0 -0.19465889812E+02  0.17563513667E+02 -0.50104580428E+02  0.56549684865E+02  0.00000000000E+00 0. -1.
<scales pt_clust_5="13000.00000" pt_clust_6="13000.00000" pt_clust_7="13000.00000" pt_clust_8="13000.00000" pt_clust_9="26.21829"></scales>
<clustering>
<clus scale="   26.218">  1  9  2 -1</clus>
<clus scale="   81.742">  5  6 -1 -1</clus>
<clus scale="   87.342">  1  5  2 -1</clus>
<clus scale="   90.661">  7  8 -1 -1</clus>
<clus scale="   26.218">  1  5  2 -1</clus>
</clustering>
</event>
<event>
 9    1  0.6014990E-005  0.1543152E+03  0.7546771E-02  0.1197784E+00
          1   -1    0    0  502    0 -0.00000000000E+00  0.00000000000E+00  0.45124817581E+03  0.45124817581E+03  0.00000000000E+00 0. -1.
         21   -1    0    0  501  502  0.00000000000E+00 -0.00000000000E+00 -0.16079115513E+03  0.16079115513E+03  0.00000000000E+00 0. -1.
         23    2    1    2    0    0 -0.11020531858E+03 -0.12667742156E+03  0.28220689184E+03  0.34107412529E+03  0.92187026014E+02 0.  0.
        -24    2    1    2    0    0  0.18004510508E+02  0.84800642670E+02  0.84846715568E+02  0.14399398561E+03  0.77588603240E+02 0.  0.
         11    1    4    4    0    0 -0.22849731051E+02  0.17620738295E+02  0.74804428157E+00  0.28864514501E+02  0.00000000000E+00 0. -1.
        -12    1    4    4    0    0  0.40854241559E+02  0.67179904375E+02  0.84098671286E+02  0.11512947111E+03  0.00000000000E+00 0.  1.
        -13    1    3    3    0    0 -0.12683594201E+03 -0.10878252071E+03  0.24441611302E+03  0.29607470223E+03  0.00000000000E+00 0.  1.
         13    1    3    3    0    0  0.16630623428E+02 -0.17894900854E+02  0.37790778825E+02  0.44999423068E+02  0.00000000000E+00 0. -1.
          2    1    1    2  501    0  0.92200808070E+02  0.41876778890E+02 -0.76596586733E+02  0.12697122004E+03  0.00000000000E+00 0. -1.
<scales pt_clust_5="13000.00000" pt_clust_6="13000.00000" pt_clust_7="13000.00000" pt_clust_8="13000.00000" pt_clust_9="101.26526"></scales>
<clustering>
<clus scale="   77.589">  5  6 -1 -1</clus>
<clus scale="   92.187">  7  8 -1 -1</clus>
<clus scale="  101.265">  2  9  1 -1</clus>
<clus scale="  146.064">  2  5  1 -1</clus>
<clus scale="  101.265">  2  5  1 -1</clus>
</clustering>
</event>
<event>
 9    1  0.6014990E-005  0.1229118E+03  0.7546771E-02  0.1240428E+00
         21   -1    0    0  501  502  0.00000000000E+00  0.00000000000E+00  0.19256558833E+03  0.19256558833E+03  0.00000000000E+00 0.  1.
         -2   -1    0    0    0  501 -0.00000000000E+00 -0.00000000000E+00 -0.14889891443E+03  0.14889891443E+03  0.00000000000E+00 0.  1.
        -24    2    1    2    0    0  0.16910505906E+02 -0.80139939247E+02  0.35072913122E+02  0.12055138630E+03  0.81204386777E+02 0.  0.
         23    2    1    2    0    0 -0.74296518786E+02  0.67085784525E+02  0.56543790034E+02  0.14500020099E+03  0.88359396255E+02 0.  0.
         11    1    3    3    0    0 -0.30155344282E+02 -0.13538958449E+02  0.16345643582E+02  0.36875849126E+02  0.00000000000E+00 0. -1.
        -12    1    3    3    0    0  0.47065850188E+02 -0.66600980798E+02  0.18727269540E+02  0.83675537176E+02  0.00000000000E+00 0.  1.
        -11    1    4    4    0    0 -0.67377786694E+02  0.88997163978E+01  0.53200164301E+02  0.86308913638E+02  0.00000000000E+00 0.  1.
         11    1    4    4    0    0 -0.69187320924E+01  0.58186068128E+02  0.33436257327E+01  0.58691287351E+02  0.00000000000E+00 0. -1.
         -1    1    1    2    0  502  0.57386012881E+02  0.13054154722E+02 -0.47950029254E+02  0.75912915471E+02  0.00000000000E+00 0.  1.
<scales pt_clust_5="13000.00000" pt_clust_6="13000.00000" pt_clust_7="13000.00000" pt_clust_8="13000.00000" pt_clust_9="58.85209"></scales>
<clustering>
<clus scale="   58.852">  1  9  2 -1</clus>
<clus scale="   81.204">  5  6 -1 -1</clus>
<clus scale="   88.359">  7  8 -1 -1</clus>
<clus scale="  117.873">  2  5  1 -1</clus>
<clus scale="   58.852">  1  5  2 -1</clus>
</clustering>
</event>
<event>
 9    1  0.6014990E-005  0.1481938E+03  0.7546771E-02  0.1215346E+00
         21   -1    0    0  501  502  0.00000000000E+00  0.00000000000E+00  0.26515264438E+03  0.26515264438E+03  0.00000000000E+00 0. -1.
          1   -1    0    0  502    0 -0.00000000000E+00 -0.00000000000E+00 -0.46736054836E+03  0.46736054836E+03  0.00000000000E+00 0. -1.
        -24    2    1    2    0    0  0.81303516411E+02 -0.18756448274E+02 -0.39112971142E+03  0.40775828081E+03  0.79512881216E+02 0.  0.
         23    2    1    2    0    0 -0.29964198737E+02 -0.74090829358E+02  0.15282464468E+03  0.21268641652E+03  0.12447021953E+03 0.  0.
         11    1    3    3    0    0  0.84588268323E+02 -0.84444740683E+01 -0.38691584761E+03  0.39614436436E+03  0.00000000000E+00 0. -1.
        -12    1    3    3    0    0 -0.32847519120E+01 -0.10311974206E+02 -0.42138638117E+01  0.11613916452E+02  0.00000000000E+00 0.  1.
        -11    1    4    4    0    0  0.37153324083E+02 -0.28876763343E+02  0.93697541474E+01  0.47979466904E+02  0.00000000000E+00 0.  1.
         11    1    4    4    0    0 -0.67117522820E+02 -0.45214066015E+02  0.14345489053E+03  0.16470694962E+03  0.00000000000E+00 0. -1.
          2    1    1    2  501    0 -0.51339317674E+02  0.92847277632E+02  0.36097162765E+02  0.11206849541E+03  0.00000000000E+00 0. -1.
<scales pt_clust_5="13000.00000" pt_clust_6="13000.00000" pt_clust_7="13000.00000" pt_clust_8="13000.00000" pt_clust_9="106.09591"></scales>
<clustering>
<clus scale="   79.513">  5  6 -1 -1</clus>
<clus scale="  106.096">  1  9  2 -1</clus>
<clus scale="  113.097">  2  5  1 -1</clus>
<clus scale="  124.470">  7  8 -1 -1</clus>
<clus scale="  106.096">  1  5  2 -1</clus>
</clustering>
</event>
<event>
 9    1  0.6014990E-005  0.1395426E+03  0.7546771E-02  0.1216116E+00
         21   -1    0    0  501  502  0.00000000000E+00  0.00000000000E+00  0.49582677409E+02  0.49582677409E+02  0.00000000000E+00 0.  1.
          1   -1    0    0  502    0 -0.00000000000E+00 -0.00000000000E+00 -0.58536586066E+03  0.58536586066E+03  0.00000000000E+00 0. -1.
        -24    2    1    2    0    0 -0.10016117537E+03 -0.21020423854E+01 -0.23153360176E+03  0.26462384626E+03  0.79882987123E+02 0.  0.
         23    2    1    2    0    0  0.11180007751E+03 -0.53869764488E+02 -0.20791410869E+03  0.25830312903E+03  0.89950102933E+02 0.  0.
         11    1    3    3    0    0 -0.74592397176E+02 -0.35623136134E+02 -0.17976654916E+03  0.19786117796E+03  0.00000000000E+00 0. -1.
        -12    1    3    3    0    0 -0.25568778190E+02  0.33521093748E+02 -0.51767052601E+02  0.66762668306E+02  0.00000000000E+00 0.  1.
        -13    1    4    4    0    0  0.84976007931E+02  0.72840894862E+01 -0.10036139056E+03  0.13170568932E+03  0.00000000000E+00 0. -1.
         13    1    4    4    0    0  0.26824069576E+02 -0.61153853975E+02 -0.10755271812E+03  0.12659743971E+03  0.00000000000E+00 0.  1.
          2    1    1    2  501    0 -0.11638902141E+02  0.55971806874E+02 -0.96335472800E+02  0.11202156278E+03  0.00000000000E+00 0. -1.
<scales pt_clust_5="13000.00000" pt_clust_6="13000.00000" pt_clust_7="13000.00000" pt_clust_8="13000.00000" pt_clust_9="57.16914"></scales>
<clustering>
<clus scale="   57.169">  1  9  2 -1</clus>
<clus scale="   79.883">  5  6 -1 -1</clus>
<clus scale="   89.950">  7  8 -1 -1</clus>
<clus scale="  133.276">  2  5  1 -1</clus>
<clus scale="   57.169">  1  5  2 -1</clus>
</clustering>
</event>
<event>
 9    1  0.6014990E-005  0.1083818E+03  0.7546771E-02  0.1268491E+00
          3   -1    0    0  502    0 -0.00000000000E+00  0.00000000000E+00  0.10018481171E+03  0.10018481171E+03  0.00000000000E+00 0. -1.
         21   -1    0    0  501  502  0.00000000000E+00 -0.00000000000E+00 -0.25815011171E+03  0.25815011171E+03  0.00000000000E+00 0. -1.
         23    2    1    2    0    0 -0.27125705870E+02 -0.54525967371E+02 -0.86688335763E+02  0.14025183424E+03  0.91906607012E+02 0.  0.
        -24    2    1    2    0    0 -0.24847662214E+02  0.60654102308E+02 -0.11147601914E+03  0.15209256681E+03  0.80055728039E+02 0.  0.
         11    1    4    4    0    0 -0.27622843600E+02  0.79616961336E+02 -0.92192882860E+02  0.12490560304E+03  0.00000000000E+00 0. -1.
        -12    1    4    4    0    0  0.27751813865E+01 -0.18962859029E+02 -0.19283136280E+02  0.27186963770E+02  0.00000000000E+00 0.  1.
        -11    1    3    3    0    0 -0.49595092089E+01 -0.27314491414E+02  0.15784829348E+02  0.31934918355E+02  0.00000000000E+00 0.  1.
         11    1    3    3    0    0 -0.22166196661E+02 -0.27211475957E+02 -0.10247316511E+03  0.10831691588E+03  0.00000000000E+00 0. -1.
          4    1    1    2  501    0  0.51973368084E+02 -0.61281349370E+01  0.40199054897E+02  0.65990522369E+02  0.00000000000E+00 0. -1.
<scales pt_clust_5="13000.00000" pt_clust_6="13000.00000" pt_clust_7="13000.00000" pt_clust_8="13000.00000" pt_clust_9="52.33343"></scales>
<clustering>
<clus scale="   52.333">  2  9  1 -1</clus>
<clus scale="   80.056">  5  6 -1 -1</clus>
<clus scale="   91.907">  7  8 -1 -1</clus>
<clus scale="   98.533">  2  5  1 -1</clus>
<clus scale="   52.333">  2  5  1 -1</clus>
</clustering>
</event>
<event>
 9    1  0.6014990E-005  0.9554663E+02  0.7546771E-02  0.1290340E+00
         -2   -1    0    0    0  501 -0.00000000000E+00  0.00000000000E+00  0.23265552512E+03  0.23265552512E+03  0.00000000000E+00 0.  1.
         21   -1    0    0  501  502  0.00000000000E+00 -0.00000000000E+00 -0.61148484938E+02  0.61148484938E+02  0.00000000000E+00 0.  1.
         23    2    1    2    0    0 -0.25748965349E+02  0.21668050706E+02  0.69012515601E+02  0.11258509942E+03  0.82341749213E+02 0.  0.
        -24    2    1    2    0    0  0.58226190128E+02 -0.40335808499E+02  0.56467488799E+02  0.12187463262E+03  0.81532705841E+02 0.  0.
         11    1    4    4    0    0  0.78373346402E+00 -0.49417128765E+02  0.20578801471E+02  0.53536472834E+02  0.00000000000E+00 0. -1.
        -12    1    4    4    0    0  0.57442456664E+02  0.90813202656E+01  0.35888687328E+02  0.68338159790E+02  0.00000000000E+00 0.  1.
        -13    1    3    3    0    0  0.80899048565E+01  0.36464560756E+02  0.65609152132E+02  0.75496169407E+02  0.00000000000E+00 0. -1.
         13    1    3    3    0    0 -0.33838870205E+02 -0.14796510050E+02  0.34033634686E+01  0.37088930011E+02  0.00000000000E+00 0.  1.
         -1    1    1    2    0  502 -0.32477224779E+02  0.18667757794E+02  0.46027035780E+02  0.59344278015E+02  0.00000000000E+00 0.  1.
<scales pt_clust_5="13000.00000" pt_clust_6="13000.00000" pt_clust_7="13000.00000" pt_clust_8="13000.00000" pt_clust_9="37.46007"></scales>
<clustering>
<clus scale="   37.460">  2  9  1 -1</clus>
<clus scale="   81.533">  5  6 -1 -1</clus>
<clus scale="   82.342">  7  8 -1 -1</clus>
<clus scale="   94.850">  2  5  1 -1</clus>
<clus scale="   37.460">  2  5  1 -1</clus>
</clustering>
</event>
<event>
 9    1  0.6014990E-005  0.1026363E+03  0.7546771E-02  0.1277116E+00
         21   -1    0    0  501  502  0.00000000000E+00  0.00000000000E+00  0.87565639392E+02  0.87565639392E+02  0.00000000000E+00 0.  1.
          1   -1    0    0  502    0 -0.00000000000E+00 -0.00000000000E+00 -0.26246144566E+03  0.26246144566E+03  0.00000000000E+00 0. -1.
         23    2    1    2    0    0 -0.33258019995E+02 -0.12445839803E+02 -0.14128064283E+03  0.17197498321E+03  0.91401203434E+02 0.  0.
        -24    2    1    2    0    0  0.85078215203E+02  0.15387331260E+02 -0.16443537220E+02  0.12338172824E+03  0.86473049452E+02 0.  0.
         11    1    4    4    0    0  0.57163405533E+02  0.38501680528E+02 -0.40445969526E+02  0.79911893899E+02  0.00000000000E+00 0. -1.
        -12    1    4    4    0    0  0.27914809669E+02 -0.23114349267E+02  0.24002432306E+02  0.43469834340E+02  0.00000000000E+00 0.  1.
        -13    1    3    3    0    0  0.60976632980E+01  0.35499980099E+02 -0.50876232859E+02  0.62336354999E+02  0.00000000000E+00 0. -1.
         13    1    3    3    0    0 -0.39355683293E+02 -0.47945819902E+02 -0.90404409972E+02  0.10963862821E+03  0.00000000000E+00 0.  1.
          2    1    1    2  501    0 -0.51820195207E+02 -0.29414914570E+01 -0.17171626222E+02  0.54670373608E+02  0.00000000000E+00 0. -1.
<scales pt_clust_5="13000.00000" pt_clust_6="13000.00000" pt_clust_7="13000.00000" pt_clust_8="13000.00000" pt_clust_9="51.90361"></scales>
<clustering>
<clus scale="   51.904">  1  9  2 -1</clus>
<clus scale="   86.473">  5  6 -1 -1</clus>
<clus scale="   91.401">  7  8 -1 -1</clus>
<clus scale="   98.273">  1  5  2 -1</clus>
<clus scale="   51.904">  1  5  2 -1</clus>
</clustering>
</event>
<event>
 9    1  0.6014990E-005  0.3452849E+03  0.7546771E-02  0.1064958E+00
         -2   -1    0    0    0  501 -0.00000000000E+00  0.00000000000E+00  0.22893622234E+04  0.22893622234E+04  0.00000000000E+00 0.  1.
         21   -1    0    0  501  502  0.00000000000E+00 -0.00000000000E+00 -0.86723257861E+02  0.86723257861E+02  0.00000000000E+00 0.  1.
         23    2    1    2    0    0  0.25014451978E+03 -0.29064911828E+03  0.98151453576E+03  0.10580903699E+04  0.95578533909E+02 0.  0.
        -24    2    1    2    0    0 -0.23695032295E+03  0.15276064799E+03  0.46878255726E+03  0.55300778458E+03  0.81112592651E+02 0.  0.
         13    1    4    4    0    0 -0.87530887724E+02  0.20110748635E+02  0.18845115451E+03  0.20875808045E+03  0.00000000000E+00 0. -1.
        -14    1    4    4    0    0 -0.14941943523E+03  0.13264989935E+03  0.28033140275E+03  0.34424970413E+03  0.00000000000E+00 0.  1.
        -13    1    3    3    0    0  0.21143753529E+03 -0.28560982168E+03  0.90306348200E+03  0.97046507103E+03  0.00000000000E+00 0.  1.
         13    1    3    3    0    0  0.38706984490E+02 -0.50392966040E+01  0.78451053759E+02  0.87625298826E+02  0.00000000000E+00 0. -1.
         -1    1    1    2    0  502 -0.13194196834E+02  0.13788847029E+03  0.75234187256E+03  0.76498732688E+03  0.00000000000E+00 0.  1.
<scales pt_clust_5="13000.00000" pt_clust_6="13000.00000" pt_clust_7="13000.00000" pt_clust_8="13000.00000" pt_clust_9="138.51836"></scales>
<clustering>
<clus scale="   81.113">  5  6 -1 -1</clus>
<clus scale="   95.579">  7  8 -1 -1</clus>
<clus scale="  138.518">  2  9  1 -1</clus>
<clus scale="  341.564">  2  5  1 -1</clus>
<clus scale="  138.518">  2  5  1 -1</clus>
</clustering>
</event>
<event>
 9    1  0.6014990E-005  0.1112754E+03  0.7546771E-02  0.1263695E+00
         21   -1    0    0  501  502  0.00000000000E+00  0.00000000000E+00  0.70260081401E+02  0.70260081401E+02  0.00000000000E+00 0. -1.
          3   -1    0    0  502    0 -0.00000000000E+00 -0.00000000000E+00 -0.41983066277E+03  0.41983066277E+03  0.00000000000E+00 0. -1.
         23    2    1    2    0    0  0.28038773599E+00 -0.81557580511E+02 -0.30984120613E+03  0.33365625671E+03  0.93130054575E+02 0.  0.
        -24    2    1    2    0    0  0.44153594030E+01  0.19460910850E+02 -0.46103639548E+02  0.93835145061E+02  0.79254441007E+02 0.  0.
         13    1    4    4    0    0  0.10498504298E+02 -0.18686463514E+02 -0.50592883627E+02  0.54945813169E+02  0.00000000000E+00 0. -1.
        -14    1    4    4    0    0 -0.60831448945E+01  0.38147374364E+02  0.44892440788E+01  0.38889331892E+02  0.00000000000E+00 0.  1.
        -11    1    3    3    0    0 -0.35860634673E+01  0.19687497864E+02 -0.80166260618E+02  0.82626186919E+02  0.00000000000E+00 0.  1.
         11    1    3    3    0    0  0.38664512033E+01 -0.10124507837E+03 -0.22967494552E+03  0.25103006979E+03  0.00000000000E+00 0. -1.
          4    1    1    2  501    0 -0.46957471390E+01  0.62096669661E+02  0.63742643087E+01  0.62599342406E+02  0.00000000000E+00 0. -1.
<scales pt_clust_5="13000.00000" pt_clust_6="13000.00000" pt_clust_7="13000.00000" pt_clust_8="13000.00000" pt_clust_9="62.27396"></scales>
<clustering>
<clus scale="   62.274">  1  9  2 -1</clus>
<clus scale="   79.254">  5  6 -1 -1</clus>
<clus scale="   93.130">  7  8 -1 -1</clus>
<clus scale="   99.951">  1  5  2 -1</clus>
<clus scale="   62.274">  1  5  2 -1</clus>
</clustering>
</event>
<event>
 9    1  0.6014990E-005  0.1037027E+03  0.7546771E-02  0.1277358E+00
          1   -1    0    0  502    0 -0.00000000000E+00  0.00000000000E+00  0.85016059677E+03  0.85016059677E+03  0.00000000000E+00 0. -1.
         21   -1    0    0  501  502  0.00000000000E+00 -0.00000000000E+00 -0.19057467766E+02  0.19057467766E+02  0.00000000000E+00 0. -1.
         23    2    1    2    0    0 -0.30502751681E+02  0.96368846279E+01  0.33400238169E+03  0.34759200495E+03  0.90770719532E+02 0.  0.
        -24    2    1    2    0    0  0.51429840959E+02 -0.48166652305E+02  0.41483061592E+03  0.42840127435E+03  0.80486999098E+02 0.  0.
         11    1    4    4    0    0  0.66473232183E+02 -0.37371093614E+02  0.22298475651E+03  0.23566393629E+03  0.00000000000E+00 0. -1.
        -12    1    4    4    0    0 -0.15043391223E+02 -0.10795558691E+02  0.19184585941E+03  0.19273733805E+03  0.00000000000E+00 0.  1.
        -13    1    3    3    0    0  0.32343419693E+02  0.50297156600E+01  0.13144280974E+03  0.13545703034E+03  0.00000000000E+00 0.  1.
         13    1    3    3    0    0 -0.62846171375E+02  0.46071689678E+01  0.20255957195E+03  0.21213497461E+03  0.00000000000E+00 0. -1.
          2    1    1    2  501    0 -0.20927089278E+02  0.38529767677E+02  0.82270131393E+02  0.93224785236E+02  0.00000000000E+00 0. -1.
<scales pt_clust_5="13000.00000" pt_clust_6="13000.00000" pt_clust_7="13000.00000" pt_clust_8="13000.00000" pt_clust_9="43.84616"></scales>
<clustering>
<clus scale="   43.846">  2  9  1 -1</clus>
<clus scale="   80.487">  5  6 -1 -1</clus>
<clus scale="   90.771">  7  8 -1 -1</clus>
<clus scale="   94.832">  2  5  1 -1</clus>
<clus scale="   43.846">  2  5  1 -1</clus>
</clustering>
</event>
<event>
 9    1  0.6014990E-005  0.1211869E+03  0.7546771E-02  0.1264322E+00
          1   -1    0    0  502    0 -0.00000000000E+00  0.00000000000E+00  0.30940505928E+03  0.30940505928E+03  0.00000000000E+00 0. -1.
         21   -1    0    0  501  502  0.00000000000E+00 -0.00000000000E+00 -0.31151521246E+03  0.31151521246E+03  0.00000000000E+00 0.  1.
        -24    2    1    2    0    0  0.41667139549E+00 -0.62316982066E+01  0.25086187076E+03  0.26224834578E+03  0.76180765187E+02 0.  0.
         23    2    1    2    0    0 -0.47450414647E+02  0.68799486856E+02 -0.38050293685E+02  0.12994009320E+03  0.91933082887E+02 0.  0.
         13    1    3    3    0    0 -0.20848581151E+02 -0.33985230377E+02  0.15996381055E+03  0.16485775658E+03  0.00000000000E+00 0. -1.
        -14    1    3    3    0    0  0.21265252547E+02  0.27753532171E+02  0.90898060208E+02  0.97390589193E+02  0.00000000000E+00 0.  1.
        -13    1    4    4    0    0 -0.50847201500E+02  0.39135849941E+02 -0.63820587779E+02  0.90499282182E+02  0.00000000000E+00 0.  1.
         13    1    4    4    0    0  0.33967868521E+01  0.29663636915E+02  0.25770294095E+02  0.39440811017E+02  0.00000000000E+00 0. -1.
          2    1    1    2  501    0  0.47033743252E+02 -0.62567788649E+02 -0.21492173026E+03  0.22873183276E+03  0.00000000000E+00 0. -1.
<scales pt_clust_5="13000.00000" pt_clust_6="13000.00000" pt_clust_7="13000.00000" pt_clust_8="13000.00000" pt_clust_9="78.95931"></scales>
<clustering>
<clus scale="   76.181">  5  6 -1 -1</clus>
<clus scale="   76.436">  1  5  2 -1</clus>
<clus scale="   78.959">  2  9  1 -1</clus>
<clus scale="   91.933">  7  8 -1 -1</clus>
<clus scale="   78.959">  2  5  1 -1</clus>
</clustering>
</event>
<event>
 9    1  0.6014990E-005  0.9264919E+02  0.7546771E-02  0.1302306E+00
         21   -1    0    0  501  502  0.00000000000E+00  0.00000000000E+00  0.54508599319E+02  0.54508599319E+02  0.00000000000E+00 0.  1.
          1   -1    0    0  502    0 -0.00000000000E+00 -0.00000000000E+00 -0.27753231420E+03  0.27753231420E+03  0.00000000000E+00 0. -1.
        -24    2    1    2    0    0  0.50019540400E+01  0.98105636561E+01 -0.58525476132E+02  0.99891247458E+02  0.80198274662E+02 0.  0.
         23    2    1    2    0    0  0.23548197047E+02 -0.38916844031E+02 -0.53779049953E+02  0.11416227075E+03  0.89843194044E+02 0.  0.
         13    1    3    3    0    0 -0.11390266493E+02  0.34983513097E+02 -0.59363497032E+02  0.69839882154E+02  0.00000000000E+00 0. -1.
        -14    1    3    3    0    0  0.16392220533E+02 -0.25172949441E+02  0.83802090045E+00  0.30051365303E+02  0.00000000000E+00 0.  1.
        -13    1    4    4    0    0  0.46667124649E+02  0.83240693275E+01 -0.32239353735E+02  0.57327886603E+02  0.00000000000E+00 0.  1.
         13    1    4    4    0    0 -0.23118927602E+02 -0.47240913359E+02 -0.21539696218E+02  0.56834384149E+02  0.00000000000E+00 0. -1.
          2    1    1    2  501    0 -0.28550151087E+02  0.29106280375E+02 -0.11071918879E+03  0.11798739531E+03  0.00000000000E+00 0. -1.
<scales pt_clust_5="13000.00000" pt_clust_6="13000.00000" pt_clust_7="13000.00000" pt_clust_8="13000.00000" pt_clust_9="40.77117"></scales>
<clustering>
<clus scale="   40.771">  1  9  2 -1</clus>
<clus scale="   80.198">  5  6 -1 -1</clus>
<clus scale="   83.330">  2  5  1 -1</clus>
<clus scale="   89.843">  7  8 -1 -1</clus>
<clus scale="   40.771">  1  5  2 -1</clus>
</clustering>
</event>
<event>
 9    1  0.6014990E-005  0.9243863E+02  0.7546771E-02  0.1303286E+00
          1   -1    0    0  502    0 -0.00000000000E+00  0.00000000000E+00  0.20749860511E+03  0.20749860511E+03  0.00000000000E+00 0. -1.
         21   -1    0    0  501  502  0.00000000000E+00 -0.00000000000E+00 -0.12237112393E+03  0.12237112393E+03  0.00000000000E+00 0. -1.
         23    2    1    2    0    0 -0.22744843401E+02  0.99349109572E+01  0.13642815083E+03  0.16552769595E+03  0.90392186791E+02 0.  0.
        -24    2    1    2    0    0 -0.33517067000E+02 -0.36025230095E+02 -0.33845693112E+02  0.99915458436E+02  0.80102165443E+02 0.  0.
         13    1    4    4    0    0 -0.35630086514E+02 -0.57171322911E+02 -0.10216292785E+02  0.68135422995E+02  0.00000000000E+00 0. -1.
        -14    1    4    4    0    0  0.21130195137E+01  0.21146092816E+02 -0.23629400327E+02  0.31780035441E+02  0.00000000000E+00 0.  1.
        -11    1    3    3    0    0  0.34490315537E+01 -0.29579809026E+02  0.11529311666E+02  0.31934087558E+02  0.00000000000E+00 0.  1.
         11    1    3    3    0    0 -0.26193874954E+02  0.39514719984E+02  0.12489883916E+03  0.13359360840E+03  0.00000000000E+00 0. -1.
          2    1    1    2  501    0  0.56261910401E+02  0.26090319138E+02 -0.17454976532E+02  0.64426574644E+02  0.00000000000E+00 0. -1.
<scales pt_clust_5="13000.00000" pt_clust_6="13000.00000" pt_clust_7="13000.00000" pt_clust_8="13000.00000" pt_clust_9="62.01699"></scales>
<clustering>
<clus scale="   62.017">  2  9  1 -1</clus>
<clus scale="   80.102">  5  6 -1 -1</clus>
<clus scale="   82.405">  2  5  1 -1</clus>
<clus scale="   90.392">  7  8 -1 -1</clus>
<clus scale="   62.017">  2  5  1 -1</clus>
</clustering>
</event>
<event>
 9    1  0.6014990E-005  0.1128480E+03  0.7546771E-02  0.1257911E+00
          1   -1    0    0  502    0 -0.00000000000E+00  0.00000000000E+00  0.16850358010E+03  0.16850358010E+03  0.00000000000E+00 0. -1.
         21   -1    0    0  501  502  0.00000000000E+00 -0.00000000000E+00 -0.14560432306E+03  0.14560432306E+03  0.00000000000E+00 0. -1.
        -24    2    1    2    0    0  0.71917889109E+02  0.28044227721E+02  0.71181807278E+02  0.13432891186E+03  0.83777952891E+02 0.  0.
         23    2    1    2    0    0 -0.38625937917E+02  0.45411590596E+01 -0.76888476717E+02  0.12511217802E+03  0.90711818583E+02 0.  0.
         13    1    3    3    0    0  0.28077457932E+02  0.52608232594E+02  0.20763621780E+02  0.63143469733E+02  0.00000000000E+00 0. -1.
        -14    1    3    3    0    0  0.43840431178E+02 -0.24564004873E+02  0.50418185499E+02  0.71185442123E+02  0.00000000000E+00 0.  1.
        -13    1    4    4    0    0 -0.51559917045E+02  0.28719142593E+02 -0.20618192280E+02  0.62516590197E+02  0.00000000000E+00 0.  1.
         13    1    4    4    0    0  0.12933979128E+02 -0.24177983534E+02 -0.56270284437E+02  0.62595587819E+02  0.00000000000E+00 0. -1.
          2    1    1    2  501    0 -0.33291951193E+02 -0.32585386780E+02  0.28605926481E+02  0.54666813293E+02  0.00000000000E+00 0. -1.
<scales pt_clust_5="13000.00000" pt_clust_6="13000.00000" pt_clust_7="13000.00000" pt_clust_8="13000.00000" pt_clust_9="46.58501"></scales>
<clustering>
<clus scale="   46.585">  2  9  1 -1</clus>
<clus scale="   83.778">  5  6 -1 -1</clus>
<clus scale="   90.712">  7  8 -1 -1</clus>
<clus scale="  107.354">  1  5  2 -1</clus>
<clus scale="   46.585">  2  5  1 -1</clus>
</clustering>
</event>
<event>
 9    1  0.6014990E-005  0.9647763E+02  0.7546771E-02  0.1289865E+00
          1   -1    0    0  502    0 -0.00000000000E+00  0.00000000000E+00  0.53389617194E+03  0.53389617194E+03  0.00000000000E+00 0. -1.
         21   -1    0    0  501  502  0.00000000000E+00 -0.00000000000E+00 -0.64094945942E+02  0.64094945942E+02  0.00000000000E+00 0. -1.
         23    2    1    2    0    0 -0.46661196645E+02  0.66610239946E+01  0.32259501806E+03  0.33688399662E+03  0.84862506392E+02 0.  0.
        -24    2    1    2    0    0  0.22828362331E+02  0.24939962969E+02  0.18401251509E+03  0.20705778625E+03  0.88708428354E+02 0.  0.
         11    1    4    4    0    0 -0.29902520414E+02  0.27289065505E+02  0.99449495100E+02  0.10737344131E+03  0.00000000000E+00 0. -1.
        -12    1    4    4    0    0  0.52730882745E+02 -0.23491025367E+01  0.84563019986E+02  0.99684344944E+02  0.00000000000E+00 0.  1.
        -13    1    3    3    0    0  0.18510795485E+02 -0.16734935023E+02  0.12609510974E+03  0.12854059398E+03  0.00000000000E+00 0.  1.
         13    1    3    3    0    0 -0.65171992130E+02  0.23395959018E+02  0.19649990832E+03  0.20834340264E+03  0.00000000000E+00 0. -1.
          2    1    1    2  501    0  0.23832834314E+02 -0.31600986963E+02 -0.36806307147E+02  0.54049335003E+02  0.00000000000E+00 0. -1.
<scales pt_clust_5="13000.00000" pt_clust_6="13000.00000" pt_clust_7="13000.00000" pt_clust_8="13000.00000" pt_clust_9="39.58063"></scales>
<clustering>
<clus scale="   39.581">  2  9  1 -1</clus>
<clus scale="   84.863">  7  8 -1 -1</clus>
<clus scale="   88.708">  5  6 -1 -1</clus>
<clus scale="   92.954">  1  7  2 -1</clus>
<clus scale="   39.581">  2  5  1 -1</clus>
</clustering>
</event>
<event>
 9    1  0.6014990E-005  0.1745262E+03  0.7546771E-02  0.1175802E+00
         21   -1    0    0  501  502  0.00000000000E+00  0.00000000000E+00  0.11237963649E+04  0.11237963649E+04  0.00000000000E+00 0.  1.
         -4   -1    0    0    0  501 -0.00000000000E+00 -0.00000000000E+00 -0.33973613185E+02  0.33973613185E+02  0.00000000000E+00 0.  1.
        -24    2    1    2    0    0 -0.12510196342E+03  0.34273298774E+02  0.48415369260E+03  0.50736258519E+03  0.78656433508E+02 0.  0.
         23    2    1    2    0    0  0.16086301258E+03 -0.22220185213E+02  0.55968184749E+03  0.59091828618E+03  0.97826402823E+02 0.  0.
         13    1    3    3    0    0 -0.41924633784E+02  0.13973875598E+02  0.59232828533E+02  0.73901773275E+02  0.00000000000E+00 0. -1.
        -14    1    3    3    0    0 -0.83177329634E+02  0.20299423176E+02  0.42492086406E+03  0.43346081191E+03  0.00000000000E+00 0.  1.
        -13    1    4    4    0    0 -0.50387539789E+01 -0.20009040669E+02  0.35014852877E+02  0.40642227697E+02  0.00000000000E+00 0. -1.
         13    1    4    4    0    0  0.16590176656E+03 -0.22111445435E+01  0.52466699461E+03  0.55027605849E+03  0.00000000000E+00 0.  1.
         -3    1    1    2    0  502 -0.35761049165E+02 -0.12053113561E+02  0.45987211619E+02  0.59489106703E+02  0.00000000000E+00 0.  1.
<scales pt_clust_5="13000.00000" pt_clust_6="13000.00000" pt_clust_7="13000.00000" pt_clust_8="13000.00000" pt_clust_9="37.73767"></scales>
<clustering>
<clus scale="   37.738">  1  9  2 -1</clus>
<clus scale="   78.656">  5  6 -1 -1</clus>
<clus scale="   97.826">  7  8 -1 -1</clus>
<clus scale="  164.549">  2  5  1 -1</clus>
<clus scale="   37.738">  1  5  2 -1</clus>
</clustering>
</event>
<event>
 9    1  0.6014990E-005  0.8963980E+02  0.7546771E-02  0.1306117E+00
         -2   -1    0    0    0  501 -0.00000000000E+00  0.00000000000E+00  0.13416621443E+03  0.13416621443E+03  0.00000000000E+00 0.  1.
         21   -1    0    0  501  502  0.00000000000E+00 -0.00000000000E+00 -0.20445075215E+03  0.20445075215E+03  0.00000000000E+00 0.  1.
         23    2    1    2    0    0  0.31421975014E+01 -0.32118763279E+02  0.97555484952E+02  0.13289943678E+03  0.84283446142E+02 0.  0.
        -24    2    1    2    0    0  0.24433811834E+02  0.16948083203E+02 -0.13795309127E+03  0.16231459793E+03  0.80191798999E+02 0.  0.
         11    1    4    4    0    0  0.26983538273E+02 -0.18025836785E+02 -0.17515766161E+02  0.36876065323E+02  0.00000000000E+00 0. -1.
        -12    1    4    4    0    0 -0.25497264386E+01  0.34973919988E+02 -0.12043732511E+03  0.12543853261E+03  0.00000000000E+00 0.  1.
        -11    1    3    3    0    0 -0.31378030941E+02  0.12521198978E+02  0.34716111734E+02  0.48441404434E+02  0.00000000000E+00 0. -1.
         11    1    3    3    0    0  0.34520228443E+02 -0.44639962256E+02  0.62839373218E+02  0.84458032350E+02  0.00000000000E+00 0.  1.
         -1    1    1    2    0  502 -0.27576009336E+02  0.15170680075E+02 -0.29886931406E+02  0.43402931856E+02  0.00000000000E+00 0.  1.
<scales pt_clust_5="13000.00000" pt_clust_6="13000.00000" pt_clust_7="13000.00000" pt_clust_8="13000.00000" pt_clust_9="31.47357"></scales>
<clustering>
<clus scale="   31.474">  2  9  1 -1</clus>
<clus scale="   80.192">  5  6 -1 -1</clus>
<clus scale="   84.283">  7  8 -1 -1</clus>
<clus scale="   85.804">  2  5  1 -1</clus>
<clus scale="   31.474">  2  5  1 -1</clus>
</clustering>
</event>
<event>
 9    1  0.6014990E-005  0.9243744E+02  0.7546771E-02  0.1304160E+00
         -2   -1    0    0    0  501 -0.00000000000E+00  0.00000000000E+00  0.30819882237E+03  0.30819882237E+03  0.00000000000E+00 0.  1.
         21   -1    0    0  501  502  0.00000000000E+00 -0.00000000000E+00 -0.13129233546E+03  0.13129233546E+03  0.00000000000E+00 0.  1.
        -24    2    1    2    0    0  0.53375150581E+01 -0.78526672187E+01  0.24378031024E+03  0.25699365636E+03  0.80788280676E+02 0.  0.
         23    2    1    2    0    0  0.54713100778E+02 -0.41951098778E+01 -0.53242957525E+02  0.11975177734E+03  0.92165900994E+02 0.  0.
         13    1    3    3    0    0 -0.27684313706E+02 -0.27118270235E+02  0.81127821259E+02  0.89908537904E+02  0.00000000000E+00 0. -1.
        -14    1    3    3    0    0  0.33021828764E+02  0.19265603016E+02  0.16265248899E+03  0.16708511845E+03  0.00000000000E+00 0.  1.
        -11    1    4    4    0    0 -0.24984839609E+02 -0.10574379537E+02 -0.16562084229E+02  0.31786197427E+02  0.00000000000E+00 0. -1.
         11    1    4    4    0    0  0.79697940387E+02  0.63792696592E+01 -0.36680873296E+02  0.87965579911E+02  0.00000000000E+00 0.  1.
         -1    1    1    2    0  502 -0.60050615836E+02  0.12047777096E+02 -0.13630865810E+02  0.62745724141E+02  0.00000000000E+00 0.  1.
<scales pt_clust_5="13000.00000" pt_clust_6="13000.00000" pt_clust_7="13000.00000" pt_clust_8="13000.00000" pt_clust_9="61.24725"></scales>
<clustering>
<clus scale="   61.247">  2  9  1 -1</clus>
<clus scale="   80.788">  5  6 -1 -1</clus>
<clus scale="   81.098">  1  5  2 -1</clus>
<clus scale="   92.166">  7  8 -1 -1</clus>
<clus scale="   61.247">  2  5  1 -1</clus>
</clustering>
</event>
<event>
 9    1  0.6014990E-005  0.1091023E+03  0.7546771E-02  0.1264819E+00
          1   -1    0    0  502    0 -0.00000000000E+00  0.00000000000E+00  0.18014046917E+03  0.18014046917E+03  0.00000000000E+00 0. -1.
         21   -1    0    0  501  502  0.00000000000E+00 -0.00000000000E+00 -0.95842769505E+02  0.95842769505E+02  0.00000000000E+00 0. -1.
         23    2    1    2    0    0 -0.72068395879E+02  0.31752909885E+02  0.74585032228E+02  0.13922716134E+03  0.87287882619E+02 0.  0.
        -24    2    1    2    0    0  0.32122914194E+02 -0.35901325448E+02 -0.51225871806E+01  0.93943279733E+02  0.80487962593E+02 0.  0.
         13    1    4    4    0    0  0.17900273198E+02 -0.58112074327E+02  0.12691026116E+02  0.62116786032E+02  0.00000000000E+00 0. -1.
        -14    1    4    4    0    0  0.14222640996E+02  0.22210748878E+02 -0.17813613296E+02  0.31826493701E+02  0.00000000000E+00 0.  1.
        -11    1    3    3    0    0  0.51331701338E+01 -0.21577308237E+02  0.23807648449E+02  0.32538189732E+02  0.00000000000E+00 0.  1.
         11    1    3    3    0    0 -0.77201566013E+02  0.53330218122E+02  0.50777383779E+02  0.10668897161E+03  0.00000000000E+00 0. -1.
          2    1    1    2  501    0  0.39945481685E+02  0.41484155635E+01  0.14835254617E+02  0.42812797599E+02  0.00000000000E+00 0. -1.
<scales pt_clust_5="13000.00000" pt_clust_6="13000.00000" pt_clust_7="13000.00000" pt_clust_8="13000.00000" pt_clust_9="40.16033"></scales>
<clustering>
<clus scale="   40.160">  2  9  1 -1</clus>
<clus scale="   80.488">  5  6 -1 -1</clus>
<clus scale="   87.288">  7  8 -1 -1</clus>
<clus scale="  103.742">  2  5  1 -1</clus>
<clus scale="   40.160">  2  5  1 -1</clus>
</clustering>
</event>
<event>
 9    1  0.6014990E-005  0.1279858E+03  0.7546771E-02  0.1240189E+00
          1   -1    0    0  502    0 -0.00000000000E+00  0.00000000000E+00  0.70845125512E+03  0.70845125512E+03  0.00000000000E+00 0. -1.
         21   -1    0    0  501  502  0.00000000000E+00 -0.00000000000E+00 -0.10114929527E+03  0.10114929527E+03  0.00000000000E+00 0. -1.
        -24    2    1    2    0    0  0.16755692929E+02  0.82851517862E+02  0.23419949290E+03  0.25662342991E+03  0.62137388473E+02 0.  0.
         23    2    1    2    0    0  0.93284775051E+01  0.79969338298E+02 -0.23033797181E+02  0.12389093460E+03  0.91303298428E+02 0.  0.
         13    1    3    3    0    0 -0.97615960504E+01  0.71224412150E+02  0.19544344854E+03  0.20824588164E+03  0.00000000000E+00 0. -1.
        -14    1    3    3    0    0  0.26517288979E+02  0.11627105712E+02  0.38756044367E+02  0.48377548274E+02  0.00000000000E+00 0.  1.
        -13    1    4    4    0    0  0.49025341347E+02  0.29174501143E+02 -0.71452378516E+01  0.57495130534E+02  0.00000000000E+00 0.  1.
         13    1    4    4    0    0 -0.39696863842E+02  0.50794837154E+02 -0.15888559329E+02  0.66395804069E+02  0.00000000000E+00 0. -1.
          2    1    1    2  501    0 -0.26084170434E+02 -0.16282085616E+03  0.39613626413E+03  0.42908618587E+03  0.00000000000E+00 0. -1.
<scales pt_clust_5="13000.00000" pt_clust_6="13000.00000" pt_clust_7="13000.00000" pt_clust_8="13000.00000" pt_clust_9="89.68874"></scales>
<clustering>
<clus scale="   62.137">  5  6 -1 -1</clus>
<clus scale="   91.303">  7  8 -1 -1</clus>
<clus scale="  104.910">  1  5  2 -1</clus>
<clus scale="   89.689">  2  9  1 -1</clus>
<clus scale="   89.689">  2  5  1 -1</clus>
</clustering>
</event>
<event>
 9    1  0.6014990E-005  0.1510429E+03  0.7546771E-02  0.1212688E+00
          1   -1    0    0  502    0 -0.00000000000E+00  0.00000000000E+00  0.43278691953E+03  0.43278691953E+03  0.00000000000E+00 0. -1.
         21   -1    0    0  501  502  0.00000000000E+00 -0.00000000000E+00 -0.11164713652E+03  0.11164713652E+03  0.00000000000E+00 0.  1.
        -24    2    1    2    0    0  0.42947924305E+02  0.66559341493E+02 -0.17866570603E+02  0.11441497470E+03  0.80603361900E+02 0.  0.
         23    2    1    2    0    0  0.64357900365E+01  0.48659656806E+02  0.24057360566E+03  0.27063534729E+03  0.11383606578E+03 0.  0.
         11    1    3    3    0    0 -0.23303145787E+02  0.81923893899E+01 -0.46954420483E+01  0.25143568233E+02  0.00000000000E+00 0. -1.
        -12    1    3    3    0    0  0.66251070091E+02  0.58366952103E+02 -0.13171128555E+02  0.89271406471E+02  0.00000000000E+00 0.  1.
        -11    1    4    4    0    0  0.58870659004E+02  0.29202450543E+02  0.15559714576E+03  0.16890532667E+03  0.00000000000E+00 0. -1.
         11    1    4    4    0    0 -0.52434868967E+02  0.19457206263E+02  0.84976459898E+02  0.10173002062E+03  0.00000000000E+00 0.  1.
          2    1    1    2  501    0 -0.49383714341E+02 -0.11521899830E+03  0.98432747955E+02  0.15938373405E+03  0.00000000000E+00 0. -1.
<scales pt_clust_5="13000.00000" pt_clust_6="13000.00000" pt_clust_7="13000.00000" pt_clust_8="13000.00000" pt_clust_9="99.27387"></scales>
<clustering>
<clus scale="   80.603">  5  6 -1 -1</clus>
<clus scale="  113.011">  1  5  2 -1</clus>
<clus scale="   99.274">  2  9  1 -1</clus>
<clus scale="  113.836">  7  8 -1 -1</clus>
<clus scale="   99.274">  2  5  1 -1</clus>
</clustering>
</event>
<event>
 9    1  0.6014990E-005  0.1073677E+03  0.7546771E-02  0.1272755E+00
          3   -1    0    0  502    0 -0.00000000000E+00  0.00000000000E+00  0.31630600486E+02  0.31630600486E+02  0.00000000000E+00 0. -1.
         21   -1    0    0  501  502  0.00000000000E+00 -0.00000000000E+00 -0.44512157835E+03  0.44512157835E+03  0.00000000000E+00 0. -1.
         23    2    1    2    0    0 -0.36784309789E+02  0.30679346114E+02 -0.14129800369E+03  0.17784200551E+03  0.96790213089E+02 0.  0.
        -24    2    1    2    0    0  0.48889632833E+02 -0.56192046483E+01 -0.19358585367E+03  0.21552175130E+03  0.80946716305E+02 0.  0.
         13    1    4    4    0    0  0.27564308714E+02 -0.26611846494E+02 -0.17742034692E+03  0.18151022283E+03  0.00000000000E+00 0. -1.
        -14    1    4    4    0    0  0.21325324118E+02  0.20992641845E+02 -0.16165506751E+02  0.34011528471E+02  0.00000000000E+00 0.  1.
        -13    1    3    3    0    0 -0.52813890204E+02 -0.57541154315E+01 -0.33196307379E+02  0.62645124843E+02  0.00000000000E+00 0.  1.
         13    1    3    3    0    0  0.16029580416E+02  0.36433461545E+02 -0.10810169631E+03  0.11519688066E+03  0.00000000000E+00 0. -1.
          4    1    1    2  501    0 -0.12105323044E+02 -0.25060141465E+02 -0.78607120496E+02  0.83388422032E+02  0.00000000000E+00 0. -1.
<scales pt_clust_5="13000.00000" pt_clust_6="13000.00000" pt_clust_7="13000.00000" pt_clust_8="13000.00000" pt_clust_9="27.83073"></scales>
<clustering>
<clus scale="   27.831">  2  9  1 -1</clus>
<clus scale="   80.947">  5  6 -1 -1</clus>
<clus scale="   93.337">  2  5  1 -1</clus>
<clus scale="   96.790">  7  8 -1 -1</clus>
<clus scale="   27.831">  2  5  1 -1</clus>
</clustering>
</event>
<event>
 9    1  0.6014990E-005  0.1223658E+03  0.7546771E-02  0.1249469E+00
         -2   -1    0    0    0  501 -0.00000000000E+00  0.00000000000E+00  0.14570119460E+03  0.14570119460E+03  0.00000000000E+00 0.  1.
         21   -1    0    0  501  502  0.00000000000E+00 -0.00000000000E+00 -0.20499757005E+03  0.20499757005E+03  0.00000000000E+00 0.  1.
        -24    2    1    2    0    0  0.57812746623E+02 -0.61870042035E+01  0.53252671352E+02  0.11291398906E+03  0.80827775098E+02 0.  0.
         23    2    1    2    0    0  0.39180362144E+02 -0.20088895079E+02 -0.29945691262E+02  0.10770249248E+03  0.93618470283E+02 0.  0.
         11    1    3    3    0    0 -0.20654581432E+02 -0.38677702325E+01  0.12757466712E+02  0.24583009124E+02  0.00000000000E+00 0. -1.
        -12    1    3    3    0    0  0.78467328056E+02 -0.23192339710E+01  0.40495204640E+02  0.88330979940E+02  0.00000000000E+00 0.  1.
        -11    1    4    4    0    0  0.38577262593E+02  0.18210324771E+02 -0.48960887619E+02  0.64938352565E+02  0.00000000000E+00 0.  1.
         11    1    4    4    0    0  0.60309955073E+00 -0.38299219851E+02  0.19015196356E+02  0.42764139916E+02  0.00000000000E+00 0. -1.
         -1    1    1    2    0  502 -0.96993108767E+02  0.26275899283E+02 -0.82603355534E+02  0.13008228310E+03  0.00000000000E+00 0.  1.
<scales pt_clust_5="13000.00000" pt_clust_6="13000.00000" pt_clust_7="13000.00000" pt_clust_8="13000.00000" pt_clust_9="78.79700"></scales>
<clustering>
<clus scale="   80.828">  5  6 -1 -1</clus>
<clus scale="   93.618">  7  8 -1 -1</clus>
<clus scale="   99.568">  1  5  2 -1</clus>
<clus scale="   78.797">  2  9  1 -1</clus>
<clus scale="   78.797">  2  5  1 -1</clus>
</clustering>
</event>
<event>
 9    1  0.6014990E-005  0.9799488E+02  0.7546771E-02  0.1290292E+00
         21   -1    0    0  501  502  0.00000000000E+00  0.00000000000E+00  0.12895202303E+03  0.12895202303E+03  0.00000000000E+00 0.  1.
         -2   -1    0    0    0  501 -0.00000000000E+00 -0.00000000000E+00 -0.18010936945E+03  0.18010936945E+03  0.00000000000E+00 0.  1.
         23    2    1    2    0    0  0.28687230601E+02  0.16882349255E+02 -0.12633009535E+03  0.15987394346E+03  0.92154293934E+02 0.  0.
        -24    2    1    2    0    0 -0.12329517455E+02 -0.40086954603E+02  0.31062682306E+02  0.96730547981E+02  0.81442788205E+02 0.  0.
         11    1    4    4    0    0 -0.38566887164E+02  0.27447233824E+01  0.20368636493E+01  0.38718046251E+02  0.00000000000E+00 0. -1.
        -12    1    4    4    0    0  0.26237369709E+02 -0.42831677986E+02  0.29025818657E+02  0.58012501730E+02  0.00000000000E+00 0.  1.
        -13    1    3    3    0    0  0.53326409971E+02  0.33048700405E+02 -0.10877961451E+03  0.12557438884E+03  0.00000000000E+00 0.  1.
         13    1    3    3    0    0 -0.24639179371E+02 -0.16166351150E+02 -0.17550480838E+02  0.34299554621E+02  0.00000000000E+00 0. -1.
         -1    1    1    2    0  502 -0.16357713145E+02  0.23204605349E+02  0.44110066624E+02  0.52456901036E+02  0.00000000000E+00 0.  1.
<scales pt_clust_5="13000.00000" pt_clust_6="13000.00000" pt_clust_7="13000.00000" pt_clust_8="13000.00000" pt_clust_9="28.39064"></scales>
<clustering>
<clus scale="   28.391">  1  9  2 -1</clus>
<clus scale="   81.443">  5  6 -1 -1</clus>
<clus scale="   87.997">  1  5  2 -1</clus>
<clus scale="   92.154">  7  8 -1 -1</clus>
<clus scale="   28.391">  1  5  2 -1</clus>
</clustering>
</event>
<event>
 9    1  0.6014990E-005  0.9822881E+02  0.7546771E-02  0.1293944E+00
          1   -1    0    0  502    0 -0.00000000000E+00  0.00000000000E+00  0.16058948319E+03  0.16058948319E+03  0.00000000000E+00 0. -1.
         21   -1    0    0  501  502  0.00000000000E+00 -0.00000000000E+00 -0.23341432841E+03  0.23341432841E+03  0.00000000000E+00 0.  1.
         23    2    1    2    0    0 -0.10582441034E+02 -0.19744338047E+00  0.12093226153E+03  0.15571198169E+03  0.97517087328E+02 0.  0.
        -24    2    1    2    0    0  0.11858099653E+02  0.28744067239E+02 -0.70065436887E+02  0.11134236660E+03  0.80753459525E+02 0.  0.
         13    1    4    4    0    0  0.46510407646E+02  0.15859286053E+02 -0.34493778467E+02  0.60037952384E+02  0.00000000000E+00 0. -1.
        -14    1    4    4    0    0 -0.34652307993E+02  0.12884781186E+02 -0.35571658420E+02  0.51304414217E+02  0.00000000000E+00 0.  1.
        -11    1    3    3    0    0  0.22982313605E+02  0.80071495084E+00  0.11993273026E+03  0.12211751583E+03  0.00000000000E+00 0. -1.
         11    1    3    3    0    0 -0.33564754639E+02 -0.99815833131E+00  0.99953126845E+00  0.33594465866E+02  0.00000000000E+00 0.  1.
          2    1    1    2  501    0 -0.12756586187E+01 -0.28546623858E+02 -0.12369166986E+03  0.12694946330E+03  0.00000000000E+00 0. -1.
<scales pt_clust_5="13000.00000" pt_clust_6="13000.00000" pt_clust_7="13000.00000" pt_clust_8="13000.00000" pt_clust_9="28.57511"></scales>
<clustering>
<clus scale="   28.575">  2  9  1 -1</clus>
<clus scale="   80.753">  5  6 -1 -1</clus>
<clus scale="   81.612">  2  5  1 -1</clus>
<clus scale="   97.517">  7  8 -1 -1</clus>
<clus scale="   28.575">  2  5  1 -1</clus>
</clustering>
</event>
<event>
 9    1  0.6014990E-005  0.9861977E+02  0.7546771E-02  0.1289984E+00
          3   -1    0    0  502    0 -0.00000000000E+00  0.00000000000E+00  0.99165052976E+02  0.99165052976E+02  0.00000000000E+00 0. -1.
         21   -1    0    0  501  502  0.00000000000E+00 -0.00000000000E+00 -0.14957877063E+03  0.14957877063E+03  0.00000000000E+00 0. -1.
        -24    2    1    2    0    0 -0.24888552688E+01 -0.28377303253E+02  0.29039143356E+02  0.89241018629E+02  0.79430610086E+02 0.  0.
         23    2    1    2    0    0  0.11742632295E+02  0.50859210996E+02 -0.40124780506E+02  0.11326681811E+03  0.92167376651E+02 0.  0.
         13    1    3    3    0    0  0.32358003525E+02 -0.26414899931E+02 -0.29798239741E+01  0.41876803620E+02  0.00000000000E+00 0. -1.
        -14    1    3    3    0    0 -0.34846858793E+02 -0.19624033215E+01  0.32018967330E+02  0.47364215009E+02  0.00000000000E+00 0.  1.
        -13    1    4    4    0    0  0.51360281796E+02  0.33905684385E+02 -0.14849450967E+02  0.63308610582E+02  0.00000000000E+00 0. -1.
         13    1    4    4    0    0 -0.39617649501E+02  0.16953526611E+02 -0.25275329539E+02  0.49958207532E+02  0.00000000000E+00 0.  1.
          4    1    1    2  501    0 -0.92537770260E+01 -0.22481907744E+02 -0.39328080502E+02  0.46235986861E+02  0.00000000000E+00 0. -1.
<scales pt_clust_5="13000.00000" pt_clust_6="13000.00000" pt_clust_7="13000.00000" pt_clust_8="13000.00000" pt_clust_9="24.31190"></scales>
<clustering>
<clus scale="   24.312">  2  9  1 -1</clus>
<clus scale="   79.431">  5  6 -1 -1</clus>
<clus scale="   86.835">  1  5  2 -1</clus>
<clus scale="   92.167">  7  8 -1 -1</clus>
<clus scale="   24.312">  2  5  1 -1</clus>
</clustering>
</event>
<event>
 9    1  0.1661016E-004  0.9494616E+02  0.7546771E-02  0.1296506E+00
         21   -1    0    0  501  502  0.00000000000E+00  0.00000000000E+00  0.48775534693E+03  0.48775534693E+03  0.00000000000E+00 0.  1.
         -2   -1    0    0    0  501 -0.00000000000E+00 -0.00000000000E+00 -0.13372020170E+03  0.13372020170E+03  0.00000000000E+00 0.  1.
         23    2    1    2    0    0  0.33800388739E+02  0.10697487366E+02 -0.87364745625E+02  0.13153217686E+03  0.91712661382E+02 0.  0.
        -24    2    1    2    0    0  0.13053298348E+02  0.31257057812E+01  0.54257183247E+02  0.99730833880E+02  0.82596844117E+02 0.  0.
         11    1    4    4    0    0 -0.25420695163E+02 -0.23818469126E+02  0.12899673239E+02  0.37147446530E+02  0.00000000000E+00 0. -1.
        -12    1    4    4    0    0  0.38473993511E+02  0.26944174907E+02  0.41357510008E+02  0.62583387349E+02  0.00000000000E+00 0.  1.
        -11    1    3    3    0    0  0.12473072336E+02 -0.32480967768E+02 -0.36903224694E+01  0.34988702185E+02  0.00000000000E+00 0. -1.
         11    1    3    3    0    0  0.21327316402E+02  0.43178455135E+02 -0.83674423156E+02  0.96543474680E+02  0.00000000000E+00 0.  1.
         -1    1    1    2    0  502 -0.46853687087E+02 -0.13823193148E+02  0.38714270761E+03  0.39021253788E+03  0.00000000000E+00 0.  1.
<scales pt_clust_5="13000.00000" pt_clust_6="13000.00000" pt_clust_7="13000.00000" pt_clust_8="13000.00000" pt_clust_9="48.85027"></scales>
<clustering>
<clus scale="   48.850">  1  9  2 -1</clus>
<clus scale="   82.597">  5  6 -1 -1</clus>
<clus scale="   86.173">  1  5  2 -1</clus>
<clus scale="   91.713">  7  8 -1 -1</clus>
<clus scale="   48.850">  1  5  2 -1</clus>
</clustering>
</event>
<event>
 9    1  0.6014990E-005  0.1008060E+03  0.7546771E-02  0.1282993E+00
          1   -1    0    0  502    0 -0.00000000000E+00  0.00000000000E+00  0.19132819173E+03  0.19132819173E+03  0.00000000000E+00 0. -1.
         21   -1    0    0  501  502  0.00000000000E+00 -0.00000000000E+00 -0.14885859613E+03  0.14885859613E+03  0.00000000000E+00 0. -1.
        -24    2    1    2    0    0  0.47635864197E+02 -0.17045455327E+02  0.13696333908E+03  0.16678568473E+03  0.80615043726E+02 0.  0.
         23    2    1    2    0    0 -0.72118860993E+01  0.37005800252E+02 -0.47693724838E+02  0.10841837372E+03  0.89768657218E+02 0.  0.
         13    1    3    3    0    0  0.43182543028E+02  0.54332996644E+01  0.13712828511E+03  0.14386945244E+03  0.00000000000E+00 0. -1.
        -14    1    3    3    0    0  0.44533211691E+01 -0.22478754992E+02 -0.16494603011E+00  0.22916232295E+02  0.00000000000E+00 0.  1.
        -11    1    4    4    0    0 -0.19865153650E+02 -0.24672906014E+02 -0.43380837613E+01  0.31971793685E+02  0.00000000000E+00 0.  1.
         11    1    4    4    0    0  0.12653267551E+02  0.61678706267E+02 -0.43355641077E+02  0.76446580039E+02  0.00000000000E+00 0. -1.
          2    1    1    2  501    0 -0.40423978097E+02 -0.19960344925E+02 -0.46800018643E+02  0.64982729396E+02  0.00000000000E+00 0. -1.
<scales pt_clust_5="13000.00000" pt_clust_6="13000.00000" pt_clust_7="13000.00000" pt_clust_8="13000.00000" pt_clust_9="45.08340"></scales>
<clustering>
<clus scale="   45.083">  2  9  1 -1</clus>
<clus scale="   80.615">  5  6 -1 -1</clus>
<clus scale="   89.769">  7  8 -1 -1</clus>
<clus scale="   92.748">  1  5  2 -1</clus>
<clus scale="   45.083">  2  5  1 -1</clus>
</clustering>
</event>
<event>
 9    1  0.6014990E-005  0.1244502E+03  0.7546771E-02  0.1241518E+00
         21   -1    0    0  501  502  0.00000000000E+00  0.00000000000E+00  0.16618280051E+03  0.16618280051E+03  0.00000000000E+00 0. -1.
          1   -1    0    0  502    0 -0.00000000000E+00 -0.00000000000E+00 -0.20209952298E+03  0.20209952298E+03  0.00000000000E+00 0. -1.
        -24    2    1    2    0    0  0.68087355045E+02  0.33910864473E+02 -0.76521860197E+02  0.13488257854E+03  0.80943685733E+02 0.  0.
         23    2    1    2    0    0  0.45291815764E+02 -0.44060538963E+02  0.35523953156E+02  0.11945383365E+03  0.94945181319E+02 0.  0.
         13    1    3    3    0    0  0.45797347233E+02  0.59554884459E+02 -0.40438163629E+02  0.85319554349E+02  0.00000000000E+00 0. -1.
        -14    1    3    3    0    0  0.22290007812E+02 -0.25644019986E+02 -0.36083696568E+02  0.49563024194E+02  0.00000000000E+00 0.  1.
        -13    1    4    4    0    0  0.56604496304E+02 -0.19088956395E+02  0.58555047426E+02  0.83648973916E+02  0.00000000000E+00 0. -1.
         13    1    4    4    0    0 -0.11312680539E+02 -0.24971582568E+02 -0.23031094270E+02  0.35804859729E+02  0.00000000000E+00 0.  1.
          2    1    1    2  501    0 -0.11337917081E+03  0.10149674490E+02  0.50811845690E+01  0.11394591130E+03  0.00000000000E+00 0. -1.
<scales pt_clust_5="13000.00000" pt_clust_6="13000.00000" pt_clust_7="13000.00000" pt_clust_8="13000.00000" pt_clust_9="80.45657"></scales>
<clustering>
<clus scale="   80.944">  5  6 -1 -1</clus>
<clus scale="   94.945">  7  8 -1 -1</clus>
<clus scale="  111.075">  2  5  1 -1</clus>
<clus scale="   80.457">  1  9  2 -1</clus>
<clus scale="   80.457">  1  5  2 -1</clus>
</clustering>
</event>
<event>
 9    1  0.6014990E-005  0.2185016E+03  0.7546771E-02  0.1164270E+00
         21   -1    0    0  501  502  0.00000000000E+00  0.00000000000E+00  0.10155007771E+03  0.10155007771E+03  0.00000000000E+00 0. -1.
          1   -1    0    0  502    0 -0.00000000000E+00 -0.00000000000E+00 -0.76820846386E+03  0.76820846386E+03  0.00000000000E+00 0. -1.
         23    2    1    2    0    0  0.53766293590E+02 -0.25440913327E+01 -0.15694966672E+03  0.19117823535E+03  0.94966483880E+02 0.  0.
        -24    2    1    2    0    0 -0.95733122541E+02  0.19564561645E+03 -0.36845146972E+03  0.43567492479E+03  0.81327219040E+02 0.  0.
         11    1    4    4    0    0 -0.81373006175E+02  0.17752288942E+03 -0.36256933069E+03  0.41181605355E+03  0.00000000000E+00 0. -1.
        -12    1    4    4    0    0 -0.14360116366E+02  0.18122727031E+02 -0.58821390321E+01  0.23858871237E+02  0.00000000000E+00 0.  1.
        -11    1    3    3    0    0  0.32737570236E+02  0.14537804317E+02 -0.42243906672E+01  0.36068569917E+02  0.00000000000E+00 0.  1.
         11    1    3    3    0    0  0.21028723353E+02 -0.17081895650E+02 -0.15272527606E+03  0.15510966543E+03  0.00000000000E+00 0. -1.
          2    1    1    2  501    0  0.41966828952E+02 -0.19310152512E+03 -0.14125724970E+03  0.24290538143E+03  0.00000000000E+00 0. -1.
<scales pt_clust_5="13000.00000" pt_clust_6="13000.00000" pt_clust_7="13000.00000" pt_clust_8="13000.00000" pt_clust_9="202.80242"></scales>
<clustering>
<clus scale="   81.327">  5  6 -1 -1</clus>
<clus scale="   94.966">  7  8 -1 -1</clus>
<clus scale="  109.160">  2  7  1 -1</clus>
<clus scale="  202.802">  1  9  2 -1</clus>
<clus scale="  202.802">  1  5  2 -1</clus>
</clustering>
</event>
<event>
 9    1  0.6014990E-005  0.3321082E+03  0.7546771E-02  0.1088334E+00
          1   -1    0    0  502    0 -0.00000000000E+00  0.00000000000E+00  0.65759270316E+03  0.65759270316E+03  0.00000000000E+00 0. -1.
         21   -1    0    0  501  502  0.00000000000E+00 -0.00000000000E+00 -0.59797091755E+03  0.59797091755E+03  0.00000000000E+00 0. -1.
        -24    2    1    2    0    0 -0.24393580044E+02 -0.18436302414E+03 -0.11136611778E+03  0.23212521668E+03  0.83035730949E+02 0.  0.
         23    2    1    2    0    0  0.32494372613E+03  0.63603109520E+02  0.47027287158E+03  0.58243405089E+03  0.91864406609E+02 0.  0.
         13    1    3    3    0    0 -0.11792411410E+02 -0.12227896834E+03 -0.25576418924E+02  0.12548051750E+03  0.00000000000E+00 0. -1.
        -14    1    3    3    0    0 -0.12601168634E+02 -0.62084055794E+02 -0.85789698858E+02  0.10664469919E+03  0.00000000000E+00 0.  1.
        -13    1    4    4    0    0  0.14884152053E+03  0.62215758103E+02  0.28016851392E+03  0.32329397610E+03  0.00000000000E+00 0. -1.
         13    1    4    4    0    0  0.17610220561E+03  0.13873514169E+01  0.19010435766E+03  0.25914007479E+03  0.00000000000E+00 0.  1.
          2    1    1    2  501    0 -0.30055014609E+03  0.12075991462E+03 -0.29928496820E+03  0.44100435313E+03  0.00000000000E+00 0. -1.
<scales pt_clust_5="13000.00000" pt_clust_6="13000.00000" pt_clust_7="13000.00000" pt_clust_8="13000.00000" pt_clust_9="319.15014"></scales>
<clustering>
<clus scale="   83.036">  5  6 -1 -1</clus>
<clus scale="   91.864">  7  8 -1 -1</clus>
<clus scale="  203.666">  1  5  2 -1</clus>
<clus scale="  319.150">  2  9  1 -1</clus>
<clus scale="  319.150">  2  5  1 -1</clus>
</clustering>
</event>
<event>
 9    1  0.6014990E-005  0.1362141E+03  0.7546771E-02  0.1228710E+00
         21   -1    0    0  501  502  0.00000000000E+00  0.00000000000E+00  0.18762335848E+03  0.18762335848E+03  0.00000000000E+00 0. -1.
          1   -1    0    0  502    0 -0.00000000000E+00 -0.00000000000E+00 -0.25174120972E+03  0.25174120972E+03  0.00000000000E+00 0. -1.
         23    2    1    2    0    0 -0.14724612492E+02  0.59828184796E+02 -0.13694439983E+03  0.17572144216E+03  0.91258044471E+02 0.  0.
        -24    2    1    2    0    0  0.50743231217E+02  0.63202410930E+02 -0.60808530773E+00  0.11590513554E+03  0.82850530567E+02 0.  0.
         13    1    4    4    0    0  0.72637629429E+02  0.56542713601E+02 -0.64819464396E+01  0.92278487742E+02  0.00000000000E+00 0. -1.
        -14    1    4    4    0    0 -0.21894398212E+02  0.66596973292E+01  0.58738611319E+01  0.23626647798E+02  0.00000000000E+00 0.  1.
        -13    1    3    3    0    0 -0.31673076660E+02 -0.13404494253E+02 -0.35101873961E+02  0.49142708583E+02  0.00000000000E+00 0.  1.
         13    1    3    3    0    0  0.16948464168E+02  0.73232679050E+02 -0.10184252587E+03  0.12657873358E+03  0.00000000000E+00 0. -1.
          2    1    1    2  501    0 -0.36018618725E+02 -0.12303059573E+03  0.73434633899E+02  0.14773799049E+03  0.00000000000E+00 0. -1.
<scales pt_clust_5="13000.00000" pt_clust_6="13000.00000" pt_clust_7="13000.00000" pt_clust_8="13000.00000" pt_clust_9="108.12061"></scales>
<clustering>
<clus scale="   82.851">  5  6 -1 -1</clus>
<clus scale="   91.258">  7  8 -1 -1</clus>
<clus scale="  110.110">  2  7  1 -1</clus>
<clus scale="  108.121">  1  9  2 -1</clus>
<clus scale="  108.121">  1  5  2 -1</clus>
</clustering>
</event>
<event>
 9    1  0.6014990E-005  0.9768308E+02  0.7546771E-02  0.1295055E+00
          1   -1    0    0  502    0 -0.00000000000E+00  0.00000000000E+00  0.21986250580E+03  0.21986250580E+03  0.00000000000E+00 0. -1.
         21   -1    0    0  501  502  0.00000000000E+00 -0.00000000000E+00 -0.11771956897E+03  0.11771956897E+03  0.00000000000E+00 0. -1.
         23    2    1    2    0    0  0.30340933112E+02  0.35593764577E+02  0.15075592224E+03  0.18290549318E+03  0.92409864431E+02 0.  0.
        -24    2    1    2    0    0 -0.28280870419E+01 -0.17861305255E+01  0.16097344436E+02  0.76655176781E+02  0.74871244753E+02 0.  0.
         11    1    4    4    0    0  0.14683163674E+02  0.22743967105E+02 -0.16940481834E+02  0.31935298024E+02  0.00000000000E+00 0. -1.
        -12    1    4    4    0    0 -0.17511250716E+02 -0.24530097630E+02  0.33037826269E+02  0.44719878757E+02  0.00000000000E+00 0.  1.
        -11    1    3    3    0    0  0.99267497082E+01  0.49696515056E+02  0.14972842640E+03  0.15807240632E+03  0.00000000000E+00 0. -1.
         11    1    3    3    0    0  0.20414183404E+02 -0.14102750479E+02  0.10274958451E+01  0.24833086857E+02  0.00000000000E+00 0.  1.
          2    1    1    2  501    0 -0.27512846070E+02 -0.33807634051E+02 -0.64710329854E+02  0.78021404812E+02  0.00000000000E+00 0. -1.
<scales pt_clust_5="13000.00000" pt_clust_6="13000.00000" pt_clust_7="13000.00000" pt_clust_8="13000.00000" pt_clust_9="43.58799"></scales>
<clustering>
<clus scale="   43.588">  2  9  1 -1</clus>
<clus scale="   74.871">  5  6 -1 -1</clus>
<clus scale="   81.290">  2  5  1 -1</clus>
<clus scale="   92.410">  7  8 -1 -1</clus>
<clus scale="   43.588">  2  5  1 -1</clus>
</clustering>
</event>
<event>
 9    1  0.6014990E-005  0.9009382E+02  0.7546771E-02  0.1308871E+00
          3   -1    0    0  502    0 -0.00000000000E+00  0.00000000000E+00  0.56133814547E+02  0.56133814547E+02  0.00000000000E+00 0. -1.
         21   -1    0    0  501  502  0.00000000000E+00 -0.00000000000E+00 -0.46776335865E+03  0.46776335865E+03  0.00000000000E+00 0.  1.
         23    2    1    2    0    0  0.45348779891E+01 -0.19767995437E+01  0.65213224698E+01  0.90238249472E+02  0.89866240414E+02 0.  0.
        -24    2    1    2    0    0  0.19365857838E+01  0.25537012049E+02 -0.25069968196E+03  0.26443462675E+03  0.80121482407E+02 0.  0.
         11    1    4    4    0    0  0.33591434185E+02  0.21548116275E+02 -0.20406186963E+03  0.20792775765E+03  0.00000000000E+00 0. -1.
        -12    1    4    4    0    0 -0.31654848401E+02  0.39888957743E+01 -0.46637812329E+02  0.56506869102E+02  0.00000000000E+00 0.  1.
        -11    1    3    3    0    0  0.35948712598E+02 -0.16968421944E+02 -0.21824171508E+02  0.45348999357E+02  0.00000000000E+00 0.  1.
         11    1    3    3    0    0 -0.31413834609E+02  0.14991622401E+02  0.28345493977E+02  0.44889250115E+02  0.00000000000E+00 0. -1.
          4    1    1    2  501    0 -0.64714637728E+01 -0.23560212506E+02 -0.16745118462E+03  0.16922429697E+03  0.00000000000E+00 0. -1.
<scales pt_clust_5="13000.00000" pt_clust_6="13000.00000" pt_clust_7="13000.00000" pt_clust_8="13000.00000" pt_clust_9="24.43284"></scales>
<clustering>
<clus scale="   24.433">  2  9  1 -1</clus>
<clus scale="   80.121">  5  6 -1 -1</clus>
<clus scale="   80.377">  2  5  1 -1</clus>
<clus scale="   89.866">  7  8 -1 -1</clus>
<clus scale="   24.433">  2  5  1 -1</clus>
</clustering>
</event>
<event>
 9    1  0.6014990E-005  0.3527276E+03  0.7546771E-02  0.1089584E+00
         21   -1    0    0  501  502  0.00000000000E+00  0.00000000000E+00  0.28641765365E+03  0.28641765365E+03  0.00000000000E+00 0.  1.
          1   -1    0    0  502    0 -0.00000000000E+00 -0.00000000000E+00 -0.10565120736E+04  0.10565120736E+04  0.00000000000E+00 0. -1.
        -24    2    1    2    0    0 -0.13948373847E+03  0.35813010336E+02 -0.24228705345E+03  0.29283147552E+03  0.79429036145E+02 0.  0.
         23    2    1    2    0    0 -0.27044995883E+03  0.16407712123E+03  0.30895917462E+02  0.32888326271E+03  0.84529053168E+02 0.  0.
         11    1    3    3    0    0 -0.87195742972E+02  0.43570907237E+02 -0.20832342763E+03  0.23000037402E+03  0.00000000000E+00 0. -1.
        -12    1    3    3    0    0 -0.52287995498E+02 -0.77578969010E+01 -0.33963625814E+02  0.62831101502E+02  0.00000000000E+00 0.  1.
        -11    1    4    4    0    0 -0.13744698605E+03  0.35167319159E+02  0.20735075519E+02  0.14338185962E+03  0.00000000000E+00 0. -1.
         11    1    4    4    0    0 -0.13300297279E+03  0.12890980207E+03  0.10160841942E+02  0.18550140309E+03  0.00000000000E+00 0.  1.
          2    1    1    2  501    0  0.40993369730E+03 -0.19989013156E+03 -0.55870328396E+03  0.72121498902E+03  0.00000000000E+00 0. -1.
<scales pt_clust_5="13000.00000" pt_clust_6="13000.00000" pt_clust_7="13000.00000" pt_clust_8="13000.00000" pt_clust_9="342.44960"></scales>
<clustering>
<clus scale="   79.429">  5  6 -1 -1</clus>
<clus scale="   84.529">  7  8 -1 -1</clus>
<clus scale="  164.461">  2  5  1 -1</clus>
<clus scale="  342.450">  1  9  2 -1</clus>
<clus scale="  342.450">  1  5  2 -1</clus>
</clustering>
</event>
<event>
 9    1  0.6014990E-005  0.2079594E+03  0.7546771E-02  0.1144102E+00
         21   -1    0    0  501  502  0.00000000000E+00  0.00000000000E+00  0.53766196705E+02  0.53766196705E+02  0.00000000000E+00 0.  1.
         -2   -1    0    0    0  501 -0.00000000000E+00 -0.00000000000E+00 -0.16053932433E+04  0.16053932433E+04  0.00000000000E+00 0.  1.
         23    2    1    2    0    0  0.69553564682E+02 -0.20162638571E+03 -0.12279146538E+04  0.12496033452E+04  0.90792210907E+02 0.  0.
        -24    2    1    2    0    0 -0.27481500658E+02  0.10966265610E+03 -0.12486786371E+03  0.18647195623E+03  0.79991724892E+02 0.  0.
         13    1    4    4    0    0 -0.36655766353E+01  0.10424275638E+03 -0.12399272125E+03  0.16203142791E+03  0.00000000000E+00 0. -1.
        -14    1    4    4    0    0 -0.23815924023E+02  0.54198997210E+01 -0.87514246391E+00  0.24440528316E+02  0.00000000000E+00 0.  1.
        -13    1    3    3    0    0  0.37281030244E+02 -0.19161677411E+03 -0.11058903292E+04  0.11229872143E+04  0.00000000000E+00 0.  1.
         13    1    3    3    0    0  0.32272534438E+02 -0.10009611601E+02 -0.12202432458E+03  0.12661613085E+03  0.00000000000E+00 0. -1.
         -1    1    1    2    0  502 -0.42072064024E+02  0.91963729604E+02 -0.19884452909E+03  0.22308413858E+03  0.00000000000E+00 0.  1.
<scales pt_clust_5="13000.00000" pt_clust_6="13000.00000" pt_clust_7="13000.00000" pt_clust_8="13000.00000" pt_clust_9="101.13054"></scales>
<clustering>
<clus scale="   79.992">  5  6 -1 -1</clus>
<clus scale="   90.792">  7  8 -1 -1</clus>
<clus scale="  101.131">  1  9  2 -1</clus>
<clus scale="  203.476">  1  5  2 -1</clus>
<clus scale="  101.131">  1  5  2 -1</clus>
</clustering>
</event>
<event>
 9    1  0.6014990E-005  0.1043805E+03  0.7546771E-02  0.1276053E+00
         -2   -1    0    0    0  501 -0.00000000000E+00  0.00000000000E+00  0.74752176751E+03  0.74752176751E+03  0.00000000000E+00 0.  1.
         21   -1    0    0  501  502  0.00000000000E+00 -0.00000000000E+00 -0.68496025422E+03  0.68496025422E+03  0.00000000000E+00 0.  1.
        -24    2    1    2    0    0  0.23287915771E+02 -0.46143454014E+02  0.73195559536E+03  0.73817076767E+03  0.80408602047E+02 0.  0.
         23    2    1    2    0    0 -0.45665573021E+02 -0.46960355256E+01 -0.23166855504E+03  0.25307543246E+03  0.90936559266E+02 0.  0.
         13    1    3    3    0    0 -0.10697121507E+02 -0.27292871814E+02  0.82497256129E+02  0.87550708331E+02  0.00000000000E+00 0. -1.
        -14    1    3    3    0    0  0.33985037278E+02 -0.18850582200E+02  0.64945833924E+03  0.65062005934E+03  0.00000000000E+00 0.  1.
        -11    1    4    4    0    0  0.14602802789E+02 -0.31889904891E+02 -0.66934403071E+02  0.75567335521E+02  0.00000000000E+00 0.  1.
         11    1    4    4    0    0 -0.60268375810E+02  0.27193869365E+02 -0.16473415197E+03  0.17750809693E+03  0.00000000000E+00 0. -1.
         -1    1    1    2    0  502  0.22377657250E+02  0.50839489540E+02 -0.43772552704E+03  0.44123582160E+03  0.00000000000E+00 0.  1.
<scales pt_clust_5="13000.00000" pt_clust_6="13000.00000" pt_clust_7="13000.00000" pt_clust_8="13000.00000" pt_clust_9="55.54650"></scales>
<clustering>
<clus scale="   55.546">  2  9  1 -1</clus>
<clus scale="   80.409">  5  6 -1 -1</clus>
<clus scale="   90.937">  7  8 -1 -1</clus>
<clus scale="   95.349">  1  5  2 -1</clus>
<clus scale="   55.546">  2  5  1 -1</clus>
</clustering>
</event>
<event>
 9    1  0.6014990E-005  0.1613807E+03  0.7546771E-02  0.1209571E+00
         21   -1    0    0  501  502  0.00000000000E+00  0.00000000000E+00  0.44202609998E+03  0.44202609998E+03  0.00000000000E+00 0.  1.
         -2   -1    0    0    0  501 -0.00000000000E+00 -0.00000000000E+00 -0.12886460787E+03  0.12886460787E+03  0.00000000000E+00 0.  1.
         23    2    1    2    0    0  0.24749453283E+02  0.11857491194E+02  0.64272640316E+02  0.11805019879E+03  0.95140641184E+02 0.  0.
        -24    2    1    2    0    0  0.72524914282E+02 -0.11352585248E+03 -0.10441175594E+02  0.15779674727E+03  0.81503453470E+02 0.  0.
         11    1    4    4    0    0  0.71107721923E+02 -0.71274617751E+02 -0.37687524449E+02  0.10750222673E+03  0.00000000000E+00 0. -1.
        -12    1    4    4    0    0  0.14171923586E+01 -0.42251234728E+02  0.27246348855E+02  0.50294520537E+02  0.00000000000E+00 0.  1.
        -11    1    3    3    0    0  0.30982482278E+02 -0.30217994711E+02  0.28957212829E+01  0.43375414859E+02  0.00000000000E+00 0.  1.
         11    1    3    3    0    0 -0.62330289941E+01  0.42075485904E+02  0.61376919033E+02  0.74674783927E+02  0.00000000000E+00 0. -1.
         -1    1    1    2    0  502 -0.97274367565E+02  0.10166836128E+03  0.25933002739E+03  0.29504376180E+03  0.00000000000E+00 0.  1.
<scales pt_clust_5="13000.00000" pt_clust_6="13000.00000" pt_clust_7="13000.00000" pt_clust_8="13000.00000" pt_clust_9="139.28713"></scales>
<clustering>
<clus scale="   81.503">  5  6 -1 -1</clus>
<clus scale="   95.141">  7  8 -1 -1</clus>
<clus scale="   99.020">  2  7  1 -1</clus>
<clus scale="  139.287">  1  9  2 -1</clus>
<clus scale="  139.287">  1  5  2 -1</clus>
</clustering>
</event>
<event>
 9    1  0.6014990E-005  0.9586858E+02  0.7546771E-02  0.1293280E+00
         21   -1    0    0  501  502  0.00000000000E+00  0.00000000000E+00  0.33748143090E+02  0.33748143090E+02  0.00000000000E+00 0.  1.
          1   -1    0    0  502    0 -0.00000000000E+00 -0.00000000000E+00 -0.37336465872E+03  0.37336465872E+03  0.00000000000E+00 0. -1.
        -24    2    1    2    0    0 -0.20472734550E+02 -0.91734263302E+01 -0.15151261337E+03  0.17467471426E+03  0.83975586807E+02 0.  0.
         23    2    1    2    0    0  0.13127389594E+02  0.42910063577E+02 -0.14642223076E+03  0.17831344877E+03  0.91337913462E+02 0.  0.
         13    1    3    3    0    0 -0.43751139883E+02  0.19391727931E+02 -0.10454031083E+03  0.11497337927E+03  0.00000000000E+00 0. -1.
        -14    1    3    3    0    0  0.23278405333E+02 -0.28565154261E+02 -0.46972302545E+02  0.59701334987E+02  0.00000000000E+00 0.  1.
        -13    1    4    4    0    0 -0.94435485546E+01 -0.24503353480E+02 -0.65674065132E+02  0.70729610291E+02  0.00000000000E+00 0.  1.
         13    1    4    4    0    0  0.22570938149E+02  0.67413417057E+02 -0.80748165632E+02  0.10758383848E+03  0.00000000000E+00 0. -1.
          2    1    1    2  501    0  0.73453449561E+01 -0.33736637247E+02 -0.41681671498E+02  0.54124638790E+02  0.00000000000E+00 0. -1.
<scales pt_clust_5="13000.00000" pt_clust_6="13000.00000" pt_clust_7="13000.00000" pt_clust_8="13000.00000" pt_clust_9="34.52702"></scales>
<clustering>
<clus scale="   34.527">  1  9  2 -1</clus>
<clus scale="   83.976">  5  6 -1 -1</clus>
<clus scale="   88.882">  2  5  1 -1</clus>
<clus scale="   91.338">  7  8 -1 -1</clus>
<clus scale="   34.527">  1  5  2 -1</clus>
</clustering>
</event>
<event>
 9    1  0.6014990E-005  0.9293279E+02  0.7546771E-02  0.1310065E+00
         -2   -1    0    0    0  501 -0.00000000000E+00  0.00000000000E+00  0.93798042583E+02  0.93798042583E+02  0.00000000000E+00 0.  1.
         21   -1    0    0  501  502  0.00000000000E+00 -0.00000000000E+00 -0.11711031333E+03  0.11711031333E+03  0.00000000000E+00 0. -1.
        -24    2    1    2    0    0  0.72353795336E+01 -0.28556260189E+02  0.17296919988E+02  0.77407283299E+02  0.69461452287E+02 0.  0.
         23    2    1    2    0    0  0.22915287528E+01 -0.42689912973E+01 -0.19833540608E+02  0.93502488205E+02  0.91246208561E+02 0.  0.
         11    1    3    3    0    0  0.10342722919E+02 -0.32094899729E+02  0.41088710003E+02  0.53153895395E+02  0.00000000000E+00 0. -1.
        -12    1    3    3    0    0 -0.31073433853E+01  0.35386395401E+01 -0.23791790015E+02  0.24253387904E+02  0.00000000000E+00 0.  1.
        -13    1    4    4    0    0 -0.10782473387E+02  0.39190805796E+02  0.62997796655E+01  0.41132325671E+02  0.00000000000E+00 0.  1.
         13    1    4    4    0    0  0.13074002139E+02 -0.43459797093E+02 -0.26133320274E+02  0.52370162534E+02  0.00000000000E+00 0. -1.
         -1    1    1    2    0  502 -0.95269082864E+01  0.32825251486E+02 -0.20775650130E+02  0.39998584412E+02  0.00000000000E+00 0.  1.
<scales pt_clust_5="13000.00000" pt_clust_6="13000.00000" pt_clust_7="13000.00000" pt_clust_8="13000.00000" pt_clust_9="34.17981"></scales>
<clustering>
<clus scale="   34.180">  2  9  1 -1</clus>
<clus scale="   69.461">  5  6 -1 -1</clus>
<clus scale="   71.663">  1  5  2 -1</clus>
<clus scale="   91.246">  7  8 -1 -1</clus>
<clus scale="   34.180">  2  5  1 -1</clus>
</clustering>
</event>
<event>
 9    1  0.6014990E-005  0.1190000E+03  0.7546771E-02  0.1249166E+00
         -2   -1    0    0    0  501 -0.00000000000E+00  0.00000000000E+00  0.46016063911E+03  0.46016063911E+03  0.00000000000E+00 0.  1.
         21   -1    0    0  501  502  0.00000000000E+00 -0.00000000000E+00 -0.67553625634E+02  0.67553625634E+02  0.00000000000E+00 0. -1.
        -24    2    1    2    0    0  0.33362985923E+02 -0.68613601745E+02  0.35310837713E+03  0.37078032066E+03  0.83496137745E+02 0.  0.
         23    2    1    2    0    0 -0.15622526204E+02  0.44524383838E+02  0.57855526446E+02  0.12183423262E+03  0.96279978280E+02 0.  0.
         11    1    3    3    0    0  0.56449860165E+02 -0.27652411520E+02  0.15704757556E+03  0.16916023044E+03  0.00000000000E+00 0. -1.
        -12    1    3    3    0    0 -0.23086874243E+02 -0.40961190224E+02  0.19606080157E+03  0.20162009022E+03  0.00000000000E+00 0.  1.
        -13    1    4    4    0    0 -0.55863480255E+02  0.16902978633E+02  0.29696910513E+02  0.65485461034E+02  0.00000000000E+00 0.  1.
         13    1    4    4    0    0  0.40240954051E+02  0.27621405205E+02  0.28158615933E+02  0.56348771590E+02  0.00000000000E+00 0. -1.
         -1    1    1    2    0  502 -0.17740459719E+02  0.24089217907E+02 -0.18356890098E+02  0.35099711458E+02  0.00000000000E+00 0.  1.
<scales pt_clust_5="13000.00000" pt_clust_6="13000.00000" pt_clust_7="13000.00000" pt_clust_8="13000.00000" pt_clust_9="29.91679"></scales>
<clustering>
<clus scale="   29.917">  2  9  1 -1</clus>
<clus scale="   83.496">  5  6 -1 -1</clus>
<clus scale="   96.280">  7  8 -1 -1</clus>
<clus scale="  108.916">  1  5  2 -1</clus>
<clus scale="   29.917">  2  5  1 -1</clus>
</clustering>
</event>
<event>
 9    1  0.6014990E-005  0.1081354E+03  0.7546771E-02  0.1269201E+00
         21   -1    0    0  501  502  0.00000000000E+00  0.00000000000E+00  0.68525080239E+02  0.68525080239E+02  0.00000000000E+00 0. -1.
          3   -1    0    0  502    0 -0.00000000000E+00 -0.00000000000E+00 -0.23699115547E+03  0.23699115547E+03  0.00000000000E+00 0. -1.
         23    2    1    2    0    0  0.54032517559E+02  0.47826262221E+01 -0.95006546681E+02  0.14269303278E+03  0.91611523419E+02 0.  0.
        -24    2    1    2    0    0 -0.58667419375E+02  0.35312584545E+02 -0.57183988798E+02  0.11930307615E+03  0.79210925256E+02 0.  0.
         13    1    4    4    0    0 -0.55696218781E+02  0.14514586021E+02  0.87158243916E+00  0.57563023286E+02  0.00000000000E+00 0. -1.
        -14    1    4    4    0    0 -0.29712005939E+01  0.20797998523E+02 -0.58055571237E+02  0.61740052860E+02  0.00000000000E+00 0.  1.
        -11    1    3    3    0    0  0.16699883720E+01 -0.34326205283E+02 -0.58459704147E+02  0.67813083098E+02  0.00000000000E+00 0.  1.
         11    1    3    3    0    0  0.52362529187E+02  0.39108831505E+02 -0.36546842534E+02  0.74879949678E+02  0.00000000000E+00 0. -1.
          4    1    1    2  501    0  0.46349018156E+01 -0.40095210767E+02 -0.16275539750E+02  0.43520126786E+02  0.00000000000E+00 0. -1.
<scales pt_clust_5="13000.00000" pt_clust_6="13000.00000" pt_clust_7="13000.00000" pt_clust_8="13000.00000" pt_clust_9="40.36221"></scales>
<clustering>
<clus scale="   40.362">  1  9  2 -1</clus>
<clus scale="   79.211">  5  6 -1 -1</clus>
<clus scale="   91.612">  7  8 -1 -1</clus>
<clus scale="   97.852">  1  5  2 -1</clus>
<clus scale="   40.362">  1  5  2 -1</clus>
</clustering>
</event>
<event>
 9    1  0.6014990E-005  0.1059629E+03  0.7546771E-02  0.1270715E+00
         21   -1    0    0  501  502  0.00000000000E+00  0.00000000000E+00  0.15769390371E+03  0.15769390371E+03  0.00000000000E+00 0. -1.
          1   -1    0    0  502    0 -0.00000000000E+00 -0.00000000000E+00 -0.97001607734E+02  0.97001607734E+02  0.00000000000E+00 0. -1.
        -24    2    1    2    0    0 -0.49159399026E+02 -0.44264959973E+02  0.20832443162E+02  0.10912038549E+03  0.84245086789E+02 0.  0.
         23    2    1    2    0    0  0.27956227230E+02  0.31325093848E+02  0.57723606239E+02  0.11497891187E+03  0.90140575278E+02 0.  0.
         13    1    3    3    0    0 -0.10796626893E+02 -0.54719155715E+02  0.36200264500E+02  0.66492197319E+02  0.00000000000E+00 0. -1.
        -14    1    3    3    0    0 -0.38362772132E+02  0.10454195742E+02 -0.15367821338E+02  0.42628188174E+02  0.00000000000E+00 0.  1.
        -11    1    4    4    0    0 -0.25968278491E+02  0.36976738472E+02  0.24724930362E+02  0.51506823404E+02  0.00000000000E+00 0.  1.
         11    1    4    4    0    0  0.53924505721E+02 -0.56516446234E+01  0.32998675877E+02  0.63472088463E+02  0.00000000000E+00 0. -1.
          2    1    1    2  501    0  0.21203171796E+02  0.12939866125E+02 -0.17863753428E+02  0.30596214081E+02  0.00000000000E+00 0. -1.
<scales pt_clust_5="13000.00000" pt_clust_6="13000.00000" pt_clust_7="13000.00000" pt_clust_8="13000.00000" pt_clust_9="24.83979"></scales>
<clustering>
<clus scale="   24.840">  1  9  2 -1</clus>
<clus scale="   84.245">  5  6 -1 -1</clus>
<clus scale="   90.141">  7  8 -1 -1</clus>
<clus scale="  100.995">  2  5  1 -1</clus>
<clus scale="   24.840">  1  5  2 -1</clus>
</clustering>
</event>
<event>
 9    1  0.6014990E-005  0.9775665E+02  0.7546771E-02  0.1292118E+00
          1   -1    0    0  502    0 -0.00000000000E+00  0.00000000000E+00  0.14680485039E+03  0.14680485039E+03  0.00000000000E+00 0. -1.
         21   -1    0    0  501  502  0.00000000000E+00 -0.00000000000E+00 -0.17354429048E+03  0.17354429048E+03  0.00000000000E+00 0. -1.
         23    2    1    2    0    0 -0.98837934025E+01 -0.35851557626E+02  0.82806913589E+02  0.12974894311E+03  0.92708034945E+02 0.  0.
        -24    2    1    2    0    0  0.14737932987E+02  0.15690358054E+02 -0.37527885157E+01  0.82793356283E+02  0.79857763670E+02 0.  0.
         11    1    4    4    0    0  0.44363821079E+02  0.45752969008E+01 -0.17996126045E+02  0.48093060987E+02  0.00000000000E+00 0. -1.
        -12    1    4    4    0    0 -0.29625888092E+02  0.11115061153E+02  0.14243337530E+02  0.34700295296E+02  0.00000000000E+00 0.  1.
        -11    1    3    3    0    0 -0.24657431430E+02 -0.63454733157E+02  0.62617549972E+02  0.92495673678E+02  0.00000000000E+00 0. -1.
         11    1    3    3    0    0  0.14773638027E+02  0.27603175531E+02  0.20189363617E+02  0.37253269430E+02  0.00000000000E+00 0.  1.
          2    1    1    2  501    0 -0.48541395849E+01  0.20161199572E+02 -0.10579356516E+03  0.10780684147E+03  0.00000000000E+00 0. -1.
<scales pt_clust_5="13000.00000" pt_clust_6="13000.00000" pt_clust_7="13000.00000" pt_clust_8="13000.00000" pt_clust_9="20.73732"></scales>
<clustering>
<clus scale="   20.737">  2  9  1 -1</clus>
<clus scale="   79.858">  5  6 -1 -1</clus>
<clus scale="   85.667">  2  5  1 -1</clus>
<clus scale="   92.708">  7  8 -1 -1</clus>
<clus scale="   20.737">  2  5  1 -1</clus>
</clustering>
</event>
<event>
 9    1  0.6014990E-005  0.8835691E+02  0.7546771E-02  0.1307996E+00
          1   -1    0    0  502    0 -0.00000000000E+00  0.00000000000E+00  0.41040314090E+03  0.41040314090E+03  0.00000000000E+00 0. -1.
         21   -1    0    0  501  502  0.00000000000E+00 -0.00000000000E+00 -0.44923376797E+02  0.44923376797E+02  0.00000000000E+00 0. -1.
        -24    2    1    2    0    0 -0.27497288909E+00 -0.18423980560E+02  0.18093470845E+03  0.20140670775E+03  0.86531927832E+02 0.  0.
         23    2    1    2    0    0  0.76952319826E+01 -0.43050875842E+02  0.61472071424E+02  0.11614761514E+03  0.88311145572E+02 0.  0.
         11    1    3    3    0    0  0.39683380442E+02 -0.25745927085E+02  0.10838262092E+03  0.11825572275E+03  0.00000000000E+00 0. -1.
        -12    1    3    3    0    0 -0.39958353331E+02  0.73219465251E+01  0.72552087530E+02  0.83150985002E+02  0.00000000000E+00 0.  1.
        -13    1    4    4    0    0  0.11208564681E+02  0.25458775166E+02  0.29223704112E+02  0.40346078337E+02  0.00000000000E+00 0.  1.
         13    1    4    4    0    0 -0.35133326985E+01 -0.68509651008E+02  0.32248367312E+02  0.75801536806E+02  0.00000000000E+00 0. -1.
          2    1    1    2  501    0 -0.74202590935E+01  0.61474856402E+02  0.12307298423E+03  0.13777219480E+03  0.00000000000E+00 0. -1.
<scales pt_clust_5="13000.00000" pt_clust_6="13000.00000" pt_clust_7="13000.00000" pt_clust_8="13000.00000" pt_clust_9="61.92110"></scales>
<clustering>
<clus scale="   61.921">  2  9  1 -1</clus>
<clus scale="   86.532">  5  6 -1 -1</clus>
<clus scale="   86.579">  1  5  2 -1</clus>
<clus scale="   88.311">  7  8 -1 -1</clus>
<clus scale="   61.921">  2  5  1 -1</clus>
</clustering>
</event>
<event>
 9    1  0.6014990E-005  0.2088810E+03  0.7546771E-02  0.1142455E+00
         -2   -1    0    0    0  501 -0.00000000000E+00  0.00000000000E+00  0.37733688908E+03  0.37733688908E+03  0.00000000000E+00 0.  1.
         21   -1    0    0  501  502  0.00000000000E+00 -0.00000000000E+00 -0.78281023035E+02  0.78281023035E+02  0.00000000000E+00 0.  1.
        -24    2    1    2    0    0  0.16642327876E+02 -0.54408422734E+02  0.13213657830E+03  0.16300561356E+03  0.76638836001E+02 0.  0.
         23    2    1    2    0    0  0.38185697943E+02 -0.57261090809E+02  0.10705803884E+03  0.15455592677E+03  0.87687688828E+02 0.  0.
         13    1    3    3    0    0  0.38966365910E+02 -0.85483144070E+01  0.83444290220E+02  0.92490004442E+02  0.00000000000E+00 0. -1.
        -14    1    3    3    0    0 -0.22324038034E+02 -0.45860108327E+02  0.48692288083E+02  0.70515609114E+02  0.00000000000E+00 0.  1.
        -11    1    4    4    0    0 -0.26394771740E+02 -0.24395727238E+01  0.30087104582E+02  0.40098246251E+02  0.00000000000E+00 0. -1.
         11    1    4    4    0    0  0.64580469683E+02 -0.54821518085E+02  0.76970934259E+02  0.11445768052E+03  0.00000000000E+00 0.  1.
         -1    1    1    2    0  502 -0.54828025819E+02  0.11166951354E+03  0.59861248896E+02  0.13805637178E+03  0.00000000000E+00 0.  1.
<scales pt_clust_5="13000.00000" pt_clust_6="13000.00000" pt_clust_7="13000.00000" pt_clust_8="13000.00000" pt_clust_9="124.40335"></scales>
<clustering>
<clus scale="   76.639">  5  6 -1 -1</clus>
<clus scale="   87.688">  7  8 -1 -1</clus>
<clus scale="   92.869">  5  7 -1 -1</clus>
<clus scale="  124.403">  2  9  1 -1</clus>
<clus scale="  124.403">  2  5  1 -1</clus>
</clustering>
</event>
<event>
 9    1  0.6014990E-005  0.1149569E+03  0.7546771E-02  0.1256319E+00
          1   -1    0    0  502    0 -0.00000000000E+00  0.00000000000E+00  0.22275750091E+03  0.22275750091E+03  0.00000000000E+00 0. -1.
         21   -1    0    0  501  502  0.00000000000E+00 -0.00000000000E+00 -0.10545782799E+03  0.10545782799E+03  0.00000000000E+00 0. -1.
        -24    2    1    2    0    0  0.17648004259E+02 -0.67367594173E+02  0.93410994961E+02  0.14164652772E+03  0.80549860561E+02 0.  0.
         23    2    1    2    0    0  0.42755603854E+02  0.66226520884E+02  0.30021742748E+02  0.12584391003E+03  0.93388387532E+02 0.  0.
         11    1    3    3    0    0  0.42152551655E+02 -0.70075625862E+02  0.73584400233E+02  0.11000952190E+03  0.00000000000E+00 0. -1.
        -12    1    3    3    0    0 -0.24504547396E+02  0.27080316889E+01  0.19826594728E+02  0.31637005819E+02  0.00000000000E+00 0.  1.
        -13    1    4    4    0    0  0.47682244176E+02  0.18964801017E+02 -0.21604980443E+02  0.55677960336E+02  0.00000000000E+00 0.  1.
         13    1    4    4    0    0 -0.49266403213E+01  0.47261719867E+02  0.51626723191E+02  0.70165949698E+02  0.00000000000E+00 0. -1.
          2    1    1    2  501    0 -0.60403608113E+02  0.11410732888E+01 -0.61330647936E+01  0.60724891150E+02  0.00000000000E+00 0. -1.
<scales pt_clust_5="13000.00000" pt_clust_6="13000.00000" pt_clust_7="13000.00000" pt_clust_8="13000.00000" pt_clust_9="60.41439"></scales>
<clustering>
<clus scale="   60.414">  2  9  1 -1</clus>
<clus scale="   80.550">  5  6 -1 -1</clus>
<clus scale="   93.388">  7  8 -1 -1</clus>
<clus scale="  104.795">  1  5  2 -1</clus>
<clus scale="   60.414">  2  5  1 -1</clus>
</clustering>
</event>
<event>
 9    1  0.6014990E-005  0.9199362E+02  0.7546771E-02  0.1303351E+00
          1   -1    0    0  502    0 -0.00000000000E+00  0.00000000000E+00  0.35437461771E+02  0.35437461771E+02  0.00000000000E+00 0. -1.
         21   -1    0    0  501  502  0.00000000000E+00 -0.00000000000E+00 -0.41862179699E+03  0.41862179699E+03  0.00000000000E+00 0.  1.
         23    2    1    2    0    0  0.13530789631E+02  0.39744976096E+01 -0.74106289730E+02  0.11706040833E+03  0.89512670168E+02 0.  0.
        -24    2    1    2    0    0 -0.11487303660E+02 -0.43797464579E+02 -0.18877890474E+03  0.21026318932E+03  0.80764830583E+02 0.  0.
         13    1    4    4    0    0 -0.22260081661E+02 -0.61029246899E+02 -0.10044217715E+03  0.11961902509E+03  0.00000000000E+00 0. -1.
        -14    1    4    4    0    0  0.10772778000E+02  0.17231782319E+02 -0.88336727595E+02  0.90644164236E+02  0.00000000000E+00 0.  1.
        -13    1    3    3    0    0  0.41761808032E+02  0.17804175517E+02 -0.11235563889E+02  0.46768313759E+02  0.00000000000E+00 0.  1.
         13    1    3    3    0    0 -0.28231018400E+02 -0.13829677907E+02 -0.62870725841E+02  0.70292094567E+02  0.00000000000E+00 0. -1.
          2    1    1    2  501    0 -0.20434859710E+01  0.39822966970E+02 -0.12029914075E+03  0.12673566111E+03  0.00000000000E+00 0. -1.
<scales pt_clust_5="13000.00000" pt_clust_6="13000.00000" pt_clust_7="13000.00000" pt_clust_8="13000.00000" pt_clust_9="39.87536"></scales>
<clustering>
<clus scale="   39.875">  2  9  1 -1</clus>
<clus scale="   80.765">  5  6 -1 -1</clus>
<clus scale="   83.506">  2  5  1 -1</clus>
<clus scale="   89.513">  7  8 -1 -1</clus>
<clus scale="   39.875">  2  5  1 -1</clus>
</clustering>
</event>
<event>
 9    1  0.6014990E-005  0.9577623E+02  0.7546771E-02  0.1295510E+00
         21   -1    0    0  501  502  0.00000000000E+00  0.00000000000E+00  0.17232418319E+03  0.17232418319E+03  0.00000000000E+00 0.  1.
          1   -1    0    0  502    0 -0.00000000000E+00 -0.00000000000E+00 -0.11392070050E+03  0.11392070050E+03  0.00000000000E+00 0. -1.
        -24    2    1    2    0    0 -0.14208855189E+02 -0.11710998868E+02 -0.42936034742E+02  0.93654000217E+02  0.81169758020E+02 0.  0.
         23    2    1    2    0    0  0.16949048599E+02  0.52833050612E+02  0.32179663231E+02  0.11208239178E+03  0.91914799336E+02 0.  0.
         13    1    3    3    0    0  0.25943973909E+02 -0.25371692703E+02 -0.35172491143E+02  0.50536290980E+02  0.00000000000E+00 0. -1.
        -14    1    3    3    0    0 -0.40152829098E+02  0.13660693835E+02 -0.77635435997E+01  0.43117709237E+02  0.00000000000E+00 0.  1.
        -11    1    4    4    0    0 -0.71583476778E+01  0.58524748640E+02  0.53337213411E+02  0.79506266918E+02  0.00000000000E+00 0.  1.
         11    1    4    4    0    0  0.24107396277E+02 -0.56916980278E+01 -0.21157550179E+02  0.32576124866E+02  0.00000000000E+00 0. -1.
          2    1    1    2  501    0 -0.27401934101E+01 -0.41122051744E+02  0.69159854206E+02  0.80508491685E+02  0.00000000000E+00 0. -1.
<scales pt_clust_5="13000.00000" pt_clust_6="13000.00000" pt_clust_7="13000.00000" pt_clust_8="13000.00000" pt_clust_9="41.21325"></scales>
<clustering>
<clus scale="   41.213">  1  9  2 -1</clus>
<clus scale="   81.170">  5  6 -1 -1</clus>
<clus scale="   85.518">  2  5  1 -1</clus>
<clus scale="   91.915">  7  8 -1 -1</clus>
<clus scale="   41.213">  1  5  2 -1</clus>
</clustering>
</event>
<event>
 9    1  0.6014990E-005  0.9618277E+02  0.7546771E-02  0.1293925E+00
         21   -1    0    0  501  502  0.00000000000E+00  0.00000000000E+00  0.24609069762E+02  0.24609069762E+02  0.00000000000E+00 0.  1.
         -2   -1    0    0    0  501 -0.00000000000E+00 -0.00000000000E+00 -0.77755881075E+03  0.77755881075E+03  0.00000000000E+00 0.  1.
         23    2    1    2    0    0  0.46558035295E+01  0.34503850781E+01 -0.23040184236E+03  0.24764701178E+03  0.90611543489E+02 0.  0.
        -24    2    1    2    0    0  0.41865243413E+02 -0.59814870443E+02 -0.25719546222E+03  0.27928809720E+03  0.80757774367E+02 0.  0.
         11    1    4    4    0    0 -0.22435651060E+02 -0.14766686527E+02 -0.38633792683E+02  0.47052985097E+02  0.00000000000E+00 0. -1.
        -12    1    4    4    0    0  0.64300894473E+02 -0.45048183916E+02 -0.21856166953E+03  0.23223511210E+03  0.00000000000E+00 0.  1.
        -11    1    3    3    0    0 -0.40336340096E+02  0.94473518640E+01 -0.74175794402E+02  0.84960704239E+02  0.00000000000E+00 0. -1.
         11    1    3    3    0    0  0.44992143625E+02 -0.59969667860E+01 -0.15622604796E+03  0.16268630754E+03  0.00000000000E+00 0.  1.
         -1    1    1    2    0  502 -0.46521046943E+02  0.56364485365E+02 -0.26535243641E+03  0.27523277154E+03  0.00000000000E+00 0.  1.
<scales pt_clust_5="13000.00000" pt_clust_6="13000.00000" pt_clust_7="13000.00000" pt_clust_8="13000.00000" pt_clust_9="73.08330"></scales>
<clustering>
<clus scale="   73.083">  1  9  2 -1</clus>
<clus scale="   80.758">  5  6 -1 -1</clus>
<clus scale="   86.963">  1  5  2 -1</clus>
<clus scale="   90.612">  7  8 -1 -1</clus>
<clus scale="   73.083">  1  5  2 -1</clus>
</clustering>
</event>
<event>
 9    1  0.6014990E-005  0.2888646E+03  0.7546771E-02  0.1120550E+00
         -2   -1    0    0    0  501 -0.00000000000E+00  0.00000000000E+00  0.75366226174E+03  0.75366226174E+03  0.00000000000E+00 0.  1.
         21   -1    0    0  501  502  0.00000000000E+00 -0.00000000000E+00 -0.24185639886E+03  0.24185639886E+03  0.00000000000E+00 0.  1.
         23    2    1    2    0    0 -0.14708760513E+02  0.98997288889E+02  0.90134467954E+02  0.16237701758E+03  0.90693233939E+02 0.  0.
        -24    2    1    2    0    0 -0.25009217923E+02  0.19407819240E+03  0.48605020495E+03  0.53046130549E+03  0.82780366939E+02 0.  0.
         13    1    4    4    0    0 -0.18476583245E+02  0.24818871172E+02  0.16077462946E+03  0.16372489723E+03  0.00000000000E+00 0. -1.
        -14    1    4    4    0    0 -0.65326346774E+01  0.16925932123E+03  0.32527557549E+03  0.36673640827E+03  0.00000000000E+00 0.  1.
        -13    1    3    3    0    0  0.31421958691E+02  0.37421116147E+02  0.65240191081E+02  0.81510502109E+02  0.00000000000E+00 0. -1.
         13    1    3    3    0    0 -0.46130719204E+02  0.61576172742E+02  0.24894276872E+02  0.80866515473E+02  0.00000000000E+00 0.  1.
         -1    1    1    2    0  502  0.39717978436E+02 -0.29307548129E+03 -0.64378810015E+02  0.30268033752E+03  0.00000000000E+00 0.  1.
<scales pt_clust_5="13000.00000" pt_clust_6="13000.00000" pt_clust_7="13000.00000" pt_clust_8="13000.00000" pt_clust_9="276.74926"></scales>
<clustering>
<clus scale="   82.780">  5  6 -1 -1</clus>
<clus scale="   90.693">  7  8 -1 -1</clus>
<clus scale="  135.063">  1  7  2 -1</clus>
<clus scale="  276.749">  2  9  1 -1</clus>
<clus scale="  276.749">  2  5  1 -1</clus>
</clustering>
</event>
<event>
 9    1  0.6014990E-005  0.9462414E+02  0.7546771E-02  0.1299253E+00
         -2   -1    0    0    0  501 -0.00000000000E+00  0.00000000000E+00  0.21963313898E+03  0.21963313898E+03  0.00000000000E+00 0.  1.
         21   -1    0    0  501  502  0.00000000000E+00 -0.00000000000E+00 -0.57747185745E+02  0.57747185745E+02  0.00000000000E+00 0. -1.
         23    2    1    2    0    0 -0.95349660421E+01  0.23277499604E+01  0.96913962889E+02  0.13443563923E+03  0.92651448421E+02 0.  0.
        -24    2    1    2    0    0  0.37090706449E+02  0.54099139240E+01  0.22258492119E+02  0.91528411784E+02  0.80479947929E+02 0.  0.
         11    1    4    4    0    0 -0.17320449935E+02  0.22831944333E+02 -0.34748810590E+01  0.28868156615E+02  0.00000000000E+00 0. -1.
        -12    1    4    4    0    0  0.54411156384E+02 -0.17422030409E+02  0.25733373178E+02  0.62660255168E+02  0.00000000000E+00 0.  1.
        -13    1    3    3    0    0  0.23262843072E+02  0.37736921294E+02  0.38980691381E+02  0.59031596599E+02  0.00000000000E+00 0. -1.
         13    1    3    3    0    0 -0.32797809114E+02 -0.35409171333E+02  0.57933271508E+02  0.75404042629E+02  0.00000000000E+00 0.  1.
         -1    1    1    2    0  502 -0.27555740407E+02 -0.77376638844E+01  0.42713498229E+02  0.51416273715E+02  0.00000000000E+00 0.  1.
<scales pt_clust_5="13000.00000" pt_clust_6="13000.00000" pt_clust_7="13000.00000" pt_clust_8="13000.00000" pt_clust_9="28.62151"></scales>
<clustering>
<clus scale="   28.622">  2  9  1 -1</clus>
<clus scale="   80.480">  5  6 -1 -1</clus>
<clus scale="   82.743">  2  5  1 -1</clus>
<clus scale="   92.651">  7  8 -1 -1</clus>
<clus scale="   28.622">  2  5  1 -1</clus>
</clustering>
</event>
<event>
 9    1  0.6014990E-005  0.1135649E+03  0.7546771E-02  0.1257928E+00
         21   -1    0    0  501  502  0.00000000000E+00  0.00000000000E+00  0.43711220290E+03  0.43711220290E+03  0.00000000000E+00 0. -1.
          3   -1    0    0  502    0 -0.00000000000E+00 -0.00000000000E+00 -0.67426734569E+02  0.67426734569E+02  0.00000000000E+00 0. -1.
        -24    2    1    2    0    0  0.17473514059E+02  0.70470387724E+02 -0.15076843253E+01  0.10829941131E+03  0.80343575588E+02 0.  0.
         23    2    1    2    0    0 -0.30725550431E+02 -0.37842955197E+02  0.26558188319E+03  0.28491160487E+03  0.90910600049E+02 0.  0.
         11    1    3    3    0    0  0.31578018385E+02  0.81708751736E+02 -0.10361105795E+02  0.88209091757E+02  0.00000000000E+00 0. -1.
        -12    1    3    3    0    0 -0.14104504326E+02 -0.11238364012E+02  0.88534214696E+01  0.20090319551E+02  0.00000000000E+00 0.  1.
        -11    1    4    4    0    0 -0.34487966441E+02 -0.58373845567E+02  0.24953891474E+03  0.25858576071E+03  0.00000000000E+00 0.  1.
         11    1    4    4    0    0  0.37624160094E+01  0.20530890370E+02  0.16042968456E+02  0.26325844155E+02  0.00000000000E+00 0. -1.
          4    1    1    2  501    0  0.13252036372E+02 -0.32627432527E+02  0.10561126947E+03  0.11132792129E+03  0.00000000000E+00 0. -1.
<scales pt_clust_5="13000.00000" pt_clust_6="13000.00000" pt_clust_7="13000.00000" pt_clust_8="13000.00000" pt_clust_9="35.21599"></scales>
<clustering>
<clus scale="   35.216">  1  9  2 -1</clus>
<clus scale="   80.344">  5  6 -1 -1</clus>
<clus scale="   90.911">  7  8 -1 -1</clus>
<clus scale="  105.296">  2  5  1 -1</clus>
<clus scale="   35.216">  1  5  2 -1</clus>
</clustering>
</event>
<event>
 9    1  0.6014990E-005  0.9396138E+02  0.7546771E-02  0.1300917E+00
         21   -1    0    0  501  502  0.00000000000E+00  0.00000000000E+00  0.21210056856E+03  0.21210056856E+03  0.00000000000E+00 0.  1.
         -2   -1    0    0    0  501 -0.00000000000E+00 -0.00000000000E+00 -0.26993084538E+03  0.26993084538E+03  0.00000000000E+00 0.  1.
        -24    2    1    2    0    0 -0.15148479770E+02 -0.64793969954E+01 -0.17339578552E+03  0.19218647965E+03  0.81228600271E+02 0.  0.
         23    2    1    2    0    0 -0.10580821314E+01 -0.14152443657E+02 -0.60310035218E+02  0.11202330331E+03  0.93330107341E+02 0.  0.
         11    1    3    3    0    0 -0.16991471466E+02 -0.41255137595E+02 -0.69307393085E+02  0.82427005385E+02  0.00000000000E+00 0. -1.
        -12    1    3    3    0    0  0.18429916962E+01  0.34775740600E+02 -0.10408839243E+03  0.10975947427E+03  0.00000000000E+00 0.  1.
        -11    1    4    4    0    0 -0.18356944874E+02  0.36483551555E+02 -0.24267092515E+02  0.47507038829E+02  0.00000000000E+00 0.  1.
         11    1    4    4    0    0  0.17298862743E+02 -0.50635995212E+02 -0.36042942704E+02  0.64516264477E+02  0.00000000000E+00 0. -1.
         -1    1    1    2    0  502  0.16206561901E+02  0.20631840653E+02  0.17587554391E+03  0.17782163098E+03  0.00000000000E+00 0.  1.
<scales pt_clust_5="13000.00000" pt_clust_6="13000.00000" pt_clust_7="13000.00000" pt_clust_8="13000.00000" pt_clust_9="26.23596"></scales>
<clustering>
<clus scale="   26.236">  1  9  2 -1</clus>
<clus scale="   81.229">  5  6 -1 -1</clus>
<clus scale="   81.953">  2  5  1 -1</clus>
<clus scale="   93.330">  7  8 -1 -1</clus>
<clus scale="   26.236">  1  5  2 -1</clus>
</clustering>
</event>
<event>
 9    1  0.6014990E-005  0.9043250E+02  0.7546771E-02  0.1307099E+00
         -2   -1    0    0    0  501 -0.00000000000E+00  0.00000000000E+00  0.24671987091E+03  0.24671987091E+03  0.00000000000E+00 0.  1.
         21   -1    0    0  501  502  0.00000000000E+00 -0.00000000000E+00 -0.15315434111E+03  0.15315434111E+03  0.00000000000E+00 0. -1.
        -24    2    1    2    0    0  0.21625094617E+01 -0.13539487564E+02  0.18497947438E+03  0.20224507773E+03  0.80608134514E+02 0.  0.
         23    2    1    2    0    0 -0.38986019850E+02  0.12800375433E+02  0.10534498320E+01  0.98096545495E+02  0.89095808692E+02 0.  0.
         11    1    3    3    0    0 -0.21168459801E+02  0.26359426362E+02  0.99252726635E+02  0.10485240480E+03  0.00000000000E+00 0. -1.
        -12    1    3    3    0    0  0.23330969263E+02 -0.39898913926E+02  0.85726747750E+02  0.97392672923E+02  0.00000000000E+00 0.  1.
        -11    1    4    4    0    0 -0.31036650058E+02  0.36707107473E+02  0.32333576644E+02  0.57932249779E+02  0.00000000000E+00 0.  1.
         11    1    4    4    0    0 -0.79493697922E+01 -0.23906732040E+02 -0.31280126812E+02  0.40164295716E+02  0.00000000000E+00 0. -1.
         -1    1    1    2    0  502  0.36823510388E+02  0.73911213080E+00 -0.92467394418E+02  0.99532588807E+02  0.00000000000E+00 0.  1.
<scales pt_clust_5="13000.00000" pt_clust_6="13000.00000" pt_clust_7="13000.00000" pt_clust_8="13000.00000" pt_clust_9="36.83093"></scales>
<clustering>
<clus scale="   36.831">  2  9  1 -1</clus>
<clus scale="   80.608">  5  6 -1 -1</clus>
<clus scale="   82.083">  1  5  2 -1</clus>
<clus scale="   89.096">  7  8 -1 -1</clus>
<clus scale="   36.831">  2  5  1 -1</clus>
</clustering>
</event>
<event>
 9    1  0.6014990E-005  0.9928432E+02  0.7546771E-02  0.1287239E+00
         21   -1    0    0  501  502  0.00000000000E+00  0.00000000000E+00  0.31825291518E+03  0.31825291518E+03  0.00000000000E+00 0. -1.
         -2   -1    0    0    0  501 -0.00000000000E+00 -0.00000000000E+00 -0.43624704185E+02  0.43624704185E+02  0.00000000000E+00 0.  1.
        -24    2    1    2    0    0 -0.39387277674E+02 -0.12380930799E+02  0.99434723538E+02  0.13433226123E+03  0.80332104866E+02 0.  0.
         23    2    1    2    0    0  0.17532011390E+02  0.44263103192E+02  0.14854971396E+03  0.18059840672E+03  0.91006446288E+02 0.  0.
         13    1    3    3    0    0  0.22826024370E+02 -0.92644285304E+01  0.46349801766E+02  0.52489628959E+02  0.00000000000E+00 0. -1.
        -14    1    3    3    0    0 -0.62213302043E+02 -0.31165022690E+01  0.53084921772E+02  0.81842632271E+02  0.00000000000E+00 0.  1.
        -11    1    4    4    0    0 -0.40035647683E+01  0.54231634794E+02  0.35168810113E+02  0.64760666673E+02  0.00000000000E+00 0.  1.
         11    1    4    4    0    0  0.21535576158E+02 -0.99685316016E+01  0.11338090385E+03  0.11583774005E+03  0.00000000000E+00 0. -1.
         -1    1    1    2    0  502  0.21855266284E+02 -0.31882172392E+02  0.26643773502E+02  0.46946951416E+02  0.00000000000E+00 0.  1.
<scales pt_clust_5="13000.00000" pt_clust_6="13000.00000" pt_clust_7="13000.00000" pt_clust_8="13000.00000" pt_clust_9="38.65394"></scales>
<clustering>
<clus scale="   38.654">  1  9  2 -1</clus>
<clus scale="   80.332">  5  6 -1 -1</clus>
<clus scale="   89.602">  2  5  1 -1</clus>
<clus scale="   91.006">  7  8 -1 -1</clus>
<clus scale="   38.654">  1  5  2 -1</clus>
</clustering>
</event>
<event>
 9    1  0.6014990E-005  0.9874804E+02  0.7546771E-02  0.1288850E+00
         21   -1    0    0  501  502  0.00000000000E+00  0.00000000000E+00  0.11320195417E+04  0.11320195417E+04  0.00000000000E+00 0.  1.
          1   -1    0    0  502    0 -0.00000000000E+00 -0.00000000000E+00 -0.87406927263E+02  0.87406927263E+02  0.00000000000E+00 0. -1.
         23    2    1    2    0    0  0.21702703367E+02  0.27475537677E+02 -0.47560602690E+02  0.10865785571E+03  0.91206393280E+02 0.  0.
        -24    2    1    2    0    0 -0.23933995402E+02 -0.96512447669E+02  0.57284138984E+03  0.58686344966E+03  0.79837096288E+02 0.  0.
         13    1    4    4    0    0 -0.27396490826E+02 -0.11341988831E+02  0.59347141671E+02  0.66342231231E+02  0.00000000000E+00 0. -1.
        -14    1    4    4    0    0  0.34624954240E+01 -0.85170458838E+02  0.51349424817E+03  0.52052121843E+03  0.00000000000E+00 0.  1.
        -11    1    3    3    0    0  0.51206798806E+02  0.67170382558E+01 -0.35725661401E+01  0.51768891003E+02  0.00000000000E+00 0.  1.
         11    1    3    3    0    0 -0.29504095439E+02  0.20758499421E+02 -0.43988036550E+02  0.56888964707E+02  0.00000000000E+00 0. -1.
          2    1    1    2  501    0  0.22312920356E+01  0.69036909992E+02  0.51933182726E+03  0.52390516357E+03  0.00000000000E+00 0. -1.
<scales pt_clust_5="13000.00000" pt_clust_6="13000.00000" pt_clust_7="13000.00000" pt_clust_8="13000.00000" pt_clust_9="69.07296"></scales>
<clustering>
<clus scale="   69.073">  1  9  2 -1</clus>
<clus scale="   79.837">  5  6 -1 -1</clus>
<clus scale="   88.355">  1  5  2 -1</clus>
<clus scale="   91.206">  7  8 -1 -1</clus>
<clus scale="   69.073">  1  5  2 -1</clus>
</clustering>
</event>
<event>
 9    1  0.6014990E-005  0.1158805E+03  0.7546771E-02  0.1257576E+00
         21   -1    0    0  501  502  0.00000000000E+00  0.00000000000E+00  0.17319335027E+03  0.17319335027E+03  0.00000000000E+00 0.  1.
         -4   -1    0    0    0  501 -0.00000000000E+00 -0.00000000000E+00 -0.16290386510E+03  0.16290386510E+03  0.00000000000E+00 0.  1.
        -24    2    1    2    0    0  0.14505701997E+02  0.56679273244E+02 -0.82421432487E+02  0.12871747854E+03  0.79699067382E+02 0.  0.
         23    2    1    2    0    0  0.25196197049E+02 -0.75275505355E+02  0.10163705274E+03  0.16263896657E+03  0.99096381891E+02 0.  0.
         11    1    3    3    0    0  0.11545216319E+02  0.23135931358E+02  0.11974788325E+02  0.28494892439E+02  0.00000000000E+00 0. -1.
        -12    1    3    3    0    0  0.29604856774E+01  0.33543341886E+02 -0.94396220812E+02  0.10022258610E+03  0.00000000000E+00 0.  1.
        -13    1    4    4    0    0  0.13052708655E+02 -0.50161394199E+02 -0.53198079024E+01  0.52104117182E+02  0.00000000000E+00 0. -1.
         13    1    4    4    0    0  0.12143488394E+02 -0.25114111156E+02  0.10695686065E+03  0.11053484939E+03  0.00000000000E+00 0.  1.
         -3    1    1    2    0  502 -0.39701899046E+02  0.18596232110E+02 -0.89261350829E+01  0.44740770267E+02  0.00000000000E+00 0.  1.
<scales pt_clust_5="13000.00000" pt_clust_6="13000.00000" pt_clust_7="13000.00000" pt_clust_8="13000.00000" pt_clust_9="43.84133"></scales>
<clustering>
<clus scale="   43.841">  1  9  2 -1</clus>
<clus scale="   79.699">  5  6 -1 -1</clus>
<clus scale="   99.096">  7  8 -1 -1</clus>
<clus scale="   99.801">  2  5  1 -1</clus>
<clus scale="   43.841">  1  5  2 -1</clus>
</clustering>
</event>
<event>
 9    1  0.6014990E-005  0.9473898E+02  0.7546771E-02  0.1298980E+00
         21   -1    0    0  501  502  0.00000000000E+00  0.00000000000E+00  0.10143615724E+03  0.10143615724E+03  0.00000000000E+00 0.  1.
         -2   -1    0    0    0  501 -0.00000000000E+00 -0.00000000000E+00 -0.34715101138E+03  0.34715101138E+03  0.00000000000E+00 0.  1.
        -24    2    1    2    0    0  0.19844583776E+02  0.66812023157E+01 -0.26255986248E+03  0.27540964129E+03  0.80463303217E+02 0.  0.
         23    2    1    2    0    0 -0.97882200993E+01  0.21438915591E+02  0.65641247263E+02  0.11596787416E+03  0.92651703393E+02 0.  0.
         13    1    3    3    0    0 -0.10844414931E+02  0.36046858426E+02 -0.16067191065E+03  0.16502254455E+03  0.00000000000E+00 0. -1.
        -14    1    3    3    0    0  0.30688998707E+02 -0.29365656111E+02 -0.10188795183E+03  0.11038709675E+03  0.00000000000E+00 0.  1.
        -11    1    4    4    0    0 -0.31301808254E+02 -0.82737361983E+01 -0.83028913741E+01  0.33424480786E+02  0.00000000000E+00 0. -1.
         11    1    4    4    0    0  0.21513588155E+02  0.29712651789E+02  0.73944138637E+02  0.82543393379E+02  0.00000000000E+00 0.  1.
         -1    1    1    2    0  502 -0.10056363677E+02 -0.28120117907E+02 -0.48796238925E+02  0.57209653160E+02  0.00000000000E+00 0.  1.
<scales pt_clust_5="13000.00000" pt_clust_6="13000.00000" pt_clust_7="13000.00000" pt_clust_8="13000.00000" pt_clust_9="29.86423"></scales>
<clustering>
<clus scale="   29.864">  1  9  2 -1</clus>
<clus scale="   80.463">  5  6 -1 -1</clus>
<clus scale="   82.858">  2  5  1 -1</clus>
<clus scale="   92.652">  7  8 -1 -1</clus>
<clus scale="   29.864">  1  5  2 -1</clus>
</clustering>
</event>
<event>
 9    1  0.6014990E-005  0.1649413E+03  0.7546771E-02  0.1196561E+00
         21   -1    0    0  501  502  0.00000000000E+00  0.00000000000E+00  0.77731071848E+03  0.77731071848E+03  0.00000000000E+00 0. -1.
          1   -1    0    0  502    0 -0.00000000000E+00 -0.00000000000E+00 -0.67990946349E+02  0.67990946349E+02  0.00000000000E+00 0. -1.
         23    2    1    2    0    0 -0.55177498620E+02 -0.71305498539E+02  0.13744192553E+03  0.18434303907E+03  0.83444848160E+02 0.  0.
        -24    2    1    2    0    0  0.13949854036E+03 -0.57993072576E+02  0.36832115392E+03  0.40549143470E+03  0.77070045798E+02 0.  0.
         11    1    4    4    0    0  0.10005296568E+03 -0.29321939758E+02  0.15593958238E+03  0.18758338265E+03  0.00000000000E+00 0. -1.
        -12    1    4    4    0    0  0.39445574680E+02 -0.28671132818E+02  0.21238157154E+03  0.21790805205E+03  0.00000000000E+00 0.  1.
        -11    1    3    3    0    0 -0.27646427335E+02 -0.62549512970E+02  0.32912297396E+02  0.75894570537E+02  0.00000000000E+00 0. -1.
         11    1    3    3    0    0 -0.27531071285E+02 -0.87559855694E+01  0.10452962813E+03  0.10844846853E+03  0.00000000000E+00 0.  1.
          2    1    1    2  501    0 -0.84321041741E+02  0.12929857112E+03  0.20355669268E+03  0.25546719106E+03  0.00000000000E+00 0. -1.
<scales pt_clust_5="13000.00000" pt_clust_6="13000.00000" pt_clust_7="13000.00000" pt_clust_8="13000.00000" pt_clust_9="145.82815"></scales>
<clustering>
<clus scale="   77.070">  5  6 -1 -1</clus>
<clus scale="   83.445">  7  8 -1 -1</clus>
<clus scale="  122.850">  2  7  1 -1</clus>
<clus scale="  145.828">  1  9  2 -1</clus>
<clus scale="  145.828">  1  5  2 -1</clus>
</clustering>
</event>
<event>
 9    1  0.6014990E-005  0.2973259E+03  0.7546771E-02  0.1136253E+00
         21   -1    0    0  501  502  0.00000000000E+00  0.00000000000E+00  0.24179337231E+03  0.24179337231E+03  0.00000000000E+00 0. -1.
          1   -1    0    0  502    0 -0.00000000000E+00 -0.00000000000E+00 -0.70195828510E+03  0.70195828510E+03  0.00000000000E+00 0. -1.
        -24    2    1    2    0    0 -0.86098809861E+01  0.21154694562E+02 -0.28649736518E+03  0.29859396476E+03  0.80968909971E+02 0.  0.
         23    2    1    2    0    0  0.15984066524E+03  0.22311949108E+03 -0.20757196942E+03  0.35586521488E+03  0.90678460000E+02 0.  0.
         11    1    3    3    0    0 -0.34438479481E+02  0.25474535208E+02 -0.82841415920E+02  0.93261251357E+02  0.00000000000E+00 0. -1.
        -12    1    3    3    0    0  0.25828598495E+02 -0.43198406457E+01 -0.20365594926E+03  0.20533271340E+03  0.00000000000E+00 0.  1.
        -13    1    4    4    0    0  0.97895643665E+02  0.80686807758E+02 -0.13220061547E+03  0.18322369040E+03  0.00000000000E+00 0.  1.
         13    1    4    4    0    0  0.61945021573E+02  0.14243268332E+03 -0.75371353946E+02  0.17264152447E+03  0.00000000000E+00 0. -1.
          2    1    1    2  501    0 -0.15123078425E+03 -0.24427418564E+03  0.33904421818E+02  0.28929247777E+03  0.00000000000E+00 0. -1.
<scales pt_clust_5="13000.00000" pt_clust_6="13000.00000" pt_clust_7="13000.00000" pt_clust_8="13000.00000" pt_clust_9="283.16096"></scales>
<clustering>
<clus scale="   80.969">  5  6 -1 -1</clus>
<clus scale="   84.129">  2  5  1 -1</clus>
<clus scale="   90.678">  7  8 -1 -1</clus>
<clus scale="  283.161">  1  9  2 -1</clus>
<clus scale="  283.161">  1  5  2 -1</clus>
</clustering>
</event>
<event>
 9    1  0.6014990E-005  0.1479504E+03  0.7546771E-02  0.1205689E+00
         -2   -1    0    0    0  501 -0.00000000000E+00  0.00000000000E+00  0.14157278090E+03  0.14157278090E+03  0.00000000000E+00 0.  1.
         21   -1    0    0  501  502  0.00000000000E+00 -0.00000000000E+00 -0.32700222483E+03  0.32700222483E+03  0.00000000000E+00 0.  1.
        -24    2    1    2    0    0  0.28680315204E+02 -0.69353224447E+02 -0.86178037949E+02  0.13815806491E+03  0.77643843632E+02 0.  0.
         23    2    1    2    0    0 -0.63217159848E+02  0.16594084764E+03 -0.10851674871E+03  0.22742272171E+03  0.91719329399E+02 0.  0.
         11    1    3    3    0    0  0.33102511338E+02  0.43479310727E+01 -0.19450934668E+02  0.38639612071E+02  0.00000000000E+00 0. -1.
        -12    1    3    3    0    0 -0.44221961345E+01 -0.73701155520E+02 -0.66727103281E+02  0.99518452841E+02  0.00000000000E+00 0.  1.
        -11    1    4    4    0    0 -0.68167394729E+02  0.53658558240E+02 -0.56879445636E+02  0.10373671439E+03  0.00000000000E+00 0.  1.
         11    1    4    4    0    0  0.49502348804E+01  0.11228228940E+03 -0.51637303072E+02  0.12368600732E+03  0.00000000000E+00 0. -1.
         -1    1    1    2    0  502  0.34536844644E+02 -0.96587623197E+02  0.92653427356E+01  0.10299421910E+03  0.00000000000E+00 0.  1.
<scales pt_clust_5="13000.00000" pt_clust_6="13000.00000" pt_clust_7="13000.00000" pt_clust_8="13000.00000" pt_clust_9="102.57667"></scales>
<clustering>
<clus scale="   77.644">  5  6 -1 -1</clus>
<clus scale="   91.719">  7  8 -1 -1</clus>
<clus scale="  102.577">  2  9  1 -1</clus>
<clus scale="  139.662">  1  5  2 -1</clus>
<clus scale="  102.577">  2  5  1 -1</clus>
</clustering>
</event>
<event>
 9    1  0.6014990E-005  0.9743909E+02  0.7546771E-02  0.1292284E+00
          1   -1    0    0  502    0 -0.00000000000E+00  0.00000000000E+00  0.73737007468E+03  0.73737007468E+03  0.00000000000E+00 0. -1.
         21   -1    0    0  501  502  0.00000000000E+00 -0.00000000000E+00 -0.43552381710E+02  0.43552381710E+02  0.00000000000E+00 0.  1.
        -24    2    1    2    0    0  0.28998988814E+02 -0.17279976081E+02  0.65134462849E+03  0.65711469990E+03  0.80064754095E+02 0.  0.
         23    2    1    2    0    0 -0.66431494033E+01  0.12251638440E+02  0.30396337868E+02  0.97905728359E+02  0.92018260205E+02 0.  0.
         13    1    3    3    0    0  0.61852508133E+01  0.27925341359E+02  0.11994729064E+03  0.12331031810E+03  0.00000000000E+00 0. -1.
        -14    1    3    3    0    0  0.22813738001E+02 -0.45205317439E+02  0.53139733785E+03  0.53380438181E+03  0.00000000000E+00 0.  1.
        -11    1    4    4    0    0 -0.22687500466E+02  0.42030571723E+02 -0.60925451623E+01  0.48149877916E+02  0.00000000000E+00 0.  1.
         11    1    4    4    0    0  0.16044351063E+02 -0.29778933283E+02  0.36488883031E+02  0.49755850443E+02  0.00000000000E+00 0. -1.
          2    1    1    2  501    0 -0.22355839411E+02  0.50283376402E+01  0.12076726614E+02  0.25902028123E+02  0.00000000000E+00 0. -1.
<scales pt_clust_5="13000.00000" pt_clust_6="13000.00000" pt_clust_7="13000.00000" pt_clust_8="13000.00000" pt_clust_9="22.91436"></scales>
<clustering>
<clus scale="   22.914">  2  9  1 -1</clus>
<clus scale="   80.065">  5  6 -1 -1</clus>
<clus scale="   86.240">  1  5  2 -1</clus>
<clus scale="   92.018">  7  8 -1 -1</clus>
<clus scale="   22.914">  2  5  1 -1</clus>
</clustering>
</event>
<event>
 9    1  0.6014990E-005  0.2143314E+03  0.7546771E-02  0.1138758E+00
         21   -1    0    0  501  502  0.00000000000E+00  0.00000000000E+00  0.30330944264E+03  0.30330944264E+03  0.00000000000E+00 0.  1.
         -2   -1    0    0    0  501 -0.00000000000E+00 -0.00000000000E+00 -0.29135497157E+03  0.29135497157E+03  0.00000000000E+00 0.  1.
        -24    2    1    2    0    0  0.12798928112E+01  0.17702789529E+03  0.20443177653E+02  0.19511982497E+03  0.79456332326E+02 0.  0.
         23    2    1    2    0    0 -0.13666915557E+03 -0.19910399781E+03  0.26227884701E+02  0.25804247447E+03  0.87046864787E+02 0.  0.
         11    1    3    3    0    0 -0.12196500315E+02  0.31447584123E+02 -0.25036873125E+02  0.42006549287E+02  0.00000000000E+00 0. -1.
        -12    1    3    3    0    0  0.13476393126E+02  0.14558031117E+03  0.45480050778E+02  0.15311327568E+03  0.00000000000E+00 0.  1.
        -11    1    4    4    0    0 -0.94620785018E+02 -0.18378966532E+03  0.41339275983E+02  0.21080955807E+03  0.00000000000E+00 0.  1.
         11    1    4    4    0    0 -0.42048370548E+02 -0.15314332492E+02 -0.15111391282E+02  0.47232916403E+02  0.00000000000E+00 0. -1.
         -1    1    1    2    0  502  0.13538926275E+03  0.22076102518E+02 -0.34716591284E+02  0.14150211476E+03  0.00000000000E+00 0.  1.
<scales pt_clust_5="13000.00000" pt_clust_6="13000.00000" pt_clust_7="13000.00000" pt_clust_8="13000.00000" pt_clust_9="137.17735"></scales>
<clustering>
<clus scale="   79.456">  5  6 -1 -1</clus>
<clus scale="   87.047">  7  8 -1 -1</clus>
<clus scale="  137.177">  1  9  2 -1</clus>
<clus scale="  211.363">  2  5  1 -1</clus>
<clus scale="  137.177">  1  5  2 -1</clus>
</clustering>
</event>
<event>
 9    1  0.6014990E-005  0.9282619E+02  0.7546771E-02  0.1302605E+00
         21   -1    0    0  501  502  0.00000000000E+00  0.00000000000E+00  0.22548825673E+03  0.22548825673E+03  0.00000000000E+00 0.  1.
         -4   -1    0    0    0  501 -0.00000000000E+00 -0.00000000000E+00 -0.30900622983E+03  0.30900622983E+03  0.00000000000E+00 0.  1.
        -24    2    1    2    0    0 -0.29079327578E+01 -0.16111469752E+02 -0.27769416654E+03  0.28966761543E+03  0.80778968625E+02 0.  0.
         23    2    1    2    0    0  0.42908057266E+02  0.36191964489E+01  0.16601317036E+03  0.19433704322E+03  0.91390993396E+02 0.  0.
         13    1    3    3    0    0 -0.25866443563E+02  0.11996500465E+02 -0.39451987839E+02  0.48676978854E+02  0.00000000000E+00 0. -1.
        -14    1    3    3    0    0  0.22958510805E+02 -0.28107970217E+02 -0.23824217870E+03  0.24099063658E+03  0.00000000000E+00 0.  1.
        -13    1    4    4    0    0 -0.21483921722E+02 -0.22888801208E+02  0.51289182804E+02  0.60133488058E+02  0.00000000000E+00 0.  1.
         13    1    4    4    0    0  0.64391978988E+02  0.26507997657E+02  0.11472398756E+03  0.13420355516E+03  0.00000000000E+00 0. -1.
         -3    1    1    2    0  502 -0.40000124508E+02  0.12492273303E+02  0.28163023081E+02  0.50489827907E+02  0.00000000000E+00 0.  1.
<scales pt_clust_5="13000.00000" pt_clust_6="13000.00000" pt_clust_7="13000.00000" pt_clust_8="13000.00000" pt_clust_9="41.90545"></scales>
<clustering>
<clus scale="   41.905">  1  9  2 -1</clus>
<clus scale="   80.779">  5  6 -1 -1</clus>
<clus scale="   82.399">  2  5  1 -1</clus>
<clus scale="   91.391">  7  8 -1 -1</clus>
<clus scale="   41.905">  1  5  2 -1</clus>
</clustering>
</event>
<event>
 9    1  0.6014990E-005  0.9890733E+02  0.7546771E-02  0.1287489E+00
          1   -1    0    0  502    0 -0.00000000000E+00  0.00000000000E+00  0.16326878026E+03  0.16326878026E+03  0.00000000000E+00 0. -1.
         21   -1    0    0  501  502  0.00000000000E+00 -0.00000000000E+00 -0.18199446925E+03  0.18199446925E+03  0.00000000000E+00 0.  1.
         23    2    1    2    0    0 -0.29202512663E+02 -0.27006101122E+02 -0.21734575695E+02  0.10130977953E+03  0.90604433685E+02 0.  0.
        -24    2    1    2    0    0  0.47688634034E+02 -0.38138921333E+00 -0.99120618521E+02  0.13661173929E+03  0.81015548027E+02 0.  0.
         13    1    4    4    0    0  0.20938278060E+02 -0.36173449668E+02 -0.21387009620E+02  0.46950336841E+02  0.00000000000E+00 0. -1.
        -14    1    4    4    0    0  0.26750355975E+02  0.35792060455E+02 -0.77733608901E+02  0.89661402449E+02  0.00000000000E+00 0.  1.
        -13    1    3    3    0    0 -0.30160674270E+02 -0.53393151851E+02 -0.36191999352E+02  0.71206430567E+02  0.00000000000E+00 0.  1.
         13    1    3    3    0    0  0.95816160707E+00  0.26387050729E+02  0.14457423656E+02  0.30103348960E+02  0.00000000000E+00 0. -1.
          2    1    1    2  501    0 -0.18486121372E+02  0.27387490336E+02  0.10212950523E+03  0.10734173070E+03  0.00000000000E+00 0. -1.
<scales pt_clust_5="13000.00000" pt_clust_6="13000.00000" pt_clust_7="13000.00000" pt_clust_8="13000.00000" pt_clust_9="33.04258"></scales>
<clustering>
<clus scale="   33.043">  2  9  1 -1</clus>
<clus scale="   81.016">  5  6 -1 -1</clus>
<clus scale="   90.205">  2  5  1 -1</clus>
<clus scale="   90.604">  7  8 -1 -1</clus>
<clus scale="   33.043">  2  5  1 -1</clus>
</clustering>
</event>
<event>
 9    1  0.6014990E-005  0.9560928E+02  0.7546771E-02  0.1295491E+00
         21   -1    0    0  501  502  0.00000000000E+00  0.00000000000E+00  0.11053603271E+03  0.11053603271E+03  0.00000000000E+00 0.  1.
         -2   -1    0    0    0  501 -0.00000000000E+00 -0.00000000000E+00 -0.13542838706E+03  0.13542838706E+03  0.00000000000E+00 0.  1.
        -24    2    1    2    0    0  0.23687855005E+02  0.30436015652E+01 -0.51681354481E+02  0.98950358868E+02  0.80931039372E+02 0.  0.
         23    2    1    2    0    0 -0.34397310037E+02 -0.39167775205E+02  0.30148545255E+02  0.10918636085E+03  0.91079289972E+02 0.  0.
         11    1    3    3    0    0 -0.14176084004E+02  0.33021314931E+02 -0.19132225537E+02  0.40711308644E+02  0.00000000000E+00 0. -1.
        -12    1    3    3    0    0  0.37863939009E+02 -0.29977713366E+02 -0.32549128944E+02  0.58239050224E+02  0.00000000000E+00 0.  1.
        -13    1    4    4    0    0  0.13419148164E+02 -0.44062812095E+02  0.38948939962E+02  0.60321015172E+02  0.00000000000E+00 0.  1.
         13    1    4    4    0    0 -0.47816458200E+02  0.48950368903E+01 -0.88003947074E+01  0.48865345675E+02  0.00000000000E+00 0. -1.
         -1    1    1    2    0  502  0.10709455032E+02  0.36124173640E+02 -0.33595451170E+01  0.37827700057E+02  0.00000000000E+00 0.  1.
<scales pt_clust_5="13000.00000" pt_clust_6="13000.00000" pt_clust_7="13000.00000" pt_clust_8="13000.00000" pt_clust_9="37.67822"></scales>
<clustering>
<clus scale="   37.678">  1  9  2 -1</clus>
<clus scale="   80.931">  5  6 -1 -1</clus>
<clus scale="   85.997">  2  5  1 -1</clus>
<clus scale="   91.079">  7  8 -1 -1</clus>
<clus scale="   37.678">  1  5  2 -1</clus>
</clustering>
</event>
<event>
 9    1  0.6014990E-005  0.1976833E+03  0.7546771E-02  0.1186749E+00
          3   -1    0    0  502    0 -0.00000000000E+00  0.00000000000E+00  0.80493621769E+03  0.80493621769E+03  0.00000000000E+00 0. -1.
         21   -1    0    0  501  502  0.00000000000E+00 -0.00000000000E+00 -0.87816462168E+02  0.87816462168E+02  0.00000000000E+00 0. -1.
        -24    2    1    2    0    0 -0.21621357273E+02 -0.31182309185E+02  0.19521915313E+02  0.90705806815E+02  0.80041356286E+02 0.  0.
         23    2    1    2    0    0  0.23943454438E+02 -0.16221681808E+03  0.24007627411E+03  0.30532300809E+03  0.93262729965E+02 0.  0.
         13    1    3    3    0    0 -0.47674748029E+02 -0.38479198257E+02  0.10328354571E+02  0.62130549702E+02  0.00000000000E+00 0. -1.
        -14    1    3    3    0    0  0.26053390756E+02  0.72968890718E+01  0.91935607417E+01  0.28575257114E+02  0.00000000000E+00 0.  1.
        -11    1    4    4    0    0 -0.25138199091E+02 -0.58722661180E+02  0.13729336875E+03  0.15142572137E+03  0.00000000000E+00 0.  1.
         11    1    4    4    0    0  0.49081653529E+02 -0.10349415690E+03  0.10278290536E+03  0.15389728672E+03  0.00000000000E+00 0. -1.
          4    1    1    2  501    0 -0.23220971655E+01  0.19339912727E+03  0.45752156610E+03  0.49672386495E+03  0.00000000000E+00 0. -1.
<scales pt_clust_5="13000.00000" pt_clust_6="13000.00000" pt_clust_7="13000.00000" pt_clust_8="13000.00000" pt_clust_9="174.30078"></scales>
<clustering>
<clus scale="   80.041">  5  6 -1 -1</clus>
<clus scale="   88.580">  1  5  2 -1</clus>
<clus scale="   93.263">  7  8 -1 -1</clus>
<clus scale="  174.301">  2  9  1 -1</clus>
<clus scale="  174.301">  2  5  1 -1</clus>
</clustering>
</event>
<event>
 9    1  0.6014990E-005  0.1651547E+03  0.7546771E-02  0.1198622E+00
         21   -1    0    0  501  502  0.00000000000E+00  0.00000000000E+00  0.17922621622E+03  0.17922621622E+03  0.00000000000E+00 0. -1.
          1   -1    0    0  502    0 -0.00000000000E+00 -0.00000000000E+00 -0.35727345102E+03  0.35727345102E+03  0.00000000000E+00 0. -1.
        -24    2    1    2    0    0 -0.42923371162E+02  0.73210897683E+02 -0.13221578996E+03  0.17654750057E+03  0.80534176047E+02 0.  0.
         23    2    1    2    0    0 -0.12091310743E+03 -0.56693854647E+02  0.50563526975E+02  0.16914547125E+03  0.90660617026E+02 0.  0.
         11    1    3    3    0    0  0.59484786823E+01  0.63589055462E+02 -0.53099519370E+02  0.83057277409E+02  0.00000000000E+00 0. -1.
        -12    1    3    3    0    0 -0.48871849845E+02  0.96218422208E+01 -0.79116270585E+02  0.93490223159E+02  0.00000000000E+00 0.  1.
        -11    1    4    4    0    0 -0.33108703623E+02  0.19759190467E+02  0.34271858905E+02  0.51586550343E+02  0.00000000000E+00 0.  1.
         11    1    4    4    0    0 -0.87804403810E+02 -0.76453045114E+02  0.16291668070E+02  0.11755892090E+03  0.00000000000E+00 0. -1.
          2    1    1    2  501    0  0.16383647859E+03 -0.16517043036E+02 -0.96394971821E+02  0.19080669543E+03  0.00000000000E+00 0. -1.
<scales pt_clust_5="13000.00000" pt_clust_6="13000.00000" pt_clust_7="13000.00000" pt_clust_8="13000.00000" pt_clust_9="138.04612"></scales>
<clustering>
<clus scale="   80.534">  5  6 -1 -1</clus>
<clus scale="   90.661">  7  8 -1 -1</clus>
<clus scale="  116.996">  2  5  1 -1</clus>
<clus scale="  138.046">  1  9  2 -1</clus>
<clus scale="  138.046">  1  5  2 -1</clus>
</clustering>
</event>
<event>
 9    1  0.6014990E-005  0.1040184E+03  0.7546771E-02  0.1279104E+00
         21   -1    0    0  501  502  0.00000000000E+00  0.00000000000E+00  0.10550754212E+03  0.10550754212E+03  0.00000000000E+00 0.  1.
         -4   -1    0    0    0  501 -0.00000000000E+00 -0.00000000000E+00 -0.11244421045E+03  0.11244421045E+03  0.00000000000E+00 0.  1.
        -24    2    1    2    0    0  0.41584345322E+02  0.15621469170E+02 -0.11830516313E+01  0.91492356840E+02  0.79976019369E+02 0.  0.
         23    2    1    2    0    0 -0.44175687194E+02  0.54109174540E+01 -0.28379705886E+00  0.10457343523E+03  0.94629559065E+02 0.  0.
         11    1    3    3    0    0  0.12925685428E+02  0.36698596142E+02 -0.27153567655E+02  0.47446565091E+02  0.00000000000E+00 0. -1.
        -12    1    3    3    0    0  0.28658659894E+02 -0.21077126971E+02  0.25970516024E+02  0.44045791749E+02  0.00000000000E+00 0.  1.
        -13    1    4    4    0    0 -0.63754926982E+02 -0.18492547078E+02 -0.18231145442E+02  0.68840683291E+02  0.00000000000E+00 0.  1.
         13    1    4    4    0    0  0.19579239788E+02  0.23903464532E+02  0.17947348383E+02  0.35732751941E+02  0.00000000000E+00 0. -1.
         -3    1    1    2    0  502  0.25913418725E+01 -0.21032386624E+02 -0.54698196414E+01  0.21885960494E+02  0.00000000000E+00 0.  1.
<scales pt_clust_5="13000.00000" pt_clust_6="13000.00000" pt_clust_7="13000.00000" pt_clust_8="13000.00000" pt_clust_9="21.19143"></scales>
<clustering>
<clus scale="   21.191">  1  9  2 -1</clus>
<clus scale="   79.976">  5  6 -1 -1</clus>
<clus scale="   90.891">  2  5  1 -1</clus>
<clus scale="   94.630">  7  8 -1 -1</clus>
<clus scale="   21.191">  1  5  2 -1</clus>
</clustering>
</event>
<event>
 9    1  0.6014990E-005  0.1356000E+03  0.7546771E-02  0.1221269E+00
         21   -1    0    0  501  502  0.00000000000E+00  0.00000000000E+00  0.34150009711E+02  0.34150009711E+02  0.00000000000E+00 0.  1.
          1   -1    0    0  502    0 -0.00000000000E+00 -0.00000000000E+00 -0.81310597020E+03  0.81310597020E+03  0.00000000000E+00 0. -1.
         23    2    1    2    0    0 -0.44028094848E+02  0.10616025851E+03 -0.52750139897E+03  0.54706955789E+03  0.88424553355E+02 0.  0.
        -24    2    1    2    0    0  0.38019095659E+02 -0.66738019271E+02 -0.12287698454E+03  0.16556690516E+03  0.80088899995E+02 0.  0.
         11    1    4    4    0    0  0.39376231675E+02 -0.65786043014E+02 -0.13396631787E+03  0.15435435012E+03  0.00000000000E+00 0. -1.
        -12    1    4    4    0    0 -0.13571360152E+01 -0.95197625675E+00  0.11089333326E+02  0.11212555042E+02  0.00000000000E+00 0.  1.
        -13    1    3    3    0    0 -0.29663242233E+02 -0.63982117269E+01 -0.85126612221E+02  0.90373586635E+02  0.00000000000E+00 0.  1.
         13    1    3    3    0    0 -0.14364852616E+02  0.11255847024E+03 -0.44237478675E+03  0.45669597126E+03  0.00000000000E+00 0. -1.
          2    1    1    2  501    0  0.60089991889E+01 -0.39422239241E+02 -0.12857757698E+03  0.13461951686E+03  0.00000000000E+00 0. -1.
<scales pt_clust_5="13000.00000" pt_clust_6="13000.00000" pt_clust_7="13000.00000" pt_clust_8="13000.00000" pt_clust_9="39.87760"></scales>
<clustering>
<clus scale="   39.878">  1  9  2 -1</clus>
<clus scale="   80.089">  5  6 -1 -1</clus>
<clus scale="   88.425">  7  8 -1 -1</clus>
<clus scale="  130.318">  1  5  2 -1</clus>
<clus scale="   39.878">  1  5  2 -1</clus>
</clustering>
</event>
<event>
 9    1  0.6014990E-005  0.1297160E+03  0.7546771E-02  0.1230626E+00
         21   -1    0    0  501  502  0.00000000000E+00  0.00000000000E+00  0.47366625635E+02  0.47366625635E+02  0.00000000000E+00 0. -1.
         -2   -1    0    0    0  501 -0.00000000000E+00 -0.00000000000E+00 -0.61493831800E+03  0.61493831800E+03  0.00000000000E+00 0.  1.
        -24    2    1    2    0    0  0.93471111920E+02 -0.31736154310E+02 -0.47355080253E+03  0.48977967690E+03  0.76744622477E+02 0.  0.
         23    2    1    2    0    0 -0.83507708903E+02  0.11221449151E+02 -0.82449157113E+02  0.14695130486E+03  0.87734623298E+02 0.  0.
         11    1    3    3    0    0  0.57401997570E+02  0.20883460045E+02 -0.21937057014E+03  0.22771595305E+03  0.00000000000E+00 0. -1.
        -12    1    3    3    0    0  0.36069114350E+02 -0.52619614356E+02 -0.25418023239E+03  0.26206372386E+03  0.00000000000E+00 0.  1.
        -13    1    4    4    0    0 -0.79161907424E+02  0.35573039725E+02 -0.35269483083E+02  0.93680228326E+02  0.00000000000E+00 0. -1.
         13    1    4    4    0    0 -0.43458014792E+01 -0.24351590573E+02 -0.47179674030E+02  0.53271076538E+02  0.00000000000E+00 0.  1.
         -1    1    1    2    0  502 -0.99634030166E+01  0.20514705159E+02 -0.11571732727E+02  0.25573961870E+02  0.00000000000E+00 0.  1.
<scales pt_clust_5="13000.00000" pt_clust_6="13000.00000" pt_clust_7="13000.00000" pt_clust_8="13000.00000" pt_clust_9="22.80619"></scales>
<clustering>
<clus scale="   22.806">  1  9  2 -1</clus>
<clus scale="   76.745">  5  6 -1 -1</clus>
<clus scale="   87.735">  7  8 -1 -1</clus>
<clus scale="  122.550">  2  5  1 -1</clus>
<clus scale="   22.806">  1  5  2 -1</clus>
</clustering>
</event>
<event>
 9    1  0.6014990E-005  0.1075226E+03  0.7546771E-02  0.1268666E+00
         21   -1    0    0  501  502  0.00000000000E+00  0.00000000000E+00  0.19979978448E+03  0.19979978448E+03  0.00000000000E+00 0. -1.
         -2   -1    0    0    0  501 -0.00000000000E+00 -0.00000000000E+00 -0.21247336679E+03  0.21247336679E+03  0.00000000000E+00 0.  1.
        -24    2    1    2    0    0 -0.12068962081E+02  0.55945561585E+02 -0.15996452363E+03  0.18825408836E+03  0.81088761609E+02 0.  0.
         23    2    1    2    0    0  0.96096486264E+01 -0.86574908811E+02  0.14748498746E+03  0.19329052913E+03  0.89564763961E+02 0.  0.
         11    1    3    3    0    0  0.19452165812E+02  0.17724043877E+02 -0.66635192837E+01  0.27146472614E+02  0.00000000000E+00 0. -1.
        -12    1    3    3    0    0 -0.31521127893E+02  0.38221517708E+02 -0.15330100434E+03  0.16110761575E+03  0.00000000000E+00 0.  1.
        -11    1    4    4    0    0 -0.92613124908E+01 -0.75813085339E+02  0.45253850618E+02  0.88776724503E+02  0.00000000000E+00 0.  1.
         11    1    4    4    0    0  0.18870961117E+02 -0.10761823472E+02  0.10223113684E+03  0.10451380463E+03  0.00000000000E+00 0. -1.
         -1    1    1    2    0  502  0.24593134546E+01  0.30629347226E+02 -0.19404615032E+00  0.30728533777E+02  0.00000000000E+00 0.  1.
<scales pt_clust_5="13000.00000" pt_clust_6="13000.00000" pt_clust_7="13000.00000" pt_clust_8="13000.00000" pt_clust_9="30.72792"></scales>
<clustering>
<clus scale="   30.728">  1  9  2 -1</clus>
<clus scale="   81.089">  5  6 -1 -1</clus>
<clus scale="   89.565">  7  8 -1 -1</clus>
<clus scale="  100.572">  2  5  1 -1</clus>
<clus scale="   30.728">  1  5  2 -1</clus>
</clustering>
</event>
<event>
 9    1  0.6014990E-005  0.9013495E+02  0.7546771E-02  0.1302838E+00
         21   -1    0    0  501  502  0.00000000000E+00  0.00000000000E+00  0.56322085282E+03  0.56322085282E+03  0.00000000000E+00 0. -1.
          3   -1    0    0  502    0 -0.00000000000E+00 -0.00000000000E+00 -0.23112262417E+02  0.23112262417E+02  0.00000000000E+00 0. -1.
        -24    2    1    2    0    0  0.48059445450E-01  0.37008047851E+02  0.24776533220E+03  0.26452270222E+03  0.84941169255E+02 0.  0.
         23    2    1    2    0    0 -0.17416731194E+02 -0.20009389838E+02  0.28172778892E+03  0.29529035795E+03  0.84392714389E+02 0.  0.
         13    1    3    3    0    0  0.23159435640E+02  0.22337007507E+02  0.26820340092E+02  0.41888327804E+02  0.00000000000E+00 0. -1.
        -14    1    3    3    0    0 -0.23111376195E+02  0.14671040344E+02  0.22094499211E+03  0.22263437442E+03  0.00000000000E+00 0.  1.
        -11    1    4    4    0    0  0.27732546961E+02 -0.29824778644E+02  0.10496996619E+03  0.11259354060E+03  0.00000000000E+00 0.  1.
         11    1    4    4    0    0 -0.45149278154E+02  0.98153888061E+01  0.17675782273E+03  0.18269681735E+03  0.00000000000E+00 0. -1.
          4    1    1    2  501    0  0.17368671748E+02 -0.16998658012E+02  0.10615469280E+02  0.26520055063E+02  0.00000000000E+00 0. -1.
<scales pt_clust_5="13000.00000" pt_clust_6="13000.00000" pt_clust_7="13000.00000" pt_clust_8="13000.00000" pt_clust_9="24.30279"></scales>
<clustering>
<clus scale="   24.303">  1  9  2 -1</clus>
<clus scale="   84.393">  7  8 -1 -1</clus>
<clus scale="   84.941">  5  6 -1 -1</clus>
<clus scale="   89.618">  1  7  2 -1</clus>
<clus scale="   24.303">  1  5  2 -1</clus>
</clustering>
</event>
<event>
 9    1  0.6014990E-005  0.1083520E+03  0.7546771E-02  0.1279769E+00
          1   -1    0    0  502    0 -0.00000000000E+00  0.00000000000E+00  0.16845461243E+04  0.16845461243E+04  0.00000000000E+00 0. -1.
         21   -1    0    0  501  502  0.00000000000E+00 -0.00000000000E+00 -0.13274154062E+02  0.13274154062E+02  0.00000000000E+00 0. -1.
        -24    2    1    2    0    0 -0.95814938198E+01 -0.47786137845E+01  0.70868821130E+03  0.71319361793E+03  0.79319074941E+02 0.  0.
         23    2    1    2    0    0 -0.55507894726E+02 -0.19054333872E+02  0.42170392790E+03  0.43932341496E+03  0.10828973225E+03 0.  0.
         13    1    3    3    0    0  0.31521437394E+02  0.66498078941E+01  0.18617519465E+03  0.18894185366E+03  0.00000000000E+00 0. -1.
        -14    1    3    3    0    0 -0.41102931214E+02 -0.11428421679E+02  0.52251301665E+03  0.52425176427E+03  0.00000000000E+00 0.  1.
        -13    1    4    4    0    0 -0.14288183905E+02  0.34849455578E+02  0.56731063474E+02  0.68095890598E+02  0.00000000000E+00 0.  1.
         13    1    4    4    0    0 -0.41219710821E+02 -0.53903789450E+02  0.36497286442E+03  0.37122752436E+03  0.00000000000E+00 0. -1.
          2    1    1    2  501    0  0.65089388546E+02  0.23832947656E+02  0.54087983105E+03  0.54530324548E+03  0.00000000000E+00 0. -1.
<scales pt_clust_5="13000.00000" pt_clust_6="13000.00000" pt_clust_7="13000.00000" pt_clust_8="13000.00000" pt_clust_9="69.31553"></scales>
<clustering>
<clus scale="   69.316">  2  9  1 -1</clus>
<clus scale="   79.319">  5  6 -1 -1</clus>
<clus scale="   79.404">  1  5  2 -1</clus>
<clus scale="  108.290">  7  8 -1 -1</clus>
<clus scale="   69.316">  2  5  1 -1</clus>
</clustering>
</event>
<event>
 9    1  0.6014990E-005  0.1967361E+03  0.7546771E-02  0.1153605E+00
         -4   -1    0    0    0  501 -0.00000000000E+00  0.00000000000E+00  0.84502041108E+03  0.84502041108E+03  0.00000000000E+00 0.  1.
         21   -1    0    0  501  502  0.00000000000E+00 -0.00000000000E+00 -0.92338131136E+02  0.92338131136E+02  0.00000000000E+00 0. -1.
         23    2    1    2    0    0  0.18564501195E+03 -0.48885772964E+02  0.60396796096E+03  0.64030430699E+03  0.91424386398E+02 0.  0.
        -24    2    1    2    0    0 -0.12409530898E+03  0.73122341112E+02  0.16024168556E+03  0.22990769882E+03  0.80209910251E+02 0.  0.
         11    1    4    4    0    0 -0.73116264562E+02  0.52346579167E+02  0.41523815094E+02  0.99047360964E+02  0.00000000000E+00 0. -1.
        -12    1    4    4    0    0 -0.50979044417E+02  0.20775761945E+02  0.11871787047E+03  0.13086033785E+03  0.00000000000E+00 0.  1.
        -11    1    3    3    0    0  0.42765314718E+02 -0.51296902855E+02  0.14578649071E+03  0.16035568358E+03  0.00000000000E+00 0.  1.
         11    1    3    3    0    0  0.14287969723E+03  0.24111298911E+01  0.45818147025E+03  0.47994862340E+03  0.00000000000E+00 0. -1.
         -3    1    1    2    0  502 -0.61549702970E+02 -0.24236568148E+02 -0.11527366578E+02  0.67146536408E+02  0.00000000000E+00 0.  1.
<scales pt_clust_5="13000.00000" pt_clust_6="13000.00000" pt_clust_7="13000.00000" pt_clust_8="13000.00000" pt_clust_9="66.14966"></scales>
<clustering>
<clus scale="   66.150">  2  9  1 -1</clus>
<clus scale="   80.210">  5  6 -1 -1</clus>
<clus scale="   91.424">  7  8 -1 -1</clus>
<clus scale="  191.782">  2  5  1 -1</clus>
<clus scale="   66.150">  2  5  1 -1</clus>
</clustering>
</event>
<event>
 9    1  0.6014990E-005  0.1224400E+03  0.7546771E-02  0.1242180E+00
         21   -1    0    0  501  502  0.00000000000E+00  0.00000000000E+00  0.25207114530E+03  0.25207114530E+03  0.00000000000E+00 0. -1.
          1   -1    0    0  502    0 -0.00000000000E+00 -0.00000000000E+00 -0.27382766917E+03  0.27382766917E+03  0.00000000000E+00 0. -1.
         23    2    1    2    0    0  0.67382512057E+02 -0.49854825793E+02 -0.22942127715E+03  0.26044084412E+03  0.90384756972E+02 0.  0.
        -24    2    1    2    0    0 -0.75998843400E+02  0.80397690844E+01  0.18858890611E+03  0.21869657517E+03  0.80137097528E+02 0.  0.
         11    1    4    4    0    0 -0.41463236114E+02 -0.17507270751E+02  0.16209139825E+03  0.16822403474E+03  0.00000000000E+00 0. -1.
        -12    1    4    4    0    0 -0.34535607286E+02  0.25547039835E+02  0.26497507860E+02  0.50472540433E+02  0.00000000000E+00 0.  1.
        -13    1    3    3    0    0 -0.12262216194E+02 -0.40520238615E+02 -0.93295532238E+02  0.10245149105E+03  0.00000000000E+00 0.  1.
         13    1    3    3    0    0  0.79644728251E+02 -0.93345871777E+01 -0.13612574491E+03  0.15798935307E+03  0.00000000000E+00 0. -1.
          2    1    1    2  501    0  0.86163313434E+01  0.41815056709E+02  0.19075847176E+02  0.46761395177E+02  0.00000000000E+00 0. -1.
<scales pt_clust_5="13000.00000" pt_clust_6="13000.00000" pt_clust_7="13000.00000" pt_clust_8="13000.00000" pt_clust_9="42.69356"></scales>
<clustering>
<clus scale="   42.694">  1  9  2 -1</clus>
<clus scale="   80.137">  5  6 -1 -1</clus>
<clus scale="   90.385">  7  8 -1 -1</clus>
<clus scale="  115.083">  1  5  2 -1</clus>
<clus scale="   42.694">  1  5  2 -1</clus>
</clustering>
</event>
<event>
 9    1  0.6014990E-005  0.9512070E+02  0.7546771E-02  0.1297157E+00
         21   -1    0    0  501  502  0.00000000000E+00  0.00000000000E+00  0.68696877041E+02  0.68696877041E+02  0.00000000000E+00 0. -1.
          1   -1    0    0  502    0 -0.00000000000E+00 -0.00000000000E+00 -0.42516368062E+03  0.42516368062E+03  0.00000000000E+00 0. -1.
        -24    2    1    2    0    0  0.24798838199E+01  0.53702923878E+02 -0.24390506038E+03  0.26218163026E+03  0.79745688966E+02 0.  0.
         23    2    1    2    0    0  0.26854286576E+02  0.32466795153E+02 -0.96940422071E+02  0.13932233746E+03  0.90763554307E+02 0.  0.
         11    1    3    3    0    0  0.19312764983E+02  0.63351654113E+02 -0.22694542167E+03  0.23641201193E+03  0.00000000000E+00 0. -1.
        -12    1    3    3    0    0 -0.16832881164E+02 -0.96487302354E+01 -0.16959638718E+02  0.25769618330E+02  0.00000000000E+00 0.  1.
        -11    1    4    4    0    0 -0.49436620541E+01  0.21070910795E+02  0.12358439305E+02  0.24922963273E+02  0.00000000000E+00 0. -1.
         11    1    4    4    0    0  0.31797948630E+02  0.11395884357E+02 -0.10929886138E+03  0.11439937419E+03  0.00000000000E+00 0.  1.
          2    1    1    2  501    0 -0.29334170396E+02 -0.86169719030E+02 -0.15621321124E+02  0.92356589934E+02  0.00000000000E+00 0. -1.
<scales pt_clust_5="13000.00000" pt_clust_6="13000.00000" pt_clust_7="13000.00000" pt_clust_8="13000.00000" pt_clust_9="91.02590"></scales>
<clustering>
<clus scale="   79.746">  5  6 -1 -1</clus>
<clus scale="   90.764">  7  8 -1 -1</clus>
<clus scale="   91.026">  1  9  2 -1</clus>
<clus scale="   84.672">  2  5  1 -1</clus>
<clus scale="   91.026">  1  5  2 -1</clus>
</clustering>
</event>
<event>
 9    1  0.6014990E-005  0.1123605E+03  0.7546771E-02  0.1257292E+00
         21   -1    0    0  501  502  0.00000000000E+00  0.00000000000E+00  0.43022570210E+02  0.43022570210E+02  0.00000000000E+00 0.  1.
          1   -1    0    0  502    0 -0.00000000000E+00 -0.00000000000E+00 -0.46628067886E+03  0.46628067886E+03  0.00000000000E+00 0. -1.
        -24    2    1    2    0    0  0.12100176440E+02  0.66704855464E+02 -0.21068655425E+03  0.23830744523E+03  0.88349659296E+02 0.  0.
         23    2    1    2    0    0  0.33281002226E+02 -0.63503687010E+02 -0.11493184488E+03  0.16327759864E+03  0.91158663204E+02 0.  0.
         11    1    3    3    0    0 -0.17460819937E+02  0.77811271813E+02 -0.15368621071E+03  0.17314423356E+03  0.00000000000E+00 0. -1.
        -12    1    3    3    0    0  0.29560996378E+02 -0.11106416348E+02 -0.57000343548E+02  0.65163211673E+02  0.00000000000E+00 0.  1.
        -13    1    4    4    0    0  0.82267213874E+01 -0.71309710939E+02 -0.36414149110E+02  0.80490645881E+02  0.00000000000E+00 0.  1.
         13    1    4    4    0    0  0.25054280839E+02  0.78060239292E+01 -0.78517695771E+02  0.82786952759E+02  0.00000000000E+00 0. -1.
          2    1    1    2  501    0 -0.45381178667E+02 -0.32011684545E+01 -0.97639709515E+02  0.10771820520E+03  0.00000000000E+00 0. -1.
<scales pt_clust_5="13000.00000" pt_clust_6="13000.00000" pt_clust_7="13000.00000" pt_clust_8="13000.00000" pt_clust_9="45.49397"></scales>
<clustering>
<clus scale="   45.494">  1  9  2 -1</clus>
<clus scale="   88.350">  5  6 -1 -1</clus>
<clus scale="   91.159">  7  8 -1 -1</clus>
<clus scale="  110.094">  2  5  1 -1</clus>
<clus scale="   45.494">  1  5  2 -1</clus>
</clustering>
</event>
<event>
 9    1  0.6014990E-005  0.2529387E+03  0.7546771E-02  0.1111462E+00
         -2   -1    0    0    0  501 -0.00000000000E+00  0.00000000000E+00  0.14580246657E+03  0.14580246657E+03  0.00000000000E+00 0.  1.
         21   -1    0    0  501  502  0.00000000000E+00 -0.00000000000E+00 -0.33162854880E+03  0.33162854880E+03  0.00000000000E+00 0.  1.
        -24    2    1    2    0    0  0.20700868191E+02  0.69005641030E+02 -0.26626431974E+02  0.11024755417E+03  0.79090150355E+02 0.  0.
         23    2    1    2    0    0  0.52731771288E+02  0.10034780980E+03 -0.56799740602E+02  0.15609417832E+03  0.91043172932E+02 0.  0.
         11    1    3    3    0    0 -0.93654899497E+01  0.20863631555E+02 -0.45092093909E+02  0.50559870024E+02  0.00000000000E+00 0. -1.
        -12    1    3    3    0    0  0.30066358141E+02  0.48142009475E+02  0.18465661936E+02  0.59687684147E+02  0.00000000000E+00 0.  1.
        -11    1    4    4    0    0  0.39671690846E+02  0.11611609637E+03 -0.57709849687E+02  0.13559947508E+03  0.00000000000E+00 0.  1.
         11    1    4    4    0    0  0.13060080441E+02 -0.15768286567E+02  0.91010908510E+00  0.20494703241E+02  0.00000000000E+00 0. -1.
         -1    1    1    2    0  502 -0.73432639479E+02 -0.16935345083E+03 -0.10239990965E+03  0.21108928288E+03  0.00000000000E+00 0.  1.
<scales pt_clust_5="13000.00000" pt_clust_6="13000.00000" pt_clust_7="13000.00000" pt_clust_8="13000.00000" pt_clust_9="184.58858"></scales>
<clustering>
<clus scale="   79.090">  5  6 -1 -1</clus>
<clus scale="   91.043">  7  8 -1 -1</clus>
<clus scale="   93.271">  5  7 -1 -1</clus>
<clus scale="  184.589">  2  9  1 -1</clus>
<clus scale="  184.589">  2  5  1 -1</clus>
</clustering>
</event>
<event>
 9    1  0.6014990E-005  0.1786495E+03  0.7546771E-02  0.1191265E+00
          1   -1    0    0  502    0 -0.00000000000E+00  0.00000000000E+00  0.60572307582E+03  0.60572307582E+03  0.00000000000E+00 0. -1.
         21   -1    0    0  501  502  0.00000000000E+00 -0.00000000000E+00 -0.25093815627E+03  0.25093815627E+03  0.00000000000E+00 0. -1.
        -24    2    1    2    0    0  0.14097748274E+02  0.11359903273E+02  0.45371547928E+03  0.46653178273E+03  0.10708115735E+03 0.  0.
         23    2    1    2    0    0 -0.11992760706E+03 -0.11567799066E+03  0.30523346575E+02  0.19304942444E+03  0.92587132641E+02 0.  0.
         13    1    3    3    0    0  0.58057553187E+02  0.19390431499E+02  0.31163624453E+03  0.31759064411E+03  0.00000000000E+00 0. -1.
        -14    1    3    3    0    0 -0.43959804913E+02 -0.80305282262E+01  0.14207923474E+03  0.14894113863E+03  0.00000000000E+00 0.  1.
        -11    1    4    4    0    0 -0.48020594864E+02  0.68818851405E+01  0.67893841377E+01  0.48984013833E+02  0.00000000000E+00 0.  1.
         11    1    4    4    0    0 -0.71907012195E+02 -0.12255987580E+03  0.23733962437E+02  0.14406541060E+03  0.00000000000E+00 0. -1.
          2    1    1    2  501    0  0.10582985879E+03  0.10431808739E+03 -0.12945390630E+03  0.19708002492E+03  0.00000000000E+00 0. -1.
<scales pt_clust_5="13000.00000" pt_clust_6="13000.00000" pt_clust_7="13000.00000" pt_clust_8="13000.00000" pt_clust_9="152.78508"></scales>
<clustering>
<clus scale="   92.587">  7  8 -1 -1</clus>
<clus scale="  107.081">  5  6 -1 -1</clus>
<clus scale="  108.601">  1  5  2 -1</clus>
<clus scale="  152.785">  2  9  1 -1</clus>
<clus scale="  152.785">  2  5  1 -1</clus>
</clustering>
</event>
<event>
 9    1  0.6014990E-005  0.9938656E+02  0.7546771E-02  0.1291639E+00
          3   -1    0    0  502    0 -0.00000000000E+00  0.00000000000E+00  0.39624798398E+03  0.39624798398E+03  0.00000000000E+00 0. -1.
         21   -1    0    0  501  502  0.00000000000E+00 -0.00000000000E+00 -0.45252133942E+02  0.45252133942E+02  0.00000000000E+00 0. -1.
         23    2    1    2    0    0 -0.16090408594E+02  0.25859389087E+01  0.27902432949E+03  0.29615850746E+03  0.97926997128E+02 0.  0.
        -24    2    1    2    0    0  0.14811837331E+02  0.34377187242E+02  0.44657008037E+02  0.99363463116E+02  0.80483960563E+02 0.  0.
         13    1    4    4    0    0  0.46172015946E+02  0.63749081475E+01  0.21004863868E+02  0.51124346613E+02  0.00000000000E+00 0. -1.
        -14    1    4    4    0    0 -0.31360178615E+02  0.28002279095E+02  0.23652144169E+02  0.48239116504E+02  0.00000000000E+00 0.  1.
        -13    1    3    3    0    0 -0.51091945533E+02  0.20443266802E+02  0.20611612066E+03  0.21333581334E+03  0.00000000000E+00 0. -1.
         13    1    3    3    0    0  0.35001536939E+02 -0.17857327893E+02  0.72908208832E+02  0.82822694128E+02  0.00000000000E+00 0.  1.
          4    1    1    2  501    0  0.12785712629E+01 -0.36963126151E+02  0.27314512511E+02  0.45978147342E+02  0.00000000000E+00 0. -1.
<scales pt_clust_5="13000.00000" pt_clust_6="13000.00000" pt_clust_7="13000.00000" pt_clust_8="13000.00000" pt_clust_9="36.98523"></scales>
<clustering>
<clus scale="   36.985">  2  9  1 -1</clus>
<clus scale="   80.484">  5  6 -1 -1</clus>
<clus scale="   82.254">  2  5  1 -1</clus>
<clus scale="   97.927">  7  8 -1 -1</clus>
<clus scale="   36.985">  2  5  1 -1</clus>
</clustering>
</event>
<event>
 9    1  0.6014990E-005  0.2525622E+03  0.7546771E-02  0.1112268E+00
         -2   -1    0    0    0  501 -0.00000000000E+00  0.00000000000E+00  0.35174258650E+03  0.35174258650E+03  0.00000000000E+00 0.  1.
         21   -1    0    0  501  502  0.00000000000E+00 -0.00000000000E+00 -0.43865534755E+03  0.43865534755E+03  0.00000000000E+00 0.  1.
        -24    2    1    2    0    0 -0.25705650887E+03  0.82015345499E+02 -0.81670434277E+02  0.29330338104E+03  0.80945956321E+02 0.  0.
         23    2    1    2    0    0  0.19496797070E+03 -0.11123909322E+02 -0.19145808505E+03  0.28839167587E+03  0.91527642942E+02 0.  0.
         13    1    3    3    0    0 -0.97200617470E+02  0.72613286119E+02 -0.29188431718E+02  0.12479027968E+03  0.00000000000E+00 0. -1.
        -14    1    3    3    0    0 -0.15985589140E+03  0.94020593803E+01 -0.52482002559E+02  0.16851310136E+03  0.00000000000E+00 0.  1.
        -13    1    4    4    0    0  0.12943216296E+03 -0.67004670536E+01 -0.62982216847E+02  0.14409837163E+03  0.00000000000E+00 0.  1.
         13    1    4    4    0    0  0.65535807735E+02 -0.44234422686E+01 -0.12847586820E+03  0.14429330424E+03  0.00000000000E+00 0. -1.
         -1    1    1    2    0  502  0.62088538173E+02 -0.70891436177E+02  0.18621575828E+03  0.20870287714E+03  0.00000000000E+00 0.  1.
<scales pt_clust_5="13000.00000" pt_clust_6="13000.00000" pt_clust_7="13000.00000" pt_clust_8="13000.00000" pt_clust_9="94.23689"></scales>
<clustering>
<clus scale="   80.946">  5  6 -1 -1</clus>
<clus scale="   91.528">  7  8 -1 -1</clus>
<clus scale="   94.237">  2  9  1 -1</clus>
<clus scale="  248.923">  1  5  2 -1</clus>
<clus scale="   94.237">  2  5  1 -1</clus>
</clustering>
</event>
<event>
 9    1  0.6014990E-005  0.1324157E+03  0.7546771E-02  0.1246808E+00
          1   -1    0    0  502    0 -0.00000000000E+00  0.00000000000E+00  0.13266060923E+03  0.13266060923E+03  0.00000000000E+00 0. -1.
         21   -1    0    0  501  502  0.00000000000E+00 -0.00000000000E+00 -0.39892889059E+03  0.39892889059E+03  0.00000000000E+00 0. -1.
        -24    2    1    2    0    0  0.19822994869E+02 -0.11845042757E+02 -0.14217525086E+03  0.16456833997E+03  0.79596987390E+02 0.  0.
         23    2    1    2    0    0  0.68973098074E+02 -0.60054579440E+02 -0.19375231694E+03  0.23320517434E+03  0.92091542765E+02 0.  0.
         13    1    3    3    0    0  0.30445467496E+02 -0.31071543916E+02 -0.13440374688E+03  0.14126830681E+03  0.00000000000E+00 0. -1.
        -14    1    3    3    0    0 -0.10622472627E+02  0.19226501158E+02 -0.77715039760E+01  0.23300033166E+02  0.00000000000E+00 0.  1.
        -13    1    4    4    0    0  0.23287916345E+02 -0.38905019341E+01 -0.14264352502E+03  0.14458436390E+03  0.00000000000E+00 0.  1.
         13    1    4    4    0    0  0.45685181728E+02 -0.56164077506E+02 -0.51108791915E+02  0.88620810438E+02  0.00000000000E+00 0. -1.
          2    1    1    2  501    0 -0.88796092942E+02  0.71899622197E+02  0.69659286427E+02  0.13381598552E+03  0.00000000000E+00 0. -1.
<scales pt_clust_5="13000.00000" pt_clust_6="13000.00000" pt_clust_7="13000.00000" pt_clust_8="13000.00000" pt_clust_9="95.14761"></scales>
<clustering>
<clus scale="   79.597">  5  6 -1 -1</clus>
<clus scale="   82.879">  1  5  2 -1</clus>
<clus scale="   92.092">  7  8 -1 -1</clus>
<clus scale="   95.148">  2  9  1 -1</clus>
<clus scale="   95.148">  2  5  1 -1</clus>
</clustering>
</event>
<event>
 9    1  0.6014990E-005  0.1502314E+03  0.7546771E-02  0.1221575E+00
         21   -1    0    0  501  502  0.00000000000E+00  0.00000000000E+00  0.31838162692E+03  0.31838162692E+03  0.00000000000E+00 0. -1.
          1   -1    0    0  502    0 -0.00000000000E+00 -0.00000000000E+00 -0.18619708467E+03  0.18619708467E+03  0.00000000000E+00 0. -1.
         23    2    1    2    0    0  0.27141904388E+02 -0.70309582951E+01 -0.15343787325E+02  0.96445209824E+02  0.90995216029E+02 0.  0.
        -24    2    1    2    0    0 -0.12791815873E+03 -0.64735940652E+02 -0.52376037362E+02  0.17304182360E+03  0.81525616101E+02 0.  0.
         11    1    4    4    0    0 -0.12866146113E+03 -0.40078292567E+02 -0.59580146048E+02  0.14734257673E+03  0.00000000000E+00 0. -1.
        -12    1    4    4    0    0  0.74330240247E+00 -0.24657648086E+02  0.72041086856E+01  0.25699246867E+02  0.00000000000E+00 0.  1.
        -13    1    3    3    0    0 -0.25249493630E+01 -0.24645617014E+02  0.30356825057E+02  0.39183142228E+02  0.00000000000E+00 0.  1.
         13    1    3    3    0    0  0.29666853751E+02  0.17614658719E+02 -0.45700612382E+02  0.57262067596E+02  0.00000000000E+00 0. -1.
          2    1    1    2  501    0  0.10077625434E+03  0.71766898948E+02  0.19990436694E+03  0.23509167817E+03  0.00000000000E+00 0. -1.
<scales pt_clust_5="13000.00000" pt_clust_6="13000.00000" pt_clust_7="13000.00000" pt_clust_8="13000.00000" pt_clust_9="126.18657"></scales>
<clustering>
<clus scale="   81.526">  5  6 -1 -1</clus>
<clus scale="   90.995">  7  8 -1 -1</clus>
<clus scale="   95.217">  2  7  1 -1</clus>
<clus scale="  126.187">  1  9  2 -1</clus>
<clus scale="  126.187">  1  5  2 -1</clus>
</clustering>
</event>
<event>
 9    1  0.6014990E-005  0.9870706E+02  0.7546771E-02  0.1290712E+00
         21   -1    0    0  501  502  0.00000000000E+00  0.00000000000E+00  0.34304034138E+02  0.34304034138E+02  0.00000000000E+00 0.  1.
         -2   -1    0    0    0  501 -0.00000000000E+00 -0.00000000000E+00 -0.47370937725E+03  0.47370937725E+03  0.00000000000E+00 0.  1.
         23    2    1    2    0    0  0.36920125750E+02 -0.29421290542E+02 -0.27446463064E+03  0.29424897352E+03  0.94989035795E+02 0.  0.
        -24    2    1    2    0    0  0.12141261721E+02  0.97089618678E+01 -0.10952709694E+03  0.13717289507E+03  0.81108223999E+02 0.  0.
         13    1    4    4    0    0  0.39332499905E+02  0.29185262146E+02 -0.69233555946E+02  0.84806310757E+02  0.00000000000E+00 0. -1.
        -14    1    4    4    0    0 -0.27191238184E+02 -0.19476300278E+02 -0.40293540998E+02  0.52366584313E+02  0.00000000000E+00 0.  1.
        -11    1    3    3    0    0  0.56653872298E+02 -0.46204074264E+02 -0.24150459374E+03  0.25232706260E+03  0.00000000000E+00 0.  1.
         11    1    3    3    0    0 -0.19733746548E+02  0.16782783722E+02 -0.32960036905E+02  0.41921910918E+02  0.00000000000E+00 0. -1.
         -1    1    1    2    0  502 -0.49061387472E+02  0.19712328674E+02 -0.55413615519E+02  0.76591542792E+02  0.00000000000E+00 0.  1.
<scales pt_clust_5="13000.00000" pt_clust_6="13000.00000" pt_clust_7="13000.00000" pt_clust_8="13000.00000" pt_clust_9="52.87339"></scales>
<clustering>
<clus scale="   52.873">  1  9  2 -1</clus>
<clus scale="   81.108">  5  6 -1 -1</clus>
<clus scale="   85.432">  1  5  2 -1</clus>
<clus scale="   94.989">  7  8 -1 -1</clus>
<clus scale="   52.873">  1  5  2 -1</clus>
</clustering>
</event>
<event>
 9    1  0.6014990E-005  0.1159785E+03  0.7546771E-02  0.1253264E+00
         21   -1    0    0  501  502  0.00000000000E+00  0.00000000000E+00  0.93582261204E+02  0.93582261204E+02  0.00000000000E+00 0. -1.
          1   -1    0    0  502    0 -0.00000000000E+00 -0.00000000000E+00 -0.22230355386E+03  0.22230355386E+03  0.00000000000E+00 0. -1.
        -24    2    1    2    0    0 -0.56862037629E+02  0.70270443002E+02 -0.10551712396E+03  0.16104607418E+03  0.81429405479E+02 0.  0.
         23    2    1    2    0    0  0.23333489155E+02 -0.41073239031E+02 -0.35499124223E+02  0.10871159098E+03  0.91249983623E+02 0.  0.
         13    1    3    3    0    0 -0.68549351003E+02  0.80202008818E+02 -0.85326448837E+02  0.13569074623E+03  0.00000000000E+00 0. -1.
        -14    1    3    3    0    0  0.11687313374E+02 -0.99315658152E+01 -0.20190675127E+02  0.25355327952E+02  0.00000000000E+00 0.  1.
        -11    1    4    4    0    0  0.41922455400E+02 -0.15621714545E+02 -0.55573887908E+02  0.71344146566E+02  0.00000000000E+00 0. -1.
         11    1    4    4    0    0 -0.18588966245E+02 -0.25451524486E+02  0.20074763685E+02  0.37367444410E+02  0.00000000000E+00 0.  1.
          2    1    1    2  501    0  0.33528548474E+02 -0.29197203971E+02  0.12294955529E+02  0.46128149909E+02  0.00000000000E+00 0. -1.
<scales pt_clust_5="13000.00000" pt_clust_6="13000.00000" pt_clust_7="13000.00000" pt_clust_8="13000.00000" pt_clust_9="44.45942"></scales>
<clustering>
<clus scale="   44.459">  1  9  2 -1</clus>
<clus scale="   81.429">  5  6 -1 -1</clus>
<clus scale="   91.250">  7  8 -1 -1</clus>
<clus scale="  108.421">  2  5  1 -1</clus>
<clus scale="   44.459">  1  5  2 -1</clus>
</clustering>
</event>
<event>
 9    1  0.6014990E-005  0.9281232E+02  0.7546771E-02  0.1303636E+00
         -2   -1    0    0    0  501 -0.00000000000E+00  0.00000000000E+00  0.20388205281E+03  0.20388205281E+03  0.00000000000E+00 0.  1.
         21   -1    0    0  501  502  0.00000000000E+00 -0.00000000000E+00 -0.13562916744E+03  0.13562916744E+03  0.00000000000E+00 0.  1.
        -24    2    1    2    0    0  0.34348219618E+01  0.12122897638E+02  0.11646759059E+03  0.14230580252E+03  0.80792816044E+02 0.  0.
         23    2    1    2    0    0  0.20572058109E+02  0.54650632910E+02 -0.60528688704E+02  0.12518688635E+03  0.92726118783E+02 0.  0.
         11    1    3    3    0    0 -0.53988509704E+01 -0.33822541467E+02  0.40000086768E+02  0.52660410599E+02  0.00000000000E+00 0. -1.
        -12    1    3    3    0    0  0.88336729322E+01  0.45945439105E+02  0.76467503824E+02  0.89645391924E+02  0.00000000000E+00 0.  1.
        -13    1    4    4    0    0  0.42655718886E+02  0.12548959289E+02 -0.63537287614E+02  0.77549813993E+02  0.00000000000E+00 0.  1.
         13    1    4    4    0    0 -0.22083660777E+02  0.42101673621E+02  0.30085989101E+01  0.47637072353E+02  0.00000000000E+00 0. -1.
         -1    1    1    2    0  502 -0.24006880071E+02 -0.66773530548E+02  0.12313983479E+02  0.72018531377E+02  0.00000000000E+00 0.  1.
<scales pt_clust_5="13000.00000" pt_clust_6="13000.00000" pt_clust_7="13000.00000" pt_clust_8="13000.00000" pt_clust_9="70.95798"></scales>
<clustering>
<clus scale="   70.958">  2  9  1 -1</clus>
<clus scale="   80.793">  5  6 -1 -1</clus>
<clus scale="   80.892">  1  5  2 -1</clus>
<clus scale="   92.726">  7  8 -1 -1</clus>
<clus scale="   70.958">  2  5  1 -1</clus>
</clustering>
</event>
<event>
 9    1  0.6014990E-005  0.1304171E+03  0.7546771E-02  0.1231922E+00
          1   -1    0    0  502    0 -0.00000000000E+00  0.00000000000E+00  0.77527819247E+03  0.77527819247E+03  0.00000000000E+00 0. -1.
         21   -1    0    0  501  502  0.00000000000E+00 -0.00000000000E+00 -0.52002282477E+02  0.52002282477E+02  0.00000000000E+00 0.  1.
        -24    2    1    2    0    0  0.21820279735E+02 -0.81759859116E+02  0.59269377293E+03  0.60397537377E+03  0.79621256478E+02 0.  0.
         23    2    1    2    0    0 -0.58043680287E+01  0.10087001140E+03  0.68517418138E+02  0.15641910351E+03  0.97794935803E+02 0.  0.
         11    1    3    3    0    0  0.37492301842E+02 -0.87552307782E+02  0.42976008689E+03  0.44018724604E+03  0.00000000000E+00 0. -1.
        -12    1    3    3    0    0 -0.15672022107E+02  0.57924486656E+01  0.16293368604E+03  0.16378812773E+03  0.00000000000E+00 0.  1.
        -13    1    4    4    0    0  0.44573385596E+02  0.31942596754E+02  0.21073087314E+02  0.58746839914E+02  0.00000000000E+00 0.  1.
         13    1    4    4    0    0 -0.50377753625E+02  0.68927414642E+02  0.47444330824E+02  0.97672263601E+02  0.00000000000E+00 0. -1.
          2    1    1    2  501    0 -0.16015911706E+02 -0.19110152280E+02  0.62064718927E+02  0.66885997663E+02  0.00000000000E+00 0. -1.
<scales pt_clust_5="13000.00000" pt_clust_6="13000.00000" pt_clust_7="13000.00000" pt_clust_8="13000.00000" pt_clust_9="24.93407"></scales>
<clustering>
<clus scale="   24.934">  2  9  1 -1</clus>
<clus scale="   79.621">  5  6 -1 -1</clus>
<clus scale="   97.795">  7  8 -1 -1</clus>
<clus scale="  117.407">  1  5  2 -1</clus>
<clus scale="   24.934">  2  5  1 -1</clus>
</clustering>
</event>
<event>
 9    1  0.6014990E-005  0.1244817E+03  0.7546771E-02  0.1240103E+00
          1   -1    0    0  502    0 -0.00000000000E+00  0.00000000000E+00  0.31478936313E+03  0.31478936313E+03  0.00000000000E+00 0. -1.
         21   -1    0    0  501  502  0.00000000000E+00 -0.00000000000E+00 -0.10907729785E+03  0.10907729785E+03  0.00000000000E+00 0.  1.
        -24    2    1    2    0    0  0.15688786529E+02  0.80102935489E+02  0.23846933968E+03  0.26488675785E+03  0.81453976072E+02 0.  0.
         23    2    1    2    0    0 -0.43015823579E+02 -0.62752026388E+02 -0.33949215543E+02  0.12658790220E+03  0.95308813091E+02 0.  0.
         11    1    3    3    0    0  0.33365143599E+02  0.43124620794E+02  0.20452911109E+03  0.21167220652E+03  0.00000000000E+00 0. -1.
        -12    1    3    3    0    0 -0.17676357070E+02  0.36978314695E+02  0.33940228589E+02  0.53214551333E+02  0.00000000000E+00 0.  1.
        -11    1    4    4    0    0  0.17657572806E+02  0.13285485960E+02  0.34568452316E+01  0.22366130500E+02  0.00000000000E+00 0. -1.
         11    1    4    4    0    0 -0.60673396385E+02 -0.76037512348E+02 -0.37406060775E+02  0.10422177170E+03  0.00000000000E+00 0.  1.
          2    1    1    2  501    0  0.27327037049E+02 -0.17350909101E+02  0.11919411451E+01  0.32392000929E+02  0.00000000000E+00 0. -1.
<scales pt_clust_5="13000.00000" pt_clust_6="13000.00000" pt_clust_7="13000.00000" pt_clust_8="13000.00000" pt_clust_9="32.37006"></scales>
<clustering>
<clus scale="   32.370">  2  9  1 -1</clus>
<clus scale="   81.454">  5  6 -1 -1</clus>
<clus scale="   95.309">  7  8 -1 -1</clus>
<clus scale="  114.222">  1  5  2 -1</clus>
<clus scale="   32.370">  2  5  1 -1</clus>
</clustering>
</event>
<event>
 9    1  0.6014990E-005  0.1842860E+03  0.7546771E-02  0.1192396E+00
         21   -1    0    0  501  502  0.00000000000E+00  0.00000000000E+00  0.71058620891E+02  0.71058620891E+02  0.00000000000E+00 0. -1.
          1   -1    0    0  502    0 -0.00000000000E+00 -0.00000000000E+00 -0.97590699238E+03  0.97590699238E+03  0.00000000000E+00 0. -1.
         23    2    1    2    0    0 -0.10777710071E+02  0.26911503526E+02 -0.45943180892E+03  0.46945749847E+03  0.92045465760E+02 0.  0.
        -24    2    1    2    0    0 -0.10158263405E+03  0.11126024196E+03 -0.31412975649E+03  0.35625598796E+03  0.74451004421E+02 0.  0.
         13    1    4    4    0    0 -0.86087391775E+02  0.12018336011E+03 -0.29559645074E+03  0.33050316301E+03  0.00000000000E+00 0. -1.
        -14    1    4    4    0    0 -0.15495242277E+02 -0.89231181460E+01 -0.18533305752E+02  0.25752824947E+02  0.00000000000E+00 0.  1.
        -13    1    3    3    0    0  0.38625507336E+02  0.26808999312E+02 -0.23369680762E+03  0.23837963452E+03  0.00000000000E+00 0.  1.
         13    1    3    3    0    0 -0.49403217407E+02  0.10250421414E+00 -0.22573500130E+03  0.23107786395E+03  0.00000000000E+00 0. -1.
          2    1    1    2  501    0  0.11236034412E+03 -0.13817174549E+03 -0.13128680607E+03  0.22125212684E+03  0.00000000000E+00 0. -1.
<scales pt_clust_5="13000.00000" pt_clust_6="13000.00000" pt_clust_7="13000.00000" pt_clust_8="13000.00000" pt_clust_9="168.57752"></scales>
<clustering>
<clus scale="   74.451">  5  6 -1 -1</clus>
<clus scale="   92.045">  7  8 -1 -1</clus>
<clus scale="   96.503">  2  7  1 -1</clus>
<clus scale="  168.578">  1  9  2 -1</clus>
<clus scale="  168.578">  1  5  2 -1</clus>
</clustering>
</event>
<event>
 9    1  0.6014990E-005  0.9750828E+02  0.7546771E-02  0.1289334E+00
         21   -1    0    0  501  502  0.00000000000E+00  0.00000000000E+00  0.59030460297E+02  0.59030460297E+02  0.00000000000E+00 0.  1.
          3   -1    0    0  502    0 -0.00000000000E+00 -0.00000000000E+00 -0.21843577808E+03  0.21843577808E+03  0.00000000000E+00 0. -1.
        -24    2    1    2    0    0  0.20440397383E+02  0.39571317482E+02 -0.89527519265E+02  0.12827304921E+03  0.80343633449E+02 0.  0.
         23    2    1    2    0    0  0.22536159223E+01 -0.43528608169E+02 -0.77533467033E+02  0.12491794149E+03  0.87711088701E+02 0.  0.
         13    1    3    3    0    0  0.35343439392E+02  0.52700179674E+02 -0.87809979061E+02  0.10833771305E+03  0.00000000000E+00 0. -1.
        -14    1    3    3    0    0 -0.14903042009E+02 -0.13128862192E+02 -0.17175402034E+01  0.19935336163E+02  0.00000000000E+00 0.  1.
        -11    1    4    4    0    0  0.32170791756E+02 -0.56708767067E+02 -0.49672753695E+02  0.81964788562E+02  0.00000000000E+00 0. -1.
         11    1    4    4    0    0 -0.29917175833E+02  0.13180158898E+02 -0.27860713338E+02  0.42953152924E+02  0.00000000000E+00 0.  1.
          4    1    1    2  501    0 -0.22694013305E+02  0.39572906873E+01  0.76556685145E+01  0.24275247679E+02  0.00000000000E+00 0. -1.
<scales pt_clust_5="13000.00000" pt_clust_6="13000.00000" pt_clust_7="13000.00000" pt_clust_8="13000.00000" pt_clust_9="23.03646"></scales>
<clustering>
<clus scale="   23.036">  1  9  2 -1</clus>
<clus scale="   80.344">  5  6 -1 -1</clus>
<clus scale="   87.711">  7  8 -1 -1</clus>
<clus scale="   90.938">  2  5  1 -1</clus>
<clus scale="   23.036">  1  5  2 -1</clus>
</clustering>
</event>
<event>
 9    1  0.6014990E-005  0.1175918E+03  0.7546771E-02  0.1251903E+00
          3   -1    0    0  502    0 -0.00000000000E+00  0.00000000000E+00  0.56105958194E+03  0.56105958194E+03  0.00000000000E+00 0. -1.
         21   -1    0    0  501  502  0.00000000000E+00 -0.00000000000E+00 -0.59304660258E+02  0.59304660258E+02  0.00000000000E+00 0. -1.
        -24    2    1    2    0    0 -0.23317902167E+02 -0.44759707369E+02  0.14958570222E+03  0.17762749459E+03  0.81415530218E+02 0.  0.
         23    2    1    2    0    0  0.11194188987E+03  0.62590654946E+02  0.14082895843E+03  0.21287404985E+03  0.95047297549E+02 0.  0.
         13    1    3    3    0    0 -0.49707388529E+02 -0.22998800604E+02  0.57574789252E+02  0.79464618926E+02  0.00000000000E+00 0. -1.
        -14    1    3    3    0    0  0.26389486362E+02 -0.21760906765E+02  0.92010912963E+02  0.98162875660E+02  0.00000000000E+00 0.  1.
        -13    1    4    4    0    0  0.19661486724E+02  0.41253338683E+02  0.99582239676E+02  0.10956748821E+03  0.00000000000E+00 0.  1.
         13    1    4    4    0    0  0.92280403149E+02  0.21337316263E+02  0.41246718756E+02  0.10330656164E+03  0.00000000000E+00 0. -1.
          4    1    1    2  501    0 -0.88623987705E+02 -0.17830947577E+02  0.21134026103E+03  0.22986269776E+03  0.00000000000E+00 0. -1.
<scales pt_clust_5="13000.00000" pt_clust_6="13000.00000" pt_clust_7="13000.00000" pt_clust_8="13000.00000" pt_clust_9="90.40001"></scales>
<clustering>
<clus scale="   81.416">  5  6 -1 -1</clus>
<clus scale="   90.400">  2  9  1 -1</clus>
<clus scale="   95.047">  7  8 -1 -1</clus>
<clus scale="  106.875">  1  5  2 -1</clus>
<clus scale="   90.400">  2  5  1 -1</clus>
</clustering>
</event>
<event>
 9    1  0.6014990E-005  0.9886647E+02  0.7546771E-02  0.1289847E+00
         21   -1    0    0  501  502  0.00000000000E+00  0.00000000000E+00  0.38320420491E+03  0.38320420491E+03  0.00000000000E+00 0.  1.
         -2   -1    0    0    0  501 -0.00000000000E+00 -0.00000000000E+00 -0.78548668173E+02  0.78548668173E+02  0.00000000000E+00 0.  1.
         23    2    1    2    0    0 -0.25838483171E+02  0.12243763293E+02  0.48976355524E+01  0.98486614814E+02  0.94117424058E+02 0.  0.
        -24    2    1    2    0    0 -0.19687497347E+02 -0.58876162013E+02  0.68166113761E+02  0.12267957635E+03  0.80929965922E+02 0.  0.
         13    1    4    4    0    0  0.18217276016E+02  0.10344275394E+02  0.25376640360E+02  0.32906641500E+02  0.00000000000E+00 0. -1.
        -14    1    4    4    0    0 -0.37904773363E+02 -0.69220437407E+02  0.42789473401E+02  0.89772934854E+02  0.00000000000E+00 0.  1.
        -13    1    3    3    0    0 -0.48922361877E+02 -0.15414686883E+02  0.25183472817E+02  0.57142080522E+02  0.00000000000E+00 0.  1.
         13    1    3    3    0    0  0.23083878706E+02  0.27658450176E+02 -0.20285837265E+02  0.41344534291E+02  0.00000000000E+00 0. -1.
         -1    1    1    2    0  502  0.45525980519E+02  0.46632398720E+02  0.23159178742E+03  0.24058668192E+03  0.00000000000E+00 0.  1.
<scales pt_clust_5="13000.00000" pt_clust_6="13000.00000" pt_clust_7="13000.00000" pt_clust_8="13000.00000" pt_clust_9="65.17051"></scales>
<clustering>
<clus scale="   65.171">  1  9  2 -1</clus>
<clus scale="   80.930">  5  6 -1 -1</clus>
<clus scale="   86.407">  1  5  2 -1</clus>
<clus scale="   94.117">  7  8 -1 -1</clus>
<clus scale="   65.171">  1  5  2 -1</clus>
</clustering>
</event>
<event>
 9    1  0.6014990E-005  0.1766102E+03  0.7546771E-02  0.1172488E+00
         -2   -1    0    0    0  501 -0.00000000000E+00  0.00000000000E+00  0.96286800454E+02  0.96286800454E+02  0.00000000000E+00 0.  1.
         21   -1    0    0  501  502  0.00000000000E+00 -0.00000000000E+00 -0.11497337228E+04  0.11497337228E+04  0.00000000000E+00 0.  1.
        -24    2    1    2    0    0  0.14562963615E+03  0.27960918336E+02 -0.13081915560E+02  0.16875137170E+03  0.79473801082E+02 0.  0.
         23    2    1    2    0    0 -0.18567752956E+03  0.27659118645E+02 -0.71459305686E+03  0.74436558347E+03  0.90530177932E+02 0.  0.
         11    1    3    3    0    0  0.99158380354E+02 -0.63274165207E+00 -0.41188196928E+02  0.10737435598E+03  0.00000000000E+00 0. -1.
        -12    1    3    3    0    0  0.46471255795E+02  0.28593659988E+02  0.28106281368E+02  0.61377015722E+02  0.00000000000E+00 0.  1.
        -13    1    4    4    0    0 -0.15664907933E+03  0.23072808751E+02 -0.68342297019E+03  0.70152565508E+03  0.00000000000E+00 0.  1.
         13    1    4    4    0    0 -0.29028450232E+02  0.45863098941E+01 -0.31170086676E+02  0.42839928393E+02  0.00000000000E+00 0. -1.
         -1    1    1    2    0  502  0.40047893412E+02 -0.55620036981E+02 -0.32577194988E+03  0.33290356803E+03  0.00000000000E+00 0.  1.
<scales pt_clust_5="13000.00000" pt_clust_6="13000.00000" pt_clust_7="13000.00000" pt_clust_8="13000.00000" pt_clust_9="68.53774"></scales>
<clustering>
<clus scale="   68.538">  2  9  1 -1</clus>
<clus scale="   79.474">  5  6 -1 -1</clus>
<clus scale="   90.530">  7  8 -1 -1</clus>
<clus scale="  171.206">  1  5  2 -1</clus>
<clus scale="   68.538">  2  5  1 -1</clus>
</clustering>
</event>
<event>
 9    1  0.6014990E-005  0.1456250E+03  0.7546771E-02  0.1207439E+00
         -2   -1    0    0    0  501 -0.00000000000E+00  0.00000000000E+00  0.77168694523E+03  0.77168694523E+03  0.00000000000E+00 0.  1.
         21   -1    0    0  501  502  0.00000000000E+00 -0.00000000000E+00 -0.65230786157E+02  0.65230786157E+02  0.00000000000E+00 0.  1.
         23    2    1    2    0    0 -0.11361555511E+03 -0.15753218462E+02  0.57990903942E+03  0.59774711740E+03  0.88602844805E+02 0.  0.
        -24    2    1    2    0    0  0.12392451097E+03 -0.25890285969E+02  0.63921867222E+02  0.16326028350E+03  0.80872268004E+02 0.  0.
         13    1    4    4    0    0  0.78343056505E+01  0.22085092280E+02  0.29075669663E+01  0.23613165644E+02  0.00000000000E+00 0. -1.
        -14    1    4    4    0    0  0.11609020532E+03 -0.47975378250E+02  0.61014300255E+02  0.13964711786E+03  0.00000000000E+00 0.  1.
        -11    1    3    3    0    0 -0.71183698571E+02 -0.50611506034E+02  0.40940731282E+03  0.41862034264E+03  0.00000000000E+00 0.  1.
         11    1    3    3    0    0 -0.42431856544E+02  0.34858287571E+02  0.17050172660E+03  0.17912677476E+03  0.00000000000E+00 0. -1.
         -1    1    1    2    0  502 -0.10308955857E+02  0.41643504432E+02  0.62625252435E+02  0.75910330488E+02  0.00000000000E+00 0.  1.
<scales pt_clust_5="13000.00000" pt_clust_6="13000.00000" pt_clust_7="13000.00000" pt_clust_8="13000.00000" pt_clust_9="42.90054"></scales>
<clustering>
<clus scale="   42.901">  2  9  1 -1</clus>
<clus scale="   80.872">  5  6 -1 -1</clus>
<clus scale="   88.603">  7  8 -1 -1</clus>
<clus scale="  141.055">  2  5  1 -1</clus>
<clus scale="   42.901">  2  5  1 -1</clus>
</clustering>
</event>
<event>
 9    1  0.6014990E-005  0.1892987E+03  0.7546771E-02  0.1160601E+00
         -2   -1    0    0    0  501 -0.00000000000E+00  0.00000000000E+00  0.48357566047E+03  0.48357566047E+03  0.00000000000E+00 0.  1.
         21   -1    0    0  501  502  0.00000000000E+00 -0.00000000000E+00 -0.40117950597E+03  0.40117950597E+03  0.00000000000E+00 0. -1.
         23    2    1    2    0    0  0.46388079426E+02 -0.15811782022E+03  0.40577822937E+03  0.44804464718E+03  0.94524787499E+02 0.  0.
        -24    2    1    2    0    0  0.39961449110E+02  0.17250958035E+03 -0.16234436543E+03  0.25341701774E+03  0.80672294905E+02 0.  0.
         13    1    4    4    0    0 -0.12493411349E+02  0.83912050346E+02 -0.40840526399E+02  0.94155542147E+02  0.00000000000E+00 0. -1.
        -14    1    4    4    0    0  0.52454860459E+02  0.88597530008E+02 -0.12150383903E+03  0.15926147560E+03  0.00000000000E+00 0.  1.
        -13    1    3    3    0    0  0.13020252825E+02 -0.58039170288E+02  0.26797284329E+03  0.27449502183E+03  0.00000000000E+00 0.  1.
         13    1    3    3    0    0  0.33367826601E+02 -0.10007864994E+03  0.13780538608E+03  0.17354962535E+03  0.00000000000E+00 0. -1.
         -1    1    1    2    0  502 -0.86349528536E+02 -0.14391760129E+02 -0.16103770943E+03  0.18329350152E+03  0.00000000000E+00 0.  1.
<scales pt_clust_5="13000.00000" pt_clust_6="13000.00000" pt_clust_7="13000.00000" pt_clust_8="13000.00000" pt_clust_9="87.54064"></scales>
<clustering>
<clus scale="   80.672">  5  6 -1 -1</clus>
<clus scale="   87.541">  2  9  1 -1</clus>
<clus scale="   94.525">  7  8 -1 -1</clus>
<clus scale="  182.776">  2  5  1 -1</clus>
<clus scale="   87.541">  2  5  1 -1</clus>
</clustering>
</event>
<event>
 9    1  0.6014990E-005  0.9052209E+02  0.7546771E-02  0.1307623E+00
         -2   -1    0    0    0  501 -0.00000000000E+00  0.00000000000E+00  0.27910175659E+03  0.27910175659E+03  0.00000000000E+00 0.  1.
         21   -1    0    0  501  502  0.00000000000E+00 -0.00000000000E+00 -0.11849701418E+03  0.11849701418E+03  0.00000000000E+00 0. -1.
        -24    2    1    2    0    0  0.18180763519E+02 -0.39451391768E+01  0.30281389097E+02  0.87412450643E+02  0.79861565953E+02 0.  0.
         23    2    1    2    0    0  0.16727388670E+01 -0.28462631528E+02 -0.63065872826E+02  0.11309796952E+03  0.89447900737E+02 0.  0.
         11    1    3    3    0    0 -0.97657299303E+01  0.32002345056E+02  0.13919324908E+01  0.33488162777E+02  0.00000000000E+00 0. -1.
        -12    1    3    3    0    0  0.27946493450E+02 -0.35947484233E+02  0.28889456606E+02  0.53924287865E+02  0.00000000000E+00 0.  1.
        -11    1    4    4    0    0  0.20706870892E+02 -0.41458780193E+02 -0.41703949312E+00  0.46344135326E+02  0.00000000000E+00 0.  1.
         11    1    4    4    0    0 -0.19034132025E+02  0.12996148665E+02 -0.62648833333E+02  0.66753834197E+02  0.00000000000E+00 0. -1.
         -1    1    1    2    0  502 -0.19853502386E+02  0.32407770704E+02  0.19338922613E+03  0.19708835060E+03  0.00000000000E+00 0.  1.
<scales pt_clust_5="13000.00000" pt_clust_6="13000.00000" pt_clust_7="13000.00000" pt_clust_8="13000.00000" pt_clust_9="38.00561"></scales>
<clustering>
<clus scale="   38.006">  2  9  1 -1</clus>
<clus scale="   79.862">  5  6 -1 -1</clus>
<clus scale="   81.063">  1  5  2 -1</clus>
<clus scale="   89.448">  7  8 -1 -1</clus>
<clus scale="   38.006">  2  5  1 -1</clus>
</clustering>
</event>
<event>
 9    1  0.6014990E-005  0.1010724E+03  0.7546771E-02  0.1284899E+00
         -2   -1    0    0    0  501 -0.00000000000E+00  0.00000000000E+00  0.60042122365E+03  0.60042122365E+03  0.00000000000E+00 0.  1.
         21   -1    0    0  501  502  0.00000000000E+00 -0.00000000000E+00 -0.44772146745E+02  0.44772146745E+02  0.00000000000E+00 0. -1.
        -24    2    1    2    0    0  0.15863096016E+02 -0.70079311977E+01  0.28906567002E+03  0.30095509371E+03  0.81940575633E+02 0.  0.
         23    2    1    2    0    0 -0.94253615977E+02  0.24238076637E+02  0.18628354951E+03  0.23070405882E+03  0.95139757471E+02 0.  0.
         13    1    3    3    0    0 -0.14348534205E+02  0.26300946857E+02  0.55212978003E+02  0.62817936764E+02  0.00000000000E+00 0. -1.
        -14    1    3    3    0    0  0.30211630221E+02 -0.33308878054E+02  0.23385269201E+03  0.23813715695E+03  0.00000000000E+00 0.  1.
        -11    1    4    4    0    0 -0.75236377614E+02 -0.11108075619E+02  0.56185851761E+02  0.94555548746E+02  0.00000000000E+00 0. -1.
         11    1    4    4    0    0 -0.19017238362E+02  0.35346152256E+02  0.13009769775E+03  0.13614851007E+03  0.00000000000E+00 0.  1.
         -1    1    1    2    0  502  0.78390519960E+02 -0.17230145439E+02  0.80299857376E+02  0.11353421786E+03  0.00000000000E+00 0.  1.
<scales pt_clust_5="13000.00000" pt_clust_6="13000.00000" pt_clust_7="13000.00000" pt_clust_8="13000.00000" pt_clust_9="80.26177"></scales>
<clustering>
<clus scale="   80.262">  2  9  1 -1</clus>
<clus scale="   81.941">  5  6 -1 -1</clus>
<clus scale="   88.760">  1  5  2 -1</clus>
<clus scale="   95.140">  7  8 -1 -1</clus>
<clus scale="   80.262">  2  5  1 -1</clus>
</clustering>
</event>
<event>
 9    1  0.6014990E-005  0.1128435E+03  0.7546771E-02  0.1259702E+00
         21   -1    0    0  501  502  0.00000000000E+00  0.00000000000E+00  0.55033252169E+02  0.55033252169E+02  0.00000000000E+00 0.  1.
          1   -1    0    0  502    0 -0.00000000000E+00 -0.00000000000E+00 -0.41241920224E+03  0.41241920224E+03  0.00000000000E+00 0. -1.
         23    2    1    2    0    0  0.44633981838E+02  0.28451635033E+02 -0.16288722898E+03  0.19421083182E+03  0.91563693456E+02 0.  0.
        -24    2    1    2    0    0 -0.84982987016E+02  0.58334529751E-01 -0.19086181728E+03  0.22370287359E+03  0.79953929668E+02 0.  0.
         13    1    4    4    0    0 -0.90372099117E+02 -0.81389835487E+00 -0.19623299116E+03  0.21604436014E+03  0.00000000000E+00 0. -1.
        -14    1    4    4    0    0  0.53891121009E+01  0.87223288462E+00  0.53711738743E+01  0.76585134477E+01  0.00000000000E+00 0.  1.
        -11    1    3    3    0    0  0.56277574886E+02 -0.14901612455E+02 -0.11289928024E+03  0.12702547369E+03  0.00000000000E+00 0. -1.
         11    1    3    3    0    0 -0.11643593047E+02  0.43353247487E+02 -0.49987948746E+02  0.67185358126E+02  0.00000000000E+00 0.  1.
          2    1    1    2  501    0  0.40349005177E+02 -0.28509969562E+02 -0.36369038032E+01  0.49538749000E+02  0.00000000000E+00 0. -1.
<scales pt_clust_5="13000.00000" pt_clust_6="13000.00000" pt_clust_7="13000.00000" pt_clust_8="13000.00000" pt_clust_9="49.40507"></scales>
<clustering>
<clus scale="   49.405">  1  9  2 -1</clus>
<clus scale="   79.954">  5  6 -1 -1</clus>
<clus scale="   91.564">  7  8 -1 -1</clus>
<clus scale="  103.645">  1  5  2 -1</clus>
<clus scale="   49.405">  1  5  2 -1</clus>
</clustering>
</event>
<event>
 9    1  0.6014990E-005  0.1571197E+03  0.7546771E-02  0.1196679E+00
          1   -1    0    0  502    0 -0.00000000000E+00  0.00000000000E+00  0.84704032700E+03  0.84704032700E+03  0.00000000000E+00 0. -1.
         21   -1    0    0  501  502  0.00000000000E+00 -0.00000000000E+00 -0.57803559487E+02  0.57803559487E+02  0.00000000000E+00 0.  1.
         23    2    1    2    0    0  0.10591509056E+03 -0.60779719859E+02  0.67783798183E+03  0.69574086393E+03  0.98381092578E+02 0.  0.
        -24    2    1    2    0    0 -0.94046957157E+02  0.84248943108E+02  0.11129564448E+03  0.18280344711E+03  0.71327871326E+02 0.  0.
         13    1    4    4    0    0 -0.23924441850E+02  0.61146014666E+02  0.27675314574E+02  0.71254031916E+02  0.00000000000E+00 0. -1.
        -14    1    4    4    0    0 -0.70122515306E+02  0.23102928442E+02  0.83620329910E+02  0.11154941519E+03  0.00000000000E+00 0.  1.
        -13    1    3    3    0    0  0.28822931214E+02 -0.73038089296E+02  0.35894642975E+03  0.36743416183E+03  0.00000000000E+00 0. -1.
         13    1    3    3    0    0  0.77092159348E+02  0.12258369437E+02  0.31889155208E+03  0.32830670210E+03  0.00000000000E+00 0.  1.
          2    1    1    2  501    0 -0.11868133406E+02 -0.23469223250E+02  0.10314119572E+00  0.26299575445E+02  0.00000000000E+00 0. -1.
<scales pt_clust_5="13000.00000" pt_clust_6="13000.00000" pt_clust_7="13000.00000" pt_clust_8="13000.00000" pt_clust_9="26.29937"></scales>
<clustering>
<clus scale="   26.299">  2  9  1 -1</clus>
<clus scale="   71.328">  5  6 -1 -1</clus>
<clus scale="   98.381">  7  8 -1 -1</clus>
<clus scale="  141.758">  2  5  1 -1</clus>
<clus scale="   26.299">  2  5  1 -1</clus>
</clustering>
</event>
<event>
 9    1  0.6014990E-005  0.9448679E+02  0.7546771E-02  0.1298506E+00
         -2   -1    0    0    0  501 -0.00000000000E+00  0.00000000000E+00  0.10012235811E+03  0.10012235811E+03  0.00000000000E+00 0.  1.
         21   -1    0    0  501  502  0.00000000000E+00 -0.00000000000E+00 -0.18560288987E+03  0.18560288987E+03  0.00000000000E+00 0.  1.
        -24    2    1    2    0    0  0.31919982342E+02 -0.11092043425E+02  0.38242152417E+02  0.94905253158E+02  0.80016411788E+02 0.  0.
         23    2    1    2    0    0 -0.86141642975E+01 -0.29460294424E+02 -0.65016133863E+02  0.11575927068E+03  0.90724849474E+02 0.  0.
         11    1    3    3    0    0 -0.22232629743E+02 -0.21761085912E+02  0.87043288378E+01  0.32304798806E+02  0.00000000000E+00 0. -1.
        -12    1    3    3    0    0  0.54152612085E+02  0.10669042487E+02  0.29537823579E+02  0.62600454352E+02  0.00000000000E+00 0.  1.
        -13    1    4    4    0    0  0.14387380017E+02 -0.54390397355E+02 -0.58603110847E+02  0.81238147623E+02  0.00000000000E+00 0.  1.
         13    1    4    4    0    0 -0.23001544315E+02  0.24930102932E+02 -0.64130230156E+01  0.34521123059E+02  0.00000000000E+00 0. -1.
         -1    1    1    2    0  502 -0.23305818044E+02  0.40552337849E+02 -0.58706550311E+02  0.75060724145E+02  0.00000000000E+00 0.  1.
<scales pt_clust_5="13000.00000" pt_clust_6="13000.00000" pt_clust_7="13000.00000" pt_clust_8="13000.00000" pt_clust_9="46.77236"></scales>
<clustering>
<clus scale="   46.772">  2  9  1 -1</clus>
<clus scale="   80.016">  5  6 -1 -1</clus>
<clus scale="   84.258">  1  5  2 -1</clus>
<clus scale="   90.725">  7  8 -1 -1</clus>
<clus scale="   46.772">  2  5  1 -1</clus>
</clustering>
</event>
<event>
 9    1  0.6014990E-005  0.8671544E+02  0.7546771E-02  0.1322204E+00
          1   -1    0    0  502    0 -0.00000000000E+00  0.00000000000E+00  0.90991754004E+03  0.90991754004E+03  0.00000000000E+00 0. -1.
         21   -1    0    0  501  502  0.00000000000E+00 -0.00000000000E+00 -0.25939422148E+02  0.25939422148E+02  0.00000000000E+00 0. -1.
        -24    2    1    2    0    0  0.42806762477E+01  0.25863846116E+02  0.47609032980E+03  0.48360633128E+03  0.80782540202E+02 0.  0.
         23    2    1    2    0    0 -0.64908923543E+02  0.42949722322E+01  0.35463294514E+03  0.36610298444E+03  0.63523651429E+02 0.  0.
         13    1    3    3    0    0  0.26962990450E+02  0.26960535742E+02  0.10309251788E+03  0.10991788109E+03  0.00000000000E+00 0. -1.
        -14    1    3    3    0    0 -0.22682314202E+02 -0.10966896266E+01  0.37299781193E+03  0.37368845019E+03  0.00000000000E+00 0.  1.
        -13    1    4    4    0    0 -0.47783210422E+01 -0.20362218879E+02  0.43655767698E+02  0.48407420536E+02  0.00000000000E+00 0.  1.
         13    1    4    4    0    0 -0.60130602500E+02  0.24657191111E+02  0.31097717745E+03  0.31769556390E+03  0.00000000000E+00 0. -1.
          2    1    1    2  501    0  0.60628247295E+02 -0.30158818348E+02  0.53254842943E+02  0.86147646463E+02  0.00000000000E+00 0. -1.
<scales pt_clust_5="13000.00000" pt_clust_6="13000.00000" pt_clust_7="13000.00000" pt_clust_8="13000.00000" pt_clust_9="67.71513"></scales>
<clustering>
<clus scale="   63.524">  7  8 -1 -1</clus>
<clus scale="   67.715">  2  9  1 -1</clus>
<clus scale="   70.915">  2  7  1 -1</clus>
<clus scale="   80.783">  5  6 -1 -1</clus>
<clus scale="   67.715">  2  5  1 -1</clus>
</clustering>
</event>
<event>
 9    1  0.6014990E-005  0.1031030E+03  0.7546771E-02  0.1276890E+00
         21   -1    0    0  501  502  0.00000000000E+00  0.00000000000E+00  0.15723836053E+03  0.15723836053E+03  0.00000000000E+00 0.  1.
          1   -1    0    0  502    0 -0.00000000000E+00 -0.00000000000E+00 -0.36081835152E+03  0.36081835152E+03  0.00000000000E+00 0. -1.
        -24    2    1    2    0    0  0.44070563313E+02 -0.27498427342E+02 -0.26859095243E+03  0.28541807372E+03  0.81387953803E+02 0.  0.
         23    2    1    2    0    0 -0.46621512302E+02  0.71903250458E+02  0.11315109887E+03  0.16709652600E+03  0.88172756511E+02 0.  0.
         11    1    3    3    0    0  0.56092009880E+02 -0.47125838735E+02 -0.19478644643E+03  0.20810794785E+03  0.00000000000E+00 0. -1.
        -12    1    3    3    0    0 -0.12021446567E+02  0.19627411393E+02 -0.73804506002E+02  0.77310125868E+02  0.00000000000E+00 0.  1.
        -11    1    4    4    0    0 -0.71400939188E+02  0.66363477424E+02  0.87203055282E+02  0.13079211789E+03  0.00000000000E+00 0.  1.
         11    1    4    4    0    0  0.24779426886E+02  0.55397730343E+01  0.25948043584E+02  0.36304408106E+02  0.00000000000E+00 0. -1.
          2    1    1    2  501    0  0.25509489893E+01 -0.44404823116E+02 -0.48140137433E+02  0.65542112331E+02  0.00000000000E+00 0. -1.
<scales pt_clust_5="13000.00000" pt_clust_6="13000.00000" pt_clust_7="13000.00000" pt_clust_8="13000.00000" pt_clust_9="44.47806"></scales>
<clustering>
<clus scale="   44.478">  1  9  2 -1</clus>
<clus scale="   81.388">  5  6 -1 -1</clus>
<clus scale="   88.173">  7  8 -1 -1</clus>
<clus scale="   97.364">  2  5  1 -1</clus>
<clus scale="   44.478">  1  5  2 -1</clus>
</clustering>
</event>
<event>
 9    1  0.6016597E-005  0.1283492E+03  0.7546771E-02  0.1245104E+00
          1   -1    0    0  502    0 -0.00000000000E+00  0.00000000000E+00  0.17215364856E+03  0.17215364856E+03  0.00000000000E+00 0. -1.
         21   -1    0    0  501  502  0.00000000000E+00 -0.00000000000E+00 -0.40854935663E+03  0.40854935663E+03  0.00000000000E+00 0.  1.
         23    2    1    2    0    0 -0.10515567658E+02  0.28243381302E+01  0.10848870413E+03  0.14366585387E+03  0.93549583613E+02 0.  0.
        -24    2    1    2    0    0 -0.22972956855E+02  0.94338711862E+02 -0.29813325213E+03  0.32413094899E+03  0.82157694499E+02 0.  0.
         13    1    4    4    0    0 -0.28148799178E+02  0.22002975115E+02 -0.30913798204E+02  0.47245621262E+02  0.00000000000E+00 0. -1.
        -14    1    4    4    0    0  0.51758423228E+01  0.72335736747E+02 -0.26721945393E+03  0.27688532773E+03  0.00000000000E+00 0.  1.
        -13    1    3    3    0    0  0.14545011072E+02 -0.33605814540E+02  0.13747378424E+02  0.39113917363E+02  0.00000000000E+00 0. -1.
         13    1    3    3    0    0 -0.25060578731E+02  0.36430152670E+02  0.94741325706E+02  0.10455193650E+03  0.00000000000E+00 0.  1.
          2    1    1    2  501    0  0.33488524513E+02 -0.97163049992E+02 -0.46751160061E+02  0.11290620233E+03  0.00000000000E+00 0. -1.
<scales pt_clust_5="13000.00000" pt_clust_6="13000.00000" pt_clust_7="13000.00000" pt_clust_8="13000.00000" pt_clust_9="98.60849"></scales>
<clustering>
<clus scale="   82.158">  5  6 -1 -1</clus>
<clus scale="   93.550">  7  8 -1 -1</clus>
<clus scale="   94.181">  1  7  2 -1</clus>
<clus scale="   98.608">  2  9  1 -1</clus>
<clus scale="   98.608">  2  5  1 -1</clus>
</clustering>
</event>
<event>
 9    1  0.6014990E-005  0.1077903E+03  0.7546771E-02  0.1278878E+00
         21   -1    0    0  501  502  0.00000000000E+00  0.00000000000E+00  0.61707984518E+03  0.61707984518E+03  0.00000000000E+00 0. -1.
          1   -1    0    0  502    0 -0.00000000000E+00 -0.00000000000E+00 -0.45289662701E+02  0.45289662701E+02  0.00000000000E+00 0. -1.
        -24    2    1    2    0    0  0.10382015175E+02 -0.14868402420E+02  0.21696264435E+02  0.85687673738E+02  0.80887538661E+02 0.  0.
         23    2    1    2    0    0 -0.18451242641E+02 -0.36237291133E+02  0.29518626570E+03  0.31657644094E+03  0.10692110120E+03 0.  0.
         11    1    3    3    0    0 -0.34888765190E+02 -0.13483553838E+02  0.68588141482E+01  0.38027299301E+02  0.00000000000E+00 0. -1.
        -12    1    3    3    0    0  0.45270780366E+02 -0.13848485813E+01  0.14837450287E+02  0.47660374437E+02  0.00000000000E+00 0.  1.
        -11    1    4    4    0    0  0.26617400193E+02 -0.17068805441E+02  0.20787154475E+02  0.37840928945E+02  0.00000000000E+00 0. -1.
         11    1    4    4    0    0 -0.45068642834E+02 -0.19168485693E+02  0.27439911122E+03  0.27873551200E+03  0.00000000000E+00 0.  1.
          2    1    1    2  501    0  0.80692274651E+01  0.51105693553E+02  0.25490765234E+03  0.26010539320E+03  0.00000000000E+00 0. -1.
<scales pt_clust_5="13000.00000" pt_clust_6="13000.00000" pt_clust_7="13000.00000" pt_clust_8="13000.00000" pt_clust_9="51.73881"></scales>
<clustering>
<clus scale="   51.739">  1  9  2 -1</clus>
<clus scale="   80.888">  5  6 -1 -1</clus>
<clus scale="   82.033">  2  5  1 -1</clus>
<clus scale="  106.921">  7  8 -1 -1</clus>
<clus scale="   51.739">  1  5  2 -1</clus>
</clustering>
</event>
<event>
 9    1  0.6014990E-005  0.1898359E+03  0.7546771E-02  0.1191547E+00
          1   -1    0    0  502    0 -0.00000000000E+00  0.00000000000E+00  0.87175727698E+03  0.87175727698E+03  0.00000000000E+00 0. -1.
         21   -1    0    0  501  502  0.00000000000E+00 -0.00000000000E+00 -0.86100073993E+02  0.86100073993E+02  0.00000000000E+00 0.  1.
        -24    2    1    2    0    0 -0.41713155100E+02 -0.69043103495E+01  0.87965098542E+02  0.12581274339E+03  0.79393520059E+02 0.  0.
         23    2    1    2    0    0 -0.14218505013E+03 -0.68482605533E+02  0.11287012088E+03  0.21437277770E+03  0.91156831296E+02 0.  0.
         13    1    3    3    0    0 -0.56306474203E+02  0.17904380046E+02  0.71128172278E+02  0.92467306404E+02  0.00000000000E+00 0. -1.
        -14    1    3    3    0    0  0.14593319103E+02 -0.24808690396E+02  0.16836926264E+02  0.33345436983E+02  0.00000000000E+00 0.  1.
        -13    1    4    4    0    0 -0.49819861846E+02  0.13919065496E+02  0.84122106878E+01  0.52407292501E+02  0.00000000000E+00 0.  1.
         13    1    4    4    0    0 -0.92365188282E+02 -0.82401671029E+02  0.10445791019E+03  0.16196548520E+03  0.00000000000E+00 0. -1.
          2    1    1    2  501    0  0.18389820523E+03  0.75386915883E+02  0.58482198356E+03  0.61767182988E+03  0.00000000000E+00 0. -1.
<scales pt_clust_5="13000.00000" pt_clust_6="13000.00000" pt_clust_7="13000.00000" pt_clust_8="13000.00000" pt_clust_9="166.51760"></scales>
<clustering>
<clus scale="   79.394">  5  6 -1 -1</clus>
<clus scale="   89.950">  1  5  2 -1</clus>
<clus scale="   91.157">  7  8 -1 -1</clus>
<clus scale="  166.518">  2  9  1 -1</clus>
<clus scale="  166.518">  2  5  1 -1</clus>
</clustering>
</event>
<event>
 9    1  0.6014990E-005  0.1520117E+03  0.7546771E-02  0.1199747E+00
          1   -1    0    0  502    0 -0.00000000000E+00  0.00000000000E+00  0.74842805312E+02  0.74842805312E+02  0.00000000000E+00 0. -1.
         21   -1    0    0  501  502  0.00000000000E+00 -0.00000000000E+00 -0.13893561530E+04  0.13893561530E+04  0.00000000000E+00 0. -1.
         23    2    1    2    0    0 -0.10158436819E+03 -0.68219242663E+02 -0.52532184498E+02  0.16101002843E+03  0.90506076690E+02 0.  0.
        -24    2    1    2    0    0  0.16631839741E+03 -0.46086593957E+02 -0.83461442641E+03  0.85608866537E+03  0.80751338893E+02 0.  0.
         13    1    4    4    0    0  0.91749845733E+02 -0.66231741621E+02 -0.51220497248E+03  0.52455563253E+03  0.00000000000E+00 0. -1.
        -14    1    4    4    0    0  0.74568551680E+02  0.20145147664E+02 -0.32240945394E+03  0.33153303284E+03  0.00000000000E+00 0.  1.
        -13    1    3    3    0    0 -0.62946504267E+02 -0.13579761597E+02 -0.66585395821E+02  0.92629840014E+02  0.00000000000E+00 0.  1.
         13    1    3    3    0    0 -0.38637863919E+02 -0.54639481066E+02  0.14053211323E+02  0.68380188417E+02  0.00000000000E+00 0. -1.
          2    1    1    2  501    0 -0.64734029227E+02  0.11430583662E+03 -0.42736673678E+03  0.44710026452E+03  0.00000000000E+00 0. -1.
<scales pt_clust_5="13000.00000" pt_clust_6="13000.00000" pt_clust_7="13000.00000" pt_clust_8="13000.00000" pt_clust_9="131.36331"></scales>
<clustering>
<clus scale="   80.751">  5  6 -1 -1</clus>
<clus scale="   90.506">  7  8 -1 -1</clus>
<clus scale="  131.363">  2  9  1 -1</clus>
<clus scale="  146.414">  2  5  1 -1</clus>
<clus scale="  131.363">  2  5  1 -1</clus>
</clustering>
</event>
<event>
 9    1  0.6440306E-005  0.1124608E+03  0.7546771E-02  0.1260724E+00
         21   -1    0    0  501  502  0.00000000000E+00  0.00000000000E+00  0.33564577622E+03  0.33564577622E+03  0.00000000000E+00 0. -1.
          1   -1    0    0  502    0 -0.00000000000E+00 -0.00000000000E+00 -0.24471308739E+03  0.24471308739E+03  0.00000000000E+00 0. -1.
         23    2    1    2    0    0 -0.12947109150E+02 -0.69886774203E+02 -0.21106900632E+03  0.24063426800E+03  0.91120451382E+02 0.  0.
        -24    2    1    2    0    0  0.25838008319E+02  0.20656952430E+02  0.10023440343E+03  0.13163857820E+03  0.78660455643E+02 0.  0.
         11    1    4    4    0    0 -0.26943468874E+02  0.17446663919E+02  0.32142807945E+02  0.45425727286E+02  0.00000000000E+00 0. -1.
        -12    1    4    4    0    0  0.52781477193E+02  0.32102885112E+01  0.68091595481E+02  0.86212850911E+02  0.00000000000E+00 0.  1.
        -11    1    3    3    0    0 -0.11887816598E+02  0.16563713561E+02 -0.12137615421E+02  0.23727589395E+02  0.00000000000E+00 0.  1.
         11    1    3    3    0    0 -0.10592925522E+01 -0.86450487764E+02 -0.19893139090E+03  0.21690667860E+03  0.00000000000E+00 0. -1.
          2    1    1    2  501    0 -0.12890899169E+02  0.49229821773E+02  0.20176729173E+03  0.20808601742E+03  0.00000000000E+00 0. -1.
<scales pt_clust_5="13000.00000" pt_clust_6="13000.00000" pt_clust_7="13000.00000" pt_clust_8="13000.00000" pt_clust_9="50.88959"></scales>
<clustering>
<clus scale="   50.890">  1  9  2 -1</clus>
<clus scale="   78.660">  5  6 -1 -1</clus>
<clus scale="   91.120">  7  8 -1 -1</clus>
<clus scale="  102.625">  1  5  2 -1</clus>
<clus scale="   50.890">  1  5  2 -1</clus>
</clustering>
</event>
<event>
 9    1  0.6014990E-005  0.1040152E+03  0.7546771E-02  0.1288193E+00
          1   -1    0    0  502    0 -0.00000000000E+00  0.00000000000E+00  0.17262493633E+03  0.17262493633E+03  0.00000000000E+00 0. -1.
         21   -1    0    0  501  502  0.00000000000E+00 -0.00000000000E+00 -0.14841600936E+03  0.14841600936E+03  0.00000000000E+00 0.  1.
        -24    2    1    2    0    0 -0.42412815079E+01 -0.50627889721E+02  0.10224254135E+03  0.13109482260E+03  0.64429368804E+02 0.  0.
         23    2    1    2    0    0  0.22288755893E+02  0.58822790897E+01  0.21914004121E-03  0.98201040522E+02  0.95457082047E+02 0.  0.
         13    1    3    3    0    0 -0.22767799721E+02 -0.47593891995E+02  0.98805790543E+02  0.11200953309E+03  0.00000000000E+00 0. -1.
        -14    1    3    3    0    0  0.18526518213E+02 -0.30339977264E+01  0.34367508041E+01  0.19085289503E+02  0.00000000000E+00 0.  1.
        -13    1    4    4    0    0 -0.35862639085E+02 -0.51125869622E+01 -0.11307012130E+02  0.37948859678E+02  0.00000000000E+00 0. -1.
         13    1    4    4    0    0  0.58151394978E+02  0.10994866052E+02  0.11307231270E+02  0.60252180844E+02  0.00000000000E+00 0.  1.
          2    1    1    2  501    0 -0.18047474386E+02  0.44745610631E+02 -0.78033833521E+02  0.91745082574E+02  0.00000000000E+00 0. -1.
<scales pt_clust_5="13000.00000" pt_clust_6="13000.00000" pt_clust_7="13000.00000" pt_clust_8="13000.00000" pt_clust_9="48.24812"></scales>
<clustering>
<clus scale="   48.248">  2  9  1 -1</clus>
<clus scale="   64.429">  5  6 -1 -1</clus>
<clus scale="   76.539">  1  5  2 -1</clus>
<clus scale="   95.457">  7  8 -1 -1</clus>
<clus scale="   48.248">  2  5  1 -1</clus>
</clustering>
</event>
<event>
 9    1  0.6118968E-005  0.1209033E+03  0.7546771E-02  0.1245907E+00
          1   -1    0    0  502    0 -0.00000000000E+00  0.00000000000E+00  0.33866449127E+03  0.33866449127E+03  0.00000000000E+00 0. -1.
         21   -1    0    0  501  502  0.00000000000E+00 -0.00000000000E+00 -0.91586281600E+02  0.91586281600E+02  0.00000000000E+00 0. -1.
         23    2    1    2    0    0  0.84775684391E+02 -0.22056509940E+02  0.24451208807E+03  0.27556455200E+03  0.92066578146E+02 0.  0.
        -24    2    1    2    0    0 -0.44598839101E+02 -0.86036665003E+01 -0.28932764440E+02  0.95134519480E+02  0.78424437596E+02 0.  0.
         13    1    4    4    0    0 -0.56422582468E+02 -0.31405267014E+02 -0.24523656262E+02  0.69073933760E+02  0.00000000000E+00 0. -1.
        -14    1    4    4    0    0  0.11823743367E+02  0.22801600513E+02 -0.44091081775E+01  0.26060585721E+02  0.00000000000E+00 0.  1.
        -13    1    3    3    0    0 -0.19960919246E+02 -0.28971749515E+01  0.31137079604E+02  0.37099186596E+02  0.00000000000E+00 0.  1.
         13    1    3    3    0    0  0.10473660364E+03 -0.19159334988E+02  0.21337500847E+03  0.23846536540E+03  0.00000000000E+00 0. -1.
          2    1    1    2  501    0 -0.40176845291E+02  0.30660176440E+02  0.31498886040E+02  0.59551701392E+02  0.00000000000E+00 0. -1.
<scales pt_clust_5="13000.00000" pt_clust_6="13000.00000" pt_clust_7="13000.00000" pt_clust_8="13000.00000" pt_clust_9="50.53934"></scales>
<clustering>
<clus scale="   50.539">  2  9  1 -1</clus>
<clus scale="   78.424">  5  6 -1 -1</clus>
<clus scale="   92.067">  7  8 -1 -1</clus>
<clus scale="  110.868">  2  5  1 -1</clus>
<clus scale="   50.539">  2  5  1 -1</clus>
</clustering>
</event>
<event>
 9    1  0.6014990E-005  0.9998951E+02  0.7546771E-02  0.1287258E+00
         21   -1    0    0  501  502  0.00000000000E+00  0.00000000000E+00  0.19153145204E+02  0.19153145204E+02  0.00000000000E+00 0.  1.
          1   -1    0    0  502    0 -0.00000000000E+00 -0.00000000000E+00 -0.10312256756E+04  0.10312256756E+04  0.00000000000E+00 0. -1.
        -24    2    1    2    0    0  0.42101974920E+02 -0.17954221926E+02 -0.38484850130E+03  0.39562256632E+03  0.79460151375E+02 0.  0.
         23    2    1    2    0    0  0.94438953376E+01  0.45363749525E+02 -0.21859491721E+03  0.24197785143E+03  0.92857341237E+02 0.  0.
         11    1    3    3    0    0  0.41960950544E+02  0.23336729602E+02 -0.25095357915E+03  0.25550542696E+03  0.00000000000E+00 0. -1.
        -12    1    3    3    0    0  0.14102437610E+00 -0.41290951528E+02 -0.13389492215E+03  0.14011713937E+03  0.00000000000E+00 0.  1.
        -13    1    4    4    0    0  0.24725150976E+02  0.67430237635E+02 -0.18814337062E+03  0.20138544621E+03  0.00000000000E+00 0.  1.
         13    1    4    4    0    0 -0.15281255638E+02 -0.22066488111E+02 -0.30451546592E+02  0.40592405216E+02  0.00000000000E+00 0. -1.
          2    1    1    2  501    0 -0.51545870257E+02 -0.27409527598E+02 -0.40862911193E+03  0.41277840309E+03  0.00000000000E+00 0. -1.
<scales pt_clust_5="13000.00000" pt_clust_6="13000.00000" pt_clust_7="13000.00000" pt_clust_8="13000.00000" pt_clust_9="58.38033"></scales>
<clustering>
<clus scale="   58.380">  1  9  2 -1</clus>
<clus scale="   79.460">  5  6 -1 -1</clus>
<clus scale="   87.689">  2  5  1 -1</clus>
<clus scale="   92.857">  7  8 -1 -1</clus>
<clus scale="   58.380">  1  5  2 -1</clus>
</clustering>
</event>
<event>
 9    1  0.6014990E-005  0.1553874E+03  0.7546771E-02  0.1196383E+00
         21   -1    0    0  501  502  0.00000000000E+00  0.00000000000E+00  0.99646625623E+02  0.99646625623E+02  0.00000000000E+00 0.  1.
          1   -1    0    0  502    0 -0.00000000000E+00 -0.00000000000E+00 -0.32512694726E+03  0.32512694726E+03  0.00000000000E+00 0. -1.
         23    2    1    2    0    0  0.31206997699E+02 -0.11963030155E+03 -0.14363050058E+03  0.21004613210E+03  0.90577983863E+02 0.  0.
        -24    2    1    2    0    0 -0.87658178836E+01  0.13036970272E+03 -0.10220869724E+03  0.18258051047E+03  0.76262219101E+02 0.  0.
         13    1    4    4    0    0 -0.28967908950E+02  0.54851326330E+02 -0.80157750066E+02  0.10135616728E+03  0.00000000000E+00 0. -1.
        -14    1    4    4    0    0  0.20202091067E+02  0.75518376394E+02 -0.22050947169E+02  0.81224343196E+02  0.00000000000E+00 0.  1.
        -13    1    3    3    0    0  0.40704859365E+02 -0.38024780482E+02 -0.15465383648E+02  0.57809580503E+02  0.00000000000E+00 0.  1.
         13    1    3    3    0    0 -0.94978616659E+01 -0.81605521064E+02 -0.12816511693E+03  0.15223655160E+03  0.00000000000E+00 0. -1.
          2    1    1    2  501    0 -0.22441179815E+02 -0.10739401178E+02  0.20358876177E+02  0.32146930310E+02  0.00000000000E+00 0. -1.
<scales pt_clust_5="13000.00000" pt_clust_6="13000.00000" pt_clust_7="13000.00000" pt_clust_8="13000.00000" pt_clust_9="24.87853"></scales>
<clustering>
<clus scale="   24.879">  1  9  2 -1</clus>
<clus scale="   76.262">  5  6 -1 -1</clus>
<clus scale="   90.578">  7  8 -1 -1</clus>
<clus scale="  147.502">  1  5  2 -1</clus>
<clus scale="   24.879">  1  5  2 -1</clus>
</clustering>
</event>
<event>
 9    1  0.6014990E-005  0.1068678E+03  0.7546771E-02  0.1272412E+00
         21   -1    0    0  501  502  0.00000000000E+00  0.00000000000E+00  0.12055744548E+03  0.12055744548E+03  0.00000000000E+00 0. -1.
          3   -1    0    0  502    0 -0.00000000000E+00 -0.00000000000E+00 -0.13037337416E+03  0.13037337416E+03  0.00000000000E+00 0. -1.
         23    2    1    2    0    0  0.19723344827E+02 -0.38809256108E+02 -0.39018644420E+02  0.10911670084E+03  0.92134852792E+02 0.  0.
        -24    2    1    2    0    0 -0.37111361115E+02  0.64252453921E+02  0.21924526861E+02  0.11014913091E+03  0.78399714304E+02 0.  0.
         13    1    4    4    0    0 -0.52620337901E+02  0.70006577590E+02  0.69784485663E+01  0.87855105777E+02  0.00000000000E+00 0. -1.
        -14    1    4    4    0    0  0.15508976786E+02 -0.57541236689E+01  0.14946078295E+02  0.22294025131E+02  0.00000000000E+00 0.  1.
        -11    1    3    3    0    0  0.19745139055E+02 -0.60386916382E+02 -0.53559585401E+02  0.83096807248E+02  0.00000000000E+00 0. -1.
         11    1    3    3    0    0 -0.21794228610E-01  0.21577660274E+02  0.14540940981E+02  0.26019893592E+02  0.00000000000E+00 0.  1.
          4    1    1    2  501    0  0.17388016288E+02 -0.25443197813E+02  0.72781888803E+01  0.31664987901E+02  0.00000000000E+00 0. -1.
<scales pt_clust_5="13000.00000" pt_clust_6="13000.00000" pt_clust_7="13000.00000" pt_clust_8="13000.00000" pt_clust_9="30.81719"></scales>
<clustering>
<clus scale="   30.817">  1  9  2 -1</clus>
<clus scale="   78.400">  5  6 -1 -1</clus>
<clus scale="   92.135">  7  8 -1 -1</clus>
<clus scale="   95.281">  1  5  2 -1</clus>
<clus scale="   30.817">  1  5  2 -1</clus>
</clustering>
</event>
<event>
 9    1  0.6014990E-005  0.9648464E+02  0.7546771E-02  0.1290526E+00
         -4   -1    0    0    0  501 -0.00000000000E+00  0.00000000000E+00  0.43943953180E+03  0.43943953180E+03  0.00000000000E+00 0.  1.
         21   -1    0    0  501  502  0.00000000000E+00 -0.00000000000E+00 -0.66345719829E+02  0.66345719829E+02  0.00000000000E+00 0. -1.
        -24    2    1    2    0    0  0.38561879122E+02  0.16121420687E+02  0.36858152471E+03  0.38015129030E+03  0.83160954944E+02 0.  0.
         23    2    1    2    0    0 -0.14353174607E+02 -0.19133619416E+02  0.23793441222E+02  0.94538984031E+02  0.88314113499E+02 0.  0.
         13    1    3    3    0    0  0.45761528924E+02 -0.23619318153E+02  0.23606795394E+03  0.24161967759E+03  0.00000000000E+00 0. -1.
        -14    1    3    3    0    0 -0.71996498026E+01  0.39740738840E+02  0.13251357077E+03  0.13853161271E+03  0.00000000000E+00 0.  1.
        -13    1    4    4    0    0  0.35556915916E+02 -0.21261851959E+02  0.84674005568E+01  0.42285428819E+02  0.00000000000E+00 0. -1.
         13    1    4    4    0    0 -0.49910090523E+02  0.21282325432E+01  0.15326040665E+02  0.52253555212E+02  0.00000000000E+00 0.  1.
         -3    1    1    2    0  502 -0.24208704515E+02  0.30121987296E+01 -0.19281153962E+02  0.31094977305E+02  0.00000000000E+00 0.  1.
<scales pt_clust_5="13000.00000" pt_clust_6="13000.00000" pt_clust_7="13000.00000" pt_clust_8="13000.00000" pt_clust_9="24.39538"></scales>
<clustering>
<clus scale="   24.395">  2  9  1 -1</clus>
<clus scale="   83.161">  5  6 -1 -1</clus>
<clus scale="   88.314">  7  8 -1 -1</clus>
<clus scale="   91.791">  1  5  2 -1</clus>
<clus scale="   24.395">  2  5  1 -1</clus>
</clustering>
</event>
<event>
 9    1  0.6014990E-005  0.1347548E+03  0.7546771E-02  0.1246136E+00
         -2   -1    0    0    0  501 -0.00000000000E+00  0.00000000000E+00  0.49451985497E+02  0.49451985497E+02  0.00000000000E+00 0.  1.
         21   -1    0    0  501  502  0.00000000000E+00 -0.00000000000E+00 -0.51421691391E+03  0.51421691391E+03  0.00000000000E+00 0.  1.
        -24    2    1    2    0    0  0.16295372115E+02  0.95620582822E+01 -0.15753644403E+03  0.17655263145E+03  0.77434671584E+02 0.  0.
         23    2    1    2    0    0  0.74964803131E+02  0.48508493329E+02 -0.16448789062E+03  0.20801996521E+03  0.90792313176E+02 0.  0.
         11    1    3    3    0    0 -0.15383884230E+02  0.17138111669E+02 -0.13498434056E+03  0.13693484203E+03  0.00000000000E+00 0. -1.
        -12    1    3    3    0    0  0.31679256344E+02 -0.75760533872E+01 -0.22552103466E+02  0.39617789416E+02  0.00000000000E+00 0.  1.
        -11    1    4    4    0    0  0.69745230051E+02  0.72775569764E+02 -0.14432382105E+03  0.17603989886E+03  0.00000000000E+00 0.  1.
         11    1    4    4    0    0  0.52195730799E+01 -0.24267076436E+02 -0.20164069566E+02  0.31980066343E+02  0.00000000000E+00 0. -1.
         -1    1    1    2    0  502 -0.91260175245E+02 -0.58070551611E+02 -0.14274059377E+03  0.17909630275E+03  0.00000000000E+00 0.  1.
<scales pt_clust_5="13000.00000" pt_clust_6="13000.00000" pt_clust_7="13000.00000" pt_clust_8="13000.00000" pt_clust_9="99.57723"></scales>
<clustering>
<clus scale="   77.435">  5  6 -1 -1</clus>
<clus scale="   79.706">  1  5  2 -1</clus>
<clus scale="   90.792">  7  8 -1 -1</clus>
<clus scale="   99.577">  2  9  1 -1</clus>
<clus scale="   99.577">  2  5  1 -1</clus>
</clustering>
</event>
<event>
 9    1  0.6014990E-005  0.9411102E+02  0.7546771E-02  0.1298228E+00
         21   -1    0    0  501  502  0.00000000000E+00  0.00000000000E+00  0.39897386554E+02  0.39897386554E+02  0.00000000000E+00 0. -1.
         -2   -1    0    0    0  501 -0.00000000000E+00 -0.00000000000E+00 -0.46617109486E+03  0.46617109486E+03  0.00000000000E+00 0.  1.
         23    2    1    2    0    0  0.11151120050E+02 -0.39211152387E+01 -0.19576709245E+03  0.21638395899E+03  0.91419585424E+02 0.  0.
        -24    2    1    2    0    0  0.16212955179E+02 -0.57049584676E+02 -0.17651499086E+03  0.20376994606E+03  0.82747410189E+02 0.  0.
         11    1    4    4    0    0  0.41556281759E+02 -0.62437791523E+02 -0.11863710227E+03  0.14035727412E+03  0.00000000000E+00 0. -1.
        -12    1    4    4    0    0 -0.25343326580E+02  0.53882068464E+01 -0.57877888589E+02  0.63412671941E+02  0.00000000000E+00 0.  1.
        -13    1    3    3    0    0  0.11451272760E+02  0.31121042660E+02 -0.23637155424E+02  0.40723040906E+02  0.00000000000E+00 0. -1.
         13    1    3    3    0    0 -0.30015271045E+00 -0.35042157899E+02 -0.17212993702E+03  0.17566091808E+03  0.00000000000E+00 0.  1.
         -1    1    1    2    0  502 -0.27364075229E+02  0.60970699915E+02 -0.53991624993E+02  0.85914576357E+02  0.00000000000E+00 0.  1.
<scales pt_clust_5="13000.00000" pt_clust_6="13000.00000" pt_clust_7="13000.00000" pt_clust_8="13000.00000" pt_clust_9="66.82978"></scales>
<clustering>
<clus scale="   66.830">  1  9  2 -1</clus>
<clus scale="   82.747">  5  6 -1 -1</clus>
<clus scale="   85.712">  1  5  2 -1</clus>
<clus scale="   91.420">  7  8 -1 -1</clus>
<clus scale="   66.830">  1  5  2 -1</clus>
</clustering>
</event>
<event>
 9    1  0.6014990E-005  0.1640702E+03  0.7546771E-02  0.1185619E+00
          1   -1    0    0  502    0 -0.00000000000E+00  0.00000000000E+00  0.50527218135E+03  0.50527218135E+03  0.00000000000E+00 0. -1.
         21   -1    0    0  501  502  0.00000000000E+00 -0.00000000000E+00 -0.16498704095E+03  0.16498704095E+03  0.00000000000E+00 0. -1.
         23    2    1    2    0    0  0.96481830758E+01  0.11288222378E+03  0.21824623766E+03  0.26125325969E+03  0.88240362448E+02 0.  0.
        -24    2    1    2    0    0  0.55210043534E+02 -0.22789204845E+03  0.12490682655E+03  0.27693751704E+03  0.78164815448E+02 0.  0.
         13    1    4    4    0    0  0.68557343525E+02 -0.12218535082E+03  0.79795861943E+02  0.16123507339E+03  0.00000000000E+00 0. -1.
        -14    1    4    4    0    0 -0.13347299992E+02 -0.10570669763E+03  0.45110964603E+02  0.11570244366E+03  0.00000000000E+00 0.  1.
        -13    1    3    3    0    0 -0.69335452262E+00  0.33446512584E+02  0.54707636683E+01  0.33898070736E+02  0.00000000000E+00 0.  1.
         13    1    3    3    0    0  0.10341537598E+02  0.79435711199E+02  0.21277547399E+03  0.22735518895E+03  0.00000000000E+00 0. -1.
          2    1    1    2  501    0 -0.64858226610E+02  0.11500982467E+03 -0.28679238022E+01  0.13206844557E+03  0.00000000000E+00 0. -1.
<scales pt_clust_5="13000.00000" pt_clust_6="13000.00000" pt_clust_7="13000.00000" pt_clust_8="13000.00000" pt_clust_9="132.03730"></scales>
<clustering>
<clus scale="   78.165">  5  6 -1 -1</clus>
<clus scale="   88.240">  7  8 -1 -1</clus>
<clus scale="  132.037">  2  9  1 -1</clus>
<clus scale="  158.879">  2  5  1 -1</clus>
<clus scale="  132.037">  2  5  1 -1</clus>
</clustering>
</event>
<event>
 9    1  0.6014990E-005  0.1023099E+03  0.7546771E-02  0.1280446E+00
         21   -1    0    0  501  502  0.00000000000E+00  0.00000000000E+00  0.44021671557E+03  0.44021671557E+03  0.00000000000E+00 0. -1.
          1   -1    0    0  502    0 -0.00000000000E+00 -0.00000000000E+00 -0.64686673606E+02  0.64686673606E+02  0.00000000000E+00 0. -1.
        -24    2    1    2    0    0  0.35645516418E+02 -0.17397556013E+02  0.21732105636E+02  0.91782340528E+02  0.79865110164E+02 0.  0.
         23    2    1    2    0    0 -0.37054899328E+02  0.60819664911E+02  0.90921075369E+02  0.14667835325E+03  0.90420131402E+02 0.  0.
         11    1    3    3    0    0  0.43231887905E+02  0.15479005075E+02 -0.82389159972E+01  0.46652711248E+02  0.00000000000E+00 0. -1.
        -12    1    3    3    0    0 -0.75863714868E+01 -0.32876561087E+02  0.29971021633E+02  0.45129629281E+02  0.00000000000E+00 0.  1.
        -11    1    4    4    0    0  0.14878739256E+02  0.58720028956E+02  0.64084278781E+02  0.88182841127E+02  0.00000000000E+00 0. -1.
         11    1    4    4    0    0 -0.51933638584E+02  0.20996359557E+01  0.26836796588E+02  0.58495512126E+02  0.00000000000E+00 0.  1.
          2    1    1    2  501    0  0.14093829096E+01 -0.43422108899E+02  0.26287686096E+03  0.26644269540E+03  0.00000000000E+00 0. -1.
<scales pt_clust_5="13000.00000" pt_clust_6="13000.00000" pt_clust_7="13000.00000" pt_clust_8="13000.00000" pt_clust_9="43.44498"></scales>
<clustering>
<clus scale="   43.445">  1  9  2 -1</clus>
<clus scale="   79.865">  5  6 -1 -1</clus>
<clus scale="   90.420">  7  8 -1 -1</clus>
<clus scale="   93.113">  2  5  1 -1</clus>
<clus scale="   43.445">  1  5  2 -1</clus>
</clustering>
</event>
<event>
 9    1  0.6014990E-005  0.1208860E+03  0.7546771E-02  0.1244641E+00
         21   -1    0    0  501  502  0.00000000000E+00  0.00000000000E+00  0.32590072715E+03  0.32590072715E+03  0.00000000000E+00 0. -1.
         -4   -1    0    0    0  501 -0.00000000000E+00 -0.00000000000E+00 -0.66163995851E+02  0.66163995851E+02  0.00000000000E+00 0.  1.
        -24    2    1    2    0    0  0.81672532834E+02  0.35289588901E+02  0.64066208334E+02  0.13676376904E+03  0.81756294969E+02 0.  0.
         23    2    1    2    0    0 -0.66159707129E+02 -0.17426979462E+02  0.85522073056E+02  0.14264039478E+03  0.91386272402E+02 0.  0.
         11    1    3    3    0    0  0.60110189467E+01  0.19560546822E+02  0.55329433145E+02  0.58992317405E+02  0.00000000000E+00 0. -1.
        -12    1    3    3    0    0  0.75661513888E+02  0.15729042079E+02  0.87367751897E+01  0.77771451634E+02  0.00000000000E+00 0.  1.
        -13    1    4    4    0    0 -0.32994433274E+02 -0.50391430564E+02  0.22794094482E+02  0.64401084188E+02  0.00000000000E+00 0.  1.
         13    1    4    4    0    0 -0.33165273855E+02  0.32964451102E+02  0.62727978574E+02  0.78239310594E+02  0.00000000000E+00 0. -1.
         -3    1    1    2    0  502 -0.15512825705E+02 -0.17862609438E+02  0.11014844990E+03  0.11266055918E+03  0.00000000000E+00 0.  1.
<scales pt_clust_5="13000.00000" pt_clust_6="13000.00000" pt_clust_7="13000.00000" pt_clust_8="13000.00000" pt_clust_9="23.65841"></scales>
<clustering>
<clus scale="   23.658">  1  9  2 -1</clus>
<clus scale="   81.756">  5  6 -1 -1</clus>
<clus scale="   91.386">  7  8 -1 -1</clus>
<clus scale="  113.781">  2  5  1 -1</clus>
<clus scale="   23.658">  1  5  2 -1</clus>
</clustering>
</event>
<event>
 9    1  0.6014990E-005  0.1085413E+03  0.7546771E-02  0.1265676E+00
          1   -1    0    0  502    0 -0.00000000000E+00  0.00000000000E+00  0.41231565183E+03  0.41231565183E+03  0.00000000000E+00 0. -1.
         21   -1    0    0  501  502  0.00000000000E+00 -0.00000000000E+00 -0.23196562795E+03  0.23196562795E+03  0.00000000000E+00 0. -1.
        -24    2    1    2    0    0  0.48269228613E+02  0.39887613738E+02  0.36506718271E+03  0.37997049711E+03  0.84750165902E+02 0.  0.
         23    2    1    2    0    0 -0.14187102773E+02  0.29624656217E+02 -0.15251033002E+03  0.18046075705E+03  0.90707165820E+02 0.  0.
         13    1    3    3    0    0  0.56834015068E+02 -0.64523993415E+01  0.22643329677E+03  0.23354609098E+03  0.00000000000E+00 0. -1.
        -14    1    3    3    0    0 -0.85647864544E+01  0.46340013079E+02  0.13863388594E+03  0.14642440613E+03  0.00000000000E+00 0.  1.
        -13    1    4    4    0    0 -0.23918449273E+02 -0.28599621317E+02 -0.64091225907E+02  0.74146583154E+02  0.00000000000E+00 0.  1.
         13    1    4    4    0    0  0.97313464997E+01  0.58224277534E+02 -0.88419104112E+02  0.10631417390E+03  0.00000000000E+00 0. -1.
          2    1    1    2  501    0 -0.34082125840E+02 -0.69512269954E+02 -0.32206828800E+02  0.83850025625E+02  0.00000000000E+00 0. -1.
<scales pt_clust_5="13000.00000" pt_clust_6="13000.00000" pt_clust_7="13000.00000" pt_clust_8="13000.00000" pt_clust_9="77.41800"></scales>
<clustering>
<clus scale="   77.418">  2  9  1 -1</clus>
<clus scale="   84.750">  5  6 -1 -1</clus>
<clus scale="   90.707">  7  8 -1 -1</clus>
<clus scale="  103.615">  1  5  2 -1</clus>
<clus scale="   77.418">  2  5  1 -1</clus>
</clustering>
</event>
<event>
 9    1  0.6014990E-005  0.2460794E+03  0.7546771E-02  0.1133824E+00
         -2   -1    0    0    0  501 -0.00000000000E+00  0.00000000000E+00  0.60753010904E+03  0.60753010904E+03  0.00000000000E+00 0.  1.
         21   -1    0    0  501  502  0.00000000000E+00 -0.00000000000E+00 -0.27339906324E+03  0.27339906324E+03  0.00000000000E+00 0.  1.
         23    2    1    2    0    0 -0.50572727834E+02  0.11959402705E+03  0.80116843554E+02  0.17664298120E+03  0.89015178939E+02 0.  0.
        -24    2    1    2    0    0  0.26121406741E+03 -0.20957215623E+02  0.35691223563E+03  0.44994980008E+03  0.79978026633E+02 0.  0.
         13    1    4    4    0    0  0.30668958195E+02  0.88946406456E+01  0.12218932493E+02  0.34190670369E+02  0.00000000000E+00 0. -1.
        -14    1    4    4    0    0  0.23054510922E+03 -0.29851856268E+02  0.34469330314E+03  0.41575912971E+03  0.00000000000E+00 0.  1.
        -13    1    3    3    0    0 -0.56863889943E+02  0.28291098221E+02  0.48149821781E+02  0.79701277001E+02  0.00000000000E+00 0. -1.
         13    1    3    3    0    0  0.62911621084E+01  0.91302928824E+02  0.31967021772E+02  0.96941704202E+02  0.00000000000E+00 0.  1.
         -1    1    1    2    0  502 -0.21064133958E+03 -0.98636811423E+02 -0.10289803339E+03  0.25433639099E+03  0.00000000000E+00 0.  1.
<scales pt_clust_5="13000.00000" pt_clust_6="13000.00000" pt_clust_7="13000.00000" pt_clust_8="13000.00000" pt_clust_9="232.71997"></scales>
<clustering>
<clus scale="   79.978">  5  6 -1 -1</clus>
<clus scale="   89.015">  7  8 -1 -1</clus>
<clus scale="  157.429">  1  7  2 -1</clus>
<clus scale="  232.720">  2  9  1 -1</clus>
<clus scale="  232.720">  2  5  1 -1</clus>
</clustering>
</event>
<event>
 9    1  0.6014990E-005  0.1009677E+03  0.7546771E-02  0.1278620E+00
         21   -1    0    0  501  502  0.00000000000E+00  0.00000000000E+00  0.19946977397E+03  0.19946977397E+03  0.00000000000E+00 0. -1.
          3   -1    0    0  502    0 -0.00000000000E+00 -0.00000000000E+00 -0.11074903863E+03  0.11074903863E+03  0.00000000000E+00 0. -1.
        -24    2    1    2    0    0 -0.45014668050E+01 -0.57848487168E+02 -0.47278843902E+02  0.10948330794E+03  0.79903660532E+02 0.  0.
         23    2    1    2    0    0 -0.19640620198E+02  0.79259901415E+02  0.11777499073E+03  0.16367576030E+03  0.79062760728E+02 0.  0.
         11    1    3    3    0    0 -0.30341161249E+02 -0.44279628074E+02 -0.57404513848E+02  0.78591028359E+02  0.00000000000E+00 0. -1.
        -12    1    3    3    0    0  0.25839694444E+02 -0.13568859094E+02  0.10125669946E+02  0.30892279584E+02  0.00000000000E+00 0.  1.
        -13    1    4    4    0    0 -0.33252992808E+02  0.35593127821E+02  0.10567841791E+03  0.11636391318E+03  0.00000000000E+00 0. -1.
         13    1    4    4    0    0  0.13612372610E+02  0.43666773595E+02  0.12096572829E+02  0.47311847126E+02  0.00000000000E+00 0.  1.
          4    1    1    2  501    0  0.24142087003E+02 -0.21411414247E+02  0.18224588514E+02  0.37059744352E+02  0.00000000000E+00 0. -1.
<scales pt_clust_5="13000.00000" pt_clust_6="13000.00000" pt_clust_7="13000.00000" pt_clust_8="13000.00000" pt_clust_9="32.26901"></scales>
<clustering>
<clus scale="   32.269">  1  9  2 -1</clus>
<clus scale="   79.063">  7  8 -1 -1</clus>
<clus scale="   79.904">  5  6 -1 -1</clus>
<clus scale="  100.304">  1  7  2 -1</clus>
<clus scale="   32.269">  1  5  2 -1</clus>
</clustering>
</event>
<event>
 9    1  0.6014990E-005  0.9798610E+02  0.7546771E-02  0.1293211E+00
         -4   -1    0    0    0  501 -0.00000000000E+00  0.00000000000E+00  0.90831732890E+03  0.90831732890E+03  0.00000000000E+00 0.  1.
         21   -1    0    0  501  502  0.00000000000E+00 -0.00000000000E+00 -0.41704481597E+02  0.41704481597E+02  0.00000000000E+00 0.  1.
        -24    2    1    2    0    0 -0.18434828176E+02  0.75053213818E+01  0.74361405042E+03  0.74832875202E+03  0.81473261684E+02 0.  0.
         23    2    1    2    0    0 -0.43346331182E+01 -0.15130231490E+02  0.14111127726E+03  0.17161566552E+03  0.96394144705E+02 0.  0.
         11    1    3    3    0    0 -0.17484575194E+02 -0.25162612130E+02  0.11970691947E+03  0.12356623320E+03  0.00000000000E+00 0. -1.
        -12    1    3    3    0    0 -0.95025298222E+00  0.32667933512E+02  0.62390713095E+03  0.62476251881E+03  0.00000000000E+00 0.  1.
        -13    1    4    4    0    0  0.39373556293E+02 -0.32017895733E+02  0.76486323865E+02  0.91790959907E+02  0.00000000000E+00 0. -1.
         13    1    4    4    0    0 -0.43708189411E+02  0.16887664243E+02  0.64624953392E+02  0.79824705612E+02  0.00000000000E+00 0.  1.
         -3    1    1    2    0  502  0.22769461294E+02  0.76249101086E+01 -0.18112480379E+02  0.30077392960E+02  0.00000000000E+00 0.  1.
<scales pt_clust_5="13000.00000" pt_clust_6="13000.00000" pt_clust_7="13000.00000" pt_clust_8="13000.00000" pt_clust_9="24.01224"></scales>
<clustering>
<clus scale="   24.012">  2  9  1 -1</clus>
<clus scale="   81.473">  5  6 -1 -1</clus>
<clus scale="   83.351">  1  5  2 -1</clus>
<clus scale="   96.394">  7  8 -1 -1</clus>
<clus scale="   24.012">  2  5  1 -1</clus>
</clustering>
</event>
<event>
 9    1  0.6014990E-005  0.1398364E+03  0.7546771E-02  0.1216488E+00
          3   -1    0    0  502    0 -0.00000000000E+00  0.00000000000E+00  0.89386167144E+03  0.89386167144E+03  0.00000000000E+00 0. -1.
         21   -1    0    0  501  502  0.00000000000E+00 -0.00000000000E+00 -0.38384506844E+02  0.38384506844E+02  0.00000000000E+00 0.  1.
         23    2    1    2    0    0  0.11059557923E+03  0.46837526306E+02  0.53207998733E+03  0.55344164899E+03  0.93613086175E+02 0.  0.
        -24    2    1    2    0    0 -0.47872267646E+02 -0.58661398889E+02  0.10939180149E+03  0.15548341824E+03  0.80471196010E+02 0.  0.
         13    1    4    4    0    0 -0.30580100938E+02 -0.50163843756E+02  0.11991234440E+03  0.13353098567E+03  0.00000000000E+00 0. -1.
        -14    1    4    4    0    0 -0.17292166708E+02 -0.84975551330E+01 -0.10520542916E+02  0.21952432575E+02  0.00000000000E+00 0.  1.
        -13    1    3    3    0    0  0.33933735983E+02 -0.21657752341E+02  0.76931620411E+02  0.86827592926E+02  0.00000000000E+00 0.  1.
         13    1    3    3    0    0  0.76661843245E+02  0.68495278647E+02  0.45514836692E+03  0.46661405606E+03  0.00000000000E+00 0. -1.
          4    1    1    2  501    0 -0.62723311581E+02  0.11823872583E+02  0.21400537578E+03  0.22332111105E+03  0.00000000000E+00 0. -1.
<scales pt_clust_5="13000.00000" pt_clust_6="13000.00000" pt_clust_7="13000.00000" pt_clust_8="13000.00000" pt_clust_9="63.82806"></scales>
<clustering>
<clus scale="   63.828">  2  9  1 -1</clus>
<clus scale="   80.471">  5  6 -1 -1</clus>
<clus scale="   93.613">  7  8 -1 -1</clus>
<clus scale="  131.402">  2  5  1 -1</clus>
<clus scale="   63.828">  2  5  1 -1</clus>
</clustering>
</event>
<event>
 9    1  0.6014990E-005  0.1668681E+03  0.7546771E-02  0.1182857E+00
         -2   -1    0    0    0  501 -0.00000000000E+00  0.00000000000E+00  0.11805588047E+03  0.11805588047E+03  0.00000000000E+00 0.  1.
         21   -1    0    0  501  502  0.00000000000E+00 -0.00000000000E+00 -0.62508156579E+03  0.62508156579E+03  0.00000000000E+00 0. -1.
        -24    2    1    2    0    0  0.14130754129E+03 -0.23732095836E+02  0.31639671631E+02  0.16708389973E+03  0.79905739037E+02 0.  0.
         23    2    1    2    0    0 -0.12166296491E+03 -0.13227679072E+01 -0.31288966702E+03  0.34804407800E+03  0.91821074692E+02 0.  0.
         13    1    3    3    0    0  0.31224826724E+02 -0.38918239601E+02 -0.48249221669E+01  0.50128824558E+02  0.00000000000E+00 0. -1.
        -14    1    3    3    0    0  0.11008271456E+03  0.15186143765E+02  0.36464593798E+02  0.11695507517E+03  0.00000000000E+00 0.  1.
        -13    1    4    4    0    0 -0.75913370385E+02  0.17982448166E+02 -0.87408437491E+02  0.11715990436E+03  0.00000000000E+00 0.  1.
         13    1    4    4    0    0 -0.45749594521E+02 -0.19305216073E+02 -0.22548122953E+03  0.23088417364E+03  0.00000000000E+00 0. -1.
         -1    1    1    2    0  502 -0.19644576382E+02  0.25054863743E+02 -0.22577568992E+03  0.22800946853E+03  0.00000000000E+00 0.  1.
<scales pt_clust_5="13000.00000" pt_clust_6="13000.00000" pt_clust_7="13000.00000" pt_clust_8="13000.00000" pt_clust_9="31.83796"></scales>
<clustering>
<clus scale="   31.838">  2  9  1 -1</clus>
<clus scale="   79.906">  5  6 -1 -1</clus>
<clus scale="   91.821">  7  8 -1 -1</clus>
<clus scale="  160.620">  1  5  2 -1</clus>
<clus scale="   31.838">  2  5  1 -1</clus>
</clustering>
</event>
<event>
 9    1  0.6014990E-005  0.1231183E+03  0.7546771E-02  0.1251733E+00
         -2   -1    0    0    0  501 -0.00000000000E+00  0.00000000000E+00  0.47068096897E+03  0.47068096897E+03  0.00000000000E+00 0.  1.
         21   -1    0    0  501  502  0.00000000000E+00 -0.00000000000E+00 -0.51553438438E+02  0.51553438438E+02  0.00000000000E+00 0. -1.
         23    2    1    2    0    0  0.10341979998E+01  0.13103340531E+02  0.14722096403E+03  0.17436725932E+03  0.92504928381E+02 0.  0.
        -24    2    1    2    0    0  0.85403881350E+02  0.25501096644E+02  0.13481460500E+03  0.18126567739E+03  0.82086169344E+02 0.  0.
         13    1    4    4    0    0  0.61745245001E+02  0.40477296253E+02  0.13430549494E+03  0.15326073458E+03  0.00000000000E+00 0. -1.
        -14    1    4    4    0    0  0.23658636348E+02 -0.14976199610E+02  0.50911005858E+00  0.28004942808E+02  0.00000000000E+00 0.  1.
        -11    1    3    3    0    0  0.35929409688E+02 -0.52983320503E+01  0.20622538966E+02  0.41764625181E+02  0.00000000000E+00 0.  1.
         11    1    3    3    0    0 -0.34895211689E+02  0.18401672581E+02  0.12659842506E+03  0.13260263414E+03  0.00000000000E+00 0. -1.
         -1    1    1    2    0  502 -0.86438079349E+02 -0.38604437174E+02  0.13709196151E+03  0.16660147071E+03  0.00000000000E+00 0.  1.
<scales pt_clust_5="13000.00000" pt_clust_6="13000.00000" pt_clust_7="13000.00000" pt_clust_8="13000.00000" pt_clust_9="91.76051"></scales>
<clustering>
<clus scale="   82.086">  5  6 -1 -1</clus>
<clus scale="   92.505">  7  8 -1 -1</clus>
<clus scale="   93.434">  1  7  2 -1</clus>
<clus scale="   91.761">  2  9  1 -1</clus>
<clus scale="   91.761">  2  5  1 -1</clus>
</clustering>
</event>
<event>
 9    1  0.6014990E-005  0.1354568E+03  0.7546771E-02  0.1238161E+00
         21   -1    0    0  501  502  0.00000000000E+00  0.00000000000E+00  0.15144165985E+03  0.15144165985E+03  0.00000000000E+00 0. -1.
          3   -1    0    0  502    0 -0.00000000000E+00 -0.00000000000E+00 -0.26903605086E+03  0.26903605086E+03  0.00000000000E+00 0. -1.
         23    2    1    2    0    0 -0.16648116194E+02 -0.33012470673E+00 -0.18858150927E+01  0.92236366218E+02  0.90701280032E+02 0.  0.
        -24    2    1    2    0    0 -0.90436845920E+02  0.28777303769E+02 -0.16493088065E+03  0.20700081335E+03  0.81487330429E+02 0.  0.
         13    1    4    4    0    0 -0.98723894254E+02  0.49796414117E+01 -0.14138070229E+03  0.17251002030E+03  0.00000000000E+00 0. -1.
        -14    1    4    4    0    0  0.82870483336E+01  0.23797662357E+02 -0.23550178367E+02  0.34490793045E+02  0.00000000000E+00 0.  1.
        -13    1    3    3    0    0  0.86100847879E+01 -0.41669099914E+02  0.65874049482E+01  0.43056257984E+02  0.00000000000E+00 0.  1.
         13    1    3    3    0    0 -0.25258200982E+02  0.41338975207E+02 -0.84732200410E+01  0.49180108233E+02  0.00000000000E+00 0. -1.
          4    1    1    2  501    0  0.10708496211E+03 -0.28447179062E+02  0.49222304740E+02  0.12124053114E+03  0.00000000000E+00 0. -1.
<scales pt_clust_5="13000.00000" pt_clust_6="13000.00000" pt_clust_7="13000.00000" pt_clust_8="13000.00000" pt_clust_9="108.20522"></scales>
<clustering>
<clus scale="   81.487">  5  6 -1 -1</clus>
<clus scale="   90.701">  7  8 -1 -1</clus>
<clus scale="   92.217">  2  7  1 -1</clus>
<clus scale="  108.205">  1  9  2 -1</clus>
<clus scale="  108.205">  1  5  2 -1</clus>
</clustering>
</event>
<event>
 9    1  0.6014990E-005  0.2671859E+03  0.7546771E-02  0.1122451E+00
          1   -1    0    0  502    0 -0.00000000000E+00  0.00000000000E+00  0.30213468234E+03  0.30213468234E+03  0.00000000000E+00 0. -1.
         21   -1    0    0  501  502  0.00000000000E+00 -0.00000000000E+00 -0.42812932793E+03  0.42812932793E+03  0.00000000000E+00 0. -1.
        -24    2    1    2    0    0  0.12405811255E+03  0.67869678742E+02 -0.83809450379E+02  0.18308453647E+03  0.80617708607E+02 0.  0.
         23    2    1    2    0    0 -0.29510644533E+03 -0.16224372230E+03 -0.48971423797E+02  0.35170557493E+03  0.88813127326E+02 0.  0.
         11    1    3    3    0    0  0.70193592244E+02  0.70892135337E+02 -0.81943620491E+02  0.12910302934E+03  0.00000000000E+00 0. -1.
        -12    1    3    3    0    0  0.53864520305E+02 -0.30224565953E+01 -0.18658298887E+01  0.53981507136E+02  0.00000000000E+00 0.  1.
        -13    1    4    4    0    0 -0.19595713474E+03 -0.65314662660E+02 -0.63789662025E+01  0.20665404671E+03  0.00000000000E+00 0. -1.
         13    1    4    4    0    0 -0.99149310594E+02 -0.96929059640E+02 -0.42592457595E+02  0.14505152822E+03  0.00000000000E+00 0.  1.
          2    1    1    2  501    0  0.17104833278E+03  0.94374043557E+02  0.67862285864E+01  0.19547389888E+03  0.00000000000E+00 0. -1.
<scales pt_clust_5="13000.00000" pt_clust_6="13000.00000" pt_clust_7="13000.00000" pt_clust_8="13000.00000" pt_clust_9="251.99315"></scales>
<clustering>
<clus scale="   80.618">  5  6 -1 -1</clus>
<clus scale="   88.813">  7  8 -1 -1</clus>
<clus scale="  162.776">  1  5  2 -1</clus>
<clus scale="  251.993">  2  9  1 -1</clus>
<clus scale="  251.993">  2  5  1 -1</clus>
</clustering>
</event>
<event>
 9    1  0.6387882E-005  0.9944182E+02  0.7546771E-02  0.1287346E+00
         21   -1    0    0  501  502  0.00000000000E+00  0.00000000000E+00  0.30882060415E+03  0.30882060415E+03  0.00000000000E+00 0. -1.
          1   -1    0    0  502    0 -0.00000000000E+00 -0.00000000000E+00 -0.11259573939E+03  0.11259573939E+03  0.00000000000E+00 0. -1.
         23    2    1    2    0    0 -0.31321974744E+02 -0.22242082979E+01  0.43091582337E+02  0.10547590945E+03  0.91006976667E+02 0.  0.
        -24    2    1    2    0    0  0.63679732795E+02 -0.37333300070E+02  0.21190998127E+03  0.23805255762E+03  0.79462546938E+02 0.  0.
         11    1    4    4    0    0  0.74746812025E+02 -0.12097869487E+02  0.18333297639E+03  0.19835429056E+03  0.00000000000E+00 0. -1.
        -12    1    4    4    0    0 -0.11067079230E+02 -0.25235430582E+02  0.28577004879E+02  0.39698267055E+02  0.00000000000E+00 0.  1.
        -11    1    3    3    0    0 -0.28278206974E+02  0.40423438979E+02  0.38294689043E+02  0.62451538151E+02  0.00000000000E+00 0. -1.
         11    1    3    3    0    0 -0.30437677695E+01 -0.42647647277E+02  0.47968932941E+01  0.43024371300E+02  0.00000000000E+00 0.  1.
          2    1    1    2  501    0 -0.32357758051E+02  0.39557508368E+02 -0.58776698838E+02  0.77887876467E+02  0.00000000000E+00 0. -1.
<scales pt_clust_5="13000.00000" pt_clust_6="13000.00000" pt_clust_7="13000.00000" pt_clust_8="13000.00000" pt_clust_9="51.10600"></scales>
<clustering>
<clus scale="   51.106">  1  9  2 -1</clus>
<clus scale="   79.463">  5  6 -1 -1</clus>
<clus scale="   88.998">  1  5  2 -1</clus>
<clus scale="   91.007">  7  8 -1 -1</clus>
<clus scale="   51.106">  1  5  2 -1</clus>
</clustering>
</event>
<event>
 9    1  0.6014990E-005  0.9892091E+02  0.7546771E-02  0.1287721E+00
          3   -1    0    0  502    0 -0.00000000000E+00  0.00000000000E+00  0.22960859495E+03  0.22960859495E+03  0.00000000000E+00 0. -1.
         21   -1    0    0  501  502  0.00000000000E+00 -0.00000000000E+00 -0.79967671881E+02  0.79967671881E+02  0.00000000000E+00 0.  1.
        -24    2    1    2    0    0  0.29979116811E+02 -0.26783692728E+02  0.84986110332E+02  0.12331018704E+03  0.79791287974E+02 0.  0.
         23    2    1    2    0    0 -0.60945713879E+02 -0.18723553646E+02  0.13431039945E+02  0.11107489344E+03  0.89957143227E+02 0.  0.
         13    1    3    3    0    0 -0.46403656111E+01  0.23874221337E+02  0.96902538948E+01  0.26180383076E+02  0.00000000000E+00 0. -1.
        -14    1    3    3    0    0  0.34619482422E+02 -0.50657914065E+02  0.75295856437E+02  0.97129803959E+02  0.00000000000E+00 0.  1.
        -13    1    4    4    0    0 -0.27532264771E+02  0.33892215409E+02 -0.94540094328E+01  0.44677580095E+02  0.00000000000E+00 0.  1.
         13    1    4    4    0    0 -0.33413449108E+02 -0.52615769055E+02  0.22885049378E+02  0.66397313346E+02  0.00000000000E+00 0. -1.
          4    1    1    2  501    0  0.30966597068E+02  0.45507246373E+02  0.51223772797E+02  0.75191186358E+02  0.00000000000E+00 0. -1.
<scales pt_clust_5="13000.00000" pt_clust_6="13000.00000" pt_clust_7="13000.00000" pt_clust_8="13000.00000" pt_clust_9="55.04401"></scales>
<clustering>
<clus scale="   55.044">  2  9  1 -1</clus>
<clus scale="   79.791">  5  6 -1 -1</clus>
<clus scale="   89.776">  1  5  2 -1</clus>
<clus scale="   89.957">  7  8 -1 -1</clus>
<clus scale="   55.044">  2  5  1 -1</clus>
</clustering>
</event>
<event>
 9    1  0.6014990E-005  0.9001233E+02  0.7546771E-02  0.1306844E+00
         21   -1    0    0  501  502  0.00000000000E+00  0.00000000000E+00  0.20281077428E+03  0.20281077428E+03  0.00000000000E+00 0.  1.
         -2   -1    0    0    0  501 -0.00000000000E+00 -0.00000000000E+00 -0.12513950650E+03  0.12513950650E+03  0.00000000000E+00 0.  1.
        -24    2    1    2    0    0 -0.58466332799E+01  0.23147069930E+02 -0.72974361257E+02  0.11173290862E+03  0.81172750977E+02 0.  0.
         23    2    1    2    0    0  0.40664737170E+02  0.20830426067E+02  0.99570747006E+02  0.14035589256E+03  0.87737765054E+02 0.  0.
         11    1    3    3    0    0  0.30031649742E+02  0.10314758834E+02 -0.27950288480E+01  0.31876424239E+02  0.00000000000E+00 0. -1.
        -12    1    3    3    0    0 -0.35878283022E+02  0.12832311097E+02 -0.70179332409E+02  0.79856484383E+02  0.00000000000E+00 0.  1.
        -11    1    4    4    0    0  0.41336476104E+02 -0.12694645563E+02  0.97618655867E+02  0.10676731830E+03  0.00000000000E+00 0.  1.
         11    1    4    4    0    0 -0.67173893454E+00  0.33525071631E+02  0.19520911389E+01  0.33588574261E+02  0.00000000000E+00 0. -1.
         -1    1    1    2    0  502 -0.34818103890E+02 -0.43977495998E+02  0.51074882035E+02  0.75861479603E+02  0.00000000000E+00 0.  1.
<scales pt_clust_5="13000.00000" pt_clust_6="13000.00000" pt_clust_7="13000.00000" pt_clust_8="13000.00000" pt_clust_9="56.09207"></scales>
<clustering>
<clus scale="   56.092">  1  9  2 -1</clus>
<clus scale="   81.173">  5  6 -1 -1</clus>
<clus scale="   83.626">  2  5  1 -1</clus>
<clus scale="   87.738">  7  8 -1 -1</clus>
<clus scale="   56.092">  1  5  2 -1</clus>
</clustering>
</event>
<event>
 9    1  0.6014990E-005  0.1040855E+03  0.7546771E-02  0.1272856E+00
         21   -1    0    0  501  502  0.00000000000E+00  0.00000000000E+00  0.16324339050E+03  0.16324339050E+03  0.00000000000E+00 0.  1.
         -2   -1    0    0    0  501 -0.00000000000E+00 -0.00000000000E+00 -0.23966215112E+03  0.23966215112E+03  0.00000000000E+00 0.  1.
        -24    2    1    2    0    0 -0.61311644272E+02 -0.22574090044E+02 -0.19971892802E+03  0.22558112500E+03  0.82039542190E+02 0.  0.
         23    2    1    2    0    0  0.27497550085E+02  0.12353013084E+02  0.71315293562E+02  0.11447308022E+03  0.84317867664E+02 0.  0.
         11    1    3    3    0    0 -0.93606510097E+01 -0.41308586891E+02 -0.47438297062E+02  0.63595700849E+02  0.00000000000E+00 0. -1.
        -12    1    3    3    0    0 -0.51950993262E+02  0.18734496847E+02 -0.15228063096E+03  0.16198542415E+03  0.00000000000E+00 0.  1.
        -11    1    4    4    0    0 -0.41073544045E+01 -0.31689840988E+02  0.12041070384E+02  0.34148261420E+02  0.00000000000E+00 0.  1.
         11    1    4    4    0    0  0.31604904489E+02  0.44042854072E+02  0.59274223178E+02  0.80324818804E+02  0.00000000000E+00 0. -1.
         -1    1    1    2    0  502  0.33814094187E+02  0.10221076960E+02  0.51984873837E+02  0.62851336404E+02  0.00000000000E+00 0.  1.
<scales pt_clust_5="13000.00000" pt_clust_6="13000.00000" pt_clust_7="13000.00000" pt_clust_8="13000.00000" pt_clust_9="35.32511"></scales>
<clustering>
<clus scale="   35.325">  1  9  2 -1</clus>
<clus scale="   82.040">  5  6 -1 -1</clus>
<clus scale="   84.318">  7  8 -1 -1</clus>
<clus scale="  102.249">  2  5  1 -1</clus>
<clus scale="   35.325">  1  5  2 -1</clus>
</clustering>
</event>
<event>
 9    1  0.6014990E-005  0.1737767E+03  0.7546771E-02  0.1174492E+00
          3   -1    0    0  502    0 -0.00000000000E+00  0.00000000000E+00  0.51323715347E+02  0.51323715347E+02  0.00000000000E+00 0. -1.
         21   -1    0    0  501  502  0.00000000000E+00 -0.00000000000E+00 -0.79071394161E+03  0.79071394161E+03  0.00000000000E+00 0. -1.
         23    2    1    2    0    0  0.23405941250E+02  0.16688602634E+03 -0.24878128075E+03  0.31197462311E+03  0.83888354040E+02 0.  0.
        -24    2    1    2    0    0 -0.34273106024E+02 -0.12297728805E+03 -0.42088771619E+03  0.44695393454E+03  0.79519122166E+02 0.  0.
         13    1    4    4    0    0 -0.35415200257E+02 -0.95637573360E+02 -0.39924846145E+03  0.41206809610E+03  0.00000000000E+00 0. -1.
        -14    1    4    4    0    0  0.11420942327E+01 -0.27339714688E+02 -0.21639254736E+02  0.34885838445E+02  0.00000000000E+00 0.  1.
        -13    1    3    3    0    0 -0.25450547413E+02  0.26218342322E+02 -0.29755038280E+02  0.47122119443E+02  0.00000000000E+00 0.  1.
         13    1    3    3    0    0  0.48856488663E+02  0.14066768401E+03 -0.21902624247E+03  0.26485250367E+03  0.00000000000E+00 0. -1.
          4    1    1    2  501    0  0.10867164775E+02 -0.43908738289E+02 -0.69721229324E+02  0.83109099302E+02  0.00000000000E+00 0. -1.
<scales pt_clust_5="13000.00000" pt_clust_6="13000.00000" pt_clust_7="13000.00000" pt_clust_8="13000.00000" pt_clust_9="45.23356"></scales>
<clustering>
<clus scale="   45.234">  2  9  1 -1</clus>
<clus scale="   79.519">  5  6 -1 -1</clus>
<clus scale="   83.888">  7  8 -1 -1</clus>
<clus scale="  171.710">  2  5  1 -1</clus>
<clus scale="   45.234">  2  5  1 -1</clus>
</clustering>
</event>
<event>
 9    1  0.6014990E-005  0.1711058E+03  0.7546771E-02  0.1208880E+00
          1   -1    0    0  502    0 -0.00000000000E+00  0.00000000000E+00  0.18350451221E+03  0.18350451221E+03  0.00000000000E+00 0. -1.
         21   -1    0    0  501  502  0.00000000000E+00 -0.00000000000E+00 -0.22676349045E+03  0.22676349045E+03  0.00000000000E+00 0.  1.
        -24    2    1    2    0    0 -0.32046137086E+01 -0.48366424817E+01 -0.44346013232E+02  0.95264634678E+02  0.84113727009E+02 0.  0.
         23    2    1    2    0    0  0.86966334475E+02  0.11761164809E+03  0.10139830188E+02  0.17423341076E+03  0.94121316234E+02 0.  0.
         11    1    3    3    0    0  0.29595554348E+02 -0.30365179409E+02 -0.18072218646E+02  0.46092798185E+02  0.00000000000E+00 0. -1.
        -12    1    3    3    0    0 -0.32800168057E+02  0.25528536928E+02 -0.26273794586E+02  0.49171836493E+02  0.00000000000E+00 0.  1.
        -11    1    4    4    0    0  0.82943064760E+02  0.48696274898E+02  0.32730947477E+02  0.10159819931E+03  0.00000000000E+00 0.  1.
         11    1    4    4    0    0  0.40232697149E+01  0.68915373192E+02 -0.22591117289E+02  0.72635211446E+02  0.00000000000E+00 0. -1.
          2    1    1    2  501    0 -0.83761720766E+02 -0.11277500561E+03 -0.90527952049E+01  0.14076995722E+03  0.00000000000E+00 0. -1.
<scales pt_clust_5="13000.00000" pt_clust_6="13000.00000" pt_clust_7="13000.00000" pt_clust_8="13000.00000" pt_clust_9="142.89286"></scales>
<clustering>
<clus scale="   84.114">  5  6 -1 -1</clus>
<clus scale="   84.314">  1  5  2 -1</clus>
<clus scale="   94.121">  7  8 -1 -1</clus>
<clus scale="  142.893">  2  9  1 -1</clus>
<clus scale="  142.893">  2  5  1 -1</clus>
</clustering>
</event>
<event>
 9    1  0.6014990E-005  0.1008963E+03  0.7546771E-02  0.1286057E+00
         21   -1    0    0  501  502  0.00000000000E+00  0.00000000000E+00  0.10003226707E+03  0.10003226707E+03  0.00000000000E+00 0.  1.
          1   -1    0    0  502    0 -0.00000000000E+00 -0.00000000000E+00 -0.21104403741E+03  0.21104403741E+03  0.00000000000E+00 0. -1.
         23    2    1    2    0    0 -0.15966860191E+02  0.95844301459E+01 -0.17723118630E+02  0.97707174393E+02  0.94264421010E+02 0.  0.
        -24    2    1    2    0    0 -0.19518424933E+02 -0.67529895644E+02 -0.11096376087E+02  0.10672742808E+03  0.79538409751E+02 0.  0.
         11    1    4    4    0    0  0.29110662962E+02 -0.38024735945E+02 -0.13631613127E+02  0.49790883887E+02  0.00000000000E+00 0. -1.
        -12    1    4    4    0    0 -0.48629087895E+02 -0.29505159699E+02  0.25352370407E+01  0.56936544198E+02  0.00000000000E+00 0.  1.
        -13    1    3    3    0    0 -0.18082123192E+01  0.48915911636E+02  0.65231941879E+01  0.49382062587E+02  0.00000000000E+00 0.  1.
         13    1    3    3    0    0 -0.14158647872E+02 -0.39331481490E+02 -0.24246312818E+02  0.48325111806E+02  0.00000000000E+00 0. -1.
          2    1    1    2  501    0  0.35485285124E+02  0.57945465498E+02 -0.82192275624E+02  0.10664170199E+03  0.00000000000E+00 0. -1.
<scales pt_clust_5="13000.00000" pt_clust_6="13000.00000" pt_clust_7="13000.00000" pt_clust_8="13000.00000" pt_clust_9="67.94768"></scales>
<clustering>
<clus scale="   67.948">  1  9  2 -1</clus>
<clus scale="   79.538">  5  6 -1 -1</clus>
<clus scale="   87.296">  1  5  2 -1</clus>
<clus scale="   94.264">  7  8 -1 -1</clus>
<clus scale="   67.948">  1  5  2 -1</clus>
</clustering>
</event>
<event>
 9    1  0.6014990E-005  0.1024302E+03  0.7546771E-02  0.1279909E+00
          1   -1    0    0  502    0 -0.00000000000E+00  0.00000000000E+00  0.24010701454E+03  0.24010701454E+03  0.00000000000E+00 0. -1.
         21   -1    0    0  501  502  0.00000000000E+00 -0.00000000000E+00 -0.10416435278E+03  0.10416435278E+03  0.00000000000E+00 0. -1.
         23    2    1    2    0    0 -0.48874739176E+01 -0.49634698322E+02  0.15266971622E+03  0.18441672913E+03  0.90631104226E+02 0.  0.
        -24    2    1    2    0    0  0.27675833912E+02  0.32826423975E+02 -0.59140747727E+02  0.10885710085E+03  0.80676604236E+02 0.  0.
         11    1    4    4    0    0  0.21266211954E+02  0.14767950909E+02 -0.77870345187E+02  0.82061774320E+02  0.00000000000E+00 0. -1.
        -12    1    4    4    0    0  0.64096219576E+01  0.18058473066E+02  0.18729597460E+02  0.26795326535E+02  0.00000000000E+00 0.  1.
        -11    1    3    3    0    0 -0.36973248867E+02 -0.49189967602E+02  0.58404954127E+02  0.84839924039E+02  0.00000000000E+00 0.  1.
         11    1    3    3    0    0  0.32085774949E+02 -0.44473072058E+00  0.94264762092E+02  0.99576805089E+02  0.00000000000E+00 0. -1.
          2    1    1    2  501    0 -0.22788359994E+02  0.16808274347E+02  0.42413693266E+02  0.50997537335E+02  0.00000000000E+00 0. -1.
<scales pt_clust_5="13000.00000" pt_clust_6="13000.00000" pt_clust_7="13000.00000" pt_clust_8="13000.00000" pt_clust_9="28.31657"></scales>
<clustering>
<clus scale="   28.317">  2  9  1 -1</clus>
<clus scale="   80.677">  5  6 -1 -1</clus>
<clus scale="   90.631">  7  8 -1 -1</clus>
<clus scale="   93.737">  2  5  1 -1</clus>
<clus scale="   28.317">  2  5  1 -1</clus>
</clustering>
</event>
<event>
 9    1  0.6014990E-005  0.1217938E+03  0.7546771E-02  0.1244788E+00
         21   -1    0    0  501  502  0.00000000000E+00  0.00000000000E+00  0.38239016695E+02  0.38239016695E+02  0.00000000000E+00 0. -1.
          3   -1    0    0  502    0 -0.00000000000E+00 -0.00000000000E+00 -0.77787403080E+03  0.77787403080E+03  0.00000000000E+00 0. -1.
        -24    2    1    2    0    0  0.10258501936E+02  0.86373553456E+02 -0.59999532602E+03  0.61147403519E+03  0.79627111378E+02 0.  0.
         23    2    1    2    0    0 -0.76755656644E+01 -0.39142704780E+02 -0.96693298095E+02  0.14074991277E+03  0.94180031865E+02 0.  0.
         13    1    3    3    0    0  0.39417020280E+02  0.77410243334E+02 -0.41678175830E+03  0.42573827795E+03  0.00000000000E+00 0. -1.
        -14    1    3    3    0    0 -0.29158518344E+02  0.89633101220E+01 -0.18321356772E+03  0.18573575724E+03  0.00000000000E+00 0.  1.
        -11    1    4    4    0    0 -0.40086189700E+02 -0.72201669506E+01 -0.86371384811E+01  0.41636925638E+02  0.00000000000E+00 0.  1.
         11    1    4    4    0    0  0.32410624036E+02 -0.31922537829E+02 -0.88056159614E+02  0.99112987130E+02  0.00000000000E+00 0. -1.
          4    1    1    2  501    0 -0.25829362716E+01 -0.47230848676E+02 -0.42946389991E+02  0.63889099537E+02  0.00000000000E+00 0. -1.
<scales pt_clust_5="13000.00000" pt_clust_6="13000.00000" pt_clust_7="13000.00000" pt_clust_8="13000.00000" pt_clust_9="47.30142"></scales>
<clustering>
<clus scale="   47.301">  1  9  2 -1</clus>
<clus scale="   79.627">  5  6 -1 -1</clus>
<clus scale="   94.180">  7  8 -1 -1</clus>
<clus scale="  110.925">  2  5  1 -1</clus>
<clus scale="   47.301">  1  5  2 -1</clus>
</clustering>
</event>
<event>
 9    1  0.6014990E-005  0.1670442E+03  0.7546771E-02  0.1212978E+00
          1   -1    0    0  502    0 -0.00000000000E+00  0.00000000000E+00  0.92717070152E+03  0.92717070152E+03  0.00000000000E+00 0. -1.
         21   -1    0    0  501  502  0.00000000000E+00 -0.00000000000E+00 -0.52494258986E+02  0.52494258986E+02  0.00000000000E+00 0. -1.
        -24    2    1    2    0    0  0.20991593772E+02  0.71274513172E+01  0.45193909424E+03  0.45950348006E+03  0.80019095951E+02 0.  0.
         23    2    1    2    0    0  0.12164011529E+03 -0.22398795137E+02  0.24779488923E+03  0.29392734872E+03  0.98452808633E+02 0.  0.
         11    1    3    3    0    0 -0.80604218979E+01 -0.31881190894E+02  0.14104578199E+03  0.14482849634E+03  0.00000000000E+00 0. -1.
        -12    1    3    3    0    0  0.29052015670E+02  0.39008642212E+02  0.31089331225E+03  0.31467498372E+03  0.00000000000E+00 0.  1.
        -13    1    4    4    0    0  0.69607326538E+01  0.27595646512E+02  0.77940067518E+02  0.82973644190E+02  0.00000000000E+00 0.  1.
         13    1    4    4    0    0  0.11467938263E+03 -0.49994441649E+02  0.16985482171E+03  0.21095370453E+03  0.00000000000E+00 0. -1.
          2    1    1    2  501    0 -0.14263170906E+03  0.15271343820E+02  0.17494245906E+03  0.22623413172E+03  0.00000000000E+00 0. -1.
<scales pt_clust_5="13000.00000" pt_clust_6="13000.00000" pt_clust_7="13000.00000" pt_clust_8="13000.00000" pt_clust_9="134.94749"></scales>
<clustering>
<clus scale="   80.019">  5  6 -1 -1</clus>
<clus scale="   83.033">  1  5  2 -1</clus>
<clus scale="   98.453">  7  8 -1 -1</clus>
<clus scale="  134.947">  2  9  1 -1</clus>
<clus scale="  134.947">  2  5  1 -1</clus>
</clustering>
</event>
<event>
 9    1  0.6014990E-005  0.1019745E+03  0.7546771E-02  0.1281831E+00
         -4   -1    0    0    0  501 -0.00000000000E+00  0.00000000000E+00  0.45523056947E+02  0.45523056947E+02  0.00000000000E+00 0.  1.
         21   -1    0    0  501  502  0.00000000000E+00 -0.00000000000E+00 -0.40463143958E+03  0.40463143958E+03  0.00000000000E+00 0. -1.
        -24    2    1    2    0    0 -0.24110790941E+02  0.29415183247E+02 -0.86396455789E+02  0.12340160480E+03  0.79479715960E+02 0.  0.
         23    2    1    2    0    0  0.67422204455E+02 -0.22300781093E+02 -0.25391970712E+03  0.27900730784E+03  0.91251200939E+02 0.  0.
         13    1    3    3    0    0 -0.43101800842E+01  0.52260711229E+02 -0.32755655444E+02  0.61827926976E+02  0.00000000000E+00 0. -1.
        -14    1    3    3    0    0 -0.19800610857E+02 -0.22845527983E+02 -0.53640800345E+02  0.61573677824E+02  0.00000000000E+00 0.  1.
        -13    1    4    4    0    0  0.65705983990E+02 -0.47285944829E+02 -0.13443961197E+03  0.15693070502E+03  0.00000000000E+00 0. -1.
         13    1    4    4    0    0  0.17162204650E+01  0.24985163735E+02 -0.11948009515E+03  0.12207660283E+03  0.00000000000E+00 0.  1.
         -3    1    1    2    0  502 -0.43311413513E+02 -0.71144021534E+01 -0.18792219723E+02  0.47745583886E+02  0.00000000000E+00 0.  1.
<scales pt_clust_5="13000.00000" pt_clust_6="13000.00000" pt_clust_7="13000.00000" pt_clust_8="13000.00000" pt_clust_9="43.89186"></scales>
<clustering>
<clus scale="   43.892">  2  9  1 -1</clus>
<clus scale="   79.480">  5  6 -1 -1</clus>
<clus scale="   91.251">  7  8 -1 -1</clus>
<clus scale="   91.592">  1  5  2 -1</clus>
<clus scale="   43.892">  2  5  1 -1</clus>
</clustering>
</event>
<event>
 9    1  0.6014990E-005  0.4152796E+03  0.7546771E-02  0.1072583E+00
          1   -1    0    0  502    0 -0.00000000000E+00  0.00000000000E+00  0.12063949235E+04  0.12063949235E+04  0.00000000000E+00 0. -1.
         21   -1    0    0  501  502  0.00000000000E+00 -0.00000000000E+00 -0.26237427078E+03  0.26237427078E+03  0.00000000000E+00 0. -1.
        -24    2    1    2    0    0 -0.12586194848E+03  0.56814937878E+02  0.14411386588E+03  0.21471512731E+03  0.79149303941E+02 0.  0.
         23    2    1    2    0    0 -0.30595345552E+03 -0.92735492945E+02  0.74666953425E+03  0.81748902659E+03  0.92550130330E+02 0.  0.
         13    1    3    3    0    0 -0.77924560995E+02 -0.54004013439E+01  0.52863223916E+02  0.94318195401E+02  0.00000000000E+00 0. -1.
        -14    1    3    3    0    0 -0.47937387484E+02  0.62215339222E+02  0.91250641967E+02  0.12039693191E+03  0.00000000000E+00 0.  1.
        -11    1    4    4    0    0 -0.24262511059E+03 -0.44067689450E+02  0.48793928601E+03  0.54671167207E+03  0.00000000000E+00 0. -1.
         11    1    4    4    0    0 -0.63328344925E+02 -0.48667803495E+02  0.25873024824E+03  0.27077735452E+03  0.00000000000E+00 0.  1.
          2    1    1    2  501    0  0.43181540400E+03  0.35920555067E+02  0.53237252562E+02  0.43656504036E+03  0.00000000000E+00 0. -1.
<scales pt_clust_5="13000.00000" pt_clust_6="13000.00000" pt_clust_7="13000.00000" pt_clust_8="13000.00000" pt_clust_9="404.83527"></scales>
<clustering>
<clus scale="   79.149">  5  6 -1 -1</clus>
<clus scale="   92.550">  7  8 -1 -1</clus>
<clus scale="  159.166">  1  5  2 -1</clus>
<clus scale="  404.835">  2  9  1 -1</clus>
<clus scale="  404.835">  2  5  1 -1</clus>
</clustering>
</event>
<event>
 9    1  0.6014990E-005  0.2113872E+03  0.7546771E-02  0.1140472E+00
         21   -1    0    0  501  502  0.00000000000E+00  0.00000000000E+00  0.29271348101E+03  0.29271348101E+03  0.00000000000E+00 0.  1.
         -2   -1    0    0    0  501 -0.00000000000E+00 -0.00000000000E+00 -0.95844684269E+02  0.95844684269E+02  0.00000000000E+00 0.  1.
        -24    2    1    2    0    0 -0.18315496657E+02  0.76766387823E+02  0.45097443445E+02  0.12193383903E+03  0.81274510013E+02 0.  0.
         23    2    1    2    0    0 -0.19161963073E+02  0.29813556105E+02  0.34929137957E+02  0.10409448985E+03  0.91430789025E+02 0.  0.
         11    1    3    3    0    0  0.31869322141E+02  0.20625186670E+02  0.16319640861E+02  0.41320487615E+02  0.00000000000E+00 0. -1.
        -12    1    3    3    0    0 -0.50184818798E+02  0.56141201152E+02  0.28777802584E+02  0.80613351414E+02  0.00000000000E+00 0.  1.
        -13    1    4    4    0    0 -0.16968990746E+02  0.53315535633E+02 -0.65871658439E+01  0.56337232277E+02  0.00000000000E+00 0.  1.
         13    1    4    4    0    0 -0.21929723271E+01 -0.23501979528E+02  0.41516303801E+02  0.47757257571E+02  0.00000000000E+00 0. -1.
         -1    1    1    2    0  502  0.37477459730E+02 -0.10657994393E+03  0.11684221533E+03  0.16252983640E+03  0.00000000000E+00 0.  1.
<scales pt_clust_5="13000.00000" pt_clust_6="13000.00000" pt_clust_7="13000.00000" pt_clust_8="13000.00000" pt_clust_9="112.97719"></scales>
<clustering>
<clus scale="   81.275">  5  6 -1 -1</clus>
<clus scale="   91.431">  7  8 -1 -1</clus>
<clus scale="   92.864">  5  7 -1 -1</clus>
<clus scale="  112.977">  1  9  2 -1</clus>
<clus scale="  112.977">  1  5  2 -1</clus>
</clustering>
</event>
<event>
 9    1  0.6014990E-005  0.2139904E+03  0.7546771E-02  0.1139394E+00
          3   -1    0    0  502    0 -0.00000000000E+00  0.00000000000E+00  0.35363285396E+03  0.35363285396E+03  0.00000000000E+00 0. -1.
         21   -1    0    0  501  502  0.00000000000E+00 -0.00000000000E+00 -0.34573912080E+03  0.34573912080E+03  0.00000000000E+00 0. -1.
         23    2    1    2    0    0 -0.17484892756E+03 -0.92544187902E+02  0.22695352667E+03  0.31480176936E+03  0.91954752691E+02 0.  0.
        -24    2    1    2    0    0  0.17434550703E+03  0.54435867302E+02 -0.42415111045E+02  0.20386093232E+03  0.80003866242E+02 0.  0.
         11    1    4    4    0    0  0.85771733129E+02  0.28477081308E+02  0.19841371140E+02  0.92527911316E+02  0.00000000000E+00 0. -1.
        -12    1    4    4    0    0  0.88573773898E+02  0.25958785994E+02 -0.62256482185E+02  0.11133302101E+03  0.00000000000E+00 0.  1.
        -11    1    3    3    0    0 -0.14283708000E+03 -0.11111058947E+03  0.19317778226E+03  0.26469916901E+03  0.00000000000E+00 0. -1.
         11    1    3    3    0    0 -0.32011847563E+02  0.18566401572E+02  0.33775744409E+02  0.50102600352E+02  0.00000000000E+00 0.  1.
          4    1    1    2  501    0  0.50342053306E+00  0.38108320600E+02 -0.17664468247E+03  0.18070927308E+03  0.00000000000E+00 0. -1.
<scales pt_clust_5="13000.00000" pt_clust_6="13000.00000" pt_clust_7="13000.00000" pt_clust_8="13000.00000" pt_clust_9="38.11165"></scales>
<clustering>
<clus scale="   38.112">  2  9  1 -1</clus>
<clus scale="   80.004">  5  6 -1 -1</clus>
<clus scale="   91.955">  7  8 -1 -1</clus>
<clus scale="  209.134">  2  5  1 -1</clus>
<clus scale="   38.112">  2  5  1 -1</clus>
</clustering>
</event>
<event>
 9    1  0.6014990E-005  0.9527931E+02  0.7546771E-02  0.1296006E+00
          3   -1    0    0  502    0 -0.00000000000E+00  0.00000000000E+00  0.45069032981E+03  0.45069032981E+03  0.00000000000E+00 0. -1.
         21   -1    0    0  501  502  0.00000000000E+00 -0.00000000000E+00 -0.34311568872E+02  0.34311568872E+02  0.00000000000E+00 0. -1.
         23    2    1    2    0    0 -0.42026852402E+02  0.12788862498E+00  0.28848579430E+03  0.30544628576E+03  0.91143333810E+02 0.  0.
        -24    2    1    2    0    0 -0.20000416789E+01  0.27998436257E+01  0.76322987520E+02  0.11168513506E+03  0.81464910711E+02 0.  0.
         13    1    4    4    0    0  0.23956852602E+02  0.11439087763E+02 -0.39852586170E+01  0.26845219345E+02  0.00000000000E+00 0. -1.
        -14    1    4    4    0    0 -0.25956894281E+02 -0.86392441377E+01  0.80308246137E+02  0.84839915710E+02  0.00000000000E+00 0.  1.
        -13    1    3    3    0    0 -0.54428268361E+02 -0.31321701420E+02  0.14468603949E+03  0.15772614051E+03  0.00000000000E+00 0.  1.
         13    1    3    3    0    0  0.12401415959E+02  0.31449590045E+02  0.14379975481E+03  0.14772014526E+03  0.00000000000E+00 0. -1.
          4    1    1    2  501    0  0.44026894081E+02 -0.29277322507E+01  0.51569979118E+02  0.67870477859E+02  0.00000000000E+00 0. -1.
<scales pt_clust_5="13000.00000" pt_clust_6="13000.00000" pt_clust_7="13000.00000" pt_clust_8="13000.00000" pt_clust_9="44.12413"></scales>
<clustering>
<clus scale="   44.124">  2  9  1 -1</clus>
<clus scale="   81.465">  5  6 -1 -1</clus>
<clus scale="   86.067">  2  5  1 -1</clus>
<clus scale="   91.143">  7  8 -1 -1</clus>
<clus scale="   44.124">  2  5  1 -1</clus>
</clustering>
</event>
<event>
 9    1  0.6014990E-005  0.1202111E+03  0.7546771E-02  0.1244687E+00
         21   -1    0    0  501  502  0.00000000000E+00  0.00000000000E+00  0.54073219998E+03  0.54073219998E+03  0.00000000000E+00 0.  1.
         -2   -1    0    0    0  501 -0.00000000000E+00 -0.00000000000E+00 -0.10328977123E+03  0.10328977123E+03  0.00000000000E+00 0.  1.
        -24    2    1    2    0    0  0.63103418160E+02  0.36912203255E+02 -0.27393558813E+02  0.11531431092E+03  0.84867137956E+02 0.  0.
         23    2    1    2    0    0 -0.50189635028E+02 -0.11121508400E+03  0.18869379828E+03  0.24245219296E+03  0.91049008707E+02 0.  0.
         11    1    3    3    0    0  0.71592870028E+01 -0.22041345358E+02 -0.24881891426E+02  0.34002717781E+02  0.00000000000E+00 0. -1.
        -12    1    3    3    0    0  0.55944131157E+02  0.58953548612E+02 -0.25116673872E+01  0.81311593134E+02  0.00000000000E+00 0.  1.
        -13    1    4    4    0    0 -0.35235848729E+02 -0.94602637220E+02  0.19469322482E+03  0.21930954333E+03  0.00000000000E+00 0.  1.
         13    1    4    4    0    0 -0.14953786299E+02 -0.16612446783E+02 -0.59994265435E+01  0.23142649625E+02  0.00000000000E+00 0. -1.
         -1    1    1    2    0  502 -0.12913783131E+02  0.74302880748E+02  0.27614218929E+03  0.28625546735E+03  0.00000000000E+00 0.  1.
<scales pt_clust_5="13000.00000" pt_clust_6="13000.00000" pt_clust_7="13000.00000" pt_clust_8="13000.00000" pt_clust_9="75.41673"></scales>
<clustering>
<clus scale="   75.417">  1  9  2 -1</clus>
<clus scale="   84.867">  5  6 -1 -1</clus>
<clus scale="   91.049">  7  8 -1 -1</clus>
<clus scale="  115.599">  2  5  1 -1</clus>
<clus scale="   75.417">  1  5  2 -1</clus>
</clustering>
</event>
<event>
 9    1  0.6014990E-005  0.5227021E+03  0.7546771E-02  0.1008018E+00
         -4   -1    0    0    0  501 -0.00000000000E+00  0.00000000000E+00  0.37462197965E+03  0.37462197965E+03  0.00000000000E+00 0.  1.
         21   -1    0    0  501  502  0.00000000000E+00 -0.00000000000E+00 -0.87681569272E+03  0.87681569272E+03  0.00000000000E+00 0.  1.
        -24    2    1    2    0    0  0.42197613235E+02 -0.25585778758E+03 -0.19564068061E+03  0.33450498256E+03  0.79840224338E+02 0.  0.
         23    2    1    2    0    0  0.30068635956E+02 -0.20524666313E+03 -0.38157463040E+03  0.44420870543E+03  0.93230144386E+02 0.  0.
         13    1    3    3    0    0  0.43967732273E+02 -0.68254244940E+02 -0.38868664295E+02  0.90014312738E+02  0.00000000000E+00 0. -1.
        -14    1    3    3    0    0 -0.17701190378E+01 -0.18760354264E+03 -0.15677201632E+03  0.24449066983E+03  0.00000000000E+00 0.  1.
        -11    1    4    4    0    0  0.58848325523E+02 -0.83764648668E+02 -0.16244450626E+03  0.19201005025E+03  0.00000000000E+00 0.  1.
         11    1    4    4    0    0 -0.28779689567E+02 -0.12148201447E+03 -0.21913012414E+03  0.25219865518E+03  0.00000000000E+00 0. -1.
         -3    1    1    2    0  502 -0.72266249191E+02  0.46110445071E+03  0.75021597938E+02  0.47272398437E+03  0.00000000000E+00 0.  1.
<scales pt_clust_5="13000.00000" pt_clust_6="13000.00000" pt_clust_7="13000.00000" pt_clust_8="13000.00000" pt_clust_9="466.73327"></scales>
<clustering>
<clus scale="   79.840">  5  6 -1 -1</clus>
<clus scale="   93.230">  7  8 -1 -1</clus>
<clus scale="  170.369">  5  7 -1 -1</clus>
<clus scale="  466.733">  2  9  1 -1</clus>
<clus scale="  466.733">  2  5  1 -1</clus>
</clustering>
</event>
<event>
 9    1  0.6014990E-005  0.1000936E+03  0.7546771E-02  0.1282460E+00
          1   -1    0    0  502    0 -0.00000000000E+00  0.00000000000E+00  0.88486278822E+03  0.88486278822E+03  0.00000000000E+00 0. -1.
         21   -1    0    0  501  502  0.00000000000E+00 -0.00000000000E+00 -0.32524019226E+02  0.32524019226E+02  0.00000000000E+00 0.  1.
        -24    2    1    2    0    0  0.27283840027E+02  0.45451326934E+02  0.70572110309E+03  0.71230131387E+03  0.80750574866E+02 0.  0.
         23    2    1    2    0    0 -0.37797890109E+02 -0.28264043932E+02  0.15489510126E+03  0.18330330172E+03  0.85907341655E+02 0.  0.
         11    1    3    3    0    0  0.49609310976E+02  0.38865817911E+02  0.33671811072E+03  0.34256491593E+03  0.00000000000E+00 0. -1.
        -12    1    3    3    0    0 -0.22325470949E+02  0.65855090231E+01  0.36900299237E+03  0.36973639794E+03  0.00000000000E+00 0.  1.
        -11    1    4    4    0    0 -0.55027244788E+02 -0.31637446305E+01  0.13773834793E+03  0.14835720219E+03  0.00000000000E+00 0. -1.
         11    1    4    4    0    0  0.17229354680E+02 -0.25100299301E+02  0.17156753323E+02  0.34946099529E+02  0.00000000000E+00 0.  1.
          2    1    1    2  501    0  0.10514050082E+02 -0.17187283002E+02 -0.82774353577E+01  0.21782191860E+02  0.00000000000E+00 0. -1.
<scales pt_clust_5="13000.00000" pt_clust_6="13000.00000" pt_clust_7="13000.00000" pt_clust_8="13000.00000" pt_clust_9="20.14815"></scales>
<clustering>
<clus scale="   20.148">  2  9  1 -1</clus>
<clus scale="   80.751">  5  6 -1 -1</clus>
<clus scale="   85.907">  7  8 -1 -1</clus>
<clus scale="   95.704">  1  5  2 -1</clus>
<clus scale="   20.148">  2  5  1 -1</clus>
</clustering>
</event>
<event>
 9    1  0.6014990E-005  0.1026964E+03  0.7546771E-02  0.1280394E+00
         21   -1    0    0  501  502  0.00000000000E+00  0.00000000000E+00  0.10642894843E+03  0.10642894843E+03  0.00000000000E+00 0. -1.
          1   -1    0    0  502    0 -0.00000000000E+00 -0.00000000000E+00 -0.16537568896E+03  0.16537568896E+03  0.00000000000E+00 0. -1.
         23    2    1    2    0    0  0.20478851652E+02 -0.65656149433E+02 -0.62501419492E+02  0.13175716456E+03  0.93399195136E+02 0.  0.
        -24    2    1    2    0    0  0.19430558108E+00  0.12135502448E+02  0.14142840236E-01  0.82563784017E+02  0.81666823477E+02 0.  0.
         13    1    4    4    0    0 -0.22831820529E+02 -0.28041499760E+02  0.19728702656E+01  0.36214775363E+02  0.00000000000E+00 0. -1.
        -14    1    4    4    0    0  0.23026126110E+02  0.40177002208E+02 -0.19587274254E+01  0.46349008654E+02  0.00000000000E+00 0.  1.
        -13    1    3    3    0    0  0.38565976958E+02 -0.82628722852E+02 -0.49207307147E+02  0.10361563345E+03  0.00000000000E+00 0. -1.
         13    1    3    3    0    0 -0.18087125306E+02  0.16972573419E+02 -0.13294112346E+02  0.28141531113E+02  0.00000000000E+00 0.  1.
          2    1    1    2  501    0 -0.20673157233E+02  0.53520646986E+02  0.35405361172E+01  0.57483688815E+02  0.00000000000E+00 0. -1.
<scales pt_clust_5="13000.00000" pt_clust_6="13000.00000" pt_clust_7="13000.00000" pt_clust_8="13000.00000" pt_clust_9="57.37455"></scales>
<clustering>
<clus scale="   57.375">  1  9  2 -1</clus>
<clus scale="   81.667">  5  6 -1 -1</clus>
<clus scale="   92.155">  1  5  2 -1</clus>
<clus scale="   93.399">  7  8 -1 -1</clus>
<clus scale="   57.375">  1  5  2 -1</clus>
</clustering>
</event>
<event>
 9    1  0.6014990E-005  0.2349705E+03  0.7546771E-02  0.1163238E+00
         21   -1    0    0  501  502  0.00000000000E+00  0.00000000000E+00  0.69393634923E+03  0.69393634923E+03  0.00000000000E+00 0. -1.
          3   -1    0    0  502    0 -0.00000000000E+00 -0.00000000000E+00 -0.18997928149E+03  0.18997928149E+03  0.00000000000E+00 0. -1.
         23    2    1    2    0    0  0.41997351206E+01  0.32714585270E+01 -0.90030622315E+02  0.12722936465E+03  0.89741061168E+02 0.  0.
        -24    2    1    2    0    0 -0.22584017243E+03  0.39434299441E+02  0.36701175175E+03  0.43658262381E+03  0.57861161667E+02 0.  0.
         13    1    4    4    0    0 -0.19427232334E+03  0.20324095823E+02  0.27382488482E+03  0.33635527650E+03  0.00000000000E+00 0. -1.
        -14    1    4    4    0    0 -0.31567849099E+02  0.19110203617E+02  0.93186866934E+02  0.10022734731E+03  0.00000000000E+00 0.  1.
        -13    1    3    3    0    0 -0.35988978126E+02  0.20460992489E+02 -0.23439234574E+02  0.47573695227E+02  0.00000000000E+00 0.  1.
         13    1    3    3    0    0  0.40188713246E+02 -0.17189533962E+02 -0.66591387742E+02  0.79655669425E+02  0.00000000000E+00 0. -1.
          4    1    1    2  501    0  0.22164043731E+03 -0.42705757968E+02  0.22697593831E+03  0.32010364226E+03  0.00000000000E+00 0. -1.
<scales pt_clust_5="13000.00000" pt_clust_6="13000.00000" pt_clust_7="13000.00000" pt_clust_8="13000.00000" pt_clust_9="227.73508"></scales>
<clustering>
<clus scale="   57.861">  5  6 -1 -1</clus>
<clus scale="   89.741">  7  8 -1 -1</clus>
<clus scale="   89.899">  2  7  1 -1</clus>
<clus scale="  227.735">  1  9  2 -1</clus>
<clus scale="  227.735">  1  5  2 -1</clus>
</clustering>
</event>
<event>
 9    1  0.6014990E-005  0.1003349E+03  0.7546771E-02  0.1283812E+00
         21   -1    0    0  501  502  0.00000000000E+00  0.00000000000E+00  0.56486638415E+02  0.56486638415E+02  0.00000000000E+00 0. -1.
          1   -1    0    0  502    0 -0.00000000000E+00 -0.00000000000E+00 -0.30109219736E+03  0.30109219736E+03  0.00000000000E+00 0. -1.
        -24    2    1    2    0    0  0.98673283817E+01 -0.52983937016E+02 -0.17523001727E+03  0.20135128510E+03  0.83259349666E+02 0.  0.
         23    2    1    2    0    0 -0.16035189189E+02  0.68674957812E+01 -0.44578242710E+02  0.10350493034E+03  0.91770153598E+02 0.  0.
         11    1    3    3    0    0  0.26890451792E+02 -0.49745422519E+02 -0.17511874230E+03  0.18402249146E+03  0.00000000000E+00 0. -1.
        -12    1    3    3    0    0 -0.17023123410E+02 -0.32385144969E+01 -0.11127497163E+00  0.17328793636E+02  0.00000000000E+00 0.  1.
        -13    1    4    4    0    0  0.17434000299E+02 -0.24947971536E+02  0.99773777346E+01  0.32029575655E+02  0.00000000000E+00 0. -1.
         13    1    4    4    0    0 -0.33469189488E+02  0.31815467317E+02 -0.54555620445E+02  0.71475354688E+02  0.00000000000E+00 0.  1.
          2    1    1    2  501    0  0.61678608075E+01  0.46116441235E+02 -0.24797298964E+02  0.52722620335E+02  0.00000000000E+00 0. -1.
<scales pt_clust_5="13000.00000" pt_clust_6="13000.00000" pt_clust_7="13000.00000" pt_clust_8="13000.00000" pt_clust_9="46.52707"></scales>
<clustering>
<clus scale="   46.527">  1  9  2 -1</clus>
<clus scale="   83.259">  5  6 -1 -1</clus>
<clus scale="   91.770">  7  8 -1 -1</clus>
<clus scale="   92.614">  2  5  1 -1</clus>
<clus scale="   46.527">  1  5  2 -1</clus>
</clustering>
</event>
<event>
 9    1  0.6014990E-005  0.1040452E+03  0.7546771E-02  0.1277270E+00
          3   -1    0    0  502    0 -0.00000000000E+00  0.00000000000E+00  0.43364655191E+03  0.43364655191E+03  0.00000000000E+00 0. -1.
         21   -1    0    0  501  502  0.00000000000E+00 -0.00000000000E+00 -0.64509061735E+02  0.64509061735E+02  0.00000000000E+00 0. -1.
        -24    2    1    2    0    0  0.19159463097E+02  0.51247361151E+02  0.34071723617E+03  0.35423482085E+03  0.80004351287E+02 0.  0.
         23    2    1    2    0    0  0.17163280796E+01 -0.28609898180E+02  0.48170477917E+02  0.10733767194E+03  0.91539657078E+02 0.  0.
         13    1    3    3    0    0 -0.26190092858E+01  0.62482240869E+02  0.30205183861E+03  0.30845778129E+03  0.00000000000E+00 0. -1.
        -14    1    3    3    0    0  0.21778472383E+02 -0.11234879718E+02  0.38665397565E+02  0.45777039556E+02  0.00000000000E+00 0.  1.
        -11    1    4    4    0    0  0.35181613852E+02  0.17221139891E+02  0.20073035132E+02  0.44014092650E+02  0.00000000000E+00 0. -1.
         11    1    4    4    0    0 -0.33465285772E+02 -0.45831038071E+02  0.28097442785E+02  0.63323579286E+02  0.00000000000E+00 0.  1.
          4    1    1    2  501    0 -0.20875791176E+02 -0.22637462971E+02 -0.19750223918E+02  0.36583120859E+02  0.00000000000E+00 0. -1.
<scales pt_clust_5="13000.00000" pt_clust_6="13000.00000" pt_clust_7="13000.00000" pt_clust_8="13000.00000" pt_clust_9="30.79372"></scales>
<clustering>
<clus scale="   30.794">  2  9  1 -1</clus>
<clus scale="   80.004">  5  6 -1 -1</clus>
<clus scale="   91.540">  7  8 -1 -1</clus>
<clus scale="   94.056">  1  5  2 -1</clus>
<clus scale="   30.794">  2  5  1 -1</clus>
</clustering>
</event>
<event>
 9    1  0.6014990E-005  0.1392875E+03  0.7546771E-02  0.1235581E+00
         21   -1    0    0  501  502  0.00000000000E+00  0.00000000000E+00  0.84966059666E+02  0.84966059666E+02  0.00000000000E+00 0. -1.
          1   -1    0    0  502    0 -0.00000000000E+00 -0.00000000000E+00 -0.33360790841E+03  0.33360790841E+03  0.00000000000E+00 0. -1.
        -24    2    1    2    0    0 -0.17627966204E+02 -0.30658339939E+02 -0.69650417659E+02  0.11333169562E+03  0.82110983142E+02 0.  0.
         23    2    1    2    0    0  0.85996212936E+02  0.90240749534E+02 -0.92708203335E+02  0.18006609227E+03  0.91050783101E+02 0.  0.
         13    1    3    3    0    0 -0.16319881377E+02  0.24569960222E+02 -0.42615248901E+02  0.51827414680E+02  0.00000000000E+00 0. -1.
        -14    1    3    3    0    0 -0.13080848267E+01 -0.55228300162E+02 -0.27035168757E+02  0.61504280944E+02  0.00000000000E+00 0.  1.
        -13    1    4    4    0    0 -0.17804608920E+02  0.28149072517E+02 -0.17324183075E+02  0.37543330987E+02  0.00000000000E+00 0.  1.
         13    1    4    4    0    0  0.10380082186E+03  0.62091677016E+02 -0.75384020260E+02  0.14252276128E+03  0.00000000000E+00 0. -1.
          2    1    1    2  501    0 -0.68368246732E+02 -0.59582409594E+02 -0.86283227751E+02  0.12517618018E+03  0.00000000000E+00 0. -1.
<scales pt_clust_5="13000.00000" pt_clust_6="13000.00000" pt_clust_7="13000.00000" pt_clust_8="13000.00000" pt_clust_9="105.40767"></scales>
<clustering>
<clus scale="   82.111">  5  6 -1 -1</clus>
<clus scale="   89.403">  2  5  1 -1</clus>
<clus scale="   91.051">  7  8 -1 -1</clus>
<clus scale="  105.408">  1  9  2 -1</clus>
<clus scale="  105.408">  1  5  2 -1</clus>
</clustering>
</event>
<event>
 9    1  0.6014990E-005  0.1386172E+03  0.7546771E-02  0.1222552E+00
          1   -1    0    0  502    0 -0.00000000000E+00  0.00000000000E+00  0.29484929390E+03  0.29484929390E+03  0.00000000000E+00 0. -1.
         21   -1    0    0  501  502  0.00000000000E+00 -0.00000000000E+00 -0.19070171136E+03  0.19070171136E+03  0.00000000000E+00 0. -1.
         23    2    1    2    0    0  0.59067588691E+02  0.11830496241E+03  0.19453733136E+03  0.25380646341E+03  0.95330495696E+02 0.  0.
        -24    2    1    2    0    0 -0.63517863070E+02 -0.27203173674E+02  0.12349366088E+02  0.94359438643E+02  0.63060805826E+02 0.  0.
         13    1    4    4    0    0 -0.51220649490E+02 -0.18452440484E+02  0.36737586594E+02  0.65678746660E+02  0.00000000000E+00 0. -1.
        -14    1    4    4    0    0 -0.12297213580E+02 -0.87507331900E+01 -0.24388220506E+02  0.28680691984E+02  0.00000000000E+00 0.  1.
        -11    1    3    3    0    0  0.45421288435E+02  0.73704899537E+02  0.45834700661E+02  0.97960836274E+02  0.00000000000E+00 0.  1.
         11    1    3    3    0    0  0.13646300256E+02  0.44600062869E+02  0.14870263070E+03  0.15584562713E+03  0.00000000000E+00 0. -1.
          2    1    1    2  501    0  0.44502743797E+01 -0.91101788732E+02 -0.10273911491E+03  0.13738510321E+03  0.00000000000E+00 0. -1.
<scales pt_clust_5="13000.00000" pt_clust_6="13000.00000" pt_clust_7="13000.00000" pt_clust_8="13000.00000" pt_clust_9="91.21042"></scales>
<clustering>
<clus scale="   63.061">  5  6 -1 -1</clus>
<clus scale="   91.210">  2  9  1 -1</clus>
<clus scale="   95.330">  7  8 -1 -1</clus>
<clus scale="  118.758">  2  5  1 -1</clus>
<clus scale="   91.210">  2  5  1 -1</clus>
</clustering>
</event>
<event>
 9    1  0.6014990E-005  0.9458123E+02  0.7546771E-02  0.1297441E+00
         21   -1    0    0  501  502  0.00000000000E+00  0.00000000000E+00  0.38396025562E+02  0.38396025562E+02  0.00000000000E+00 0. -1.
          1   -1    0    0  502    0 -0.00000000000E+00 -0.00000000000E+00 -0.46263603940E+03  0.46263603940E+03  0.00000000000E+00 0. -1.
        -24    2    1    2    0    0 -0.17829453953E+02  0.36360639331E+02 -0.29452040832E+03  0.30813372636E+03  0.81019361190E+02 0.  0.
         23    2    1    2    0    0  0.72598934769E+01  0.13376452567E+02 -0.88988706875E+02  0.12774851109E+03  0.90382833542E+02 0.  0.
         13    1    3    3    0    0 -0.46305433395E+02  0.25240087279E+02 -0.23904019158E+03  0.24478861975E+03  0.00000000000E+00 0. -1.
        -14    1    3    3    0    0  0.28475979442E+02  0.11120552052E+02 -0.55480216738E+02  0.63345106618E+02  0.00000000000E+00 0.  1.
        -13    1    4    4    0    0  0.25723751706E+02  0.46650978423E+02 -0.46530798008E+02  0.70732880282E+02  0.00000000000E+00 0. -1.
         13    1    4    4    0    0 -0.18463858230E+02 -0.33274525856E+02 -0.42457908867E+02  0.57015630813E+02  0.00000000000E+00 0.  1.
          2    1    1    2  501    0  0.10569560476E+02 -0.49737091898E+02 -0.40730898646E+02  0.65149827503E+02  0.00000000000E+00 0. -1.
<scales pt_clust_5="13000.00000" pt_clust_6="13000.00000" pt_clust_7="13000.00000" pt_clust_8="13000.00000" pt_clust_9="50.84775"></scales>
<clustering>
<clus scale="   50.848">  1  9  2 -1</clus>
<clus scale="   81.019">  5  6 -1 -1</clus>
<clus scale="   85.678">  2  5  1 -1</clus>
<clus scale="   90.383">  7  8 -1 -1</clus>
<clus scale="   50.848">  1  5  2 -1</clus>
</clustering>
</event>
<event>
 9    1  0.6014990E-005  0.2552871E+03  0.7546771E-02  0.1110734E+00
         21   -1    0    0  501  502  0.00000000000E+00  0.00000000000E+00  0.60799407608E+03  0.60799407608E+03  0.00000000000E+00 0. -1.
         -4   -1    0    0    0  501 -0.00000000000E+00 -0.00000000000E+00 -0.18962412971E+03  0.18962412971E+03  0.00000000000E+00 0.  1.
         23    2    1    2    0    0  0.81468403100E+02  0.21833579525E+03 -0.32387822857E+02  0.25338032437E+03  0.94047846961E+02 0.  0.
        -24    2    1    2    0    0 -0.11665831182E+03 -0.22685160721E+03  0.37932414067E+03  0.46415285150E+03  0.80500015224E+02 0.  0.
         13    1    4    4    0    0 -0.20535326906E+02 -0.49405315477E+02  0.14690842531E+03  0.15634791421E+03  0.00000000000E+00 0. -1.
        -14    1    4    4    0    0 -0.96122984911E+02 -0.17744629173E+03  0.23241571536E+03  0.30780493730E+03  0.00000000000E+00 0.  1.
        -11    1    3    3    0    0  0.54467494822E+01  0.13601642086E+03 -0.37548054765E+02  0.14120903031E+03  0.00000000000E+00 0. -1.
         11    1    3    3    0    0  0.76021653617E+02  0.82319374386E+02  0.51602319078E+01  0.11217129406E+03  0.00000000000E+00 0.  1.
         -3    1    1    2    0  502  0.35189908717E+02  0.85158119622E+01  0.71433628551E+02  0.80085029917E+02  0.00000000000E+00 0.  1.
<scales pt_clust_5="13000.00000" pt_clust_6="13000.00000" pt_clust_7="13000.00000" pt_clust_8="13000.00000" pt_clust_9="36.20564"></scales>
<clustering>
<clus scale="   36.206">  1  9  2 -1</clus>
<clus scale="   80.500">  5  6 -1 -1</clus>
<clus scale="   94.048">  7  8 -1 -1</clus>
<clus scale="  250.613">  1  5  2 -1</clus>
<clus scale="   36.206">  1  5  2 -1</clus>
</clustering>
</event>
<event>
 9    1  0.6014990E-005  0.1501205E+03  0.7546771E-02  0.1202604E+00
          1   -1    0    0  502    0 -0.00000000000E+00  0.00000000000E+00  0.38708019810E+03  0.38708019810E+03  0.00000000000E+00 0. -1.
         21   -1    0    0  501  502  0.00000000000E+00 -0.00000000000E+00 -0.10660060320E+03  0.10660060320E+03  0.00000000000E+00 0.  1.
         23    2    1    2    0    0 -0.83011843206E+02 -0.16168355580E+02  0.72814221983E+02  0.14472785054E+03  0.92151277598E+02 0.  0.
        -24    2    1    2    0    0  0.16665684970E+03  0.35369634461E+02  0.10615199342E+03  0.21602386274E+03  0.79828234191E+02 0.  0.
         13    1    4    4    0    0  0.52952194862E+02  0.14146239150E+02 -0.57190195497E+01  0.55106789123E+02  0.00000000000E+00 0. -1.
        -14    1    4    4    0    0  0.11370465484E+03  0.21223395310E+02  0.11187101297E+03  0.16091707362E+03  0.00000000000E+00 0.  1.
        -13    1    3    3    0    0 -0.34083105366E+02 -0.40184519784E+02  0.73235315244E+02  0.90221200948E+02  0.00000000000E+00 0. -1.
         13    1    3    3    0    0 -0.48928737840E+02  0.24016164204E+02 -0.42109326013E+00  0.54506649588E+02  0.00000000000E+00 0.  1.
          2    1    1    2  501    0 -0.83645006495E+02 -0.19201278881E+02  0.10151337950E+03  0.13292908801E+03  0.00000000000E+00 0. -1.
<scales pt_clust_5="13000.00000" pt_clust_6="13000.00000" pt_clust_7="13000.00000" pt_clust_8="13000.00000" pt_clust_9="85.82065"></scales>
<clustering>
<clus scale="   79.828">  5  6 -1 -1</clus>
<clus scale="   85.821">  2  9  1 -1</clus>
<clus scale="   92.151">  7  8 -1 -1</clus>
<clus scale="  142.888">  2  5  1 -1</clus>
<clus scale="   85.821">  2  5  1 -1</clus>
</clustering>
</event>
<event>
 9    1  0.6014990E-005  0.1071952E+03  0.7546771E-02  0.1270860E+00
         -2   -1    0    0    0  501 -0.00000000000E+00  0.00000000000E+00  0.30849816083E+02  0.30849816083E+02  0.00000000000E+00 0.  1.
         21   -1    0    0  501  502  0.00000000000E+00 -0.00000000000E+00 -0.58243469968E+03  0.58243469968E+03  0.00000000000E+00 0.  1.
        -24    2    1    2    0    0  0.58634809473E+02  0.39246943020E+02 -0.15674590841E+03  0.18969375873E+03  0.80225176088E+02 0.  0.
         23    2    1    2    0    0 -0.28925059314E+02 -0.12352813634E+01 -0.32271229643E+03  0.33681625926E+03  0.91998811168E+02 0.  0.
         13    1    3    3    0    0  0.41007005100E+01 -0.22014351142E+02 -0.52310092918E+02  0.56901610012E+02  0.00000000000E+00 0. -1.
        -14    1    3    3    0    0  0.54534108963E+02  0.61261294162E+02 -0.10443581549E+03  0.13279214871E+03  0.00000000000E+00 0.  1.
        -13    1    4    4    0    0 -0.50204710026E+02 -0.13295577026E+02 -0.29630276906E+03  0.30081990664E+03  0.00000000000E+00 0.  1.
         13    1    4    4    0    0  0.21279650712E+02  0.12060295662E+02 -0.26409527367E+02  0.35996352616E+02  0.00000000000E+00 0. -1.
         -1    1    1    2    0  502 -0.29709750159E+02 -0.38011661657E+02 -0.72126678759E+02  0.86774497781E+02  0.00000000000E+00 0.  1.
<scales pt_clust_5="13000.00000" pt_clust_6="13000.00000" pt_clust_7="13000.00000" pt_clust_8="13000.00000" pt_clust_9="48.24477"></scales>
<clustering>
<clus scale="   48.245">  2  9  1 -1</clus>
<clus scale="   80.225">  5  6 -1 -1</clus>
<clus scale="   91.999">  7  8 -1 -1</clus>
<clus scale="   97.278">  1  5  2 -1</clus>
<clus scale="   48.245">  2  5  1 -1</clus>
</clustering>
</event>
<event>
 9    1  0.6014990E-005  0.9531144E+02  0.7546771E-02  0.1297408E+00
          3   -1    0    0  502    0 -0.00000000000E+00  0.00000000000E+00  0.27947923415E+03  0.27947923415E+03  0.00000000000E+00 0. -1.
         21   -1    0    0  501  502  0.00000000000E+00 -0.00000000000E+00 -0.27740979646E+03  0.27740979646E+03  0.00000000000E+00 0. -1.
        -24    2    1    2    0    0  0.13563478728E+02  0.11352290866E+02  0.24734382976E+03  0.26113406020E+03  0.81848548026E+02 0.  0.
         23    2    1    2    0    0 -0.41623915749E+02  0.21289013801E+02 -0.10192040286E+03  0.14607795441E+03  0.93622795160E+02 0.  0.
         11    1    3    3    0    0  0.61201683691E+01  0.42600630636E+02  0.81069450322E+02  0.91785216495E+02  0.00000000000E+00 0. -1.
        -12    1    3    3    0    0  0.74433103590E+01 -0.31248339770E+02  0.16627437943E+03  0.16934884370E+03  0.00000000000E+00 0.  1.
        -13    1    4    4    0    0 -0.42576192827E+02  0.14390163462E+00 -0.61080395322E+00  0.42580817099E+02  0.00000000000E+00 0. -1.
         13    1    4    4    0    0  0.95227707813E+00  0.21145112166E+02 -0.10130959891E+03  0.10349713731E+03  0.00000000000E+00 0.  1.
          4    1    1    2  501    0  0.28060437021E+02 -0.32641304667E+02 -0.14335398921E+03  0.14967701600E+03  0.00000000000E+00 0. -1.
<scales pt_clust_5="13000.00000" pt_clust_6="13000.00000" pt_clust_7="13000.00000" pt_clust_8="13000.00000" pt_clust_9="43.04466"></scales>
<clustering>
<clus scale="   43.045">  2  9  1 -1</clus>
<clus scale="   81.849">  5  6 -1 -1</clus>
<clus scale="   83.775">  1  5  2 -1</clus>
<clus scale="   93.623">  7  8 -1 -1</clus>
<clus scale="   43.045">  2  5  1 -1</clus>
</clustering>
</event>
<event>
 9    1  0.6014990E-005  0.2221479E+03  0.7546771E-02  0.1132569E+00
         21   -1    0    0  501  502  0.00000000000E+00  0.00000000000E+00  0.11755952498E+03  0.11755952498E+03  0.00000000000E+00 0.  1.
          1   -1    0    0  502    0 -0.00000000000E+00 -0.00000000000E+00 -0.12174096186E+04  0.12174096186E+04  0.00000000000E+00 0. -1.
         23    2    1    2    0    0 -0.19139228439E+03  0.17271314371E+02 -0.58941732108E+03  0.62564365191E+03  0.84189642874E+02 0.  0.
        -24    2    1    2    0    0  0.27715764464E+03  0.21941180754E+02 -0.12969724647E+03  0.31708467583E+03  0.80146993112E+02 0.  0.
         11    1    4    4    0    0  0.37303111471E+02  0.31753577581E+02 -0.27521493252E+02  0.56189362030E+02  0.00000000000E+00 0. -1.
        -12    1    4    4    0    0  0.23985453317E+03 -0.98123968267E+01 -0.10217575322E+03  0.26089531380E+03  0.00000000000E+00 0.  1.
        -11    1    3    3    0    0 -0.35829399525E+02  0.32446661288E+02 -0.20592809299E+03  0.21152520224E+03  0.00000000000E+00 0. -1.
         11    1    3    3    0    0 -0.15556288486E+03 -0.15175346917E+02 -0.38348922809E+03  0.41411844967E+03  0.00000000000E+00 0.  1.
          2    1    1    2  501    0 -0.85765360257E+02 -0.39212495125E+02 -0.38073552605E+03  0.39224081581E+03  0.00000000000E+00 0. -1.
<scales pt_clust_5="13000.00000" pt_clust_6="13000.00000" pt_clust_7="13000.00000" pt_clust_8="13000.00000" pt_clust_9="94.30443"></scales>
<clustering>
<clus scale="   80.147">  5  6 -1 -1</clus>
<clus scale="   84.190">  7  8 -1 -1</clus>
<clus scale="   94.304">  1  9  2 -1</clus>
<clus scale="  220.648">  1  5  2 -1</clus>
<clus scale="   94.304">  1  5  2 -1</clus>
</clustering>
</event>
<event>
 9    1  0.6014990E-005  0.1058076E+03  0.7546771E-02  0.1271391E+00
          1   -1    0    0  502    0 -0.00000000000E+00  0.00000000000E+00  0.57745187662E+02  0.57745187662E+02  0.00000000000E+00 0. -1.
         21   -1    0    0  501  502  0.00000000000E+00 -0.00000000000E+00 -0.33196327558E+03  0.33196327558E+03  0.00000000000E+00 0. -1.
         23    2    1    2    0    0  0.41276816849E+02  0.18652881873E+02 -0.57461057738E+02  0.11336603248E+03  0.86593178446E+02 0.  0.
        -24    2    1    2    0    0 -0.86976394581E+02 -0.34702322502E+02 -0.15974797788E+03  0.20153555946E+03  0.79548858500E+02 0.  0.
         13    1    4    4    0    0 -0.10050004353E+03 -0.40097712585E+02 -0.14341055520E+03  0.17965153116E+03  0.00000000000E+00 0. -1.
        -14    1    4    4    0    0  0.13523648947E+02  0.53953900828E+01 -0.16337422677E+02  0.21884028302E+02  0.00000000000E+00 0.  1.
        -11    1    3    3    0    0 -0.24769824065E+02  0.19726313580E+02 -0.19110974653E+02  0.36985145448E+02  0.00000000000E+00 0.  1.
         11    1    3    3    0    0  0.66046640914E+02 -0.10734317067E+01 -0.38350083085E+02  0.76380887035E+02  0.00000000000E+00 0. -1.
          2    1    1    2  501    0  0.45699577732E+02  0.16049440629E+02 -0.57009052305E+02  0.74806871302E+02  0.00000000000E+00 0. -1.
<scales pt_clust_5="13000.00000" pt_clust_6="13000.00000" pt_clust_7="13000.00000" pt_clust_8="13000.00000" pt_clust_9="48.43590"></scales>
<clustering>
<clus scale="   48.436">  2  9  1 -1</clus>
<clus scale="   79.549">  5  6 -1 -1</clus>
<clus scale="   86.593">  7  8 -1 -1</clus>
<clus scale="  100.124">  2  5  1 -1</clus>
<clus scale="   48.436">  2  5  1 -1</clus>
</clustering>
</event>
<event>
 9    1  0.6014990E-005  0.1827700E+03  0.7546771E-02  0.1190434E+00
         21   -1    0    0  501  502  0.00000000000E+00  0.00000000000E+00  0.20091342936E+03  0.20091342936E+03  0.00000000000E+00 0. -1.
          1   -1    0    0  502    0 -0.00000000000E+00 -0.00000000000E+00 -0.68350799377E+03  0.68350799377E+03  0.00000000000E+00 0. -1.
         23    2    1    2    0    0  0.29818064574E+02  0.36519781697E+02  0.10910259919E+03  0.15024388493E+03  0.91907760169E+02 0.  0.
        -24    2    1    2    0    0  0.11853101289E+03  0.50195924291E+02 -0.53029249050E+03  0.55170124843E+03  0.81209052515E+02 0.  0.
         11    1    4    4    0    0  0.80586784222E+02  0.38123750971E+02 -0.47653923086E+03  0.48480644460E+03  0.00000000000E+00 0. -1.
        -12    1    4    4    0    0  0.37944228665E+02  0.12072173320E+02 -0.53753259642E+02  0.66894803832E+02  0.00000000000E+00 0.  1.
        -11    1    3    3    0    0  0.19896017949E+02 -0.18788155624E+02  0.84649490364E+02  0.88962815495E+02  0.00000000000E+00 0. -1.
         11    1    3    3    0    0  0.99220466249E+01  0.55307937321E+02  0.24453108823E+02  0.61281069434E+02  0.00000000000E+00 0.  1.
          2    1    1    2  501    0 -0.14834907746E+03 -0.86715705988E+02 -0.61404673100E+02  0.18247628977E+03  0.00000000000E+00 0. -1.
<scales pt_clust_5="13000.00000" pt_clust_6="13000.00000" pt_clust_7="13000.00000" pt_clust_8="13000.00000" pt_clust_9="163.73743"></scales>
<clustering>
<clus scale="   81.209">  5  6 -1 -1</clus>
<clus scale="   91.908">  7  8 -1 -1</clus>
<clus scale="  103.295">  2  7  1 -1</clus>
<clus scale="  163.737">  1  9  2 -1</clus>
<clus scale="  163.737">  1  5  2 -1</clus>
</clustering>
</event>
<event>
 9    1  0.6014990E-005  0.1187685E+03  0.7546771E-02  0.1248096E+00
          1   -1    0    0  502    0 -0.00000000000E+00  0.00000000000E+00  0.65347152933E+02  0.65347152933E+02  0.00000000000E+00 0. -1.
         21   -1    0    0  501  502  0.00000000000E+00 -0.00000000000E+00 -0.52600309852E+03  0.52600309852E+03  0.00000000000E+00 0.  1.
        -24    2    1    2    0    0  0.52679353070E+02 -0.46488828454E+02 -0.26838907330E+02  0.11142110276E+03  0.82207115160E+02 0.  0.
         23    2    1    2    0    0 -0.84357321185E+02  0.41942000943E+02 -0.17280889436E+03  0.21696637854E+03  0.91302827816E+02 0.  0.
         13    1    3    3    0    0  0.24955362040E+02 -0.49608256843E+02  0.18202966280E+02  0.58438833176E+02  0.00000000000E+00 0. -1.
        -14    1    3    3    0    0  0.27723991030E+02  0.31194283890E+01 -0.45041873610E+02  0.52982269585E+02  0.00000000000E+00 0.  1.
        -11    1    4    4    0    0 -0.47756123801E+02  0.31507181970E+02 -0.21784668885E+02  0.61220271762E+02  0.00000000000E+00 0. -1.
         11    1    4    4    0    0 -0.36601197385E+02  0.10434818973E+02 -0.15102422547E+03  0.15574610678E+03  0.00000000000E+00 0.  1.
          2    1    1    2  501    0  0.31677968116E+02  0.45468275118E+01 -0.26100814390E+03  0.26296277015E+03  0.00000000000E+00 0. -1.
<scales pt_clust_5="13000.00000" pt_clust_6="13000.00000" pt_clust_7="13000.00000" pt_clust_8="13000.00000" pt_clust_9="32.00261"></scales>
<clustering>
<clus scale="   32.003">  2  9  1 -1</clus>
<clus scale="   82.207">  5  6 -1 -1</clus>
<clus scale="   91.303">  7  8 -1 -1</clus>
<clus scale="  111.927">  1  5  2 -1</clus>
<clus scale="   32.003">  2  5  1 -1</clus>
</clustering>
</event>
<event>
 9    1  0.6014990E-005  0.9315312E+02  0.7546771E-02  0.1303028E+00
         21   -1    0    0  501  502  0.00000000000E+00  0.00000000000E+00  0.31824411888E+03  0.31824411888E+03  0.00000000000E+00 0.  1.
          1   -1    0    0  502    0 -0.00000000000E+00 -0.00000000000E+00 -0.19430564195E+03  0.19430564195E+03  0.00000000000E+00 0. -1.
        -24    2    1    2    0    0  0.60459202561E+01  0.14763612391E+02 -0.15505101500E+03  0.17450829659E+03  0.78471720540E+02 0.  0.
         23    2    1    2    0    0 -0.34467088482E+02 -0.60146560289E+02  0.10257284654E+03  0.15367713056E+03  0.91048793002E+02 0.  0.
         13    1    3    3    0    0  0.76016008271E+01  0.32336193314E+02 -0.15321177823E+03  0.15677137086E+03  0.00000000000E+00 0. -1.
        -14    1    3    3    0    0 -0.15556805711E+01 -0.17572580923E+02 -0.18392367639E+01  0.17736925726E+02  0.00000000000E+00 0.  1.
        -13    1    4    4    0    0 -0.14785186688E+02  0.22995294752E+02  0.36850003030E+02  0.45883635966E+02  0.00000000000E+00 0. -1.
         13    1    4    4    0    0 -0.19681901794E+02 -0.83141855041E+02  0.65722843505E+02  0.10779349459E+03  0.00000000000E+00 0.  1.
          2    1    1    2  501    0  0.28421168226E+02  0.45382947898E+02  0.17641664539E+03  0.18436433369E+03  0.00000000000E+00 0. -1.
<scales pt_clust_5="13000.00000" pt_clust_6="13000.00000" pt_clust_7="13000.00000" pt_clust_8="13000.00000" pt_clust_9="53.54787"></scales>
<clustering>
<clus scale="   53.548">  1  9  2 -1</clus>
<clus scale="   78.472">  5  6 -1 -1</clus>
<clus scale="   80.904">  2  5  1 -1</clus>
<clus scale="   91.049">  7  8 -1 -1</clus>
<clus scale="   53.548">  1  5  2 -1</clus>
</clustering>
</event>
<event>
 9    1  0.6014990E-005  0.1659683E+03  0.7546771E-02  0.1184250E+00
          1   -1    0    0  502    0 -0.00000000000E+00  0.00000000000E+00  0.70810062474E+03  0.70810062474E+03  0.00000000000E+00 0. -1.
         21   -1    0    0  501  502  0.00000000000E+00 -0.00000000000E+00 -0.16103637573E+03  0.16103637573E+03  0.00000000000E+00 0.  1.
         23    2    1    2    0    0 -0.13770245794E+03  0.24041446564E+02  0.61731388984E+03  0.63981965768E+03  0.93556387779E+02 0.  0.
        -24    2    1    2    0    0  0.11798537784E+03 -0.27873754392E+02  0.11451742648E+02  0.14518312921E+03  0.79053798335E+02 0.  0.
         11    1    4    4    0    0  0.17609939750E+02 -0.33676015782E+02  0.22290895317E+02  0.44057553620E+02  0.00000000000E+00 0. -1.
        -12    1    4    4    0    0  0.10037543809E+03  0.58022613898E+01 -0.10839152669E+02  0.10112557559E+03  0.00000000000E+00 0.  1.
        -13    1    3    3    0    0 -0.62412491137E+02 -0.30513067377E+02  0.18484737717E+03  0.19747131229E+03  0.00000000000E+00 0.  1.
         13    1    3    3    0    0 -0.75289966800E+02  0.54554513941E+02  0.43246651267E+03  0.44234834539E+03  0.00000000000E+00 0. -1.
          2    1    1    2  501    0  0.19717080100E+02  0.38323078276E+01 -0.81701383477E+02  0.84134213570E+02  0.00000000000E+00 0. -1.
<scales pt_clust_5="13000.00000" pt_clust_6="13000.00000" pt_clust_7="13000.00000" pt_clust_8="13000.00000" pt_clust_9="20.08606"></scales>
<clustering>
<clus scale="   20.086">  2  9  1 -1</clus>
<clus scale="   79.054">  5  6 -1 -1</clus>
<clus scale="   93.556">  7  8 -1 -1</clus>
<clus scale="  158.247">  2  5  1 -1</clus>
<clus scale="   20.086">  2  5  1 -1</clus>
</clustering>
</event>
<event>
 9    1  0.6014990E-005  0.1705946E+03  0.7546771E-02  0.1184729E+00
         21   -1    0    0  501  502  0.00000000000E+00  0.00000000000E+00  0.11893271253E+03  0.11893271253E+03  0.00000000000E+00 0. -1.
          1   -1    0    0  502    0 -0.00000000000E+00 -0.00000000000E+00 -0.16307736449E+04  0.16307736449E+04  0.00000000000E+00 0. -1.
        -24    2    1    2    0    0 -0.76540622471E+02 -0.91266459841E+02 -0.54387938342E+03  0.56266296265E+03  0.81220639328E+02 0.  0.
         23    2    1    2    0    0 -0.12692828793E+03 -0.55556564832E+02  0.21828355682E+02  0.16594562601E+03  0.88680051356E+02 0.  0.
         11    1    3    3    0    0 -0.38979829374E+02 -0.94899838221E+02 -0.33341555523E+03  0.34884285697E+03  0.00000000000E+00 0. -1.
        -12    1    3    3    0    0 -0.37560793097E+02  0.36333783795E+01 -0.21046382819E+03  0.21382010568E+03  0.00000000000E+00 0.  1.
        -11    1    4    4    0    0 -0.21244496290E+02  0.15872226923E+02 -0.18304514253E+02  0.32222840535E+02  0.00000000000E+00 0.  1.
         11    1    4    4    0    0 -0.10568379164E+03 -0.71428791755E+02  0.40132869936E+02  0.13372278548E+03  0.00000000000E+00 0. -1.
          2    1    1    2  501    0  0.20346891040E+03  0.14682302467E+03 -0.98978990467E+03  0.10210977688E+04  0.00000000000E+00 0. -1.
<scales pt_clust_5="13000.00000" pt_clust_6="13000.00000" pt_clust_7="13000.00000" pt_clust_8="13000.00000" pt_clust_9="145.73398"></scales>
<clustering>
<clus scale="   81.221">  5  6 -1 -1</clus>
<clus scale="   88.680">  7  8 -1 -1</clus>
<clus scale="  144.169">  2  5  1 -1</clus>
<clus scale="  145.734">  1  9  2 -1</clus>
<clus scale="  145.734">  1  5  2 -1</clus>
</clustering>
</event>
<event>
 9    1  0.6014990E-005  0.9782810E+02  0.7546771E-02  0.1292235E+00
          1   -1    0    0  502    0 -0.00000000000E+00  0.00000000000E+00  0.67446394711E+03  0.67446394711E+03  0.00000000000E+00 0. -1.
         21   -1    0    0  501  502  0.00000000000E+00 -0.00000000000E+00 -0.53140870091E+02  0.53140870091E+02  0.00000000000E+00 0. -1.
        -24    2    1    2    0    0  0.42671507172E+02  0.57946053353E+02  0.98290308167E+02  0.14421951867E+03  0.77198978375E+02 0.  0.
         23    2    1    2    0    0  0.30448626653E+01  0.48588757117E+01  0.49700711550E+02  0.10372116390E+03  0.90857246544E+02 0.  0.
         11    1    3    3    0    0  0.46097723766E+01  0.65798282590E+02  0.69777439426E+02  0.96018514080E+02  0.00000000000E+00 0. -1.
        -12    1    3    3    0    0  0.38061734795E+02 -0.78522292376E+01  0.28512868741E+02  0.48201004590E+02  0.00000000000E+00 0.  1.
        -13    1    4    4    0    0  0.32130568724E+02  0.17546651746E+02 -0.83624884725E+01  0.37552491895E+02  0.00000000000E+00 0. -1.
         13    1    4    4    0    0 -0.29085706059E+02 -0.12687776034E+02  0.58063200022E+02  0.66168672002E+02  0.00000000000E+00 0.  1.
          2    1    1    2  501    0 -0.45716369837E+02 -0.62804929064E+02  0.47333205730E+03  0.47966413464E+03  0.00000000000E+00 0. -1.
<scales pt_clust_5="13000.00000" pt_clust_6="13000.00000" pt_clust_7="13000.00000" pt_clust_8="13000.00000" pt_clust_9="77.68173"></scales>
<clustering>
<clus scale="   77.199">  5  6 -1 -1</clus>
<clus scale="   77.682">  2  9  1 -1</clus>
<clus scale="   85.293">  1  5  2 -1</clus>
<clus scale="   90.857">  7  8 -1 -1</clus>
<clus scale="   77.682">  2  5  1 -1</clus>
</clustering>
</event>
<event>
 9    1  0.6014990E-005  0.9619102E+02  0.7546771E-02  0.1295239E+00
         21   -1    0    0  501  502  0.00000000000E+00  0.00000000000E+00  0.86786431938E+02  0.86786431938E+02  0.00000000000E+00 0.  1.
         -4   -1    0    0    0  501 -0.00000000000E+00 -0.00000000000E+00 -0.16122823574E+03  0.16122823574E+03  0.00000000000E+00 0.  1.
        -24    2    1    2    0    0 -0.76886530446E+01 -0.24793840597E+02 -0.60782869230E+02  0.10287855164E+03  0.78839008604E+02 0.  0.
         23    2    1    2    0    0  0.39295937582E+02  0.24797157031E+02 -0.33900386702E+02  0.10760297293E+03  0.90940056403E+02 0.  0.
         13    1    3    3    0    0  0.16349609754E+02 -0.27721876078E+02 -0.69939502745E+02  0.76989260268E+02  0.00000000000E+00 0. -1.
        -14    1    3    3    0    0 -0.24038262798E+02  0.29280354819E+01  0.91566335155E+01  0.25889291367E+02  0.00000000000E+00 0.  1.
        -13    1    4    4    0    0  0.63310519603E+02 -0.51195983645E+01 -0.24711735212E+02  0.68154985416E+02  0.00000000000E+00 0.  1.
         13    1    4    4    0    0 -0.24014582021E+02  0.29916755396E+02 -0.91886514898E+01  0.39447987519E+02  0.00000000000E+00 0. -1.
         -3    1    1    2    0  502 -0.31607284537E+02 -0.33164348426E-02  0.20241452133E+02  0.37533143104E+02  0.00000000000E+00 0.  1.
<scales pt_clust_5="13000.00000" pt_clust_6="13000.00000" pt_clust_7="13000.00000" pt_clust_8="13000.00000" pt_clust_9="31.60728"></scales>
<clustering>
<clus scale="   31.607">  1  9  2 -1</clus>
<clus scale="   78.839">  5  6 -1 -1</clus>
<clus scale="   84.842">  2  5  1 -1</clus>
<clus scale="   90.940">  7  8 -1 -1</clus>
<clus scale="   31.607">  1  5  2 -1</clus>
</clustering>
</event>
<event>
 9    1  0.6014990E-005  0.9008839E+02  0.7546771E-02  0.1307143E+00
         21   -1    0    0  501  502  0.00000000000E+00  0.00000000000E+00  0.33622145973E+02  0.33622145973E+02  0.00000000000E+00 0.  1.
         -2   -1    0    0    0  501 -0.00000000000E+00 -0.00000000000E+00 -0.52236409037E+03  0.52236409037E+03  0.00000000000E+00 0.  1.
        -24    2    1    2    0    0 -0.44092850481E+02  0.64641504763E+00 -0.18634470365E+03  0.20782735120E+03  0.80766713519E+02 0.  0.
         23    2    1    2    0    0 -0.23192393754E+02  0.18344915547E+02 -0.11310968465E+03  0.14637247920E+03  0.88072009466E+02 0.  0.
         11    1    3    3    0    0 -0.28899005223E+02 -0.95930539748E+01 -0.12330919284E+02  0.32851647718E+02  0.00000000000E+00 0. -1.
        -12    1    3    3    0    0 -0.15193845258E+02  0.10239469022E+02 -0.17401378436E+03  0.17497570348E+03  0.00000000000E+00 0.  1.
        -13    1    4    4    0    0 -0.56051452399E+02  0.20283795881E+02 -0.79061462622E+02  0.99014708823E+02  0.00000000000E+00 0.  1.
         13    1    4    4    0    0  0.32859058645E+02 -0.19388803337E+01 -0.34048222033E+02  0.47357770382E+02  0.00000000000E+00 0. -1.
         -1    1    1    2    0  502  0.67285244235E+02 -0.18991330595E+02 -0.18928755610E+03  0.20178640594E+03  0.00000000000E+00 0.  1.
<scales pt_clust_5="13000.00000" pt_clust_6="13000.00000" pt_clust_7="13000.00000" pt_clust_8="13000.00000" pt_clust_9="69.91409"></scales>
<clustering>
<clus scale="   69.914">  1  9  2 -1</clus>
<clus scale="   80.767">  5  6 -1 -1</clus>
<clus scale="   82.961">  2  5  1 -1</clus>
<clus scale="   88.072">  7  8 -1 -1</clus>
<clus scale="   69.914">  1  5  2 -1</clus>
</clustering>
</event>
<event>
 9    1  0.6014990E-005  0.1254867E+03  0.7546771E-02  0.1237784E+00
         21   -1    0    0  501  502  0.00000000000E+00  0.00000000000E+00  0.34418084167E+03  0.34418084167E+03  0.00000000000E+00 0.  1.
         -2   -1    0    0    0  501 -0.00000000000E+00 -0.00000000000E+00 -0.99066357975E+02  0.99066357975E+02  0.00000000000E+00 0.  1.
        -24    2    1    2    0    0  0.69582807366E+02  0.59379282228E+02  0.13563272244E+02  0.12106104366E+03  0.78129045169E+02 0.  0.
         23    2    1    2    0    0 -0.14457102643E+02 -0.85572872955E+02  0.22902676137E+03  0.26110162141E+03  0.90493507355E+02 0.  0.
         13    1    3    3    0    0  0.21766572272E+02  0.32756586938E+02  0.43530271000E+02  0.58665681191E+02  0.00000000000E+00 0. -1.
        -14    1    3    3    0    0  0.47816235094E+02  0.26622695290E+02 -0.29966998756E+02  0.62395362468E+02  0.00000000000E+00 0.  1.
        -11    1    4    4    0    0 -0.22957316899E+02 -0.31457494573E+02  0.18972936153E+03  0.19368490646E+03  0.00000000000E+00 0.  1.
         11    1    4    4    0    0  0.85002142557E+01 -0.54115378382E+02  0.39297399846E+02  0.67416714949E+02  0.00000000000E+00 0. -1.
         -1    1    1    2    0  502 -0.55125704723E+02  0.26193590727E+02  0.25244500755E+01  0.61084534577E+02  0.00000000000E+00 0.  1.
<scales pt_clust_5="13000.00000" pt_clust_6="13000.00000" pt_clust_7="13000.00000" pt_clust_8="13000.00000" pt_clust_9="61.03238"></scales>
<clustering>
<clus scale="   61.032">  1  9  2 -1</clus>
<clus scale="   78.129">  5  6 -1 -1</clus>
<clus scale="   90.494">  7  8 -1 -1</clus>
<clus scale="  116.884">  2  5  1 -1</clus>
<clus scale="   61.032">  1  5  2 -1</clus>
</clustering>
</event>
<event>
 9    1  0.6014990E-005  0.1003549E+03  0.7546771E-02  0.1287026E+00
         21   -1    0    0  501  502  0.00000000000E+00  0.00000000000E+00  0.81686857518E+02  0.81686857518E+02  0.00000000000E+00 0. -1.
         -2   -1    0    0    0  501 -0.00000000000E+00 -0.00000000000E+00 -0.59341532105E+03  0.59341532105E+03  0.00000000000E+00 0.  1.
        -24    2    1    2    0    0 -0.12900548008E-01  0.37776776390E+02 -0.50441184021E+03  0.51199621354E+03  0.79257385352E+02 0.  0.
         23    2    1    2    0    0 -0.21696621951E+02 -0.55466548153E+01  0.37930823835E+02  0.10346189091E+03  0.93616807728E+02 0.  0.
         13    1    3    3    0    0  0.24301903095E+02  0.56962880313E+01 -0.50791583620E+02  0.56593419741E+02  0.00000000000E+00 0. -1.
        -14    1    3    3    0    0 -0.24314803643E+02  0.32080488359E+02 -0.45362025659E+03  0.45540279380E+03  0.00000000000E+00 0.  1.
        -13    1    4    4    0    0 -0.55321329205E+02 -0.20962811063E+02  0.20945038071E+02  0.62758135189E+02  0.00000000000E+00 0.  1.
         13    1    4    4    0    0  0.33624707254E+02  0.15416156248E+02  0.16985785764E+02  0.40703755716E+02  0.00000000000E+00 0. -1.
         -1    1    1    2    0  502  0.21709522499E+02 -0.32230121575E+02 -0.45247447154E+02  0.59644074122E+02  0.00000000000E+00 0.  1.
<scales pt_clust_5="13000.00000" pt_clust_6="13000.00000" pt_clust_7="13000.00000" pt_clust_8="13000.00000" pt_clust_9="38.85982"></scales>
<clustering>
<clus scale="   38.860">  1  9  2 -1</clus>
<clus scale="   79.257">  5  6 -1 -1</clus>
<clus scale="   87.113">  2  5  1 -1</clus>
<clus scale="   93.617">  7  8 -1 -1</clus>
<clus scale="   38.860">  1  5  2 -1</clus>
</clustering>
</event>
<event>
 9    1  0.6014990E-005  0.2181114E+03  0.7546771E-02  0.1135537E+00
          1   -1    0    0  502    0 -0.00000000000E+00  0.00000000000E+00  0.22820413315E+03  0.22820413315E+03  0.00000000000E+00 0. -1.
         21   -1    0    0  501  502  0.00000000000E+00 -0.00000000000E+00 -0.75423614852E+03  0.75423614852E+03  0.00000000000E+00 0. -1.
         23    2    1    2    0    0  0.91632441906E+02 -0.19252984489E+03  0.29302727675E+02  0.23352821730E+03  0.90623026020E+02 0.  0.
        -24    2    1    2    0    0  0.30191069683E+01  0.19233289056E+03 -0.28047719120E+02  0.21319706543E+03  0.87551461234E+02 0.  0.
         13    1    4    4    0    0  0.42603421132E+02  0.12641146275E+03 -0.75117846902E+01  0.13360889310E+03  0.00000000000E+00 0. -1.
        -14    1    4    4    0    0 -0.39584314163E+02  0.65921427803E+02 -0.20535934429E+02  0.79588172326E+02  0.00000000000E+00 0.  1.
        -13    1    3    3    0    0  0.50323534564E+02 -0.34237873270E+02  0.34286856433E+02  0.69858990982E+02  0.00000000000E+00 0.  1.
         13    1    3    3    0    0  0.41308907342E+02 -0.15829197162E+03 -0.49841287580E+01  0.16366922632E+03  0.00000000000E+00 0. -1.
          2    1    1    2  501    0 -0.94651548874E+02  0.19695433296E+00 -0.52728702392E+03  0.53571499894E+03  0.00000000000E+00 0. -1.
<scales pt_clust_5="13000.00000" pt_clust_6="13000.00000" pt_clust_7="13000.00000" pt_clust_8="13000.00000" pt_clust_9="94.65175"></scales>
<clustering>
<clus scale="   87.551">  5  6 -1 -1</clus>
<clus scale="   90.623">  7  8 -1 -1</clus>
<clus scale="   94.652">  2  9  1 -1</clus>
<clus scale="  216.853">  2  5  1 -1</clus>
<clus scale="   94.652">  2  5  1 -1</clus>
</clustering>
</event>
<event>
 9    1  0.6014990E-005  0.2339884E+03  0.7546771E-02  0.1125822E+00
          1   -1    0    0  502    0 -0.00000000000E+00  0.00000000000E+00  0.74839490661E+03  0.74839490661E+03  0.00000000000E+00 0. -1.
         21   -1    0    0  501  502  0.00000000000E+00 -0.00000000000E+00 -0.14058618420E+03  0.14058618420E+03  0.00000000000E+00 0. -1.
        -24    2    1    2    0    0  0.15714580898E+03 -0.14396564650E+03  0.46838946472E+03  0.52061146549E+03  0.78909408111E+02 0.  0.
         23    2    1    2    0    0 -0.15327051949E+03  0.11123109739E+03 -0.80034957732E+01  0.21730660266E+03  0.10627273612E+03 0.  0.
         11    1    3    3    0    0  0.10552410375E+03 -0.12674664565E+03  0.28458319512E+03  0.32891890125E+03  0.00000000000E+00 0. -1.
        -12    1    3    3    0    0  0.51621705227E+02 -0.17219000854E+02  0.18380626959E+03  0.19169256423E+03  0.00000000000E+00 0.  1.
        -13    1    4    4    0    0  0.30033622706E+00  0.35864243763E+02 -0.27411895088E+02  0.45141402003E+02  0.00000000000E+00 0.  1.
         13    1    4    4    0    0 -0.15357085572E+03  0.75366853628E+02  0.19408399315E+02  0.17216520065E+03  0.00000000000E+00 0. -1.
          2    1    1    2  501    0 -0.38752894874E+01  0.32734549112E+02  0.14742275347E+03  0.15106302266E+03  0.00000000000E+00 0. -1.
<scales pt_clust_5="13000.00000" pt_clust_6="13000.00000" pt_clust_7="13000.00000" pt_clust_8="13000.00000" pt_clust_9="32.96316"></scales>
<clustering>
<clus scale="   32.963">  2  9  1 -1</clus>
<clus scale="   78.909">  5  6 -1 -1</clus>
<clus scale="  106.273">  7  8 -1 -1</clus>
<clus scale="  222.898">  1  5  2 -1</clus>
<clus scale="   32.963">  2  5  1 -1</clus>
</clustering>
</event>
<event>
 9    1  0.6014990E-005  0.1105220E+03  0.7546771E-02  0.1262729E+00
          1   -1    0    0  502    0 -0.00000000000E+00  0.00000000000E+00  0.13224785318E+03  0.13224785318E+03  0.00000000000E+00 0. -1.
         21   -1    0    0  501  502  0.00000000000E+00 -0.00000000000E+00 -0.43674687261E+03  0.43674687261E+03  0.00000000000E+00 0. -1.
        -24    2    1    2    0    0 -0.93274956700E+01  0.38500380251E+02  0.23760205704E+02  0.95228147899E+02  0.83274073529E+02 0.  0.
         23    2    1    2    0    0  0.38576940129E+02 -0.10176385349E+03 -0.40391119329E+01  0.14213956022E+03  0.91341545681E+02 0.  0.
         13    1    3    3    0    0 -0.22610624861E+02  0.61267473439E+02  0.12156422292E+02  0.66428324239E+02  0.00000000000E+00 0. -1.
        -14    1    3    3    0    0  0.13283129191E+02 -0.22767093188E+02  0.11603783412E+02  0.28799823660E+02  0.00000000000E+00 0.  1.
        -11    1    4    4    0    0  0.27477951465E+02 -0.53896630373E+02  0.42917050553E+02  0.74173835080E+02  0.00000000000E+00 0. -1.
         11    1    4    4    0    0  0.11098988664E+02 -0.47867223121E+02 -0.46956162486E+02  0.67965725142E+02  0.00000000000E+00 0.  1.
          2    1    1    2  501    0 -0.29249444459E+02  0.63263473243E+02 -0.32422011320E+03  0.33162701767E+03  0.00000000000E+00 0. -1.
<scales pt_clust_5="13000.00000" pt_clust_6="13000.00000" pt_clust_7="13000.00000" pt_clust_8="13000.00000" pt_clust_9="69.69790"></scales>
<clustering>
<clus scale="   69.698">  2  9  1 -1</clus>
<clus scale="   83.274">  5  6 -1 -1</clus>
<clus scale="   91.342">  7  8 -1 -1</clus>
<clus scale="  103.954">  1  5  2 -1</clus>
<clus scale="   69.698">  2  5  1 -1</clus>
</clustering>
</event>
<event>
 9    1  0.6014990E-005  0.1078021E+03  0.7546771E-02  0.1267985E+00
         21   -1    0    0  501  502  0.00000000000E+00  0.00000000000E+00  0.12721945549E+03  0.12721945549E+03  0.00000000000E+00 0. -1.
         -2   -1    0    0    0  501 -0.00000000000E+00 -0.00000000000E+00 -0.22482958101E+03  0.22482958101E+03  0.00000000000E+00 0.  1.
         23    2    1    2    0    0  0.31125915081E+02 -0.41229814751E+02 -0.11665280739E+03  0.15734693235E+03  0.92094839347E+02 0.  0.
        -24    2    1    2    0    0 -0.39738986294E+02  0.67894487018E+02  0.71239875578E+02  0.13545907271E+03  0.84173583203E+02 0.  0.
         13    1    4    4    0    0 -0.56681877559E+02  0.56560266441E+02  0.80074644612E+02  0.11324242886E+03  0.00000000000E+00 0. -1.
        -14    1    4    4    0    0  0.16942891264E+02  0.11334220577E+02 -0.88347690336E+01  0.22216643859E+02  0.00000000000E+00 0.  1.
        -11    1    3    3    0    0 -0.28925075826E+02  0.53046324724E+01 -0.37173810378E+02  0.47399275472E+02  0.00000000000E+00 0.  1.
         11    1    3    3    0    0  0.60050990907E+02 -0.46534447223E+02 -0.79478997007E+02  0.10994765688E+03  0.00000000000E+00 0. -1.
         -1    1    1    2    0  502  0.86130712133E+01 -0.26664672267E+02 -0.52197193710E+02  0.59243031439E+02  0.00000000000E+00 0.  1.
<scales pt_clust_5="13000.00000" pt_clust_6="13000.00000" pt_clust_7="13000.00000" pt_clust_8="13000.00000" pt_clust_9="28.02125"></scales>
<clustering>
<clus scale="   28.021">  1  9  2 -1</clus>
<clus scale="   84.174">  5  6 -1 -1</clus>
<clus scale="   92.095">  7  8 -1 -1</clus>
<clus scale="  101.119">  1  5  2 -1</clus>
<clus scale="   28.021">  1  5  2 -1</clus>
</clustering>
</event>
<event>
 9    1  0.6014990E-005  0.1049410E+03  0.7546771E-02  0.1274146E+00
          1   -1    0    0  502    0 -0.00000000000E+00  0.00000000000E+00  0.48016344355E+03  0.48016344355E+03  0.00000000000E+00 0. -1.
         21   -1    0    0  501  502  0.00000000000E+00 -0.00000000000E+00 -0.16388569105E+03  0.16388569105E+03  0.00000000000E+00 0. -1.
        -24    2    1    2    0    0 -0.31292418090E+01 -0.55306903766E+02  0.38457664404E+03  0.39718434221E+03  0.82386654284E+02 0.  0.
         23    2    1    2    0    0  0.17162921586E+02  0.34634116186E+02  0.60200486613E+02  0.11595872492E+03  0.91259188115E+02 0.  0.
         13    1    3    3    0    0  0.64624901225E+01 -0.74946270371E+02  0.32840506786E+03  0.33691036763E+03  0.00000000000E+00 0. -1.
        -14    1    3    3    0    0 -0.95917319314E+01  0.19639366604E+02  0.56171576179E+02  0.60273974587E+02  0.00000000000E+00 0.  1.
        -11    1    4    4    0    0 -0.11134632701E+01  0.64267867969E+02  0.39966728312E+02  0.75689748485E+02  0.00000000000E+00 0.  1.
         11    1    4    4    0    0  0.18276384856E+02 -0.29633751784E+02  0.20233758301E+02  0.40268976436E+02  0.00000000000E+00 0. -1.
          2    1    1    2  501    0 -0.14033679777E+02  0.20672787580E+02 -0.12849937815E+03  0.13090606746E+03  0.00000000000E+00 0. -1.
<scales pt_clust_5="13000.00000" pt_clust_6="13000.00000" pt_clust_7="13000.00000" pt_clust_8="13000.00000" pt_clust_9="24.98616"></scales>
<clustering>
<clus scale="   24.986">  2  9  1 -1</clus>
<clus scale="   82.387">  5  6 -1 -1</clus>
<clus scale="   91.259">  7  8 -1 -1</clus>
<clus scale="   97.324">  1  5  2 -1</clus>
<clus scale="   24.986">  2  5  1 -1</clus>
</clustering>
</event>
<event>
 9    1  0.6014990E-005  0.9810190E+02  0.7546771E-02  0.1289104E+00
         21   -1    0    0  501  502  0.00000000000E+00  0.00000000000E+00  0.53666049183E+03  0.53666049183E+03  0.00000000000E+00 0. -1.
          1   -1    0    0  502    0 -0.00000000000E+00 -0.00000000000E+00 -0.89402416774E+02  0.89402416774E+02  0.00000000000E+00 0. -1.
         23    2    1    2    0    0  0.72230045778E+01  0.51220577957E+02 -0.38142171097E+01  0.10464320690E+03  0.90884174075E+02 0.  0.
        -24    2    1    2    0    0 -0.33522115139E+02  0.47955023254E+02  0.64408493606E+02  0.12137428402E+03  0.84615875069E+02 0.  0.
         13    1    4    4    0    0 -0.44748722445E+02  0.65059841747E+02  0.62725788156E+02  0.10084520647E+03  0.00000000000E+00 0. -1.
        -14    1    4    4    0    0  0.11226607306E+02 -0.17104818493E+02  0.16827054496E+01  0.20529077546E+02  0.00000000000E+00 0.  1.
        -11    1    3    3    0    0 -0.20055903594E+02  0.64167375975E+02 -0.20318157468E+02  0.70231893976E+02  0.00000000000E+00 0.  1.
         11    1    3    3    0    0  0.27278908172E+02 -0.12946798018E+02  0.16503940359E+02  0.34411312927E+02  0.00000000000E+00 0. -1.
          2    1    1    2  501    0  0.26299110561E+02 -0.99175601211E+02  0.38666379856E+03  0.40004541768E+03  0.00000000000E+00 0. -1.
<scales pt_clust_5="13000.00000" pt_clust_6="13000.00000" pt_clust_7="13000.00000" pt_clust_8="13000.00000" pt_clust_9="102.60333"></scales>
<clustering>
<clus scale="   84.616">  5  6 -1 -1</clus>
<clus scale="   90.884">  7  8 -1 -1</clus>
<clus scale="  102.603">  1  9  2 -1</clus>
<clus scale="  102.603">  1  5  2 -1</clus>
<clus scale="   98.102">  1  5  2 -1</clus>
</clustering>
</event>
<event>
 9    1  0.6014990E-005  0.1619203E+03  0.7546771E-02  0.1212102E+00
         21   -1    0    0  501  502  0.00000000000E+00  0.00000000000E+00  0.45707767467E+02  0.45707767467E+02  0.00000000000E+00 0. -1.
          1   -1    0    0  502    0 -0.00000000000E+00 -0.00000000000E+00 -0.11228342447E+04  0.11228342447E+04  0.00000000000E+00 0. -1.
        -24    2    1    2    0    0 -0.34948162753E+02 -0.35408816262E+02 -0.25889790554E+03  0.27505500739E+03  0.78434515672E+02 0.  0.
         23    2    1    2    0    0  0.15807299967E+03  0.59577222211E+02 -0.68063482665E+03  0.70727240816E+03  0.91836667362E+02 0.  0.
         11    1    3    3    0    0 -0.32245103760E+02  0.71126458614E+01 -0.39155509192E+02  0.51220019013E+02  0.00000000000E+00 0. -1.
        -12    1    3    3    0    0 -0.27030589931E+01 -0.42521462124E+02 -0.21974239635E+03  0.22383498837E+03  0.00000000000E+00 0.  1.
        -11    1    4    4    0    0  0.11054473459E+03 -0.80684610568E+00 -0.32047780254E+03  0.33900857108E+03  0.00000000000E+00 0. -1.
         11    1    4    4    0    0  0.47528265084E+02  0.60384068316E+02 -0.36015702411E+03  0.36826383708E+03  0.00000000000E+00 0.  1.
          2    1    1    2  501    0 -0.12312483692E+03 -0.24168405949E+02 -0.13759374501E+03  0.18621459658E+03  0.00000000000E+00 0. -1.
<scales pt_clust_5="13000.00000" pt_clust_6="13000.00000" pt_clust_7="13000.00000" pt_clust_8="13000.00000" pt_clust_9="133.35741"></scales>
<clustering>
<clus scale="   78.435">  5  6 -1 -1</clus>
<clus scale="   91.837">  7  8 -1 -1</clus>
<clus scale="   92.882">  2  5  1 -1</clus>
<clus scale="  133.357">  1  9  2 -1</clus>
<clus scale="  133.357">  1  5  2 -1</clus>
</clustering>
</event>
<event>
 9    1  0.6014990E-005  0.1059493E+03  0.7546771E-02  0.1273476E+00
         21   -1    0    0  501  502  0.00000000000E+00  0.00000000000E+00  0.43778789568E+02  0.43778789568E+02  0.00000000000E+00 0.  1.
         -4   -1    0    0    0  501 -0.00000000000E+00 -0.00000000000E+00 -0.44316112174E+03  0.44316112174E+03  0.00000000000E+00 0.  1.
         23    2    1    2    0    0  0.38946251638E+02 -0.48174551196E+02 -0.24116101909E+03  0.26524865992E+03  0.91436407198E+02 0.  0.
        -24    2    1    2    0    0  0.12245270652E+02  0.54249186070E+02 -0.13216375365E+03  0.16392907045E+03  0.79451630044E+02 0.  0.
         11    1    4    4    0    0 -0.28885350681E+02  0.22119202028E+02 -0.89177815950E+02  0.96313578689E+02  0.00000000000E+00 0. -1.
        -12    1    4    4    0    0  0.41130621333E+02  0.32129984042E+02 -0.42985937696E+02  0.67615491756E+02  0.00000000000E+00 0.  1.
        -13    1    3    3    0    0  0.15275705817E+02 -0.70641606156E+02 -0.12298872204E+03  0.14265275832E+03  0.00000000000E+00 0.  1.
         13    1    3    3    0    0  0.23670545821E+02  0.22467054959E+02 -0.11817229705E+03  0.12259590160E+03  0.00000000000E+00 0. -1.
         -3    1    1    2    0  502 -0.51191522291E+02 -0.60746348738E+01 -0.26057559432E+02  0.57762180939E+02  0.00000000000E+00 0.  1.
<scales pt_clust_5="13000.00000" pt_clust_6="13000.00000" pt_clust_7="13000.00000" pt_clust_8="13000.00000" pt_clust_9="51.55069"></scales>
<clustering>
<clus scale="   51.551">  1  9  2 -1</clus>
<clus scale="   79.452">  5  6 -1 -1</clus>
<clus scale="   91.436">  7  8 -1 -1</clus>
<clus scale="   95.798">  1  5  2 -1</clus>
<clus scale="   51.551">  1  5  2 -1</clus>
</clustering>
</event>
<event>
 9    1  0.6014990E-005  0.1095339E+03  0.7546771E-02  0.1267976E+00
         21   -1    0    0  501  502  0.00000000000E+00  0.00000000000E+00  0.61565496621E+03  0.61565496621E+03  0.00000000000E+00 0.  1.
         -2   -1    0    0    0  501 -0.00000000000E+00 -0.00000000000E+00 -0.57060685871E+02  0.57060685871E+02  0.00000000000E+00 0.  1.
         23    2    1    2    0    0 -0.23880655809E+02  0.25369873697E+02  0.63030832508E+02  0.12143781545E+03  0.97776996079E+02 0.  0.
        -24    2    1    2    0    0  0.11903130150E+03 -0.98075799694E+01  0.32512957275E+03  0.35546278068E+03  0.79874338859E+02 0.  0.
         11    1    4    4    0    0  0.65947770209E+02  0.16483455819E+02  0.88852247764E+02  0.11187285034E+03  0.00000000000E+00 0. -1.
        -12    1    4    4    0    0  0.53083531290E+02 -0.26291035788E+02  0.23627732499E+03  0.24358993033E+03  0.00000000000E+00 0.  1.
        -11    1    3    3    0    0  0.29223140743E+02 -0.18660784837E+02  0.18108553435E+02  0.39116959917E+02  0.00000000000E+00 0. -1.
         11    1    3    3    0    0 -0.53103796553E+02  0.44030658534E+02  0.44922279073E+02  0.82320855537E+02  0.00000000000E+00 0.  1.
         -1    1    1    2    0  502 -0.95150645690E+02 -0.15562293728E+02  0.17043387508E+03  0.19581505595E+03  0.00000000000E+00 0.  1.
<scales pt_clust_5="13000.00000" pt_clust_6="13000.00000" pt_clust_7="13000.00000" pt_clust_8="13000.00000" pt_clust_9="96.41489"></scales>
<clustering>
<clus scale="   79.874">  5  6 -1 -1</clus>
<clus scale="   96.415">  1  9  2 -1</clus>
<clus scale="   96.415">  1  5  2 -1</clus>
<clus scale="   97.777">  7  8 -1 -1</clus>
<clus scale="   96.415">  1  5  2 -1</clus>
</clustering>
</event>
<event>
 9    1  0.6014990E-005  0.8965356E+02  0.7546771E-02  0.1307643E+00
         21   -1    0    0  501  502  0.00000000000E+00  0.00000000000E+00  0.93536950085E+02  0.93536950085E+02  0.00000000000E+00 0. -1.
          1   -1    0    0  502    0 -0.00000000000E+00 -0.00000000000E+00 -0.18906518484E+03  0.18906518484E+03  0.00000000000E+00 0. -1.
         23    2    1    2    0    0 -0.61583611507E+01  0.14503147298E+02 -0.11297660060E+03  0.14451701099E+03  0.88730983829E+02 0.  0.
        -24    2    1    2    0    0  0.14905999348E+02  0.94783705556E+01  0.49002279947E+02  0.97498378951E+02  0.82417729484E+02 0.  0.
         13    1    4    4    0    0  0.38196600428E+01  0.44437278478E+02  0.13861223643E+02  0.46705406992E+02  0.00000000000E+00 0. -1.
        -14    1    4    4    0    0  0.11086339305E+02 -0.34958907923E+02  0.35141056304E+02  0.50792971959E+02  0.00000000000E+00 0.  1.
        -13    1    3    3    0    0 -0.66583865797E+01 -0.34606680230E+02 -0.73477036604E+02  0.81491296078E+02  0.00000000000E+00 0.  1.
         13    1    3    3    0    0  0.50002542900E+00  0.49109827528E+02 -0.39499563991E+02  0.63025714917E+02  0.00000000000E+00 0. -1.
          2    1    1    2  501    0 -0.87476381970E+01 -0.23981517854E+02 -0.31553914110E+02  0.40586744982E+02  0.00000000000E+00 0. -1.
<scales pt_clust_5="13000.00000" pt_clust_6="13000.00000" pt_clust_7="13000.00000" pt_clust_8="13000.00000" pt_clust_9="25.52714"></scales>
<clustering>
<clus scale="   25.527">  1  9  2 -1</clus>
<clus scale="   82.418">  5  6 -1 -1</clus>
<clus scale="   83.410">  1  5  2 -1</clus>
<clus scale="   88.731">  7  8 -1 -1</clus>
<clus scale="   25.527">  1  5  2 -1</clus>
</clustering>
</event>
<event>
 9    1  0.6014990E-005  0.2339577E+03  0.7546771E-02  0.1123885E+00
         21   -1    0    0  501  502  0.00000000000E+00  0.00000000000E+00  0.49135880613E+02  0.49135880613E+02  0.00000000000E+00 0. -1.
          1   -1    0    0  502    0 -0.00000000000E+00 -0.00000000000E+00 -0.75900573688E+03  0.75900573688E+03  0.00000000000E+00 0. -1.
        -24    2    1    2    0    0  0.61486880944E+02  0.59590325789E+02 -0.20258083382E+03  0.23483797903E+03  0.82330059574E+02 0.  0.
         23    2    1    2    0    0  0.56484970794E+02  0.29963381132E+02 -0.28809458677E+03  0.30875983328E+03  0.90806319096E+02 0.  0.
         13    1    3    3    0    0  0.46530867057E+02  0.78754470312E+01 -0.34811022843E+02  0.58642574691E+02  0.00000000000E+00 0. -1.
        -14    1    3    3    0    0  0.14956013887E+02  0.51714878758E+02 -0.16776981097E+03  0.17619540434E+03  0.00000000000E+00 0.  1.
        -11    1    4    4    0    0  0.70532806636E+02 -0.24245717065E+01 -0.14346899627E+03  0.15988779894E+03  0.00000000000E+00 0.  1.
         11    1    4    4    0    0 -0.14047835842E+02  0.32387952839E+02 -0.14462559050E+03  0.14887203434E+03  0.00000000000E+00 0. -1.
          2    1    1    2  501    0 -0.11797185174E+03 -0.89553706921E+02 -0.21919443568E+03  0.26454380518E+03  0.00000000000E+00 0. -1.
<scales pt_clust_5="13000.00000" pt_clust_6="13000.00000" pt_clust_7="13000.00000" pt_clust_8="13000.00000" pt_clust_9="148.11220"></scales>
<clustering>
<clus scale="   82.330">  5  6 -1 -1</clus>
<clus scale="   90.806">  7  8 -1 -1</clus>
<clus scale="  100.896">  5  7 -1 -1</clus>
<clus scale="  148.112">  1  9  2 -1</clus>
<clus scale="  148.112">  1  5  2 -1</clus>
</clustering>
</event>
<event>
 9    1  0.6014990E-005  0.1080230E+03  0.7546771E-02  0.1267474E+00
         21   -1    0    0  501  502  0.00000000000E+00  0.00000000000E+00  0.49106797289E+03  0.49106797289E+03  0.00000000000E+00 0. -1.
         -2   -1    0    0    0  501 -0.00000000000E+00 -0.00000000000E+00 -0.14652694951E+03  0.14652694951E+03  0.00000000000E+00 0.  1.
        -24    2    1    2    0    0 -0.17553621325E+02 -0.45322910651E+02 -0.91248836480E+02  0.13382060389E+03  0.84966511142E+02 0.  0.
         23    2    1    2    0    0  0.29062264542E+02  0.11195141109E+03  0.15297780601E+03  0.21299181604E+03  0.92658355800E+02 0.  0.
         13    1    3    3    0    0  0.31678740198E+02 -0.11411378501E+02 -0.14819429899E+02  0.36788281318E+02  0.00000000000E+00 0. -1.
        -14    1    3    3    0    0 -0.49232361523E+02 -0.33911532150E+02 -0.76429406581E+02  0.97032322575E+02  0.00000000000E+00 0.  1.
        -11    1    4    4    0    0 -0.76892186586E+01  0.10984576761E+03  0.10188702646E+03  0.15002060827E+03  0.00000000000E+00 0. -1.
         11    1    4    4    0    0  0.36751483201E+02  0.21056434828E+01  0.51090779555E+02  0.62971207765E+02  0.00000000000E+00 0.  1.
         -1    1    1    2    0  502 -0.11508643217E+02 -0.66628500439E+02  0.28281205385E+03  0.29078250246E+03  0.00000000000E+00 0.  1.
<scales pt_clust_5="13000.00000" pt_clust_6="13000.00000" pt_clust_7="13000.00000" pt_clust_8="13000.00000" pt_clust_9="67.61513"></scales>
<clustering>
<clus scale="   67.615">  1  9  2 -1</clus>
<clus scale="   84.967">  5  6 -1 -1</clus>
<clus scale="   92.658">  7  8 -1 -1</clus>
<clus scale="  101.502">  2  5  1 -1</clus>
<clus scale="   67.615">  1  5  2 -1</clus>
</clustering>
</event>
<event>
 9    1  0.6014990E-005  0.9533496E+02  0.7546771E-02  0.1296300E+00
          1   -1    0    0  502    0 -0.00000000000E+00  0.00000000000E+00  0.21123336501E+03  0.21123336501E+03  0.00000000000E+00 0. -1.
         21   -1    0    0  501  502  0.00000000000E+00 -0.00000000000E+00 -0.79979211311E+02  0.79979211311E+02  0.00000000000E+00 0. -1.
         23    2    1    2    0    0  0.19999182626E+02  0.15461587369E+02  0.10249542220E+03  0.14000868453E+03  0.91967886701E+02 0.  0.
        -24    2    1    2    0    0 -0.36898220820E+02  0.33302430183E+02  0.93511465130E+01  0.96066234468E+02  0.81674640543E+02 0.  0.
         11    1    4    4    0    0 -0.10977102130E+02  0.34799257444E+02  0.41160133643E+02  0.55005833249E+02  0.00000000000E+00 0. -1.
        -12    1    4    4    0    0 -0.25921118691E+02 -0.14968272610E+01 -0.31808987130E+02  0.41060401219E+02  0.00000000000E+00 0.  1.
        -13    1    3    3    0    0  0.50527669383E+02  0.13702233396E+02  0.27755431559E+02  0.59255046657E+02  0.00000000000E+00 0.  1.
         13    1    3    3    0    0 -0.30528486757E+02  0.17593539731E+01  0.74739990637E+02  0.80753637877E+02  0.00000000000E+00 0. -1.
          2    1    1    2  501    0  0.16899038194E+02 -0.48764017553E+02  0.19407584994E+02  0.55137657323E+02  0.00000000000E+00 0. -1.
<scales pt_clust_5="13000.00000" pt_clust_6="13000.00000" pt_clust_7="13000.00000" pt_clust_8="13000.00000" pt_clust_9="51.60917"></scales>
<clustering>
<clus scale="   51.609">  2  9  1 -1</clus>
<clus scale="   81.675">  5  6 -1 -1</clus>
<clus scale="   85.448">  2  5  1 -1</clus>
<clus scale="   91.968">  7  8 -1 -1</clus>
<clus scale="   51.609">  2  5  1 -1</clus>
</clustering>
</event>
<event>
 9    1  0.6014990E-005  0.1016570E+03  0.7546771E-02  0.1283173E+00
         21   -1    0    0  501  502  0.00000000000E+00  0.00000000000E+00  0.21234695373E+02  0.21234695373E+02  0.00000000000E+00 0. -1.
          1   -1    0    0  502    0 -0.00000000000E+00 -0.00000000000E+00 -0.78554344829E+03  0.78554344829E+03  0.00000000000E+00 0. -1.
        -24    2    1    2    0    0 -0.24071765539E+02 -0.46775673085E+02 -0.52035075992E+03  0.52900989575E+03  0.79493037199E+02 0.  0.
         23    2    1    2    0    0  0.10468372105E+02  0.10034879598E+02 -0.16580403702E+03  0.19034411478E+03  0.92355929516E+02 0.  0.
         11    1    3    3    0    0 -0.19636976212E+01 -0.65993236762E+02 -0.36356993986E+03  0.36951598690E+03  0.00000000000E+00 0. -1.
        -12    1    3    3    0    0 -0.22108067918E+02  0.19217563677E+02 -0.15678082006E+03  0.15949390884E+03  0.00000000000E+00 0.  1.
        -13    1    4    4    0    0  0.46383088579E+02  0.10409143593E+02 -0.49537876047E+02  0.68656699161E+02  0.00000000000E+00 0.  1.
         13    1    4    4    0    0 -0.35914716474E+02 -0.37426399525E+00 -0.11626616097E+03  0.12168741562E+03  0.00000000000E+00 0. -1.
          2    1    1    2  501    0  0.13603393434E+02  0.36740793488E+02 -0.78153955979E+02  0.87424133134E+02  0.00000000000E+00 0. -1.
<scales pt_clust_5="13000.00000" pt_clust_6="13000.00000" pt_clust_7="13000.00000" pt_clust_8="13000.00000" pt_clust_9="39.17829"></scales>
<clustering>
<clus scale="   39.178">  1  9  2 -1</clus>
<clus scale="   79.493">  5  6 -1 -1</clus>
<clus scale="   90.131">  2  5  1 -1</clus>
<clus scale="   92.356">  7  8 -1 -1</clus>
<clus scale="   39.178">  1  5  2 -1</clus>
</clustering>
</event>
<event>
 9    1  0.6014990E-005  0.1028058E+03  0.7546771E-02  0.1278148E+00
         21   -1    0    0  501  502  0.00000000000E+00  0.00000000000E+00  0.34382696679E+02  0.34382696679E+02  0.00000000000E+00 0.  1.
          1   -1    0    0  502    0 -0.00000000000E+00 -0.00000000000E+00 -0.64085024044E+03  0.64085024044E+03  0.00000000000E+00 0. -1.
         23    2    1    2    0    0  0.87305878448E+01 -0.63429067401E+02 -0.36554015531E+03  0.38183587523E+03  0.89886376661E+02 0.  0.
        -24    2    1    2    0    0  0.44501290257E+02  0.25578640337E+02 -0.17885063383E+03  0.20328706722E+03  0.81874604136E+02 0.  0.
         13    1    4    4    0    0  0.13462512066E+02  0.29013578457E+02 -0.16676044377E+03  0.16980009592E+03  0.00000000000E+00 0. -1.
        -14    1    4    4    0    0  0.31038778191E+02 -0.34349381200E+01 -0.12090190054E+02  0.33486971302E+02  0.00000000000E+00 0.  1.
        -13    1    3    3    0    0  0.45609043974E+02 -0.30614254382E+02 -0.25381508476E+03  0.25969119106E+03  0.00000000000E+00 0.  1.
         13    1    3    3    0    0 -0.36878456129E+02 -0.32814813019E+02 -0.11172507055E+03  0.12214468417E+03  0.00000000000E+00 0. -1.
          2    1    1    2  501    0 -0.53231878102E+02  0.37850427064E+02 -0.62076754617E+02  0.90109994667E+02  0.00000000000E+00 0. -1.
<scales pt_clust_5="13000.00000" pt_clust_6="13000.00000" pt_clust_7="13000.00000" pt_clust_8="13000.00000" pt_clust_9="65.31683"></scales>
<clustering>
<clus scale="   65.317">  1  9  2 -1</clus>
<clus scale="   81.875">  5  6 -1 -1</clus>
<clus scale="   89.886">  7  8 -1 -1</clus>
<clus scale="   95.880">  1  5  2 -1</clus>
<clus scale="   65.317">  1  5  2 -1</clus>
</clustering>
</event>
<event>
 9    1  0.6014990E-005  0.1163237E+03  0.7546771E-02  0.1250396E+00
          1   -1    0    0  502    0 -0.00000000000E+00  0.00000000000E+00  0.61154500099E+03  0.61154500099E+03  0.00000000000E+00 0. -1.
         21   -1    0    0  501  502  0.00000000000E+00 -0.00000000000E+00 -0.33926835168E+02  0.33926835168E+02  0.00000000000E+00 0. -1.
         23    2    1    2    0    0  0.18697222732E+02 -0.71555990517E+02  0.25186850873E+03  0.27493814659E+03  0.81752020425E+02 0.  0.
        -24    2    1    2    0    0 -0.39579114041E+01  0.89938706222E+02  0.15656712480E+03  0.19971828989E+03  0.85261332433E+02 0.  0.
         11    1    4    4    0    0 -0.33725028880E+02  0.86827896036E+02  0.12832319285E+03  0.15856639911E+03  0.00000000000E+00 0. -1.
        -12    1    4    4    0    0  0.29767117476E+02  0.31108101864E+01  0.28243931956E+02  0.41151890785E+02  0.00000000000E+00 0.  1.
        -13    1    3    3    0    0  0.33298201907E+02 -0.52506085599E+02  0.24045058180E+03  0.24835889668E+03  0.00000000000E+00 0. -1.
         13    1    3    3    0    0 -0.14600979175E+02 -0.19049904918E+02  0.11417926937E+02  0.26579249910E+02  0.00000000000E+00 0.  1.
          2    1    1    2  501    0 -0.14739311328E+02 -0.18382715705E+02  0.16918253228E+03  0.17081539967E+03  0.00000000000E+00 0. -1.
<scales pt_clust_5="13000.00000" pt_clust_6="13000.00000" pt_clust_7="13000.00000" pt_clust_8="13000.00000" pt_clust_9="23.56209"></scales>
<clustering>
<clus scale="   23.562">  2  9  1 -1</clus>
<clus scale="   81.752">  7  8 -1 -1</clus>
<clus scale="   85.261">  5  6 -1 -1</clus>
<clus scale="  113.777">  1  7  2 -1</clus>
<clus scale="   23.562">  2  5  1 -1</clus>
</clustering>
</event>
<event>
 9    1  0.6014990E-005  0.1152940E+03  0.7546771E-02  0.1267132E+00
          1   -1    0    0  502    0 -0.00000000000E+00  0.00000000000E+00  0.44789332340E+03  0.44789332340E+03  0.00000000000E+00 0. -1.
         21   -1    0    0  501  502  0.00000000000E+00 -0.00000000000E+00 -0.49987788597E+02  0.49987788597E+02  0.00000000000E+00 0. -1.
        -24    2    1    2    0    0 -0.30860802958E+02 -0.69163905479E+01  0.64092454060E+02  0.10569063344E+03  0.77861683214E+02 0.  0.
         23    2    1    2    0    0 -0.55649944354E+02 -0.12290448891E+02  0.12462092512E+03  0.16500251660E+03  0.91910195661E+02 0.  0.
         13    1    3    3    0    0 -0.31197992351E+02  0.20058998469E+02  0.10348380649E+01  0.37104568939E+02  0.00000000000E+00 0. -1.
        -14    1    3    3    0    0  0.33718939327E+00 -0.26975389017E+02  0.63057615995E+02  0.68586064505E+02  0.00000000000E+00 0.  1.
        -13    1    4    4    0    0 -0.34117294277E+02 -0.44757471727E+02  0.10968281389E+03  0.12327830590E+03  0.00000000000E+00 0. -1.
         13    1    4    4    0    0 -0.21532650077E+02  0.32467022836E+02  0.14938111235E+02  0.41724210699E+02  0.00000000000E+00 0.  1.
          2    1    1    2  501    0  0.86510747312E+02  0.19206839439E+02  0.20919215562E+03  0.22718796195E+03  0.00000000000E+00 0. -1.
<scales pt_clust_5="13000.00000" pt_clust_6="13000.00000" pt_clust_7="13000.00000" pt_clust_8="13000.00000" pt_clust_9="69.60761"></scales>
<clustering>
<clus scale="   77.862">  5  6 -1 -1</clus>
<clus scale="   84.040">  1  5  2 -1</clus>
<clus scale="   69.608">  2  9  1 -1</clus>
<clus scale="   91.910">  7  8 -1 -1</clus>
<clus scale="   69.608">  2  5  1 -1</clus>
</clustering>
</event>
<event>
 9    1  0.6014990E-005  0.1008450E+03  0.7546771E-02  0.1286983E+00
         21   -1    0    0  501  502  0.00000000000E+00  0.00000000000E+00  0.51559721791E+02  0.51559721791E+02  0.00000000000E+00 0.  1.
          1   -1    0    0  502    0 -0.00000000000E+00 -0.00000000000E+00 -0.57024595427E+03  0.57024595427E+03  0.00000000000E+00 0. -1.
        -24    2    1    2    0    0 -0.18326919138E+02  0.24623323096E+02 -0.38844619770E+03  0.39786510715E+03  0.80399073236E+02 0.  0.
         23    2    1    2    0    0  0.47812444312E+02  0.77246636607E+01 -0.14237876175E+03  0.17851879952E+03  0.96184976614E+02 0.  0.
         11    1    3    3    0    0 -0.30625871613E+02 -0.22013742055E+02 -0.16049686047E+03  0.16486901186E+03  0.00000000000E+00 0. -1.
        -12    1    3    3    0    0  0.12298952475E+02  0.46637065151E+02 -0.22794933723E+03  0.23299609529E+03  0.00000000000E+00 0.  1.
        -13    1    4    4    0    0 -0.10794477382E+02 -0.33620380671E+02 -0.38002385584E+02  0.51875158299E+02  0.00000000000E+00 0. -1.
         13    1    4    4    0    0  0.58606921694E+02  0.41345044332E+02 -0.10437637617E+03  0.12664364123E+03  0.00000000000E+00 0.  1.
          2    1    1    2  501    0 -0.29485525174E+02 -0.32347986757E+02  0.12138726967E+02  0.45421769388E+02  0.00000000000E+00 0. -1.
<scales pt_clust_5="13000.00000" pt_clust_6="13000.00000" pt_clust_7="13000.00000" pt_clust_8="13000.00000" pt_clust_9="43.76972"></scales>
<clustering>
<clus scale="   43.770">  1  9  2 -1</clus>
<clus scale="   80.399">  5  6 -1 -1</clus>
<clus scale="   85.920">  2  5  1 -1</clus>
<clus scale="   96.185">  7  8 -1 -1</clus>
<clus scale="   43.770">  1  5  2 -1</clus>
</clustering>
</event>
<event>
 9    1  0.6014990E-005  0.9166956E+02  0.7546771E-02  0.1315125E+00
         -2   -1    0    0    0  501 -0.00000000000E+00  0.00000000000E+00  0.24609902236E+02  0.24609902236E+02  0.00000000000E+00 0.  1.
         21   -1    0    0  501  502  0.00000000000E+00 -0.00000000000E+00 -0.68082181603E+03  0.68082181603E+03  0.00000000000E+00 0. -1.
         23    2    1    2    0    0 -0.18165659255E+01  0.11959211981E+02 -0.26045064003E+03  0.27578285563E+03  0.89862811566E+02 0.  0.
        -24    2    1    2    0    0 -0.24763545830E+02 -0.21458715035E+02 -0.39462984108E+03  0.40139956106E+03  0.65690079169E+02 0.  0.
         13    1    4    4    0    0 -0.57228749367E+01 -0.43294409172E+02 -0.20806898759E+03  0.21260258879E+03  0.00000000000E+00 0. -1.
        -14    1    4    4    0    0 -0.19040670894E+02  0.21835694137E+02 -0.18656085348E+03  0.18879697227E+03  0.00000000000E+00 0.  1.
        -13    1    3    3    0    0  0.19469911302E+02  0.45363430824E+02 -0.17038050778E+03  0.17738781168E+03  0.00000000000E+00 0. -1.
         13    1    3    3    0    0 -0.21286477227E+02 -0.33404218843E+02 -0.90070132256E+02  0.98395043950E+02  0.00000000000E+00 0.  1.
         -1    1    1    2    0  502  0.26580111756E+02  0.94995030542E+01 -0.11314326804E+01  0.28249301569E+02  0.00000000000E+00 0.  1.
<scales pt_clust_5="13000.00000" pt_clust_6="13000.00000" pt_clust_7="13000.00000" pt_clust_8="13000.00000" pt_clust_9="28.22665"></scales>
<clustering>
<clus scale="   28.227">  2  9  1 -1</clus>
<clus scale="   65.690">  5  6 -1 -1</clus>
<clus scale="   68.141">  2  5  1 -1</clus>
<clus scale="   89.863">  7  8 -1 -1</clus>
<clus scale="   28.227">  2  5  1 -1</clus>
</clustering>
</event>
<event>
 9    1  0.6014990E-005  0.3422469E+03  0.7546771E-02  0.1093086E+00
          1   -1    0    0  502    0 -0.00000000000E+00  0.00000000000E+00  0.12382846507E+04  0.12382846507E+04  0.00000000000E+00 0. -1.
         21   -1    0    0  501  502  0.00000000000E+00 -0.00000000000E+00 -0.16163143234E+03  0.16163143234E+03  0.00000000000E+00 0. -1.
         23    2    1    2    0    0 -0.11571195180E+03  0.71094742844E+02  0.11461554438E+03  0.20020732023E+03  0.92209163383E+02 0.  0.
        -24    2    1    2    0    0  0.30512046223E+03 -0.22999946377E+03  0.29790773742E+03  0.49105167592E+03  0.79902932413E+02 0.  0.
         13    1    4    4    0    0  0.15044651093E+03 -0.12584812056E+03  0.20123267952E+03  0.28100977458E+03  0.00000000000E+00 0. -1.
        -14    1    4    4    0    0  0.15467395130E+03 -0.10415134320E+03  0.96675057901E+02  0.21004190135E+03  0.00000000000E+00 0.  1.
        -11    1    3    3    0    0 -0.57194710164E+02  0.15627465354E+02 -0.94538298131E+00  0.59298788293E+02  0.00000000000E+00 0. -1.
         11    1    3    3    0    0 -0.58517241636E+02  0.55467277491E+02  0.11556092736E+03  0.14090853194E+03  0.00000000000E+00 0.  1.
          2    1    1    2  501    0 -0.18940851043E+03  0.15890472092E+03  0.66412993655E+03  0.70865708688E+03  0.00000000000E+00 0. -1.
<scales pt_clust_5="13000.00000" pt_clust_6="13000.00000" pt_clust_7="13000.00000" pt_clust_8="13000.00000" pt_clust_9="332.78904"></scales>
<clustering>
<clus scale="   79.903">  5  6 -1 -1</clus>
<clus scale="   92.209">  7  8 -1 -1</clus>
<clus scale="  164.153">  1  7  2 -1</clus>
<clus scale="  332.789">  2  9  1 -1</clus>
<clus scale="  332.789">  2  5  1 -1</clus>
</clustering>
</event>
<event>
 9    1  0.6014990E-005  0.9028261E+02  0.7546771E-02  0.1307898E+00
         21   -1    0    0  501  502  0.00000000000E+00  0.00000000000E+00  0.10662850514E+03  0.10662850514E+03  0.00000000000E+00 0.  1.
          1   -1    0    0  502    0 -0.00000000000E+00 -0.00000000000E+00 -0.28348988480E+03  0.28348988480E+03  0.00000000000E+00 0. -1.
         23    2    1    2    0    0  0.68701410976E+01  0.67875477705E+01 -0.23527874490E+03  0.25196058226E+03  0.89636920781E+02 0.  0.
        -24    2    1    2    0    0  0.91193928208E+01 -0.27695030018E+02  0.14438168597E+02  0.86903951762E+02  0.80583237130E+02 0.  0.
         11    1    4    4    0    0  0.59900235126E+01  0.24538746700E+02  0.22660836689E+02  0.33934407181E+02  0.00000000000E+00 0. -1.
        -12    1    4    4    0    0  0.31293693082E+01 -0.52233776718E+02 -0.82226680923E+01  0.52969544581E+02  0.00000000000E+00 0.  1.
        -13    1    3    3    0    0 -0.30691000393E+02  0.14685719110E+02 -0.38098647344E+02  0.51079494715E+02  0.00000000000E+00 0. -1.
         13    1    3    3    0    0  0.37561141491E+02 -0.78981713399E+01 -0.19718009755E+03  0.20088108754E+03  0.00000000000E+00 0.  1.
          2    1    1    2  501    0 -0.15989533918E+02  0.20907482248E+02  0.43979196641E+02  0.51253855914E+02  0.00000000000E+00 0. -1.
<scales pt_clust_5="13000.00000" pt_clust_6="13000.00000" pt_clust_7="13000.00000" pt_clust_8="13000.00000" pt_clust_9="26.32087"></scales>
<clustering>
<clus scale="   26.321">  1  9  2 -1</clus>
<clus scale="   80.583">  5  6 -1 -1</clus>
<clus scale="   81.301">  1  5  2 -1</clus>
<clus scale="   89.637">  7  8 -1 -1</clus>
<clus scale="   26.321">  1  5  2 -1</clus>
</clustering>
</event>
<event>
 9    1  0.6014990E-005  0.7938284E+02  0.7546771E-02  0.1338786E+00
         21   -1    0    0  501  502  0.00000000000E+00  0.00000000000E+00  0.25206581184E+03  0.25206581184E+03  0.00000000000E+00 0. -1.
         -2   -1    0    0    0  501 -0.00000000000E+00 -0.00000000000E+00 -0.74913907480E+02  0.74913907480E+02  0.00000000000E+00 0.  1.
        -24    2    1    2    0    0 -0.12027707387E+02 -0.17554455499E+02 -0.37966960371E+02  0.88950169034E+02  0.77574595316E+02 0.  0.
         23    2    1    2    0    0 -0.14985285645E+02  0.13643559163E+01  0.12564031722E+03  0.14317054132E+03  0.66976819409E+02 0.  0.
         11    1    3    3    0    0  0.29305659860E+02 -0.22550581267E+02 -0.27322309310E+02  0.45976722385E+02  0.00000000000E+00 0. -1.
        -12    1    3    3    0    0 -0.41333367247E+02  0.49961257671E+01 -0.10644651061E+02  0.42973446649E+02  0.00000000000E+00 0.  1.
        -11    1    4    4    0    0 -0.18691900861E+02 -0.18520522478E+02  0.11900987819E+03  0.12188415819E+03  0.00000000000E+00 0. -1.
         11    1    4    4    0    0  0.37066152165E+01  0.19884878394E+02  0.66304390292E+01  0.21286383132E+02  0.00000000000E+00 0.  1.
         -1    1    1    2    0  502  0.27012993032E+02  0.16190099583E+02  0.89478547510E+02  0.94859008964E+02  0.00000000000E+00 0.  1.
<scales pt_clust_5="13000.00000" pt_clust_6="13000.00000" pt_clust_7="13000.00000" pt_clust_8="13000.00000" pt_clust_9="31.49319"></scales>
<clustering>
<clus scale="   31.493">  1  9  2 -1</clus>
<clus scale="   66.977">  7  8 -1 -1</clus>
<clus scale="   69.063">  1  7  2 -1</clus>
<clus scale="   77.575">  5  6 -1 -1</clus>
<clus scale="   31.493">  1  5  2 -1</clus>
</clustering>
</event>
<event>
 9    1  0.6014990E-005  0.9633087E+02  0.7546771E-02  0.1295098E+00
         21   -1    0    0  501  502  0.00000000000E+00  0.00000000000E+00  0.56918672196E+02  0.56918672196E+02  0.00000000000E+00 0.  1.
          1   -1    0    0  502    0 -0.00000000000E+00 -0.00000000000E+00 -0.36105013870E+03  0.36105013870E+03  0.00000000000E+00 0. -1.
         23    2    1    2    0    0 -0.22735349841E+02 -0.31281229543E+02 -0.17680705300E+03  0.20400176821E+03  0.94130632581E+02 0.  0.
        -24    2    1    2    0    0  0.40942204970E+01 -0.36134282101E+02 -0.31289993310E+02  0.95160675953E+02  0.82182976230E+02 0.  0.
         11    1    4    4    0    0  0.16826993953E+02  0.20663784881E+02 -0.25128688108E+02  0.36627731259E+02  0.00000000000E+00 0. -1.
        -12    1    4    4    0    0 -0.12732773456E+02 -0.56798066982E+02 -0.61613052018E+01  0.58532944694E+02  0.00000000000E+00 0.  1.
        -13    1    3    3    0    0 -0.34944663158E+02  0.10732194723E+02 -0.20977905329E+02  0.42147146983E+02  0.00000000000E+00 0. -1.
         13    1    3    3    0    0  0.12209313317E+02 -0.42013424266E+02 -0.15582914767E+03  0.16185462123E+03  0.00000000000E+00 0.  1.
          2    1    1    2  501    0  0.18641129344E+02  0.67415511644E+02 -0.96034420196E+02  0.11880636673E+03  0.00000000000E+00 0. -1.
<scales pt_clust_5="13000.00000" pt_clust_6="13000.00000" pt_clust_7="13000.00000" pt_clust_8="13000.00000" pt_clust_9="69.94532"></scales>
<clustering>
<clus scale="   69.945">  1  9  2 -1</clus>
<clus scale="   82.183">  5  6 -1 -1</clus>
<clus scale="   84.694">  1  5  2 -1</clus>
<clus scale="   94.131">  7  8 -1 -1</clus>
<clus scale="   69.945">  1  5  2 -1</clus>
</clustering>
</event>
<event>
 9    1  0.6014990E-005  0.1021069E+03  0.7546771E-02  0.1280408E+00
         -2   -1    0    0    0  501 -0.00000000000E+00  0.00000000000E+00  0.44429450877E+02  0.44429450877E+02  0.00000000000E+00 0.  1.
         21   -1    0    0  501  502  0.00000000000E+00 -0.00000000000E+00 -0.39280865023E+03  0.39280865023E+03  0.00000000000E+00 0.  1.
         23    2    1    2    0    0 -0.38164748816E+02  0.54572317273E+02 -0.12905730577E+03  0.17174424135E+03  0.91682116027E+02 0.  0.
        -24    2    1    2    0    0  0.28986859072E+02  0.65140581369E+00 -0.16918420195E+03  0.19034280272E+03  0.82258288514E+02 0.  0.
         13    1    4    4    0    0  0.40306535603E+02 -0.30184277331E+02 -0.72828744026E+02  0.88542268813E+02  0.00000000000E+00 0. -1.
        -14    1    4    4    0    0 -0.11319676531E+02  0.30835683144E+02 -0.96355457923E+02  0.10180053391E+03  0.00000000000E+00 0.  1.
        -13    1    3    3    0    0  0.22784329068E+01  0.29746435806E+02  0.43490847789E+01  0.30148901109E+02  0.00000000000E+00 0.  1.
         13    1    3    3    0    0 -0.40443181723E+02  0.24825881466E+02 -0.13340639054E+03  0.14159534024E+03  0.00000000000E+00 0. -1.
         -1    1    1    2    0  502  0.91778897447E+01 -0.55223723086E+02 -0.50137691636E+02  0.75151057041E+02  0.00000000000E+00 0.  1.
<scales pt_clust_5="13000.00000" pt_clust_6="13000.00000" pt_clust_7="13000.00000" pt_clust_8="13000.00000" pt_clust_9="55.98121"></scales>
<clustering>
<clus scale="   55.981">  2  9  1 -1</clus>
<clus scale="   82.258">  5  6 -1 -1</clus>
<clus scale="   91.682">  7  8 -1 -1</clus>
<clus scale="   93.737">  2  5  1 -1</clus>
<clus scale="   55.981">  2  5  1 -1</clus>
</clustering>
</event>
<event>
 9    1  0.6014990E-005  0.1122762E+03  0.7546771E-02  0.1257530E+00
         21   -1    0    0  501  502  0.00000000000E+00  0.00000000000E+00  0.10210641047E+03  0.10210641047E+03  0.00000000000E+00 0. -1.
          3   -1    0    0  502    0 -0.00000000000E+00 -0.00000000000E+00 -0.30588309740E+03  0.30588309740E+03  0.00000000000E+00 0. -1.
         23    2    1    2    0    0 -0.23149401178E+02  0.60261896058E+02 -0.21299776725E+03  0.23937326608E+03  0.88114248366E+02 0.  0.
        -24    2    1    2    0    0  0.30258074175E+02 -0.83100028660E+02 -0.26649422732E+02  0.12550236326E+03  0.84967556368E+02 0.  0.
         13    1    4    4    0    0  0.48084283704E+02 -0.65970351107E+02 -0.46363876224E+02  0.93881811779E+02  0.00000000000E+00 0. -1.
        -14    1    4    4    0    0 -0.17826209528E+02 -0.17129677553E+02  0.19714453493E+02  0.31620551478E+02  0.00000000000E+00 0.  1.
        -11    1    3    3    0    0 -0.14890168373E+02 -0.21937199714E+02 -0.56359550184E+02  0.62284482356E+02  0.00000000000E+00 0.  1.
         11    1    3    3    0    0 -0.82592328054E+01  0.82199095772E+02 -0.15663821707E+03  0.17708878372E+03  0.00000000000E+00 0. -1.
          4    1    1    2  501    0 -0.71086729970E+01  0.22838132601E+02  0.35870503062E+02  0.43113878536E+02  0.00000000000E+00 0. -1.
<scales pt_clust_5="13000.00000" pt_clust_6="13000.00000" pt_clust_7="13000.00000" pt_clust_8="13000.00000" pt_clust_9="23.91889"></scales>
<clustering>
<clus scale="   23.919">  1  9  2 -1</clus>
<clus scale="   84.968">  5  6 -1 -1</clus>
<clus scale="   88.114">  7  8 -1 -1</clus>
<clus scale="  109.824">  1  5  2 -1</clus>
<clus scale="   23.919">  1  5  2 -1</clus>
</clustering>
</event>
<event>
 9    1  0.6014990E-005  0.9805019E+02  0.7546771E-02  0.1292618E+00
          1   -1    0    0  502    0 -0.00000000000E+00  0.00000000000E+00  0.23523020758E+03  0.23523020758E+03  0.00000000000E+00 0. -1.
         21   -1    0    0  501  502  0.00000000000E+00 -0.00000000000E+00 -0.56443417489E+02  0.56443417489E+02  0.00000000000E+00 0. -1.
         23    2    1    2    0    0  0.33904535193E+02 -0.20116995722E+02  0.97837938000E+02  0.14051043508E+03  0.92826231370E+02 0.  0.
        -24    2    1    2    0    0 -0.21893316507E+02 -0.40699759090E+00  0.16735532662E+02  0.82687982302E+02  0.77959870504E+02 0.  0.
         13    1    4    4    0    0 -0.33240924992E+02  0.31811523584E+02  0.15343762995E+02  0.48501166892E+02  0.00000000000E+00 0. -1.
        -14    1    4    4    0    0  0.11347608485E+02 -0.32218521175E+02  0.13917696671E+01  0.34186815410E+02  0.00000000000E+00 0.  1.
        -13    1    3    3    0    0  0.38296219030E+02  0.45445303098E+01 -0.96957939957E+00  0.38577107615E+02  0.00000000000E+00 0.  1.
         13    1    3    3    0    0 -0.43916838365E+01 -0.24661526032E+02  0.98807517400E+02  0.10193332746E+03  0.00000000000E+00 0. -1.
          2    1    1    2  501    0 -0.12011218686E+02  0.20523993313E+02  0.64213319424E+02  0.68475207683E+02  0.00000000000E+00 0. -1.
<scales pt_clust_5="13000.00000" pt_clust_6="13000.00000" pt_clust_7="13000.00000" pt_clust_8="13000.00000" pt_clust_9="23.78033"></scales>
<clustering>
<clus scale="   23.780">  2  9  1 -1</clus>
<clus scale="   77.960">  5  6 -1 -1</clus>
<clus scale="   84.112">  2  5  1 -1</clus>
<clus scale="   92.826">  7  8 -1 -1</clus>
<clus scale="   23.780">  2  5  1 -1</clus>
</clustering>
</event>
<event>
 9    1  0.6014990E-005  0.1002135E+03  0.7546771E-02  0.1284942E+00
         -2   -1    0    0    0  501 -0.00000000000E+00  0.00000000000E+00  0.60186092233E+03  0.60186092233E+03  0.00000000000E+00 0.  1.
         21   -1    0    0  501  502  0.00000000000E+00 -0.00000000000E+00 -0.27174790748E+02  0.27174790748E+02  0.00000000000E+00 0.  1.
        -24    2    1    2    0    0  0.98909961053E+01 -0.34922457862E+02  0.30317056726E+03  0.31604267682E+03  0.81566971579E+02 0.  0.
         23    2    1    2    0    0 -0.36381980769E+02  0.34665589698E+02  0.26614128408E+03  0.28596118212E+03  0.91745642711E+02 0.  0.
         11    1    3    3    0    0  0.30917757295E+02  0.88242464342E+01  0.19291680748E+03  0.19557778414E+03  0.00000000000E+00 0. -1.
        -12    1    3    3    0    0 -0.21026761190E+02 -0.43746704296E+02  0.11025375978E+03  0.12046489268E+03  0.00000000000E+00 0.  1.
        -13    1    4    4    0    0 -0.34868459584E+02 -0.10891335308E+02  0.21228305260E+03  0.21540316868E+03  0.00000000000E+00 0. -1.
         13    1    4    4    0    0 -0.15135211843E+01  0.45556925006E+02  0.53858231482E+02  0.70558013441E+02  0.00000000000E+00 0.  1.
         -1    1    1    2    0  502  0.26490984663E+02  0.25686816403E+00  0.53742802425E+01  0.27031854132E+02  0.00000000000E+00 0.  1.
<scales pt_clust_5="13000.00000" pt_clust_6="13000.00000" pt_clust_7="13000.00000" pt_clust_8="13000.00000" pt_clust_9="26.49223"></scales>
<clustering>
<clus scale="   26.492">  2  9  1 -1</clus>
<clus scale="   81.567">  5  6 -1 -1</clus>
<clus scale="   90.987">  1  5  2 -1</clus>
<clus scale="   91.746">  7  8 -1 -1</clus>
<clus scale="   26.492">  2  5  1 -1</clus>
</clustering>
</event>
<event>
 9    1  0.6014990E-005  0.1007300E+03  0.7546771E-02  0.1292059E+00
         21   -1    0    0  501  502  0.00000000000E+00  0.00000000000E+00  0.49981564246E+02  0.49981564246E+02  0.00000000000E+00 0.  1.
          1   -1    0    0  502    0 -0.00000000000E+00 -0.00000000000E+00 -0.27057676695E+03  0.27057676695E+03  0.00000000000E+00 0. -1.
        -24    2    1    2    0    0 -0.53582071046E+01 -0.32004966850E+02 -0.16127854305E+03  0.18031082031E+03  0.73811890545E+02 0.  0.
         23    2    1    2    0    0 -0.46378636942E+01  0.10005430522E+02 -0.62168990439E+02  0.11591570411E+03  0.97210332105E+02 0.  0.
         13    1    3    3    0    0 -0.15595486700E+02 -0.23260608640E+02 -0.16416904523E+03  0.16654053720E+03  0.00000000000E+00 0. -1.
        -14    1    3    3    0    0  0.10237279595E+02 -0.87443582102E+01  0.28905021795E+01  0.13770283108E+02  0.00000000000E+00 0.  1.
        -13    1    4    4    0    0 -0.19347377364E+01  0.40112934138E+02  0.66907411246E+01  0.40713102462E+02  0.00000000000E+00 0.  1.
         13    1    4    4    0    0 -0.27031259578E+01 -0.30107503616E+02 -0.68859731564E+02  0.75202601650E+02  0.00000000000E+00 0. -1.
          2    1    1    2  501    0  0.99960707988E+01  0.21999536328E+02  0.28523307848E+01  0.24331806776E+02  0.00000000000E+00 0. -1.
<scales pt_clust_5="13000.00000" pt_clust_6="13000.00000" pt_clust_7="13000.00000" pt_clust_8="13000.00000" pt_clust_9="24.16404"></scales>
<clustering>
<clus scale="   24.164">  1  9  2 -1</clus>
<clus scale="   73.812">  5  6 -1 -1</clus>
<clus scale="   78.389">  2  5  1 -1</clus>
<clus scale="   97.210">  7  8 -1 -1</clus>
<clus scale="   24.164">  1  5  2 -1</clus>
</clustering>
</event>
<event>
 9    1  0.6014990E-005  0.1103298E+03  0.7546771E-02  0.1261207E+00
          1   -1    0    0  502    0 -0.00000000000E+00  0.00000000000E+00  0.60634189196E+03  0.60634189196E+03  0.00000000000E+00 0. -1.
         21   -1    0    0  501  502  0.00000000000E+00 -0.00000000000E+00 -0.49808845509E+02  0.49808845509E+02  0.00000000000E+00 0. -1.
        -24    2    1    2    0    0  0.50040810111E+02  0.36625326703E+02  0.30630352879E+03  0.32270058370E+03  0.80425852425E+02 0.  0.
         23    2    1    2    0    0 -0.30630617380E+02 -0.10878797312E+03  0.19505748523E+03  0.24056228436E+03  0.83962683960E+02 0.  0.
         11    1    3    3    0    0  0.45166053044E+02  0.24753513157E+02  0.30553309856E+03  0.30984380432E+03  0.00000000000E+00 0. -1.
        -12    1    3    3    0    0  0.48747570669E+01  0.11871813546E+02  0.77043023471E+00  0.12856779382E+02  0.00000000000E+00 0.  1.
        -11    1    4    4    0    0 -0.43102175267E+02 -0.19596540113E+02  0.93640049693E+02  0.10492988518E+03  0.00000000000E+00 0.  1.
         11    1    4    4    0    0  0.12471557887E+02 -0.89191433006E+02  0.10141743554E+03  0.13563239918E+03  0.00000000000E+00 0. -1.
          2    1    1    2  501    0 -0.19410192731E+02  0.72162646416E+02  0.55172032426E+02  0.92887869400E+02  0.00000000000E+00 0. -1.
<scales pt_clust_5="13000.00000" pt_clust_6="13000.00000" pt_clust_7="13000.00000" pt_clust_8="13000.00000" pt_clust_9="74.72753"></scales>
<clustering>
<clus scale="   74.728">  2  9  1 -1</clus>
<clus scale="   80.426">  5  6 -1 -1</clus>
<clus scale="   83.963">  7  8 -1 -1</clus>
<clus scale="  107.663">  1  5  2 -1</clus>
<clus scale="   74.728">  2  5  1 -1</clus>
</clustering>
</event>
<event>
 9    1  0.6014990E-005  0.1852297E+03  0.7546771E-02  0.1173075E+00
          3   -1    0    0  502    0 -0.00000000000E+00  0.00000000000E+00  0.33352298947E+03  0.33352298947E+03  0.00000000000E+00 0. -1.
         21   -1    0    0  501  502  0.00000000000E+00 -0.00000000000E+00 -0.37375536543E+03  0.37375536543E+03  0.00000000000E+00 0.  1.
        -24    2    1    2    0    0 -0.11682138374E+03 -0.37073811361E+02  0.14419398500E+03  0.20550837537E+03  0.80125425736E+02 0.  0.
         23    2    1    2    0    0 -0.90595282861E+02  0.10533438328E+03 -0.21846135998E+03  0.28077323652E+03  0.10865268962E+03 0.  0.
         11    1    3    3    0    0 -0.11710392027E+03 -0.45396556658E+02  0.14978876298E+03  0.19547595508E+03  0.00000000000E+00 0. -1.
        -12    1    3    3    0    0  0.28253652519E+00  0.83227452962E+01 -0.55947779861E+01  0.10032420290E+02  0.00000000000E+00 0.  1.
        -13    1    4    4    0    0 -0.95018822119E+02  0.41126717598E+02 -0.90399695803E+02  0.13744849384E+03  0.00000000000E+00 0. -1.
         13    1    4    4    0    0  0.44235392578E+01  0.64207665686E+02 -0.12806166417E+03  0.14332474268E+03  0.00000000000E+00 0.  1.
          4    1    1    2  501    0  0.20741666660E+03 -0.68260571922E+02  0.34034999020E+02  0.22099674301E+03  0.00000000000E+00 0. -1.
<scales pt_clust_5="13000.00000" pt_clust_6="13000.00000" pt_clust_7="13000.00000" pt_clust_8="13000.00000" pt_clust_9="150.01554"></scales>
<clustering>
<clus scale="   80.125">  5  6 -1 -1</clus>
<clus scale="  108.653">  7  8 -1 -1</clus>
<clus scale="  146.430">  1  5  2 -1</clus>
<clus scale="  150.016">  2  9  1 -1</clus>
<clus scale="  150.016">  2  5  1 -1</clus>
</clustering>
</event>
<event>
 9    1  0.6014990E-005  0.1270412E+03  0.7546771E-02  0.1254873E+00
          1   -1    0    0  502    0 -0.00000000000E+00  0.00000000000E+00  0.22838336846E+03  0.22838336846E+03  0.00000000000E+00 0. -1.
         21   -1    0    0  501  502  0.00000000000E+00 -0.00000000000E+00 -0.10334954796E+03  0.10334954796E+03  0.00000000000E+00 0. -1.
        -24    2    1    2    0    0 -0.51054419390E+01  0.23711984480E+02  0.43998678576E+02  0.91213035081E+02  0.76128905856E+02 0.  0.
         23    2    1    2    0    0 -0.17656377907E+02  0.70674199152E+02  0.84933046646E+02  0.14334969165E+03  0.89604249766E+02 0.  0.
         13    1    3    3    0    0  0.28311576548E+02  0.11256628799E+02  0.46356560403E+02  0.55472405310E+02  0.00000000000E+00 0. -1.
        -14    1    3    3    0    0 -0.33417018487E+02  0.12455355681E+02 -0.23578818265E+01  0.35740629771E+02  0.00000000000E+00 0.  1.
        -13    1    4    4    0    0 -0.94350762387E+01  0.47690847907E+02 -0.61957221116E+01  0.49008413668E+02  0.00000000000E+00 0. -1.
         13    1    4    4    0    0 -0.82213016688E+01  0.22983351245E+02  0.91128768757E+02  0.94341277979E+02  0.00000000000E+00 0.  1.
          2    1    1    2  501    0  0.22761819846E+02 -0.94386183632E+02 -0.38979047232E+01  0.97170189690E+02  0.00000000000E+00 0. -1.
<scales pt_clust_5="13000.00000" pt_clust_6="13000.00000" pt_clust_7="13000.00000" pt_clust_8="13000.00000" pt_clust_9="90.05860"></scales>
<clustering>
<clus scale="   76.129">  5  6 -1 -1</clus>
<clus scale="   79.900">  1  5  2 -1</clus>
<clus scale="   89.604">  7  8 -1 -1</clus>
<clus scale="   90.059">  2  9  1 -1</clus>
<clus scale="   90.059">  2  5  1 -1</clus>
</clustering>
</event>
<event>
 9    1  0.6014990E-005  0.1105169E+03  0.7546771E-02  0.1263312E+00
         -4   -1    0    0    0  501 -0.00000000000E+00  0.00000000000E+00  0.85946553434E+02  0.85946553434E+02  0.00000000000E+00 0.  1.
         21   -1    0    0  501  502  0.00000000000E+00 -0.00000000000E+00 -0.25027429502E+03  0.25027429502E+03  0.00000000000E+00 0. -1.
        -24    2    1    2    0    0  0.58888331850E+02 -0.12120379849E+02  0.13159274523E+02  0.10170759974E+03  0.80972403348E+02 0.  0.
         23    2    1    2    0    0 -0.66847967796E+02  0.31304736200E+02 -0.98448729365E+02  0.15279148842E+03  0.90578415275E+02 0.  0.
         11    1    3    3    0    0  0.38176814650E+01  0.20476877847E+02 -0.20649803909E+02  0.29330728249E+02  0.00000000000E+00 0. -1.
        -12    1    3    3    0    0  0.55070650385E+02 -0.32597257696E+02  0.33809078432E+02  0.72376871496E+02  0.00000000000E+00 0.  1.
        -13    1    4    4    0    0 -0.38685326243E+02  0.51973432430E+02 -0.21466489603E+02  0.68253954617E+02  0.00000000000E+00 0. -1.
         13    1    4    4    0    0 -0.28162641553E+02 -0.20668696230E+02 -0.76982239762E+02  0.84537533805E+02  0.00000000000E+00 0.  1.
         -3    1    1    2    0  502  0.79596359462E+01 -0.19184356351E+02 -0.79038286739E+02  0.81721760283E+02  0.00000000000E+00 0.  1.
<scales pt_clust_5="13000.00000" pt_clust_6="13000.00000" pt_clust_7="13000.00000" pt_clust_8="13000.00000" pt_clust_9="20.77006"></scales>
<clustering>
<clus scale="   20.770">  2  9  1 -1</clus>
<clus scale="   80.972">  5  6 -1 -1</clus>
<clus scale="   90.578">  7  8 -1 -1</clus>
<clus scale="  102.791">  1  5  2 -1</clus>
<clus scale="   20.770">  2  5  1 -1</clus>
</clustering>
</event>
<event>
 9    1  0.6014990E-005  0.1347993E+03  0.7546771E-02  0.1223336E+00
          1   -1    0    0  502    0 -0.00000000000E+00  0.00000000000E+00  0.52201981484E+03  0.52201981484E+03  0.00000000000E+00 0. -1.
         21   -1    0    0  501  502  0.00000000000E+00 -0.00000000000E+00 -0.11344438129E+03  0.11344438129E+03  0.00000000000E+00 0. -1.
        -24    2    1    2    0    0 -0.31822699879E+02 -0.97596914674E+02  0.36573603277E+03  0.38831011904E+03  0.80523666750E+02 0.  0.
         23    2    1    2    0    0 -0.53246448071E+02  0.83634597770E+02 -0.24648950886E+02  0.13767173222E+03  0.92282202492E+02 0.  0.
         13    1    3    3    0    0  0.10631496380E+02 -0.82212331357E+02  0.27038412617E+03  0.28280642112E+03  0.00000000000E+00 0. -1.
        -14    1    3    3    0    0 -0.42454196260E+02 -0.15384583317E+02  0.95351906595E+02  0.10550369792E+03  0.00000000000E+00 0.  1.
        -13    1    4    4    0    0 -0.40467382582E+02  0.30195221633E+02 -0.55195277220E+02  0.74805608680E+02  0.00000000000E+00 0. -1.
         13    1    4    4    0    0 -0.12779065488E+02  0.53439376136E+02  0.30546326334E+02  0.62866123541E+02  0.00000000000E+00 0.  1.
          2    1    1    2  501    0  0.85069147950E+02  0.13962316904E+02  0.67488351665E+02  0.10948234486E+03  0.00000000000E+00 0. -1.
<scales pt_clust_5="13000.00000" pt_clust_6="13000.00000" pt_clust_7="13000.00000" pt_clust_8="13000.00000" pt_clust_9="86.20734"></scales>
<clustering>
<clus scale="   80.524">  5  6 -1 -1</clus>
<clus scale="   86.207">  2  9  1 -1</clus>
<clus scale="   92.282">  7  8 -1 -1</clus>
<clus scale="  127.039">  1  5  2 -1</clus>
<clus scale="   86.207">  2  5  1 -1</clus>
</clustering>
</event>
<event>
 9    1  0.6014990E-005  0.1093617E+03  0.7546771E-02  0.1271258E+00
         -2   -1    0    0    0  501 -0.00000000000E+00  0.00000000000E+00  0.47992515105E+02  0.47992515105E+02  0.00000000000E+00 0.  1.
         21   -1    0    0  501  502  0.00000000000E+00 -0.00000000000E+00 -0.56098194807E+03  0.56098194807E+03  0.00000000000E+00 0. -1.
         23    2    1    2    0    0  0.17893141769E+02 -0.29773765434E+02 -0.24589908585E+03  0.26821957142E+03  0.10133477411E+03 0.  0.
        -24    2    1    2    0    0  0.13114633909E+02  0.53663987105E+02 -0.28222190614E+03  0.29878837031E+03  0.81076931305E+02 0.  0.
         11    1    4    4    0    0 -0.21481233961E+02  0.59275429875E+02 -0.18368925135E+03  0.19420803552E+03  0.00000000000E+00 0. -1.
        -12    1    4    4    0    0  0.34595867870E+02 -0.56114427702E+01 -0.98532654792E+02  0.10458033479E+03  0.00000000000E+00 0.  1.
        -13    1    3    3    0    0  0.53637440593E+02  0.38487045109E+00 -0.83696512073E+02  0.99409402432E+02  0.00000000000E+00 0.  1.
         13    1    3    3    0    0 -0.35744298824E+02 -0.30158635885E+02 -0.16220257377E+03  0.16881016899E+03  0.00000000000E+00 0. -1.
         -1    1    1    2    0  502 -0.31007775678E+02 -0.23890221671E+02  0.15131559020E+02  0.41966521447E+02  0.00000000000E+00 0.  1.
<scales pt_clust_5="13000.00000" pt_clust_6="13000.00000" pt_clust_7="13000.00000" pt_clust_8="13000.00000" pt_clust_9="39.14366"></scales>
<clustering>
<clus scale="   39.144">  2  9  1 -1</clus>
<clus scale="   81.077">  5  6 -1 -1</clus>
<clus scale="   90.910">  2  5  1 -1</clus>
<clus scale="  101.335">  7  8 -1 -1</clus>
<clus scale="   39.144">  2  5  1 -1</clus>
</clustering>
</event>
<event>
 9    1  0.6014990E-005  0.9564171E+02  0.7546771E-02  0.1295590E+00
         21   -1    0    0  501  502  0.00000000000E+00  0.00000000000E+00  0.53110687498E+02  0.53110687498E+02  0.00000000000E+00 0. -1.
          1   -1    0    0  502    0 -0.00000000000E+00 -0.00000000000E+00 -0.47292138862E+03  0.47292138862E+03  0.00000000000E+00 0. -1.
         23    2    1    2    0    0  0.23009391327E+02 -0.11355831478E+02 -0.22537078949E+03  0.24402431499E+03  0.89986035321E+02 0.  0.
        -24    2    1    2    0    0 -0.12511254310E+02  0.77320879677E+02 -0.48713153200E+02  0.12170215740E+03  0.79393916025E+02 0.  0.
         13    1    4    4    0    0  0.90780327261E+01  0.80198125067E+02 -0.56555730967E+02  0.98553034696E+02  0.00000000000E+00 0. -1.
        -14    1    4    4    0    0 -0.21589287036E+02 -0.28772453901E+01  0.78425777676E+01  0.23149122701E+02  0.00000000000E+00 0.  1.
        -13    1    3    3    0    0 -0.42590504216E+01 -0.47598154054E+02 -0.12727556910E+03  0.13595144085E+03  0.00000000000E+00 0.  1.
         13    1    3    3    0    0  0.27268441749E+02  0.36242322575E+02 -0.98095220389E+02  0.10807287414E+03  0.00000000000E+00 0. -1.
          2    1    1    2  501    0 -0.10498137017E+02 -0.65965048199E+02 -0.14572675844E+03  0.16030560374E+03  0.00000000000E+00 0. -1.
<scales pt_clust_5="13000.00000" pt_clust_6="13000.00000" pt_clust_7="13000.00000" pt_clust_8="13000.00000" pt_clust_9="66.79523"></scales>
<clustering>
<clus scale="   66.795">  1  9  2 -1</clus>
<clus scale="   79.394">  5  6 -1 -1</clus>
<clus scale="   85.751">  1  5  2 -1</clus>
<clus scale="   89.986">  7  8 -1 -1</clus>
<clus scale="   66.795">  1  5  2 -1</clus>
</clustering>
</event>
<event>
 9    1  0.6014990E-005  0.2399723E+03  0.7546771E-02  0.1119811E+00
          1   -1    0    0  502    0 -0.00000000000E+00  0.00000000000E+00  0.43872832934E+03  0.43872832934E+03  0.00000000000E+00 0. -1.
         21   -1    0    0  501  502  0.00000000000E+00 -0.00000000000E+00 -0.27247314492E+03  0.27247314492E+03  0.00000000000E+00 0. -1.
        -24    2    1    2    0    0 -0.52396182520E+02  0.76647114949E+02  0.21653876034E+03  0.24858147431E+03  0.79269000689E+02 0.  0.
         23    2    1    2    0    0 -0.46647429740E+02  0.56088959149E+02  0.15817087578E+03  0.19638371217E+03  0.90700509487E+02 0.  0.
         13    1    3    3    0    0 -0.60479373410E+01  0.45783482189E+02  0.16953147771E+03  0.17570892613E+03  0.00000000000E+00 0. -1.
        -14    1    3    3    0    0 -0.46348245179E+02  0.30863632760E+02  0.47007282623E+02  0.72872548178E+02  0.00000000000E+00 0.  1.
        -11    1    4    4    0    0  0.19421350715E+02  0.17906029222E+02  0.90886940354E+02  0.94648035759E+02  0.00000000000E+00 0. -1.
         11    1    4    4    0    0 -0.66068780455E+02  0.38182929927E+02  0.67283935429E+02  0.10173567641E+03  0.00000000000E+00 0.  1.
          2    1    1    2  501    0  0.99043612260E+02 -0.13273607410E+03 -0.20845445169E+03  0.26623628777E+03  0.00000000000E+00 0. -1.
<scales pt_clust_5="13000.00000" pt_clust_6="13000.00000" pt_clust_7="13000.00000" pt_clust_8="13000.00000" pt_clust_9="165.61553"></scales>
<clustering>
<clus scale="   79.269">  5  6 -1 -1</clus>
<clus scale="   90.701">  7  8 -1 -1</clus>
<clus scale="   91.189">  5  7 -1 -1</clus>
<clus scale="  165.616">  2  9  1 -1</clus>
<clus scale="  165.616">  2  5  1 -1</clus>
</clustering>
</event>
<event>
 9    1  0.6014990E-005  0.1119996E+03  0.7546771E-02  0.1260465E+00
         -4   -1    0    0    0  501 -0.00000000000E+00  0.00000000000E+00  0.11015912709E+03  0.11015912709E+03  0.00000000000E+00 0.  1.
         21   -1    0    0  501  502  0.00000000000E+00 -0.00000000000E+00 -0.31641648005E+03  0.31641648005E+03  0.00000000000E+00 0.  1.
         23    2    1    2    0    0 -0.30221962620E+02  0.59266394827E+02  0.45236866612E+02  0.12086847806E+03  0.90205001570E+02 0.  0.
        -24    2    1    2    0    0  0.51681227126E+02 -0.46335061390E+02 -0.81847522550E+02  0.13422033301E+03  0.80611374475E+02 0.  0.
         13    1    4    4    0    0  0.87554014412E+00 -0.52651277525E+02 -0.26948420213E+02  0.59153537067E+02  0.00000000000E+00 0. -1.
        -14    1    4    4    0    0  0.50805686982E+02  0.63162161348E+01 -0.54899102337E+02  0.75066795944E+02  0.00000000000E+00 0.  1.
        -11    1    3    3    0    0 -0.25803542322E+02  0.83506462770E+02  0.33904392553E+02  0.93747853069E+02  0.00000000000E+00 0. -1.
         11    1    3    3    0    0 -0.44184202984E+01 -0.24240067943E+02  0.11332474059E+02  0.27120624995E+02  0.00000000000E+00 0.  1.
         -3    1    1    2    0  502 -0.21459264505E+02 -0.12931333437E+02 -0.16964669702E+03  0.17148679607E+03  0.00000000000E+00 0.  1.
<scales pt_clust_5="13000.00000" pt_clust_6="13000.00000" pt_clust_7="13000.00000" pt_clust_8="13000.00000" pt_clust_9="25.05433"></scales>
<clustering>
<clus scale="   25.054">  2  9  1 -1</clus>
<clus scale="   80.611">  5  6 -1 -1</clus>
<clus scale="   90.205">  7  8 -1 -1</clus>
<clus scale="  104.428">  2  5  1 -1</clus>
<clus scale="   25.054">  2  5  1 -1</clus>
</clustering>
</event>
<event>
 9    1  0.6014990E-005  0.9940261E+02  0.7546771E-02  0.1289542E+00
         21   -1    0    0  501  502  0.00000000000E+00  0.00000000000E+00  0.96886644278E+02  0.96886644278E+02  0.00000000000E+00 0.  1.
         -2   -1    0    0    0  501 -0.00000000000E+00 -0.00000000000E+00 -0.18287230562E+03  0.18287230562E+03  0.00000000000E+00 0.  1.
         23    2    1    2    0    0 -0.14496849374E+02 -0.16797053604E+00 -0.12038723385E+03  0.15557707499E+03  0.97472833828E+02 0.  0.
        -24    2    1    2    0    0  0.32497234997E+02  0.16811884218E+02  0.13439178710E+02  0.91925779378E+02  0.83252793686E+02 0.  0.
         11    1    4    4    0    0 -0.23452250193E+02  0.13588291109E+02  0.22411342140E+02  0.35169844340E+02  0.00000000000E+00 0. -1.
        -12    1    4    4    0    0  0.55949485189E+02  0.32235931085E+01 -0.89721634300E+01  0.56755935039E+02  0.00000000000E+00 0.  1.
        -13    1    3    3    0    0  0.36405904021E+02 -0.18020506197E+02 -0.30700591701E+02  0.50918118798E+02  0.00000000000E+00 0.  1.
         13    1    3    3    0    0 -0.50902753394E+02  0.17852535661E+02 -0.89686642146E+02  0.10465895620E+03  0.00000000000E+00 0. -1.
         -1    1    1    2    0  502 -0.18000385623E+02 -0.16643913682E+02  0.20962393792E+02  0.32256095528E+02  0.00000000000E+00 0.  1.
<scales pt_clust_5="13000.00000" pt_clust_6="13000.00000" pt_clust_7="13000.00000" pt_clust_8="13000.00000" pt_clust_9="24.51599"></scales>
<clustering>
<clus scale="   24.516">  1  9  2 -1</clus>
<clus scale="   83.253">  5  6 -1 -1</clus>
<clus scale="   85.504">  1  5  2 -1</clus>
<clus scale="   97.473">  7  8 -1 -1</clus>
<clus scale="   24.516">  1  5  2 -1</clus>
</clustering>
</event>
<event>
 9    1  0.6014990E-005  0.1023988E+03  0.7546771E-02  0.1284047E+00
         -4   -1    0    0    0  501 -0.00000000000E+00  0.00000000000E+00  0.32089816253E+02  0.32089816253E+02  0.00000000000E+00 0.  1.
         21   -1    0    0  501  502  0.00000000000E+00 -0.00000000000E+00 -0.86774993851E+03  0.86774993851E+03  0.00000000000E+00 0.  1.
         23    2    1    2    0    0 -0.10157460960E+02  0.14364516746E+02 -0.87223027217E+02  0.12400025862E+03  0.86363732593E+02 0.  0.
        -24    2    1    2    0    0 -0.60675251935E+02  0.23966812045E+02 -0.50906860749E+03  0.52328487469E+03  0.10207996214E+03 0.  0.
         11    1    4    4    0    0 -0.10677188321E+02  0.39523892895E+02 -0.69911004981E+02  0.81016597543E+02  0.00000000000E+00 0. -1.
        -12    1    4    4    0    0 -0.49998063614E+02 -0.15557080850E+02 -0.43915760251E+03  0.44226827715E+03  0.00000000000E+00 0.  1.
        -13    1    3    3    0    0  0.28510554293E+01  0.35197810199E+02 -0.92383746185E+02  0.98902835748E+02  0.00000000000E+00 0. -1.
         13    1    3    3    0    0 -0.13008516389E+02 -0.20833293454E+02  0.51607189673E+01  0.25097422876E+02  0.00000000000E+00 0.  1.
         -3    1    1    2    0  502  0.70832712895E+02 -0.38331328791E+02 -0.23936848755E+03  0.25255462145E+03  0.00000000000E+00 0.  1.
<scales pt_clust_5="13000.00000" pt_clust_6="13000.00000" pt_clust_7="13000.00000" pt_clust_8="13000.00000" pt_clust_9="80.53921"></scales>
<clustering>
<clus scale="   80.539">  2  9  1 -1</clus>
<clus scale="   86.364">  7  8 -1 -1</clus>
<clus scale="   86.740">  1  7  2 -1</clus>
<clus scale="  102.080">  5  6 -1 -1</clus>
<clus scale="   80.539">  2  5  1 -1</clus>
</clustering>
</event>
<event>
 9    1  0.6014990E-005  0.9779356E+02  0.7546771E-02  0.1288450E+00
          1   -1    0    0  502    0 -0.00000000000E+00  0.00000000000E+00  0.23876515755E+03  0.23876515755E+03  0.00000000000E+00 0. -1.
         21   -1    0    0  501  502  0.00000000000E+00 -0.00000000000E+00 -0.73858079647E+02  0.73858079647E+02  0.00000000000E+00 0.  1.
        -24    2    1    2    0    0 -0.20573003578E+02  0.18999216852E+02  0.92290174376E+02  0.12957102480E+03  0.86527194944E+02 0.  0.
         23    2    1    2    0    0  0.51283602957E+01 -0.36068141316E+02  0.10395549568E+03  0.14416786404E+03  0.93007618202E+02 0.  0.
         11    1    3    3    0    0 -0.46805658941E+02  0.39110543574E+01  0.86973013747E+02  0.98845187922E+02  0.00000000000E+00 0. -1.
        -12    1    3    3    0    0  0.26232655363E+02  0.15088162495E+02  0.53171606281E+01  0.30725836880E+02  0.00000000000E+00 0.  1.
        -11    1    4    4    0    0  0.18508779114E+02 -0.65054725120E+02  0.65066810664E+02  0.93852980852E+02  0.00000000000E+00 0. -1.
         11    1    4    4    0    0 -0.13380418818E+02  0.28986583804E+02  0.38888685014E+02  0.50314883191E+02  0.00000000000E+00 0.  1.
          2    1    1    2  501    0  0.15444643282E+02  0.17068924463E+02 -0.31338592152E+02  0.38884348349E+02  0.00000000000E+00 0. -1.
<scales pt_clust_5="13000.00000" pt_clust_6="13000.00000" pt_clust_7="13000.00000" pt_clust_8="13000.00000" pt_clust_9="23.01924"></scales>
<clustering>
<clus scale="   23.019">  2  9  1 -1</clus>
<clus scale="   86.527">  5  6 -1 -1</clus>
<clus scale="   91.652">  1  5  2 -1</clus>
<clus scale="   93.008">  7  8 -1 -1</clus>
<clus scale="   23.019">  2  5  1 -1</clus>
</clustering>
</event>
<event>
 9    1  0.6014990E-005  0.2505400E+03  0.7546771E-02  0.1113618E+00
         21   -1    0    0  501  502  0.00000000000E+00  0.00000000000E+00  0.91851812418E+02  0.91851812418E+02  0.00000000000E+00 0.  1.
          1   -1    0    0  502    0 -0.00000000000E+00 -0.00000000000E+00 -0.11433542734E+04  0.11433542734E+04  0.00000000000E+00 0. -1.
         23    2    1    2    0    0  0.20089822220E+03  0.12334096431E+03 -0.42667125685E+03  0.49615607508E+03  0.92462966968E+02 0.  0.
        -24    2    1    2    0    0 -0.22045429956E+03 -0.72666099652E+02 -0.21765551509E+03  0.32826731415E+03  0.80653865704E+02 0.  0.
         11    1    4    4    0    0 -0.20046200840E+03 -0.67199509280E+02 -0.22255328521E+03  0.30697028458E+03  0.00000000000E+00 0. -1.
        -12    1    4    4    0    0 -0.19992291162E+02 -0.54665903727E+01  0.48977701153E+01  0.21297029565E+02  0.00000000000E+00 0.  1.
        -13    1    3    3    0    0  0.36219146899E+02  0.17152380740E+02 -0.20108113674E+02  0.44837116351E+02  0.00000000000E+00 0.  1.
         13    1    3    3    0    0  0.16467907531E+03  0.10618858357E+03 -0.40656314317E+03  0.45131895873E+03  0.00000000000E+00 0. -1.
          2    1    1    2  501    0  0.19556077358E+02 -0.50674864655E+02 -0.40717568905E+03  0.41078269660E+03  0.00000000000E+00 0. -1.
<scales pt_clust_5="13000.00000" pt_clust_6="13000.00000" pt_clust_7="13000.00000" pt_clust_8="13000.00000" pt_clust_9="54.31745"></scales>
<clustering>
<clus scale="   54.317">  1  9  2 -1</clus>
<clus scale="   80.654">  5  6 -1 -1</clus>
<clus scale="   92.463">  7  8 -1 -1</clus>
<clus scale="  246.426">  1  5  2 -1</clus>
<clus scale="   54.317">  1  5  2 -1</clus>
</clustering>
</event>
<event>
 9    1  0.6014990E-005  0.1103935E+03  0.7546771E-02  0.1263514E+00
          1   -1    0    0  502    0 -0.00000000000E+00  0.00000000000E+00  0.12755354932E+04  0.12755354932E+04  0.00000000000E+00 0. -1.
         21   -1    0    0  501  502  0.00000000000E+00 -0.00000000000E+00 -0.21370623246E+02  0.21370623246E+02  0.00000000000E+00 0. -1.
        -24    2    1    2    0    0  0.15582922711E+02 -0.25132235005E+02  0.31583698508E+03  0.32722336498E+03  0.80297401758E+02 0.  0.
         23    2    1    2    0    0 -0.95004528427E+02  0.45691883395E+02  0.77072473441E+03  0.78307807135E+03  0.89894610338E+02 0.  0.
         13    1    3    3    0    0 -0.18557444199E+02 -0.33004962320E+02  0.76740028655E+02  0.85572999661E+02  0.00000000000E+00 0. -1.
        -14    1    3    3    0    0  0.34140366909E+02  0.78727273151E+01  0.23909695643E+03  0.24165036532E+03  0.00000000000E+00 0.  1.
        -11    1    4    4    0    0 -0.45932145384E+02 -0.25075519083E+02  0.30564025870E+03  0.31008790911E+03  0.00000000000E+00 0. -1.
         11    1    4    4    0    0 -0.49072383043E+02  0.70767402478E+02  0.46508447571E+03  0.47299016224E+03  0.00000000000E+00 0.  1.
          2    1    1    2  501    0  0.79421605717E+02 -0.20559648389E+02  0.16760315050E+03  0.18660468015E+03  0.00000000000E+00 0. -1.
<scales pt_clust_5="13000.00000" pt_clust_6="13000.00000" pt_clust_7="13000.00000" pt_clust_8="13000.00000" pt_clust_9="82.03957"></scales>
<clustering>
<clus scale="   80.297">  5  6 -1 -1</clus>
<clus scale="   82.040">  2  9  1 -1</clus>
<clus scale="   89.895">  7  8 -1 -1</clus>
<clus scale="  102.729">  1  5  2 -1</clus>
<clus scale="   82.040">  2  5  1 -1</clus>
</clustering>
</event>
<event>
 9    1  0.6014990E-005  0.2676375E+03  0.7546771E-02  0.1103182E+00
         21   -1    0    0  501  502  0.00000000000E+00  0.00000000000E+00  0.10046383746E+04  0.10046383746E+04  0.00000000000E+00 0. -1.
          3   -1    0    0  502    0 -0.00000000000E+00 -0.00000000000E+00 -0.95557658833E+02  0.95557658833E+02  0.00000000000E+00 0. -1.
         23    2    1    2    0    0 -0.12988558571E+02 -0.24770433083E+03  0.27716628684E+03  0.38365713886E+03  0.94050579327E+02 0.  0.
        -24    2    1    2    0    0 -0.45098709004E+02  0.25424560295E+03  0.44929084642E+03  0.52478829670E+03  0.82859951158E+02 0.  0.
         13    1    4    4    0    0 -0.63900691398E+02  0.12654336991E+03  0.24830498777E+03  0.28592287383E+03  0.00000000000E+00 0. -1.
        -14    1    4    4    0    0  0.18801982394E+02  0.12770223304E+03  0.20098585865E+03  0.23886542287E+03  0.00000000000E+00 0.  1.
        -13    1    3    3    0    0  0.20250998129E+02 -0.22090925032E+03  0.22130000163E+03  0.31334436412E+03  0.00000000000E+00 0. -1.
         13    1    3    3    0    0 -0.33239556699E+02 -0.26795080514E+02  0.55866285208E+02  0.70312774745E+02  0.00000000000E+00 0.  1.
          4    1    1    2  501    0  0.58087267575E+02 -0.65412721175E+01  0.18262358252E+03  0.19175059788E+03  0.00000000000E+00 0. -1.
<scales pt_clust_5="13000.00000" pt_clust_6="13000.00000" pt_clust_7="13000.00000" pt_clust_8="13000.00000" pt_clust_9="58.45442"></scales>
<clustering>
<clus scale="   58.454">  1  9  2 -1</clus>
<clus scale="   82.860">  5  6 -1 -1</clus>
<clus scale="   94.051">  7  8 -1 -1</clus>
<clus scale="  263.913">  1  5  2 -1</clus>
<clus scale="   58.454">  1  5  2 -1</clus>
</clustering>
</event>
<event>
 9    1  0.6014990E-005  0.2212706E+03  0.7546771E-02  0.1156149E+00
         21   -1    0    0  501  502  0.00000000000E+00  0.00000000000E+00  0.66857966477E+03  0.66857966477E+03  0.00000000000E+00 0. -1.
          1   -1    0    0  502    0 -0.00000000000E+00 -0.00000000000E+00 -0.16145688153E+03  0.16145688153E+03  0.00000000000E+00 0. -1.
        -24    2    1    2    0    0 -0.15256082442E+02 -0.97027945114E+02 -0.11736314559E+02  0.12751868049E+03  0.80474235691E+02 0.  0.
         23    2    1    2    0    0 -0.17000272582E+03  0.82618807536E+02  0.45101968094E+03  0.50470321579E+03  0.12481902614E+03 0.  0.
         13    1    3    3    0    0  0.94178939642E+01 -0.10069168509E+03 -0.15432316128E+02  0.10230185020E+03  0.00000000000E+00 0. -1.
        -14    1    3    3    0    0 -0.24673976406E+02  0.36637399769E+01  0.36960015693E+01  0.25216830291E+02  0.00000000000E+00 0.  1.
        -13    1    4    4    0    0 -0.68856286082E+02  0.51199766422E+02  0.34242054242E+03  0.35300769409E+03  0.00000000000E+00 0. -1.
         13    1    4    4    0    0 -0.10114643974E+03  0.31419041114E+02  0.10859913852E+03  0.15169552170E+03  0.00000000000E+00 0.  1.
          2    1    1    2  501    0  0.18525880827E+03  0.14409137578E+02  0.67839416864E+02  0.19781465003E+03  0.00000000000E+00 0. -1.
<scales pt_clust_5="13000.00000" pt_clust_6="13000.00000" pt_clust_7="13000.00000" pt_clust_8="13000.00000" pt_clust_9="182.70448"></scales>
<clustering>
<clus scale="   80.474">  5  6 -1 -1</clus>
<clus scale="  124.819">  7  8 -1 -1</clus>
<clus scale="  126.977">  2  5  1 -1</clus>
<clus scale="  182.704">  1  9  2 -1</clus>
<clus scale="  182.704">  1  5  2 -1</clus>
</clustering>
</event>
<event>
 9    1  0.6014990E-005  0.3495647E+03  0.7546771E-02  0.1063047E+00
         21   -1    0    0  501  502  0.00000000000E+00  0.00000000000E+00  0.28323215778E+03  0.28323215778E+03  0.00000000000E+00 0. -1.
          1   -1    0    0  502    0 -0.00000000000E+00 -0.00000000000E+00 -0.99373095716E+03  0.99373095716E+03  0.00000000000E+00 0. -1.
        -24    2    1    2    0    0  0.42596665338E+02 -0.36623701389E+03 -0.47604426822E+03  0.60757254349E+03  0.81130906945E+02 0.  0.
         23    2    1    2    0    0  0.19621510224E+03  0.26647099415E+03 -0.39736978823E+02  0.34550904338E+03  0.91051164231E+02 0.  0.
         11    1    3    3    0    0  0.32792432128E+02 -0.28009071766E+03 -0.30241002600E+03  0.41349483377E+03  0.00000000000E+00 0. -1.
        -12    1    3    3    0    0  0.98042332099E+01 -0.86146296228E+02 -0.17363424221E+03  0.19407770972E+03  0.00000000000E+00 0.  1.
        -13    1    4    4    0    0  0.13383585477E+03  0.10759888967E+03 -0.31801873245E+02  0.17464511508E+03  0.00000000000E+00 0. -1.
         13    1    4    4    0    0  0.62379247470E+02  0.15887210447E+03 -0.79351055779E+01  0.17086392830E+03  0.00000000000E+00 0.  1.
          2    1    1    2  501    0 -0.23881176757E+03  0.99766019744E+02 -0.19471755235E+03  0.32388152806E+03  0.00000000000E+00 0. -1.
<scales pt_clust_5="13000.00000" pt_clust_6="13000.00000" pt_clust_7="13000.00000" pt_clust_8="13000.00000" pt_clust_9="258.81342"></scales>
<clustering>
<clus scale="   81.131">  5  6 -1 -1</clus>
<clus scale="   91.051">  7  8 -1 -1</clus>
<clus scale="  258.813">  1  9  2 -1</clus>
<clus scale="  347.113">  2  5  1 -1</clus>
<clus scale="  258.813">  1  5  2 -1</clus>
</clustering>
</event>
<event>
 9    1  0.6014990E-005  0.1358164E+03  0.7546771E-02  0.1227050E+00
          1   -1    0    0  502    0 -0.00000000000E+00  0.00000000000E+00  0.15609597280E+04  0.15609597280E+04  0.00000000000E+00 0. -1.
         21   -1    0    0  501  502  0.00000000000E+00 -0.00000000000E+00 -0.25176114932E+02  0.25176114932E+02  0.00000000000E+00 0. -1.
         23    2    1    2    0    0  0.66401820223E+02 -0.20403865808E+02  0.36416894923E+03  0.38188508541E+03  0.91606088264E+02 0.  0.
        -24    2    1    2    0    0  0.17784313555E+02 -0.89942065062E+02  0.37713673490E+03  0.39774055353E+03  0.86945812047E+02 0.  0.
         13    1    4    4    0    0  0.51497312840E+02 -0.70581267413E+02  0.25333747820E+03  0.26798053362E+03  0.00000000000E+00 0. -1.
        -14    1    4    4    0    0 -0.33712999285E+02 -0.19360797649E+02  0.12379925670E+03  0.12976001991E+03  0.00000000000E+00 0.  1.
        -11    1    3    3    0    0  0.41263756974E+02  0.30129747745E+02  0.10669603428E+03  0.11829853368E+03  0.00000000000E+00 0.  1.
         11    1    3    3    0    0  0.25138063249E+02 -0.50533613553E+02  0.25747291495E+03  0.26358655173E+03  0.00000000000E+00 0. -1.
          2    1    1    2  501    0 -0.84186133778E+02  0.11034593087E+03  0.79447792897E+03  0.80651020403E+03  0.00000000000E+00 0. -1.
<scales pt_clust_5="13000.00000" pt_clust_6="13000.00000" pt_clust_7="13000.00000" pt_clust_8="13000.00000" pt_clust_9="104.33849"></scales>
<clustering>
<clus scale="   86.946">  5  6 -1 -1</clus>
<clus scale="   91.606">  7  8 -1 -1</clus>
<clus scale="  114.966">  1  7  2 -1</clus>
<clus scale="  104.338">  2  9  1 -1</clus>
<clus scale="  104.338">  2  5  1 -1</clus>
</clustering>
</event>
<event>
 9    1  0.6014990E-005  0.1419564E+03  0.7546771E-02  0.1213017E+00
         -4   -1    0    0    0  501 -0.00000000000E+00  0.00000000000E+00  0.14955683492E+03  0.14955683492E+03  0.00000000000E+00 0.  1.
         21   -1    0    0  501  502  0.00000000000E+00 -0.00000000000E+00 -0.40052630264E+03  0.40052630264E+03  0.00000000000E+00 0. -1.
         23    2    1    2    0    0 -0.93279454885E+02  0.58762051246E+02  0.68362767214E+02  0.15870656634E+03  0.91434516938E+02 0.  0.
        -24    2    1    2    0    0  0.64008857472E+02 -0.77528835480E+02 -0.33061600503E+03  0.35482135912E+03  0.80519562483E+02 0.  0.
         11    1    4    4    0    0  0.27489526782E+02 -0.79405662225E+02 -0.16439650963E+03  0.18462704476E+03  0.00000000000E+00 0. -1.
        -12    1    4    4    0    0  0.36519330690E+02  0.18768267455E+01 -0.16621949540E+03  0.17019431437E+03  0.00000000000E+00 0.  1.
        -11    1    3    3    0    0 -0.21377213180E+01  0.48323621678E+02  0.39756194173E+02  0.62612277068E+02  0.00000000000E+00 0.  1.
         11    1    3    3    0    0 -0.91141733567E+02  0.10438429568E+02  0.28606573041E+02  0.96094289272E+02  0.00000000000E+00 0. -1.
         -3    1    1    2    0  502  0.29270597413E+02  0.18766784233E+02  0.11283770095E+02  0.36555212090E+02  0.00000000000E+00 0.  1.
<scales pt_clust_5="13000.00000" pt_clust_6="13000.00000" pt_clust_7="13000.00000" pt_clust_8="13000.00000" pt_clust_9="34.77012"></scales>
<clustering>
<clus scale="   34.770">  2  9  1 -1</clus>
<clus scale="   80.520">  5  6 -1 -1</clus>
<clus scale="   91.435">  7  8 -1 -1</clus>
<clus scale="  135.184">  2  5  1 -1</clus>
<clus scale="   34.770">  2  5  1 -1</clus>
</clustering>
</event>
<event>
 9    1  0.6014990E-005  0.1484497E+03  0.7546771E-02  0.1203925E+00
          1   -1    0    0  502    0 -0.00000000000E+00  0.00000000000E+00  0.78838887256E+03  0.78838887256E+03  0.00000000000E+00 0. -1.
         21   -1    0    0  501  502  0.00000000000E+00 -0.00000000000E+00 -0.45325824700E+02  0.45325824700E+02  0.00000000000E+00 0. -1.
        -24    2    1    2    0    0  0.76039464533E+02  0.94103266202E+02  0.47229302331E+03  0.49451271052E+03  0.82732678733E+02 0.  0.
         23    2    1    2    0    0 -0.10245491186E+03 -0.52671224626E+02  0.15499381951E+03  0.21343029047E+03  0.90874297446E+02 0.  0.
         13    1    3    3    0    0  0.87421403303E+02  0.84142399309E+02  0.45764650513E+03  0.47345830732E+03  0.00000000000E+00 0. -1.
        -14    1    3    3    0    0 -0.11381938771E+02  0.99608668931E+01  0.14646518178E+02  0.21054403202E+02  0.00000000000E+00 0.  1.
        -13    1    4    4    0    0 -0.38100380844E+02 -0.33371207776E+02  0.13366591963E+03  0.14294003848E+03  0.00000000000E+00 0.  1.
         13    1    4    4    0    0 -0.64354531018E+02 -0.19300016850E+02  0.21327899877E+02  0.70490251993E+02  0.00000000000E+00 0. -1.
          2    1    1    2  501    0  0.26415447329E+02 -0.41432041575E+02  0.11577620505E+03  0.12577169627E+03  0.00000000000E+00 0. -1.
<scales pt_clust_5="13000.00000" pt_clust_6="13000.00000" pt_clust_7="13000.00000" pt_clust_8="13000.00000" pt_clust_9="49.13647"></scales>
<clustering>
<clus scale="   49.136">  2  9  1 -1</clus>
<clus scale="   82.733">  5  6 -1 -1</clus>
<clus scale="   90.874">  7  8 -1 -1</clus>
<clus scale="  143.610">  1  5  2 -1</clus>
<clus scale="   49.136">  2  5  1 -1</clus>
</clustering>
</event>
<event>
 9    1  0.6014990E-005  0.1516361E+03  0.7546771E-02  0.1200630E+00
          1   -1    0    0  502    0 -0.00000000000E+00  0.00000000000E+00  0.11680686442E+04  0.11680686442E+04  0.00000000000E+00 0. -1.
         21   -1    0    0  501  502  0.00000000000E+00 -0.00000000000E+00 -0.44002480662E+02  0.44002480662E+02  0.00000000000E+00 0. -1.
        -24    2    1    2    0    0  0.56916667679E+02 -0.11387506611E+03  0.71377235028E+03  0.72949907054E+03  0.80566048465E+02 0.  0.
         23    2    1    2    0    0 -0.92848271617E+02  0.52588683922E+02  0.12499457821E+03  0.18856056760E+03  0.92439557833E+02 0.  0.
         11    1    3    3    0    0  0.62466768250E+02 -0.12341907793E+03  0.63033630723E+03  0.64533574683E+03  0.00000000000E+00 0. -1.
        -12    1    3    3    0    0 -0.55501005714E+01  0.95440118279E+01  0.83436043050E+02  0.84163323710E+02  0.00000000000E+00 0.  1.
        -13    1    4    4    0    0 -0.69299122578E+02  0.49539392222E+02  0.13748029254E+03  0.16173234249E+03  0.00000000000E+00 0.  1.
         13    1    4    4    0    0 -0.23549149039E+02  0.30492917005E+01 -0.12485714324E+02  0.26828225110E+02  0.00000000000E+00 0. -1.
          2    1    1    2  501    0  0.35931603938E+02  0.61286382185E+02  0.28529923507E+03  0.29401148674E+03  0.00000000000E+00 0. -1.
<scales pt_clust_5="13000.00000" pt_clust_6="13000.00000" pt_clust_7="13000.00000" pt_clust_8="13000.00000" pt_clust_9="71.04299"></scales>
<clustering>
<clus scale="   71.043">  2  9  1 -1</clus>
<clus scale="   80.566">  5  6 -1 -1</clus>
<clus scale="   92.440">  7  8 -1 -1</clus>
<clus scale="  144.704">  1  5  2 -1</clus>
<clus scale="   71.043">  2  5  1 -1</clus>
</clustering>
</event>
<event>
 9    1  0.6014990E-005  0.1101693E+03  0.7546771E-02  0.1264211E+00
          1   -1    0    0  502    0 -0.00000000000E+00  0.00000000000E+00  0.46030144695E+03  0.46030144695E+03  0.00000000000E+00 0. -1.
         21   -1    0    0  501  502  0.00000000000E+00 -0.00000000000E+00 -0.48775130767E+02  0.48775130767E+02  0.00000000000E+00 0. -1.
        -24    2    1    2    0    0  0.76025025390E+02  0.39746737981E+02  0.14290391269E+03  0.18519187400E+03  0.80714894970E+02 0.  0.
         23    2    1    2    0    0 -0.38548405048E+02 -0.10743850925E+01  0.78018997012E+02  0.12581979891E+03  0.90865417342E+02 0.  0.
         11    1    3    3    0    0  0.83625820456E+02  0.40749181212E+02  0.14882370682E+03  0.17550575298E+03  0.00000000000E+00 0. -1.
        -12    1    3    3    0    0 -0.76007950662E+01 -0.10024432312E+01 -0.59197941291E+01  0.96861210297E+01  0.00000000000E+00 0.  1.
        -11    1    4    4    0    0  0.46131429688E+01 -0.25944208323E+02  0.70725172004E+02  0.75474717545E+02  0.00000000000E+00 0.  1.
         11    1    4    4    0    0 -0.43161548017E+02  0.24869823230E+02  0.72938250088E+01  0.50345081368E+02  0.00000000000E+00 0. -1.
          2    1    1    2  501    0 -0.37476620342E+02 -0.38672352888E+02  0.19060340648E+03  0.19806490480E+03  0.00000000000E+00 0. -1.
<scales pt_clust_5="13000.00000" pt_clust_6="13000.00000" pt_clust_7="13000.00000" pt_clust_8="13000.00000" pt_clust_9="53.85212"></scales>
<clustering>
<clus scale="   53.852">  2  9  1 -1</clus>
<clus scale="   80.715">  5  6 -1 -1</clus>
<clus scale="   90.865">  7  8 -1 -1</clus>
<clus scale="  101.959">  1  5  2 -1</clus>
<clus scale="   53.852">  2  5  1 -1</clus>
</clustering>
</event>
<event>
 9    1  0.6014990E-005  0.9172593E+02  0.7546771E-02  0.1304743E+00
         21   -1    0    0  501  502  0.00000000000E+00  0.00000000000E+00  0.14074973882E+03  0.14074973882E+03  0.00000000000E+00 0.  1.
         -2   -1    0    0    0  501 -0.00000000000E+00 -0.00000000000E+00 -0.14406436139E+03  0.14406436139E+03  0.00000000000E+00 0.  1.
        -24    2    1    2    0    0 -0.88343062781E+00 -0.12841928228E+02 -0.47335664681E+02  0.93258214632E+02  0.79314146754E+02 0.  0.
         23    2    1    2    0    0 -0.62618254216E+02  0.33197837966E+01 -0.73805740318E+01  0.10930467675E+03  0.89224283466E+02 0.  0.
         11    1    3    3    0    0  0.33712540500E+02  0.12478641619E+02 -0.30695347590E+02  0.47270035406E+02  0.00000000000E+00 0. -1.
        -12    1    3    3    0    0 -0.34595971127E+02 -0.25320569848E+02 -0.16640317091E+02  0.45988179226E+02  0.00000000000E+00 0.  1.
        -13    1    4    4    0    0 -0.63717263834E+02 -0.22774369930E+02  0.20890178903E+02  0.70816390835E+02  0.00000000000E+00 0.  1.
         13    1    4    4    0    0  0.10990096184E+01  0.26094153727E+02 -0.28270752935E+02  0.38488285911E+02  0.00000000000E+00 0. -1.
         -1    1    1    2    0  502  0.63501684844E+02  0.95221444318E+01  0.51401616147E+02  0.82251208837E+02  0.00000000000E+00 0.  1.
<scales pt_clust_5="13000.00000" pt_clust_6="13000.00000" pt_clust_7="13000.00000" pt_clust_8="13000.00000" pt_clust_9="64.21164"></scales>
<clustering>
<clus scale="   64.212">  1  9  2 -1</clus>
<clus scale="   79.314">  5  6 -1 -1</clus>
<clus scale="   82.118">  2  5  1 -1</clus>
<clus scale="   89.224">  7  8 -1 -1</clus>
<clus scale="   64.212">  1  5  2 -1</clus>
</clustering>
</event>
<event>
 9    1  0.6014990E-005  0.2353591E+03  0.7546771E-02  0.1122924E+00
         21   -1    0    0  501  502  0.00000000000E+00  0.00000000000E+00  0.21786686899E+03  0.21786686899E+03  0.00000000000E+00 0.  1.
         -2   -1    0    0    0  501 -0.00000000000E+00 -0.00000000000E+00 -0.15405802404E+03  0.15405802404E+03  0.00000000000E+00 0.  1.
        -24    2    1    2    0    0 -0.10953792426E+03  0.22682851667E+02  0.42186823391E+02  0.14457312821E+03  0.81293251394E+02 0.  0.
         23    2    1    2    0    0 -0.13124669839E+02  0.15479370036E+02  0.20068725710E+02  0.98880445517E+02  0.94671647809E+02 0.  0.
         11    1    3    3    0    0 -0.18555022511E+02  0.37115146273E+02 -0.36948856644E+01  0.41659034114E+02  0.00000000000E+00 0. -1.
        -12    1    3    3    0    0 -0.90982901748E+02 -0.14432294606E+02  0.45881709056E+02  0.10291409410E+03  0.00000000000E+00 0.  1.
        -11    1    4    4    0    0  0.16865432014E+02  0.29703042007E+02 -0.25413786826E+02  0.42574335723E+02  0.00000000000E+00 0. -1.
         11    1    4    4    0    0 -0.29990101853E+02 -0.14223671970E+02  0.45482512536E+02  0.56306109794E+02  0.00000000000E+00 0.  1.
         -1    1    1    2    0  502  0.12266259410E+03 -0.38162221703E+02  0.15532958494E+01  0.12847131931E+03  0.00000000000E+00 0.  1.
<scales pt_clust_5="13000.00000" pt_clust_6="13000.00000" pt_clust_7="13000.00000" pt_clust_8="13000.00000" pt_clust_9="128.46199"></scales>
<clustering>
<clus scale="   81.293">  5  6 -1 -1</clus>
<clus scale="   94.672">  7  8 -1 -1</clus>
<clus scale="   95.590">  5  7 -1 -1</clus>
<clus scale="  128.462">  1  9  2 -1</clus>
<clus scale="  128.462">  1  5  2 -1</clus>
</clustering>
</event>
<event>
 9    1  0.6014990E-005  0.1064575E+03  0.7546771E-02  0.1272144E+00
         21   -1    0    0  501  502  0.00000000000E+00  0.00000000000E+00  0.11231576415E+03  0.11231576415E+03  0.00000000000E+00 0.  1.
         -2   -1    0    0    0  501 -0.00000000000E+00 -0.00000000000E+00 -0.39890911269E+03  0.39890911269E+03  0.00000000000E+00 0.  1.
        -24    2    1    2    0    0 -0.45316052489E+02  0.31400158306E+02 -0.35388577945E+03  0.36716925042E+03  0.80861603987E+02 0.  0.
         23    2    1    2    0    0  0.30968137036E+02 -0.17167132182E+02  0.32644069391E+02  0.10394389911E+03  0.92113858663E+02 0.  0.
         13    1    3    3    0    0  0.41613465289E+01  0.25528164832E+02 -0.30602057616E+02  0.40068565422E+02  0.00000000000E+00 0. -1.
        -14    1    3    3    0    0 -0.49477399018E+02  0.58719934742E+01 -0.32328372184E+03  0.32710068500E+03  0.00000000000E+00 0.  1.
        -13    1    4    4    0    0 -0.10146533977E+02 -0.29391637116E+02 -0.19286385213E+02  0.36589412932E+02  0.00000000000E+00 0.  1.
         13    1    4    4    0    0  0.41114671013E+02  0.12224504934E+02  0.51930454604E+02  0.67354486182E+02  0.00000000000E+00 0. -1.
         -1    1    1    2    0  502  0.14347915453E+02 -0.14233026124E+02  0.34648361533E+02  0.40111727306E+02  0.00000000000E+00 0.  1.
<scales pt_clust_5="13000.00000" pt_clust_6="13000.00000" pt_clust_7="13000.00000" pt_clust_8="13000.00000" pt_clust_9="20.20994"></scales>
<clustering>
<clus scale="   20.210">  1  9  2 -1</clus>
<clus scale="   80.862">  5  6 -1 -1</clus>
<clus scale="   92.114">  7  8 -1 -1</clus>
<clus scale="   96.886">  2  5  1 -1</clus>
<clus scale="   20.210">  1  5  2 -1</clus>
</clustering>
</event>
<event>
 9    1  0.6014990E-005  0.1367100E+03  0.7546771E-02  0.1243566E+00
         21   -1    0    0  501  502  0.00000000000E+00  0.00000000000E+00  0.55552103188E+03  0.55552103188E+03  0.00000000000E+00 0.  1.
         -2   -1    0    0    0  501 -0.00000000000E+00 -0.00000000000E+00 -0.11819812326E+03  0.11819812326E+03  0.00000000000E+00 0.  1.
        -24    2    1    2    0    0 -0.14156293241E+02 -0.21677556611E+02 -0.72062738714E+02  0.10796171259E+03  0.76107660432E+02 0.  0.
         23    2    1    2    0    0 -0.60372721953E+02  0.88507220030E+02  0.23852219359E+03  0.27698800408E+03  0.91384484538E+02 0.  0.
         11    1    3    3    0    0  0.25831766338E+02  0.99198535705E+01 -0.36554678885E+02  0.45846790459E+02  0.00000000000E+00 0. -1.
        -12    1    3    3    0    0 -0.39988059579E+02 -0.31597410181E+02 -0.35508059829E+02  0.62114922136E+02  0.00000000000E+00 0.  1.
        -13    1    4    4    0    0 -0.22881662942E+02  0.90639410696E+02  0.11679318842E+03  0.14959853653E+03  0.00000000000E+00 0.  1.
         13    1    4    4    0    0 -0.37491059010E+02 -0.21321906659E+01  0.12172900517E+03  0.12738946754E+03  0.00000000000E+00 0. -1.
         -1    1    1    2    0  502  0.74529015194E+02 -0.66829663419E+02  0.27086345375E+03  0.28876943847E+03  0.00000000000E+00 0.  1.
<scales pt_clust_5="13000.00000" pt_clust_6="13000.00000" pt_clust_7="13000.00000" pt_clust_8="13000.00000" pt_clust_9="101.67836"></scales>
<clustering>
<clus scale="   76.108">  5  6 -1 -1</clus>
<clus scale="   80.391">  2  5  1 -1</clus>
<clus scale="   91.384">  7  8 -1 -1</clus>
<clus scale="  101.678">  1  9  2 -1</clus>
<clus scale="  101.678">  1  5  2 -1</clus>
</clustering>
</event>
<event>
 9    1  0.6014990E-005  0.9908526E+02  0.7546771E-02  0.1287861E+00
         21   -1    0    0  501  502  0.00000000000E+00  0.00000000000E+00  0.12075993621E+04  0.12075993621E+04  0.00000000000E+00 0.  1.
         -2   -1    0    0    0  501 -0.00000000000E+00 -0.00000000000E+00 -0.11347535138E+02  0.11347535138E+02  0.00000000000E+00 0.  1.
         23    2    1    2    0    0 -0.11735654494E+02  0.33839182614E+02  0.41932267574E+03  0.43045590009E+03  0.90432072121E+02 0.  0.
        -24    2    1    2    0    0  0.31142933750E+02 -0.39468618209E+02  0.74362637180E+03  0.74953707372E+03  0.79359875877E+02 0.  0.
         11    1    4    4    0    0  0.44406960605E+02 -0.14676316653E+02  0.20887716551E+03  0.21404915953E+03  0.00000000000E+00 0. -1.
        -12    1    4    4    0    0 -0.13264026855E+02 -0.24792301556E+02  0.53474920628E+03  0.53548791419E+03  0.00000000000E+00 0.  1.
        -11    1    3    3    0    0 -0.41124249512E+02  0.45144889469E+02  0.33336696815E+03  0.33891414901E+03  0.00000000000E+00 0. -1.
         11    1    3    3    0    0  0.29388595018E+02 -0.11305706855E+02  0.85955707592E+02  0.91541751089E+02  0.00000000000E+00 0.  1.
         -1    1    1    2    0  502 -0.19407279256E+02  0.56294355944E+01  0.33302779448E+02  0.38953923450E+02  0.00000000000E+00 0.  1.
<scales pt_clust_5="13000.00000" pt_clust_6="13000.00000" pt_clust_7="13000.00000" pt_clust_8="13000.00000" pt_clust_9="20.20726"></scales>
<clustering>
<clus scale="   20.207">  1  9  2 -1</clus>
<clus scale="   79.360">  5  6 -1 -1</clus>
<clus scale="   89.095">  1  5  2 -1</clus>
<clus scale="   90.432">  7  8 -1 -1</clus>
<clus scale="   20.207">  1  5  2 -1</clus>
</clustering>
</event>
<event>
 9    1  0.1000570E-004  0.1052362E+03  0.7546771E-02  0.1274851E+00
         21   -1    0    0  501  502  0.00000000000E+00  0.00000000000E+00  0.31137206448E+03  0.31137206448E+03  0.00000000000E+00 0.  1.
         -2   -1    0    0    0  501 -0.00000000000E+00 -0.00000000000E+00 -0.44467208152E+03  0.44467208152E+03  0.00000000000E+00 0.  1.
        -24    2    1    2    0    0 -0.51913842586E+02  0.21660177973E+01 -0.31453019953E+03  0.32876528445E+03  0.80359362586E+02 0.  0.
         23    2    1    2    0    0  0.29668727148E+02 -0.91783334488E+02 -0.76364913023E+02  0.15363430771E+03  0.92018947529E+02 0.  0.
         13    1    3    3    0    0  0.18044406774E+02  0.14079601510E+02 -0.52026435451E+02  0.56838242234E+02  0.00000000000E+00 0. -1.
        -14    1    3    3    0    0 -0.69958249360E+02 -0.11913583712E+02 -0.26250376408E+03  0.27192704222E+03  0.00000000000E+00 0.  1.
        -11    1    4    4    0    0 -0.25383798436E+02 -0.64350091435E+02 -0.55483410554E+02  0.88677394737E+02  0.00000000000E+00 0.  1.
         11    1    4    4    0    0  0.55052525584E+02 -0.27433243054E+02 -0.20881502469E+02  0.64956912974E+02  0.00000000000E+00 0. -1.
         -1    1    1    2    0  502  0.22245115438E+02  0.89617316691E+02  0.25759509552E+03  0.27364455384E+03  0.00000000000E+00 0.  1.
<scales pt_clust_5="13000.00000" pt_clust_6="13000.00000" pt_clust_7="13000.00000" pt_clust_8="13000.00000" pt_clust_9="92.33693"></scales>
<clustering>
<clus scale="   80.359">  5  6 -1 -1</clus>
<clus scale="   92.019">  7  8 -1 -1</clus>
<clus scale="   92.337">  1  9  2 -1</clus>
<clus scale="   95.209">  2  5  1 -1</clus>
<clus scale="   92.337">  1  5  2 -1</clus>
</clustering>
</event>
<event>
 9    1  0.6014990E-005  0.3123924E+03  0.7546771E-02  0.1127285E+00
         21   -1    0    0  501  502  0.00000000000E+00  0.00000000000E+00  0.13989167176E+03  0.13989167176E+03  0.00000000000E+00 0. -1.
          1   -1    0    0  502    0 -0.00000000000E+00 -0.00000000000E+00 -0.11525144815E+04  0.11525144815E+04  0.00000000000E+00 0. -1.
        -24    2    1    2    0    0  0.27111190323E+02  0.43199540388E+02 -0.27931278914E+03  0.29355962010E+03  0.74568085983E+02 0.  0.
         23    2    1    2    0    0  0.28133812836E+03  0.65368456899E+02 -0.16738824576E+03  0.34524463026E+03  0.88038924797E+02 0.  0.
         11    1    3    3    0    0  0.15227385962E+02 -0.20371292737E+02 -0.69604894103E+02  0.74106033048E+02  0.00000000000E+00 0. -1.
        -12    1    3    3    0    0  0.11883804361E+02  0.63570833125E+02 -0.20970789504E+03  0.21945358705E+03  0.00000000000E+00 0.  1.
        -11    1    4    4    0    0  0.22190130272E+03  0.87006343175E+02 -0.13893982838E+03  0.27588868736E+03  0.00000000000E+00 0. -1.
         11    1    4    4    0    0  0.59436825635E+02 -0.21637886276E+02 -0.28448417374E+02  0.69355942897E+02  0.00000000000E+00 0.  1.
          2    1    1    2  501    0 -0.30844931868E+03 -0.10856799729E+03 -0.56592177487E+03  0.65360190292E+03  0.00000000000E+00 0. -1.
<scales pt_clust_5="13000.00000" pt_clust_6="13000.00000" pt_clust_7="13000.00000" pt_clust_8="13000.00000" pt_clust_9="299.73027"></scales>
<clustering>
<clus scale="   74.568">  5  6 -1 -1</clus>
<clus scale="   88.039">  7  8 -1 -1</clus>
<clus scale="   90.342">  2  5  1 -1</clus>
<clus scale="  299.730">  1  9  2 -1</clus>
<clus scale="  299.730">  1  5  2 -1</clus>
</clustering>
</event>
<event>
 9    1  0.6014990E-005  0.9396157E+02  0.7546771E-02  0.1299920E+00
          1   -1    0    0  502    0 -0.00000000000E+00  0.00000000000E+00  0.38147232598E+03  0.38147232598E+03  0.00000000000E+00 0. -1.
         21   -1    0    0  501  502  0.00000000000E+00 -0.00000000000E+00 -0.41916994773E+02  0.41916994773E+02  0.00000000000E+00 0.  1.
        -24    2    1    2    0    0 -0.17330801191E+02 -0.22482074954E+02  0.21748770057E+03  0.23321347443E+03  0.79257961065E+02 0.  0.
         23    2    1    2    0    0  0.22978513868E+02  0.24360956873E+01  0.33183759029E+02  0.98884660685E+02  0.90238947211E+02 0.  0.
         13    1    3    3    0    0 -0.35037296972E+02 -0.43703598591E+02  0.13280271447E+03  0.14413250043E+03  0.00000000000E+00 0. -1.
        -14    1    3    3    0    0  0.17706495781E+02  0.21221523638E+02  0.84684986103E+02  0.89080974005E+02  0.00000000000E+00 0.  1.
        -11    1    4    4    0    0 -0.11638921361E+02  0.27110142104E+02  0.45854382163E+02  0.54525669724E+02  0.00000000000E+00 0. -1.
         11    1    4    4    0    0  0.34617435229E+02 -0.24674046417E+02 -0.12670623134E+02  0.44358990961E+02  0.00000000000E+00 0.  1.
          2    1    1    2  501    0 -0.56477126771E+01  0.20045979266E+02  0.88883871606E+02  0.91291185636E+02  0.00000000000E+00 0. -1.
<scales pt_clust_5="13000.00000" pt_clust_6="13000.00000" pt_clust_7="13000.00000" pt_clust_8="13000.00000" pt_clust_9="20.82639"></scales>
<clustering>
<clus scale="   20.826">  2  9  1 -1</clus>
<clus scale="   79.258">  5  6 -1 -1</clus>
<clus scale="   83.472">  1  5  2 -1</clus>
<clus scale="   90.239">  7  8 -1 -1</clus>
<clus scale="   20.826">  2  5  1 -1</clus>
</clustering>
</event>
<event>
 9    1  0.6014990E-005  0.1588272E+03  0.7546771E-02  0.1191863E+00
         -2   -1    0    0    0  501 -0.00000000000E+00  0.00000000000E+00  0.63951734319E+03  0.63951734319E+03  0.00000000000E+00 0.  1.
         21   -1    0    0  501  502  0.00000000000E+00 -0.00000000000E+00 -0.92439341701E+02  0.92439341701E+02  0.00000000000E+00 0.  1.
        -24    2    1    2    0    0  0.64686521126E+02 -0.57735705040E+02  0.15033523435E+03  0.19139985086E+03  0.80718415327E+02 0.  0.
         23    2    1    2    0    0 -0.10010989539E+03  0.16539265361E+03  0.36446320913E+03  0.42271455008E+03  0.92073009138E+02 0.  0.
         11    1    3    3    0    0  0.58370808548E+02 -0.69808421772E+01  0.44085874934E+02  0.73480935057E+02  0.00000000000E+00 0. -1.
        -12    1    3    3    0    0  0.63157125775E+01 -0.50754862863E+02  0.10624935941E+03  0.11791891581E+03  0.00000000000E+00 0.  1.
        -11    1    4    4    0    0 -0.93260676774E+02  0.67531813806E+02  0.17746727776E+03  0.21154842089E+03  0.00000000000E+00 0.  1.
         11    1    4    4    0    0 -0.68492186176E+01  0.97860839808E+02  0.18699593138E+03  0.21116612919E+03  0.00000000000E+00 0. -1.
         -1    1    1    2    0  502  0.35423374266E+02 -0.10765694857E+03  0.32279558009E+02  0.11784228395E+03  0.00000000000E+00 0.  1.
<scales pt_clust_5="13000.00000" pt_clust_6="13000.00000" pt_clust_7="13000.00000" pt_clust_8="13000.00000" pt_clust_9="113.33505"></scales>
<clustering>
<clus scale="   80.718">  5  6 -1 -1</clus>
<clus scale="   92.073">  7  8 -1 -1</clus>
<clus scale="  113.335">  2  9  1 -1</clus>
<clus scale="  152.526">  1  5  2 -1</clus>
<clus scale="  113.335">  2  5  1 -1</clus>
</clustering>
</event>
<event>
 9    1  0.6014990E-005  0.1577056E+03  0.7546771E-02  0.1202406E+00
         21   -1    0    0  501  502  0.00000000000E+00  0.00000000000E+00  0.82556833007E+03  0.82556833007E+03  0.00000000000E+00 0. -1.
          1   -1    0    0  502    0 -0.00000000000E+00 -0.00000000000E+00 -0.67366067176E+02  0.67366067176E+02  0.00000000000E+00 0. -1.
        -24    2    1    2    0    0  0.39365585956E+02  0.81628907189E+02  0.43093398393E+03  0.44835777368E+03  0.84306979976E+02 0.  0.
         23    2    1    2    0    0  0.94806346812E+02 -0.10075262065E+03  0.17508603720E+03  0.24079424290E+03  0.90484324765E+02 0.  0.
         11    1    3    3    0    0  0.17558284053E+01  0.48241511250E+02  0.77085455542E+02  0.90953250613E+02  0.00000000000E+00 0. -1.
        -12    1    3    3    0    0  0.37609757550E+02  0.33387395939E+02  0.35384852839E+03  0.35740452307E+03  0.00000000000E+00 0.  1.
        -13    1    4    4    0    0  0.27163489817E+02 -0.10551555031E+01  0.88090537743E+02  0.92189540469E+02  0.00000000000E+00 0.  1.
         13    1    4    4    0    0  0.67642856995E+02 -0.99697465145E+02  0.86995499458E+02  0.14860470243E+03  0.00000000000E+00 0. -1.
          2    1    1    2  501    0 -0.13417193277E+03  0.19123713460E+02  0.15218224177E+03  0.20378238066E+03  0.00000000000E+00 0. -1.
<scales pt_clust_5="13000.00000" pt_clust_6="13000.00000" pt_clust_7="13000.00000" pt_clust_8="13000.00000" pt_clust_9="129.16521"></scales>
<clustering>
<clus scale="   84.307">  5  6 -1 -1</clus>
<clus scale="   90.484">  7  8 -1 -1</clus>
<clus scale="  123.776">  2  5  1 -1</clus>
<clus scale="  129.165">  1  9  2 -1</clus>
<clus scale="  129.165">  1  5  2 -1</clus>
</clustering>
</event>
<event>
 9    1  0.6014990E-005  0.1743362E+03  0.7546771E-02  0.1197262E+00
         21   -1    0    0  501  502  0.00000000000E+00  0.00000000000E+00  0.21813621902E+03  0.21813621902E+03  0.00000000000E+00 0. -1.
         -2   -1    0    0    0  501 -0.00000000000E+00 -0.00000000000E+00 -0.42498690241E+03  0.42498690241E+03  0.00000000000E+00 0.  1.
        -24    2    1    2    0    0  0.62519638804E+02 -0.15869434282E+02  0.76022104271E+02  0.12758235589E+03  0.79607493469E+02 0.  0.
         23    2    1    2    0    0  0.72273441149E+02 -0.72645325298E+02 -0.32279499568E+03  0.34941485017E+03  0.85984502680E+02 0.  0.
         13    1    3    3    0    0  0.60444263366E+02 -0.41369642157E+02  0.69962090076E+02  0.10128993195E+03  0.00000000000E+00 0. -1.
        -14    1    3    3    0    0  0.20753754381E+01  0.25500207874E+02  0.60600141951E+01  0.26292423945E+02  0.00000000000E+00 0.  1.
        -11    1    4    4    0    0  0.49008413354E+02 -0.53724859649E+02 -0.30705284171E+03  0.31554656190E+03  0.00000000000E+00 0.  1.
         11    1    4    4    0    0  0.23265027795E+02 -0.18920465649E+02 -0.15742153963E+02  0.33868288266E+02  0.00000000000E+00 0. -1.
         -1    1    1    2    0  502 -0.13479307995E+03  0.88514759580E+02  0.39922208012E+02  0.16612591538E+03  0.00000000000E+00 0.  1.
<scales pt_clust_5="13000.00000" pt_clust_6="13000.00000" pt_clust_7="13000.00000" pt_clust_8="13000.00000" pt_clust_9="151.65676"></scales>
<clustering>
<clus scale="   79.607">  5  6 -1 -1</clus>
<clus scale="   85.985">  7  8 -1 -1</clus>
<clus scale="  102.459">  2  5  1 -1</clus>
<clus scale="  151.657">  1  9  2 -1</clus>
<clus scale="  151.657">  1  5  2 -1</clus>
</clustering>
</event>
<event>
 9    1  0.6014990E-005  0.9441144E+02  0.7546771E-02  0.1299123E+00
         -2   -1    0    0    0  501 -0.00000000000E+00  0.00000000000E+00  0.52993608630E+03  0.52993608630E+03  0.00000000000E+00 0.  1.
         21   -1    0    0  501  502  0.00000000000E+00 -0.00000000000E+00 -0.24398553052E+03  0.24398553052E+03  0.00000000000E+00 0.  1.
        -24    2    1    2    0    0  0.82218063588E+01  0.24026958930E+02  0.49604080113E+03  0.50301694920E+03  0.79527868996E+02 0.  0.
         23    2    1    2    0    0 -0.29259350682E+02 -0.17982279458E+02 -0.49939819597E+02  0.10926533055E+03  0.90914547252E+02 0.  0.
         11    1    3    3    0    0  0.17752597501E+02  0.14479131538E+02  0.35320277819E+02  0.42098954777E+02  0.00000000000E+00 0. -1.
        -12    1    3    3    0    0 -0.95307911425E+01  0.95478273925E+01  0.46072052331E+03  0.46091799443E+03  0.00000000000E+00 0.  1.
        -11    1    4    4    0    0 -0.48082428401E+02 -0.39165877975E+02 -0.14139593370E+02  0.63606713633E+02  0.00000000000E+00 0.  1.
         11    1    4    4    0    0  0.18823077719E+02  0.21183598517E+02 -0.35800226226E+02  0.45658616917E+02  0.00000000000E+00 0. -1.
         -1    1    1    2    0  502  0.21037544323E+02 -0.60446794723E+01 -0.16015042575E+03  0.16163933707E+03  0.00000000000E+00 0.  1.
<scales pt_clust_5="13000.00000" pt_clust_6="13000.00000" pt_clust_7="13000.00000" pt_clust_8="13000.00000" pt_clust_9="21.88873"></scales>
<clustering>
<clus scale="   21.889">  2  9  1 -1</clus>
<clus scale="   79.528">  5  6 -1 -1</clus>
<clus scale="   83.503">  1  5  2 -1</clus>
<clus scale="   90.915">  7  8 -1 -1</clus>
<clus scale="   21.889">  2  5  1 -1</clus>
</clustering>
</event>
<event>
 9    1  0.6014990E-005  0.1296396E+03  0.7546771E-02  0.1231404E+00
         21   -1    0    0  501  502  0.00000000000E+00  0.00000000000E+00  0.80764557741E+02  0.80764557741E+02  0.00000000000E+00 0. -1.
          1   -1    0    0  502    0 -0.00000000000E+00 -0.00000000000E+00 -0.25105185393E+03  0.25105185393E+03  0.00000000000E+00 0. -1.
        -24    2    1    2    0    0  0.59173525525E+02 -0.39084876373E+02 -0.10554555167E+03  0.15842580325E+03  0.94497290831E+02 0.  0.
         23    2    1    2    0    0 -0.55116992097E+02  0.64263975981E+02 -0.55881293763E+02  0.14639153236E+03  0.10554629471E+03 0.  0.
         13    1    3    3    0    0 -0.18764479463E+02  0.86285788270E+01 -0.42956089246E+02  0.47663231797E+02  0.00000000000E+00 0. -1.
        -14    1    3    3    0    0  0.77938004987E+02 -0.47713455200E+02 -0.62589462425E+02  0.11076257145E+03  0.00000000000E+00 0.  1.
        -11    1    4    4    0    0 -0.28127069590E+02 -0.17620777750E+02 -0.49947027155E+02  0.59969403648E+02  0.00000000000E+00 0.  1.
         11    1    4    4    0    0 -0.26989922507E+02  0.81884753731E+02 -0.59342666078E+01  0.86422128710E+02  0.00000000000E+00 0. -1.
          2    1    1    2  501    0 -0.40565334275E+01 -0.25179099608E+02 -0.88604507534E+01  0.26999076059E+02  0.00000000000E+00 0. -1.
<scales pt_clust_5="13000.00000" pt_clust_6="13000.00000" pt_clust_7="13000.00000" pt_clust_8="13000.00000" pt_clust_9="25.50377"></scales>
<clustering>
<clus scale="   25.504">  1  9  2 -1</clus>
<clus scale="   94.497">  5  6 -1 -1</clus>
<clus scale="  105.546">  7  8 -1 -1</clus>
<clus scale="  120.815">  2  5  1 -1</clus>
<clus scale="   25.504">  1  5  2 -1</clus>
</clustering>
</event>
<event>
 9    1  0.6014990E-005  0.9080502E+02  0.7546771E-02  0.1307254E+00
         -2   -1    0    0    0  501 -0.00000000000E+00  0.00000000000E+00  0.30773136136E+03  0.30773136136E+03  0.00000000000E+00 0.  1.
         21   -1    0    0  501  502  0.00000000000E+00 -0.00000000000E+00 -0.63070898653E+02  0.63070898653E+02  0.00000000000E+00 0.  1.
        -24    2    1    2    0    0  0.42509123100E+01  0.50670748833E+01  0.14354717717E+03  0.16478374794E+03  0.80648285843E+02 0.  0.
         23    2    1    2    0    0  0.22612477891E+02  0.48098501799E+02  0.22598243096E+02  0.10746481013E+03  0.90626788497E+02 0.  0.
         11    1    3    3    0    0  0.16421468036E+02 -0.35134658997E+02  0.73632770745E+02  0.83221955054E+02  0.00000000000E+00 0. -1.
        -12    1    3    3    0    0 -0.12170555726E+02  0.40201733880E+02  0.69914406423E+02  0.81561792889E+02  0.00000000000E+00 0.  1.
        -11    1    4    4    0    0 -0.33464067334E+02  0.10167817156E+02  0.18681741422E+02  0.39651428357E+02  0.00000000000E+00 0. -1.
         11    1    4    4    0    0  0.56076545225E+02  0.37930684644E+02  0.39165016738E+01  0.67813381771E+02  0.00000000000E+00 0.  1.
         -1    1    1    2    0  502 -0.26863390201E+02 -0.53165576683E+02  0.78515042446E+02  0.98553701947E+02  0.00000000000E+00 0.  1.
<scales pt_clust_5="13000.00000" pt_clust_6="13000.00000" pt_clust_7="13000.00000" pt_clust_8="13000.00000" pt_clust_9="59.56697"></scales>
<clustering>
<clus scale="   59.567">  2  9  1 -1</clus>
<clus scale="   80.648">  5  6 -1 -1</clus>
<clus scale="   80.849">  1  5  2 -1</clus>
<clus scale="   90.627">  7  8 -1 -1</clus>
<clus scale="   59.567">  2  5  1 -1</clus>
</clustering>
</event>
<event>
 9    1  0.6014990E-005  0.1152704E+03  0.7546771E-02  0.1254708E+00
         21   -1    0    0  501  502  0.00000000000E+00  0.00000000000E+00  0.91848451646E+02  0.91848451646E+02  0.00000000000E+00 0. -1.
          1   -1    0    0  502    0 -0.00000000000E+00 -0.00000000000E+00 -0.56140179748E+03  0.56140179748E+03  0.00000000000E+00 0. -1.
        -24    2    1    2    0    0  0.51861764320E+02  0.49530478364E+02 -0.41472848630E+03  0.42844987643E+03  0.80166504110E+02 0.  0.
         23    2    1    2    0    0 -0.14202081572E+02 -0.80280455951E+02  0.31393207811E+02  0.12581871801E+03  0.90543721910E+02 0.  0.
         13    1    3    3    0    0  0.53479569863E+02  0.20493671352E+01 -0.29166198782E+03  0.29653158253E+03  0.00000000000E+00 0. -1.
        -14    1    3    3    0    0 -0.16178055424E+01  0.47481111228E+02 -0.12306649848E+03  0.13191829391E+03  0.00000000000E+00 0.  1.
        -13    1    4    4    0    0  0.21928096528E+02 -0.82641836535E+02  0.19378443438E+02  0.87670055511E+02  0.00000000000E+00 0. -1.
         13    1    4    4    0    0 -0.36130178100E+02  0.23613805841E+01  0.12014764372E+02  0.38148662503E+02  0.00000000000E+00 0.  1.
          2    1    1    2  501    0 -0.37659682748E+02  0.30749977587E+02 -0.86218067341E+02  0.98981654676E+02  0.00000000000E+00 0. -1.
<scales pt_clust_5="13000.00000" pt_clust_6="13000.00000" pt_clust_7="13000.00000" pt_clust_8="13000.00000" pt_clust_9="48.61908"></scales>
<clustering>
<clus scale="   48.619">  1  9  2 -1</clus>
<clus scale="   80.167">  5  6 -1 -1</clus>
<clus scale="   90.544">  7  8 -1 -1</clus>
<clus scale="  107.312">  2  5  1 -1</clus>
<clus scale="   48.619">  1  5  2 -1</clus>
</clustering>
</event>
<event>
 9    1  0.6014990E-005  0.1732542E+03  0.7546771E-02  0.1202569E+00
         21   -1    0    0  501  502  0.00000000000E+00  0.00000000000E+00  0.27267523896E+03  0.27267523896E+03  0.00000000000E+00 0.  1.
         -4   -1    0    0    0  501 -0.00000000000E+00 -0.00000000000E+00 -0.23655576264E+03  0.23655576264E+03  0.00000000000E+00 0.  1.
        -24    2    1    2    0    0  0.45301323053E+02  0.15115512296E+02  0.68644790448E+02  0.11560982705E+03  0.79830046182E+02 0.  0.
         23    2    1    2    0    0  0.13808573017E+03  0.79332955605E+01  0.74883499635E+02  0.17984860356E+03  0.87220270753E+02 0.  0.
         11    1    3    3    0    0 -0.22667432414E+02  0.86643110050E+01  0.23353718841E+02  0.33679058198E+02  0.00000000000E+00 0. -1.
        -12    1    3    3    0    0  0.67968755467E+02  0.64512012911E+01  0.45291071607E+02  0.81930768855E+02  0.00000000000E+00 0.  1.
        -11    1    4    4    0    0  0.74615878225E+02  0.42696383415E+02  0.62840912603E+02  0.10648704492E+03  0.00000000000E+00 0.  1.
         11    1    4    4    0    0  0.63469851947E+02 -0.34763087855E+02  0.12042587032E+02  0.73361558638E+02  0.00000000000E+00 0. -1.
         -3    1    1    2    0  502 -0.18338705323E+03 -0.23048807857E+02 -0.10740881376E+03  0.21377257099E+03  0.00000000000E+00 0.  1.
<scales pt_clust_5="13000.00000" pt_clust_6="13000.00000" pt_clust_7="13000.00000" pt_clust_8="13000.00000" pt_clust_9="149.69859"></scales>
<clustering>
<clus scale="   79.830">  5  6 -1 -1</clus>
<clus scale="   87.220">  7  8 -1 -1</clus>
<clus scale="   93.024">  2  5  1 -1</clus>
<clus scale="  149.699">  1  9  2 -1</clus>
<clus scale="  149.699">  1  5  2 -1</clus>
</clustering>
</event>
<event>
 9    1  0.6014990E-005  0.1048100E+03  0.7546771E-02  0.1275774E+00
         21   -1    0    0  501  502  0.00000000000E+00  0.00000000000E+00  0.64467539060E+02  0.64467539060E+02  0.00000000000E+00 0. -1.
         -4   -1    0    0    0  501 -0.00000000000E+00 -0.00000000000E+00 -0.29615998855E+03  0.29615998855E+03  0.00000000000E+00 0.  1.
         23    2    1    2    0    0  0.31573765751E+02  0.14059061179E+02 -0.10707294992E+03  0.14547499835E+03  0.92216043384E+02 0.  0.
        -24    2    1    2    0    0 -0.34099366148E+02 -0.74502228629E+02 -0.80463232293E+02  0.14025572633E+03  0.80523215125E+02 0.  0.
         13    1    4    4    0    0  0.59922924470E+01 -0.39293590705E+02 -0.77160375474E+02  0.86796413419E+02  0.00000000000E+00 0. -1.
        -14    1    4    4    0    0 -0.40091658595E+02 -0.35208637925E+02 -0.33028568194E+01  0.53459312907E+02  0.00000000000E+00 0.  1.
        -13    1    3    3    0    0  0.56358548436E+02 -0.16885405727E+02 -0.63895754675E+02  0.86856608119E+02  0.00000000000E+00 0.  1.
         13    1    3    3    0    0 -0.24784782685E+02  0.30944466906E+02 -0.43177195241E+02  0.58618390235E+02  0.00000000000E+00 0. -1.
         -3    1    1    2    0  502  0.25256003970E+01  0.60443167450E+02 -0.44156267280E+02  0.74896802928E+02  0.00000000000E+00 0.  1.
<scales pt_clust_5="13000.00000" pt_clust_6="13000.00000" pt_clust_7="13000.00000" pt_clust_8="13000.00000" pt_clust_9="60.49591"></scales>
<clustering>
<clus scale="   60.496">  1  9  2 -1</clus>
<clus scale="   80.523">  5  6 -1 -1</clus>
<clus scale="   92.216">  7  8 -1 -1</clus>
<clus scale="   94.685">  1  5  2 -1</clus>
<clus scale="   60.496">  1  5  2 -1</clus>
</clustering>
</event>
<event>
 9    1  0.6014990E-005  0.1871782E+03  0.7546771E-02  0.1180711E+00
         -4   -1    0    0    0  501 -0.00000000000E+00  0.00000000000E+00  0.13742137613E+04  0.13742137613E+04  0.00000000000E+00 0.  1.
         21   -1    0    0  501  502  0.00000000000E+00 -0.00000000000E+00 -0.57980695025E+02  0.57980695025E+02  0.00000000000E+00 0.  1.
        -24    2    1    2    0    0 -0.54169342499E+02 -0.67568875352E+02  0.74616858788E+03  0.75566315045E+03  0.82215356351E+02 0.  0.
         23    2    1    2    0    0  0.15644079526E+02 -0.12261680094E+03  0.35607514574E+03  0.38766070881E+03  0.90618423314E+02 0.  0.
         11    1    3    3    0    0 -0.29410037167E+02 -0.10847710724E+02  0.70364323979E+02  0.77030910699E+02  0.00000000000E+00 0. -1.
        -12    1    3    3    0    0 -0.24759305333E+02 -0.56721164628E+02  0.67580426390E+03  0.67863223975E+03  0.00000000000E+00 0.  1.
        -11    1    4    4    0    0 -0.31265357934E+02 -0.92203436638E+02  0.22730728220E+03  0.24728040132E+03  0.00000000000E+00 0.  1.
         11    1    4    4    0    0  0.46909437460E+02 -0.30413364305E+02  0.12876786354E+03  0.14038030749E+03  0.00000000000E+00 0. -1.
         -3    1    1    2    0  502  0.38525262973E+02  0.19018567630E+03  0.21398933262E+03  0.28887059703E+03  0.00000000000E+00 0.  1.
<scales pt_clust_5="13000.00000" pt_clust_6="13000.00000" pt_clust_7="13000.00000" pt_clust_8="13000.00000" pt_clust_9="163.78029"></scales>
<clustering>
<clus scale="   82.215">  5  6 -1 -1</clus>
<clus scale="   90.618">  7  8 -1 -1</clus>
<clus scale="  119.412">  1  5  2 -1</clus>
<clus scale="  163.780">  2  9  1 -1</clus>
<clus scale="  163.780">  2  5  1 -1</clus>
</clustering>
</event>
<event>
 9    1  0.6014990E-005  0.1375745E+03  0.7546771E-02  0.1237966E+00
         21   -1    0    0  501  502  0.00000000000E+00  0.00000000000E+00  0.45554759239E+03  0.45554759239E+03  0.00000000000E+00 0. -1.
          1   -1    0    0  502    0 -0.00000000000E+00 -0.00000000000E+00 -0.78330229581E+02  0.78330229581E+02  0.00000000000E+00 0. -1.
        -24    2    1    2    0    0 -0.14261391511E+02  0.81887256763E+01  0.45323258518E+02  0.99319300974E+02  0.86831349565E+02 0.  0.
         23    2    1    2    0    0  0.59273223780E+02 -0.89281067883E+02  0.30814591842E+03  0.33881924305E+03  0.91433846484E+02 0.  0.
         11    1    3    3    0    0  0.80321039054E+01  0.21005420313E+02  0.63804615353E+02  0.67651838970E+02  0.00000000000E+00 0. -1.
        -12    1    3    3    0    0 -0.22293495416E+02 -0.12816694636E+02 -0.18481356835E+02  0.31667462004E+02  0.00000000000E+00 0.  1.
        -13    1    4    4    0    0  0.13893479825E+02 -0.80465993483E+02  0.12048799035E+03  0.14555123053E+03  0.00000000000E+00 0. -1.
         13    1    4    4    0    0  0.45379743955E+02 -0.88150743998E+01  0.18765792807E+03  0.19326801252E+03  0.00000000000E+00 0.  1.
          2    1    1    2  501    0 -0.45011832269E+02  0.81092342207E+02  0.23748185866E+02  0.95739277941E+02  0.00000000000E+00 0. -1.
<scales pt_clust_5="13000.00000" pt_clust_6="13000.00000" pt_clust_7="13000.00000" pt_clust_8="13000.00000" pt_clust_9="102.79395"></scales>
<clustering>
<clus scale="   86.831">  5  6 -1 -1</clus>
<clus scale="   88.375">  2  5  1 -1</clus>
<clus scale="   91.434">  7  8 -1 -1</clus>
<clus scale="  102.794">  1  9  2 -1</clus>
<clus scale="  102.794">  1  5  2 -1</clus>
</clustering>
</event>
<event>
 9    1  0.6014990E-005  0.1094194E+03  0.7546771E-02  0.1265485E+00
         21   -1    0    0  501  502  0.00000000000E+00  0.00000000000E+00  0.31156197604E+02  0.31156197604E+02  0.00000000000E+00 0. -1.
          1   -1    0    0  502    0 -0.00000000000E+00 -0.00000000000E+00 -0.83477326997E+03  0.83477326997E+03  0.00000000000E+00 0. -1.
         23    2    1    2    0    0 -0.62822603657E+02 -0.83952523621E+00 -0.55295528307E+03  0.56377746781E+03  0.90211439419E+02 0.  0.
        -24    2    1    2    0    0  0.54028045280E+02  0.48049130074E+02 -0.11330629284E+03  0.15664384379E+03  0.80443950827E+02 0.  0.
         11    1    4    4    0    0  0.31504079471E+02  0.38897830863E+01  0.13063434424E+01  0.31770174204E+02  0.00000000000E+00 0. -1.
        -12    1    4    4    0    0  0.22523965809E+02  0.44159346988E+02 -0.11461263628E+03  0.12487366959E+03  0.00000000000E+00 0.  1.
        -11    1    3    3    0    0 -0.88432045992E+01  0.39571763076E+02 -0.15874309192E+03  0.16383984843E+03  0.00000000000E+00 0. -1.
         11    1    3    3    0    0 -0.53979399058E+02 -0.40411288312E+02 -0.39421219115E+03  0.39993761938E+03  0.00000000000E+00 0.  1.
          2    1    1    2  501    0  0.87945583777E+01 -0.47209604838E+02 -0.13735549646E+03  0.14550815597E+03  0.00000000000E+00 0. -1.
<scales pt_clust_5="13000.00000" pt_clust_6="13000.00000" pt_clust_7="13000.00000" pt_clust_8="13000.00000" pt_clust_9="48.02180"></scales>
<clustering>
<clus scale="   48.022">  1  9  2 -1</clus>
<clus scale="   80.444">  5  6 -1 -1</clus>
<clus scale="   90.211">  7  8 -1 -1</clus>
<clus scale="  101.517">  1  5  2 -1</clus>
<clus scale="   48.022">  1  5  2 -1</clus>
</clustering>
</event>
<event>
 9    1  0.6014990E-005  0.9577214E+02  0.7546771E-02  0.1293970E+00
         -2   -1    0    0    0  501 -0.00000000000E+00  0.00000000000E+00  0.56235734081E+03  0.56235734081E+03  0.00000000000E+00 0.  1.
         21   -1    0    0  501  502  0.00000000000E+00 -0.00000000000E+00 -0.38965036596E+02  0.38965036596E+02  0.00000000000E+00 0.  1.
        -24    2    1    2    0    0 -0.96053683544E+01  0.30341541070E+02  0.29623254028E+03  0.30900108981E+03  0.81945612252E+02 0.  0.
         23    2    1    2    0    0 -0.21950170347E+02 -0.34538069757E+02  0.23871278488E+03  0.25845633272E+03  0.90228565414E+02 0.  0.
         13    1    3    3    0    0  0.27337013556E+02  0.40330284196E+02  0.14343664971E+03  0.15148569772E+03  0.00000000000E+00 0. -1.
        -14    1    3    3    0    0 -0.36942381910E+02 -0.99887431261E+01  0.15279589057E+03  0.15751539209E+03  0.00000000000E+00 0.  1.
        -11    1    4    4    0    0 -0.29808050066E+02  0.24653557750E+02  0.10898863936E+03  0.11564964880E+03  0.00000000000E+00 0.  1.
         11    1    4    4    0    0  0.78578797191E+01 -0.59191627507E+02  0.12972414552E+03  0.14280668392E+03  0.00000000000E+00 0. -1.
         -1    1    1    2    0  502  0.31555538702E+02  0.41965286875E+01 -0.11553020947E+02  0.33864954876E+02  0.00000000000E+00 0.  1.
<scales pt_clust_5="13000.00000" pt_clust_6="13000.00000" pt_clust_7="13000.00000" pt_clust_8="13000.00000" pt_clust_9="31.83336"></scales>
<clustering>
<clus scale="   31.833">  2  9  1 -1</clus>
<clus scale="   81.946">  5  6 -1 -1</clus>
<clus scale="   88.012">  1  5  2 -1</clus>
<clus scale="   90.229">  7  8 -1 -1</clus>
<clus scale="   31.833">  2  5  1 -1</clus>
</clustering>
</event>
<event>
 9    1  0.6014990E-005  0.1505533E+03  0.7546771E-02  0.1202841E+00
         21   -1    0    0  501  502  0.00000000000E+00  0.00000000000E+00  0.36309345260E+03  0.36309345260E+03  0.00000000000E+00 0.  1.
          1   -1    0    0  502    0 -0.00000000000E+00 -0.00000000000E+00 -0.92637451283E+02  0.92637451283E+02  0.00000000000E+00 0. -1.
         23    2    1    2    0    0  0.85844538389E+01  0.11588840861E+03  0.22018950703E+02  0.15247360511E+03  0.96226555427E+02 0.  0.
        -24    2    1    2    0    0 -0.32195265541E+02 -0.11202022484E+03  0.16986359700E+03  0.22112191730E+03  0.80350450094E+02 0.  0.
         11    1    4    4    0    0 -0.16432881460E+02 -0.95761034924E+02  0.72685057999E+02  0.12133974229E+03  0.00000000000E+00 0. -1.
        -12    1    4    4    0    0 -0.15762384081E+02 -0.16259189920E+02  0.97178538997E+02  0.99782175013E+02  0.00000000000E+00 0.  1.
        -13    1    3    3    0    0  0.47146862390E+02  0.75767384738E+02 -0.73681360857E+01  0.89542239489E+02  0.00000000000E+00 0. -1.
         13    1    3    3    0    0 -0.38562408551E+02  0.40121023867E+02  0.29387086788E+02  0.62931365624E+02  0.00000000000E+00 0.  1.
          2    1    1    2  501    0  0.23610811702E+02 -0.38681837608E+01  0.78573453623E+02  0.82135381469E+02  0.00000000000E+00 0. -1.
<scales pt_clust_5="13000.00000" pt_clust_6="13000.00000" pt_clust_7="13000.00000" pt_clust_8="13000.00000" pt_clust_9="23.92558"></scales>
<clustering>
<clus scale="   23.926">  1  9  2 -1</clus>
<clus scale="   80.350">  5  6 -1 -1</clus>
<clus scale="   96.227">  7  8 -1 -1</clus>
<clus scale="  140.936">  1  5  2 -1</clus>
<clus scale="   23.926">  1  5  2 -1</clus>
</clustering>
</event>
<event>
 9    1  0.6014990E-005  0.1193572E+03  0.7546771E-02  0.1247389E+00
          1   -1    0    0  502    0 -0.00000000000E+00  0.00000000000E+00  0.19738906809E+03  0.19738906809E+03  0.00000000000E+00 0. -1.
         21   -1    0    0  501  502  0.00000000000E+00 -0.00000000000E+00 -0.11412408081E+03  0.11412408081E+03  0.00000000000E+00 0. -1.
         23    2    1    2    0    0 -0.67207081669E+02 -0.33569812482E+02  0.11010701269E+03  0.16110277405E+03  0.90481077724E+02 0.  0.
        -24    2    1    2    0    0  0.63567111165E+02  0.61661550153E+02 -0.23966435160E+02  0.12193821073E+03  0.80321932450E+02 0.  0.
         13    1    4    4    0    0  0.56926924144E+02  0.80720508266E+02 -0.24426784629E+02  0.10175039535E+03  0.00000000000E+00 0. -1.
        -14    1    4    4    0    0  0.66401870202E+01 -0.19058958113E+02  0.46034946974E+00  0.20187815376E+02  0.00000000000E+00 0.  1.
        -13    1    3    3    0    0 -0.86436356444E+02 -0.42593074290E+02  0.90521971560E+02  0.13221059348E+03  0.00000000000E+00 0. -1.
         13    1    3    3    0    0  0.19229274775E+02  0.90232618080E+01  0.19585041131E+02  0.28892180571E+02  0.00000000000E+00 0.  1.
          2    1    1    2  501    0  0.36399705043E+01 -0.28091737671E+02 -0.28755902538E+01  0.28472164125E+02  0.00000000000E+00 0. -1.
<scales pt_clust_5="13000.00000" pt_clust_6="13000.00000" pt_clust_7="13000.00000" pt_clust_8="13000.00000" pt_clust_9="28.32658"></scales>
<clustering>
<clus scale="   28.327">  2  9  1 -1</clus>
<clus scale="   80.322">  5  6 -1 -1</clus>
<clus scale="   90.481">  7  8 -1 -1</clus>
<clus scale="  111.852">  2  5  1 -1</clus>
<clus scale="   28.327">  2  5  1 -1</clus>
</clustering>
</event>
<event>
 9    1  0.6014990E-005  0.1155786E+03  0.7546771E-02  0.1271097E+00
         -2   -1    0    0    0  501 -0.00000000000E+00  0.00000000000E+00  0.10042284526E+03  0.10042284526E+03  0.00000000000E+00 0.  1.
         21   -1    0    0  501  502  0.00000000000E+00 -0.00000000000E+00 -0.44902234481E+03  0.44902234481E+03  0.00000000000E+00 0. -1.
        -24    2    1    2    0    0 -0.59174585645E+01 -0.11368850302E+02  0.26991857707E+02  0.81833621533E+02  0.76183424429E+02 0.  0.
         23    2    1    2    0    0 -0.63998428570E+02 -0.21610604373E+02 -0.37308026850E+03  0.39026700654E+03  0.92502067935E+02 0.  0.
         13    1    3    3    0    0  0.25366370343E+02  0.20462747830E+02  0.12555257989E+02  0.34925797003E+02  0.00000000000E+00 0. -1.
        -14    1    3    3    0    0 -0.31283828907E+02 -0.31831598132E+02  0.14436599717E+02  0.46907824530E+02  0.00000000000E+00 0.  1.
        -13    1    4    4    0    0 -0.88187141522E+02 -0.16729146240E+02 -0.29927775893E+03  0.31244841695E+03  0.00000000000E+00 0. -1.
         13    1    4    4    0    0  0.24188712952E+02 -0.48814581332E+01 -0.73802509562E+02  0.77818589587E+02  0.00000000000E+00 0.  1.
         -1    1    1    2    0  502  0.69915887134E+02  0.32979454675E+02 -0.25110887643E+01  0.77344562001E+02  0.00000000000E+00 0.  1.
<scales pt_clust_5="13000.00000" pt_clust_6="13000.00000" pt_clust_7="13000.00000" pt_clust_8="13000.00000" pt_clust_9="69.29495"></scales>
<clustering>
<clus scale="   76.183">  5  6 -1 -1</clus>
<clus scale="   77.254">  1  5  2 -1</clus>
<clus scale="   69.295">  2  9  1 -1</clus>
<clus scale="   92.502">  7  8 -1 -1</clus>
<clus scale="   69.295">  2  5  1 -1</clus>
</clustering>
</event>
<event>
 9    1  0.6014990E-005  0.9345175E+02  0.7546771E-02  0.1301193E+00
          1   -1    0    0  502    0 -0.00000000000E+00  0.00000000000E+00  0.48261016418E+03  0.48261016418E+03  0.00000000000E+00 0. -1.
         21   -1    0    0  501  502  0.00000000000E+00 -0.00000000000E+00 -0.27435321330E+02  0.27435321330E+02  0.00000000000E+00 0. -1.
        -24    2    1    2    0    0  0.74085419766E+01  0.12964409267E+02  0.15013539832E+03  0.17050291542E+03  0.79420677002E+02 0.  0.
         23    2    1    2    0    0  0.16719940417E+02 -0.39456804273E+02  0.14919251348E+03  0.17962916673E+03  0.90398206023E+02 0.  0.
         11    1    3    3    0    0 -0.87234031981E+01  0.30065662160E+02  0.17630795625E+02  0.35928912576E+02  0.00000000000E+00 0. -1.
        -12    1    3    3    0    0  0.16131945175E+02 -0.17101252894E+02  0.13250460269E+03  0.13457400284E+03  0.00000000000E+00 0.  1.
        -13    1    4    4    0    0  0.47779106165E+02 -0.19283365355E+02  0.42822183916E+02  0.66995750617E+02  0.00000000000E+00 0. -1.
         13    1    4    4    0    0 -0.31059165749E+02 -0.20173438917E+02  0.10637032956E+03  0.11263341612E+03  0.00000000000E+00 0.  1.
          2    1    1    2  501    0 -0.24128482393E+02  0.26492395006E+02  0.15584693106E+03  0.15991340336E+03  0.00000000000E+00 0. -1.
<scales pt_clust_5="13000.00000" pt_clust_6="13000.00000" pt_clust_7="13000.00000" pt_clust_8="13000.00000" pt_clust_9="35.83339"></scales>
<clustering>
<clus scale="   35.833">  2  9  1 -1</clus>
<clus scale="   79.421">  5  6 -1 -1</clus>
<clus scale="   82.880">  1  5  2 -1</clus>
<clus scale="   90.398">  7  8 -1 -1</clus>
<clus scale="   35.833">  2  5  1 -1</clus>
</clustering>
</event>
<event>
 9    1  0.6014990E-005  0.1008899E+03  0.7546771E-02  0.1283561E+00
          1   -1    0    0  502    0 -0.00000000000E+00  0.00000000000E+00  0.37697439624E+03  0.37697439624E+03  0.00000000000E+00 0. -1.
         21   -1    0    0  501  502  0.00000000000E+00 -0.00000000000E+00 -0.45058996445E+02  0.45058996445E+02  0.00000000000E+00 0.  1.
        -24    2    1    2    0    0 -0.83048843634E+01  0.42529484641E+02  0.22869595806E+03  0.24653503301E+03  0.81240095401E+02 0.  0.
         23    2    1    2    0    0  0.34305811624E+02 -0.29844107324E+02  0.47693944133E+02  0.11288807378E+03  0.91659399089E+02 0.  0.
         11    1    3    3    0    0  0.10874288965E+02  0.40144443000E+02  0.22232989852E+03  0.22618667123E+03  0.00000000000E+00 0. -1.
        -12    1    3    3    0    0 -0.19179173328E+02  0.23850416407E+01  0.63660595365E+01  0.20348361782E+02  0.00000000000E+00 0.  1.
        -11    1    4    4    0    0  0.48799865764E+02 -0.44197319063E+02  0.55571569301E+01  0.66073534067E+02  0.00000000000E+00 0.  1.
         11    1    4    4    0    0 -0.14494054140E+02  0.14353211739E+02  0.42136787203E+02  0.46814539712E+02  0.00000000000E+00 0. -1.
          2    1    1    2  501    0 -0.26000927260E+02 -0.12685377317E+02  0.55525497603E+02  0.62610285897E+02  0.00000000000E+00 0. -1.
<scales pt_clust_5="13000.00000" pt_clust_6="13000.00000" pt_clust_7="13000.00000" pt_clust_8="13000.00000" pt_clust_9="28.93040"></scales>
<clustering>
<clus scale="   28.930">  2  9  1 -1</clus>
<clus scale="   81.240">  5  6 -1 -1</clus>
<clus scale="   91.527">  1  5  2 -1</clus>
<clus scale="   91.659">  7  8 -1 -1</clus>
<clus scale="   28.930">  2  5  1 -1</clus>
</clustering>
</event>
<event>
 9    1  0.6014990E-005  0.8388020E+02  0.7546771E-02  0.1318879E+00
         -2   -1    0    0    0  501 -0.00000000000E+00  0.00000000000E+00  0.19393394858E+03  0.19393394858E+03  0.00000000000E+00 0.  1.
         21   -1    0    0  501  502  0.00000000000E+00 -0.00000000000E+00 -0.20937221076E+03  0.20937221076E+03  0.00000000000E+00 0. -1.
         23    2    1    2    0    0  0.45281799626E+01 -0.22469676617E+02  0.15005960366E+03  0.17133241852E+03  0.79445089227E+02 0.  0.
        -24    2    1    2    0    0  0.44345957782E+02  0.51078390762E+02 -0.11938400946E+03  0.15894205170E+03  0.80215136408E+02 0.  0.
         13    1    4    4    0    0  0.37095797467E+02  0.55815540181E+02 -0.12938528314E+03  0.14571212788E+03  0.00000000000E+00 0. -1.
        -14    1    4    4    0    0  0.72501603153E+01 -0.47371494190E+01  0.10001273681E+02  0.13229923827E+02  0.00000000000E+00 0.  1.
        -13    1    3    3    0    0 -0.20993482635E+02 -0.39083195925E+02  0.50499923248E+02  0.67219526664E+02  0.00000000000E+00 0.  1.
         13    1    3    3    0    0  0.25521662598E+02  0.16613519309E+02  0.99559680416E+02  0.10411289185E+03  0.00000000000E+00 0. -1.
         -1    1    1    2    0  502 -0.48874137745E+02 -0.28608714146E+02 -0.46113856384E+02  0.73031689122E+02  0.00000000000E+00 0.  1.
<scales pt_clust_5="13000.00000" pt_clust_6="13000.00000" pt_clust_7="13000.00000" pt_clust_8="13000.00000" pt_clust_9="56.63162"></scales>
<clustering>
<clus scale="   56.632">  2  9  1 -1</clus>
<clus scale="   79.445">  7  8 -1 -1</clus>
<clus scale="   80.215">  5  6 -1 -1</clus>
<clus scale="   83.144">  1  7  2 -1</clus>
<clus scale="   56.632">  2  5  1 -1</clus>
</clustering>
</event>
<event>
 9    1  0.6014990E-005  0.3037947E+03  0.7546771E-02  0.1123072E+00
         21   -1    0    0  501  502  0.00000000000E+00  0.00000000000E+00  0.32220222528E+03  0.32220222528E+03  0.00000000000E+00 0. -1.
         -4   -1    0    0    0  501 -0.00000000000E+00 -0.00000000000E+00 -0.44028711611E+03  0.44028711611E+03  0.00000000000E+00 0.  1.
         23    2    1    2    0    0  0.56684509311E+02  0.17462710132E+02  0.74265009474E+02  0.13192665371E+03  0.91494647314E+02 0.  0.
        -24    2    1    2    0    0 -0.77700207744E+02 -0.29771820298E+03 -0.77282487763E+02  0.32687648404E+03  0.78754061678E+02 0.  0.
         11    1    4    4    0    0 -0.53062986858E+02 -0.14628214898E+03 -0.76616210455E+02  0.17344795008E+03  0.00000000000E+00 0. -1.
        -12    1    4    4    0    0 -0.24637220886E+02 -0.15143605400E+03 -0.66627730811E+00  0.15342853395E+03  0.00000000000E+00 0.  1.
        -13    1    3    3    0    0  0.52044540591E+01  0.26543236514E+02 -0.13148353657E+02  0.30075055288E+02  0.00000000000E+00 0.  1.
         13    1    3    3    0    0  0.51480055252E+02 -0.90805263827E+01  0.87413363131E+02  0.10185159843E+03  0.00000000000E+00 0. -1.
         -3    1    1    2    0  502  0.21015698433E+02  0.28025549285E+03 -0.11506741255E+03  0.30368620364E+03  0.00000000000E+00 0.  1.
<scales pt_clust_5="13000.00000" pt_clust_6="13000.00000" pt_clust_7="13000.00000" pt_clust_8="13000.00000" pt_clust_9="293.40942"></scales>
<clustering>
<clus scale="   78.754">  5  6 -1 -1</clus>
<clus scale="   91.495">  7  8 -1 -1</clus>
<clus scale="  109.038">  2  7  1 -1</clus>
<clus scale="  293.409">  1  9  2 -1</clus>
<clus scale="  293.409">  1  5  2 -1</clus>
</clustering>
</event>
<event>
 9    1  0.6014990E-005  0.1110257E+03  0.7546771E-02  0.1263949E+00
         21   -1    0    0  501  502  0.00000000000E+00  0.00000000000E+00  0.98090598178E+02  0.98090598178E+02  0.00000000000E+00 0. -1.
          1   -1    0    0  502    0 -0.00000000000E+00 -0.00000000000E+00 -0.21629157933E+03  0.21629157933E+03  0.00000000000E+00 0. -1.
         23    2    1    2    0    0 -0.54298715822E+02  0.46048465499E+02 -0.11710048823E+03  0.16525610889E+03  0.92348500081E+02 0.  0.
        -24    2    1    2    0    0  0.10214906187E+02 -0.42512343107E+02  0.29984532330E+02  0.95069013312E+02  0.78913886537E+02 0.  0.
         13    1    4    4    0    0  0.33611455577E+01 -0.29788254070E+02  0.57016103336E+02  0.64416406448E+02  0.00000000000E+00 0. -1.
        -14    1    4    4    0    0  0.68537606293E+01 -0.12724089037E+02 -0.27031571006E+02  0.30652606865E+02  0.00000000000E+00 0.  1.
        -13    1    3    3    0    0 -0.18458469374E+02  0.30603647713E+02  0.58907918341E+01  0.36221537424E+02  0.00000000000E+00 0.  1.
         13    1    3    3    0    0 -0.35840246448E+02  0.15444817786E+02 -0.12299128006E+03  0.12903457146E+03  0.00000000000E+00 0. -1.
          2    1    1    2  501    0  0.44083809635E+02 -0.35361223919E+01 -0.31085025259E+02  0.54057055310E+02  0.00000000000E+00 0. -1.
<scales pt_clust_5="13000.00000" pt_clust_6="13000.00000" pt_clust_7="13000.00000" pt_clust_8="13000.00000" pt_clust_9="44.22543"></scales>
<clustering>
<clus scale="   44.225">  1  9  2 -1</clus>
<clus scale="   78.914">  5  6 -1 -1</clus>
<clus scale="   92.349">  7  8 -1 -1</clus>
<clus scale="  100.129">  1  5  2 -1</clus>
<clus scale="   44.225">  1  5  2 -1</clus>
</clustering>
</event>
<event>
 9    1  0.6014990E-005  0.1103732E+03  0.7546771E-02  0.1265873E+00
          1   -1    0    0  502    0 -0.00000000000E+00  0.00000000000E+00  0.83814825678E+03  0.83814825678E+03  0.00000000000E+00 0. -1.
         21   -1    0    0  501  502  0.00000000000E+00 -0.00000000000E+00 -0.24193411831E+02  0.24193411831E+02  0.00000000000E+00 0. -1.
        -24    2    1    2    0    0  0.55059797391E+02 -0.57807798413E+02  0.52801903444E+03  0.53949049472E+03  0.76632697454E+02 0.  0.
         23    2    1    2    0    0 -0.16773831113E+02  0.21207659486E+02  0.20359659187E+03  0.22494748494E+03  0.91753324354E+02 0.  0.
         11    1    3    3    0    0  0.32724216593E+02 -0.74792842733E+02  0.42178447093E+03  0.42961259711E+03  0.00000000000E+00 0. -1.
        -12    1    3    3    0    0  0.22335580798E+02  0.16985044320E+02  0.10623456350E+03  0.10987789761E+03  0.00000000000E+00 0.  1.
        -13    1    4    4    0    0  0.44578212599E+01 -0.35068812940E+02  0.81636972836E+02  0.88962290580E+02  0.00000000000E+00 0. -1.
         13    1    4    4    0    0 -0.21231652373E+02  0.56276472425E+02  0.12195961903E+03  0.13598519436E+03  0.00000000000E+00 0.  1.
          2    1    1    2  501    0 -0.38285966278E+02  0.36600138927E+02  0.82339218644E+02  0.97903688951E+02  0.00000000000E+00 0. -1.
<scales pt_clust_5="13000.00000" pt_clust_6="13000.00000" pt_clust_7="13000.00000" pt_clust_8="13000.00000" pt_clust_9="52.96589"></scales>
<clustering>
<clus scale="   52.966">  2  9  1 -1</clus>
<clus scale="   76.633">  5  6 -1 -1</clus>
<clus scale="   91.753">  7  8 -1 -1</clus>
<clus scale="   98.164">  1  5  2 -1</clus>
<clus scale="   52.966">  2  5  1 -1</clus>
</clustering>
</event>
<event>
 9    1  0.6014990E-005  0.1052703E+03  0.7546771E-02  0.1274947E+00
         21   -1    0    0  501  502  0.00000000000E+00  0.00000000000E+00  0.34069804786E+03  0.34069804786E+03  0.00000000000E+00 0.  1.
         -2   -1    0    0    0  501 -0.00000000000E+00 -0.00000000000E+00 -0.11438223070E+03  0.11438223070E+03  0.00000000000E+00 0.  1.
        -24    2    1    2    0    0  0.18847546930E+02  0.38650754551E+02 -0.10222644396E+02  0.91163255054E+02  0.79731585717E+02 0.  0.
         23    2    1    2    0    0  0.49993349555E+02 -0.73214936286E+02  0.13944252983E+02  0.12837099111E+03  0.91787293626E+02 0.  0.
         11    1    3    3    0    0  0.21469342856E+01 -0.21635139301E+02 -0.17867667802E+02  0.28141466416E+02  0.00000000000E+00 0. -1.
        -12    1    3    3    0    0  0.16700612645E+02  0.60285893852E+02  0.76450234062E+01  0.63021788638E+02  0.00000000000E+00 0.  1.
        -11    1    4    4    0    0  0.72104537908E+02 -0.47000807978E+02  0.29128245027E+02  0.90865807628E+02  0.00000000000E+00 0.  1.
         11    1    4    4    0    0 -0.22111188353E+02 -0.26214128308E+02 -0.15183992044E+02  0.37505183478E+02  0.00000000000E+00 0. -1.
         -1    1    1    2    0  502 -0.68840896485E+02  0.34564181735E+02  0.22259420858E+03  0.23554603240E+03  0.00000000000E+00 0.  1.
<scales pt_clust_5="13000.00000" pt_clust_6="13000.00000" pt_clust_7="13000.00000" pt_clust_8="13000.00000" pt_clust_9="77.03085"></scales>
<clustering>
<clus scale="   77.031">  1  9  2 -1</clus>
<clus scale="   79.732">  5  6 -1 -1</clus>
<clus scale="   91.787">  7  8 -1 -1</clus>
<clus scale="   94.942">  2  5  1 -1</clus>
<clus scale="   77.031">  1  5  2 -1</clus>
</clustering>
</event>
<event>
 9    1  0.6014990E-005  0.2876270E+03  0.7546771E-02  0.1091712E+00
         21   -1    0    0  501  502  0.00000000000E+00  0.00000000000E+00  0.22228651680E+03  0.22228651680E+03  0.00000000000E+00 0. -1.
          1   -1    0    0  502    0 -0.00000000000E+00 -0.00000000000E+00 -0.70100488613E+03  0.70100488613E+03  0.00000000000E+00 0. -1.
        -24    2    1    2    0    0  0.21975256208E+03 -0.11923733512E+03 -0.23332591353E+03  0.35366955053E+03  0.90180033375E+02 0.  0.
         23    2    1    2    0    0 -0.23770827144E+03  0.23485662749E+03 -0.62398960024E+02  0.35241953251E+03  0.92967945539E+02 0.  0.
         11    1    3    3    0    0  0.21994321232E+03 -0.93211873679E+02 -0.20118173689E+03  0.31231004035E+03  0.00000000000E+00 0. -1.
        -12    1    3    3    0    0 -0.19065024493E+00 -0.26025461441E+02 -0.32144176642E+02  0.41359510185E+02  0.00000000000E+00 0.  1.
        -11    1    4    4    0    0 -0.16202651971E+03  0.20746921961E+03 -0.67549498899E+02  0.27177013260E+03  0.00000000000E+00 0.  1.
         11    1    4    4    0    0 -0.75681751723E+02  0.27387407883E+02  0.51505388750E+01  0.80649399906E+02  0.00000000000E+00 0. -1.
          2    1    1    2  501    0  0.17955709356E+02 -0.11561929237E+03 -0.18299349578E+03  0.21720231989E+03  0.00000000000E+00 0. -1.
<scales pt_clust_5="13000.00000" pt_clust_6="13000.00000" pt_clust_7="13000.00000" pt_clust_8="13000.00000" pt_clust_9="117.00531"></scales>
<clustering>
<clus scale="   90.180">  5  6 -1 -1</clus>
<clus scale="   92.968">  7  8 -1 -1</clus>
<clus scale="  117.005">  1  9  2 -1</clus>
<clus scale="  286.738">  2  5  1 -1</clus>
<clus scale="  117.005">  1  5  2 -1</clus>
</clustering>
</event>
<event>
 9    1  0.6014990E-005  0.9139752E+02  0.7546771E-02  0.1304751E+00
          1   -1    0    0  502    0 -0.00000000000E+00  0.00000000000E+00  0.12568631662E+03  0.12568631662E+03  0.00000000000E+00 0. -1.
         21   -1    0    0  501  502  0.00000000000E+00 -0.00000000000E+00 -0.94132255436E+02  0.94132255436E+02  0.00000000000E+00 0.  1.
         23    2    1    2    0    0 -0.12419782466E+02 -0.11028588898E+02  0.99319900124E+01  0.92978217541E+02  0.90941870125E+02 0.  0.
        -24    2    1    2    0    0 -0.15316881145E+02  0.69011542855E+01 -0.97663273784E+01  0.84750096874E+02  0.82492211700E+02 0.  0.
         11    1    4    4    0    0  0.25214149097E+02 -0.22536792098E+02 -0.59075949557E+00  0.33823206671E+02  0.00000000000E+00 0. -1.
        -12    1    4    4    0    0 -0.40531030241E+02  0.29437946384E+02 -0.91755678829E+01  0.50926890203E+02  0.00000000000E+00 0.  1.
        -11    1    3    3    0    0  0.77688150404E+01  0.29600686605E+02 -0.21834471939E+02  0.37593873164E+02  0.00000000000E+00 0. -1.
         11    1    3    3    0    0 -0.20188597507E+02 -0.40629275503E+02  0.31766461951E+02  0.55384344377E+02  0.00000000000E+00 0.  1.
          2    1    1    2  501    0  0.27736663611E+02  0.41274346128E+01  0.31388398547E+02  0.42090257639E+02  0.00000000000E+00 0. -1.
<scales pt_clust_5="13000.00000" pt_clust_6="13000.00000" pt_clust_7="13000.00000" pt_clust_8="13000.00000" pt_clust_9="28.04209"></scales>
<clustering>
<clus scale="   28.042">  2  9  1 -1</clus>
<clus scale="   82.492">  5  6 -1 -1</clus>
<clus scale="   82.994">  2  5  1 -1</clus>
<clus scale="   90.942">  7  8 -1 -1</clus>
<clus scale="   28.042">  2  5  1 -1</clus>
</clustering>
</event>
<event>
 9    1  0.6014990E-005  0.2090284E+03  0.7546771E-02  0.1158098E+00
         -2   -1    0    0    0  501 -0.00000000000E+00  0.00000000000E+00  0.53383428470E+02  0.53383428470E+02  0.00000000000E+00 0.  1.
         21   -1    0    0  501  502  0.00000000000E+00 -0.00000000000E+00 -0.14734352507E+04  0.14734352507E+04  0.00000000000E+00 0.  1.
        -24    2    1    2    0    0 -0.63189689641E+02 -0.10154330331E+03 -0.40721198502E+03  0.43189273769E+03  0.80035971940E+02 0.  0.
         23    2    1    2    0    0 -0.13954051554E+03  0.12902375251E+03 -0.53959920676E+03  0.57935693010E+03  0.91479310943E+02 0.  0.
         11    1    3    3    0    0 -0.29001685344E+02 -0.61940567292E+02 -0.10585369400E+03  0.12602672797E+03  0.00000000000E+00 0. -1.
        -12    1    3    3    0    0 -0.34188004297E+02 -0.39602736020E+02 -0.30135829102E+03  0.30586600973E+03  0.00000000000E+00 0.  1.
        -11    1    4    4    0    0 -0.20504650473E+02  0.55950099908E+02 -0.85167718474E+02  0.10394419003E+03  0.00000000000E+00 0.  1.
         11    1    4    4    0    0 -0.11903586507E+03  0.73073652606E+02 -0.45443148828E+03  0.47541274007E+03  0.00000000000E+00 0. -1.
         -1    1    1    2    0  502  0.20273020518E+03 -0.27480449202E+02 -0.47324063046E+03  0.51556901138E+03  0.00000000000E+00 0.  1.
<scales pt_clust_5="13000.00000" pt_clust_6="13000.00000" pt_clust_7="13000.00000" pt_clust_8="13000.00000" pt_clust_9="187.94794"></scales>
<clustering>
<clus scale="   80.036">  5  6 -1 -1</clus>
<clus scale="   91.479">  7  8 -1 -1</clus>
<clus scale="  143.909">  1  5  2 -1</clus>
<clus scale="  187.948">  2  9  1 -1</clus>
<clus scale="  187.948">  2  5  1 -1</clus>
</clustering>
</event>
<event>
 9    1  0.6014990E-005  0.9642985E+02  0.7546771E-02  0.1290388E+00
          3   -1    0    0  502    0 -0.00000000000E+00  0.00000000000E+00  0.48118573297E+03  0.48118573297E+03  0.00000000000E+00 0. -1.
         21   -1    0    0  501  502  0.00000000000E+00 -0.00000000000E+00 -0.40190174941E+02  0.40190174941E+02  0.00000000000E+00 0. -1.
        -24    2    1    2    0    0 -0.11400041923E+02  0.35027516205E+02  0.33356549968E+03  0.34585637515E+03  0.83628953156E+02 0.  0.
         23    2    1    2    0    0  0.45531584062E+02 -0.31882983527E+02  0.76736568786E+02  0.12950931046E+03  0.88286526277E+02 0.  0.
         11    1    3    3    0    0  0.71246574549E+00  0.61886334526E+02  0.22194635178E+03  0.23041399497E+03  0.00000000000E+00 0. -1.
        -12    1    3    3    0    0 -0.12112507669E+02 -0.26858818321E+02  0.11161914791E+03  0.11544238019E+03  0.00000000000E+00 0.  1.
        -13    1    4    4    0    0  0.60324497511E+02 -0.50944173778E+02  0.66766015329E+02  0.10340239187E+03  0.00000000000E+00 0. -1.
         13    1    4    4    0    0 -0.14792913450E+02  0.19061190251E+02  0.99705534570E+01  0.26106918592E+02  0.00000000000E+00 0.  1.
          4    1    1    2  501    0 -0.34131542138E+02 -0.31445326785E+01  0.30693489560E+02  0.46010222298E+02  0.00000000000E+00 0. -1.
<scales pt_clust_5="13000.00000" pt_clust_6="13000.00000" pt_clust_7="13000.00000" pt_clust_8="13000.00000" pt_clust_9="34.27609"></scales>
<clustering>
<clus scale="   34.276">  2  9  1 -1</clus>
<clus scale="   83.629">  5  6 -1 -1</clus>
<clus scale="   88.287">  7  8 -1 -1</clus>
<clus scale="   92.185">  1  5  2 -1</clus>
<clus scale="   34.276">  2  5  1 -1</clus>
</clustering>
</event>
<event>
 9    1  0.6014990E-005  0.1338978E+03  0.7546771E-02  0.1224668E+00
         -2   -1    0    0    0  501 -0.00000000000E+00  0.00000000000E+00  0.35525965562E+03  0.35525965562E+03  0.00000000000E+00 0.  1.
         21   -1    0    0  501  502  0.00000000000E+00 -0.00000000000E+00 -0.61567687002E+02  0.61567687002E+02  0.00000000000E+00 0. -1.
        -24    2    1    2    0    0  0.73954948025E+02 -0.56623346480E+02  0.15551656023E+03  0.19804381438E+03  0.79752205021E+02 0.  0.
         23    2    1    2    0    0 -0.94450504459E+02  0.45828853307E+02  0.13727323317E+03  0.19560157757E+03  0.91623441408E+02 0.  0.
         11    1    3    3    0    0 -0.62084624969E+01 -0.40071810811E+02  0.57156033693E+02  0.70079292346E+02  0.00000000000E+00 0. -1.
        -12    1    3    3    0    0  0.80163410522E+02 -0.16551535669E+02  0.98360526538E+02  0.12796452204E+03  0.00000000000E+00 0.  1.
        -13    1    4    4    0    0 -0.44786845936E+02  0.98728796855E+01  0.12489786038E+03  0.13305191036E+03  0.00000000000E+00 0.  1.
         13    1    4    4    0    0 -0.49663658522E+02  0.35955973621E+02  0.12375372792E+02  0.62549667214E+02  0.00000000000E+00 0. -1.
         -1    1    1    2    0  502  0.20495556434E+02  0.10794493173E+02  0.90217521095E+00  0.23181950662E+02  0.00000000000E+00 0.  1.
<scales pt_clust_5="13000.00000" pt_clust_6="13000.00000" pt_clust_7="13000.00000" pt_clust_8="13000.00000" pt_clust_9="23.16439"></scales>
<clustering>
<clus scale="   23.164">  2  9  1 -1</clus>
<clus scale="   79.752">  5  6 -1 -1</clus>
<clus scale="   91.623">  7  8 -1 -1</clus>
<clus scale="  126.072">  1  5  2 -1</clus>
<clus scale="   23.164">  2  5  1 -1</clus>
</clustering>
</event>
<event>
 9    1  0.6014990E-005  0.1120969E+03  0.7546771E-02  0.1260516E+00
          1   -1    0    0  502    0 -0.00000000000E+00  0.00000000000E+00  0.74409771918E+03  0.74409771918E+03  0.00000000000E+00 0. -1.
         21   -1    0    0  501  502  0.00000000000E+00 -0.00000000000E+00 -0.50641786468E+02  0.50641786468E+02  0.00000000000E+00 0. -1.
        -24    2    1    2    0    0 -0.41798581016E+02  0.54760560132E+02  0.51988133065E+03  0.53054979467E+03  0.80378145975E+02 0.  0.
         23    2    1    2    0    0 -0.15886574045E+01 -0.69179583136E+02  0.18479702005E+03  0.21711207990E+03  0.90550417233E+02 0.  0.
         13    1    3    3    0    0 -0.45966891915E+02  0.71530534553E+02  0.47307935353E+03  0.48065959604E+03  0.00000000000E+00 0. -1.
        -14    1    3    3    0    0  0.41683108992E+01 -0.16769974421E+02  0.46801977118E+02  0.49890198637E+02  0.00000000000E+00 0.  1.
        -13    1    4    4    0    0 -0.22069311231E+02 -0.32735392523E+02  0.16712620043E+03  0.17172602393E+03  0.00000000000E+00 0. -1.
         13    1    4    4    0    0  0.20480653827E+02 -0.36444190613E+02  0.17670819621E+02  0.45386055972E+02  0.00000000000E+00 0.  1.
          2    1    1    2  501    0  0.43387238420E+02  0.14419023003E+02 -0.11222417991E+02  0.47077631076E+02  0.00000000000E+00 0. -1.
<scales pt_clust_5="13000.00000" pt_clust_6="13000.00000" pt_clust_7="13000.00000" pt_clust_8="13000.00000" pt_clust_9="45.72046"></scales>
<clustering>
<clus scale="   45.720">  2  9  1 -1</clus>
<clus scale="   80.378">  5  6 -1 -1</clus>
<clus scale="   90.550">  7  8 -1 -1</clus>
<clus scale="  104.053">  1  5  2 -1</clus>
<clus scale="   45.720">  2  5  1 -1</clus>
</clustering>
</event>
<event>
 9    1  0.6014990E-005  0.1186828E+03  0.7546771E-02  0.1249147E+00
         21   -1    0    0  501  502  0.00000000000E+00  0.00000000000E+00  0.68904292681E+02  0.68904292681E+02  0.00000000000E+00 0.  1.
          1   -1    0    0  502    0 -0.00000000000E+00 -0.00000000000E+00 -0.49323431387E+03  0.49323431387E+03  0.00000000000E+00 0. -1.
        -24    2    1    2    0    0  0.64822822498E+01  0.68896424422E+02 -0.29755994333E+03  0.31576351487E+03  0.79849484428E+02 0.  0.
         23    2    1    2    0    0 -0.35981135386E+02 -0.87743642974E+02 -0.15347078768E+03  0.20234864635E+03  0.91641164466E+02 0.  0.
         11    1    3    3    0    0 -0.35173985762E+02  0.43968225366E+02 -0.17909692330E+03  0.18773950583E+03  0.00000000000E+00 0. -1.
        -12    1    3    3    0    0  0.41656268012E+02  0.24928199056E+02 -0.11846302004E+03  0.12802400903E+03  0.00000000000E+00 0.  1.
        -13    1    4    4    0    0 -0.19724409365E+02 -0.10398444505E+03 -0.10697360143E+03  0.15048311712E+03  0.00000000000E+00 0.  1.
         13    1    4    4    0    0 -0.16256726021E+02  0.16240802076E+02 -0.46497186249E+02  0.51865529228E+02  0.00000000000E+00 0. -1.
          2    1    1    2  501    0  0.29498853136E+02  0.18847218552E+02  0.26700709821E+02  0.44026445330E+02  0.00000000000E+00 0. -1.
<scales pt_clust_5="13000.00000" pt_clust_6="13000.00000" pt_clust_7="13000.00000" pt_clust_8="13000.00000" pt_clust_9="35.00571"></scales>
<clustering>
<clus scale="   35.006">  1  9  2 -1</clus>
<clus scale="   79.849">  5  6 -1 -1</clus>
<clus scale="   91.641">  7  8 -1 -1</clus>
<clus scale="  109.834">  2  5  1 -1</clus>
<clus scale="   35.006">  1  5  2 -1</clus>
</clustering>
</event>
<event>
 9    1  0.6014990E-005  0.9413750E+02  0.7546771E-02  0.1301152E+00
          1   -1    0    0  502    0 -0.00000000000E+00  0.00000000000E+00  0.23161238123E+03  0.23161238123E+03  0.00000000000E+00 0. -1.
         21   -1    0    0  501  502  0.00000000000E+00 -0.00000000000E+00 -0.59151253303E+02  0.59151253303E+02  0.00000000000E+00 0. -1.
        -24    2    1    2    0    0 -0.11978241727E+02  0.50271274168E+01  0.99080856611E+02  0.12715772666E+03  0.78634095777E+02 0.  0.
         23    2    1    2    0    0  0.13466072682E+02 -0.43965875809E+02  0.34271130499E+02  0.10839753294E+03  0.91984680312E+02 0.  0.
         11    1    3    3    0    0  0.22073232983E+02 -0.65927211082E+00 -0.15987337696E+00  0.22083654895E+02  0.00000000000E+00 0. -1.
        -12    1    3    3    0    0 -0.34051474710E+02  0.56863995276E+01  0.99240729988E+02  0.10507407177E+03  0.00000000000E+00 0.  1.
        -13    1    4    4    0    0  0.47306333068E+02 -0.38051243398E+02  0.41176295817E+02  0.73357164678E+02  0.00000000000E+00 0.  1.
         13    1    4    4    0    0 -0.33840260387E+02 -0.59146324108E+01 -0.69051653181E+01  0.35040368258E+02  0.00000000000E+00 0. -1.
          2    1    1    2  501    0 -0.14878309551E+01  0.38938748392E+02  0.39109140819E+02  0.55208374934E+02  0.00000000000E+00 0. -1.
<scales pt_clust_5="13000.00000" pt_clust_6="13000.00000" pt_clust_7="13000.00000" pt_clust_8="13000.00000" pt_clust_9="38.96718"></scales>
<clustering>
<clus scale="   38.967">  2  9  1 -1</clus>
<clus scale="   78.634">  5  6 -1 -1</clus>
<clus scale="   81.142">  1  5  2 -1</clus>
<clus scale="   91.985">  7  8 -1 -1</clus>
<clus scale="   38.967">  2  5  1 -1</clus>
</clustering>
</event>
<event>
 9    1  0.6014990E-005  0.1537076E+03  0.7546771E-02  0.1197201E+00
         21   -1    0    0  501  502  0.00000000000E+00  0.00000000000E+00  0.89722746912E+02  0.89722746912E+02  0.00000000000E+00 0. -1.
         -2   -1    0    0    0  501 -0.00000000000E+00 -0.00000000000E+00 -0.44123539030E+03  0.44123539030E+03  0.00000000000E+00 0.  1.
         23    2    1    2    0    0 -0.96715699827E+02  0.74644163977E+02 -0.30065257618E+03  0.33592541929E+03  0.86765419110E+02 0.  0.
        -24    2    1    2    0    0  0.10678059750E+03 -0.96346288874E+02 -0.46009822482E+02  0.17062351342E+03  0.79440393901E+02 0.  0.
         13    1    4    4    0    0  0.19780459905E+02 -0.53768279840E+02  0.10846465630E+02  0.58309007260E+02  0.00000000000E+00 0. -1.
        -14    1    4    4    0    0  0.87000137600E+02 -0.42578009034E+02 -0.56856288112E+02  0.11231450616E+03  0.00000000000E+00 0.  1.
        -13    1    3    3    0    0 -0.31420702069E+02 -0.44547809322E+01 -0.20992412524E+02  0.38049795995E+02  0.00000000000E+00 0.  1.
         13    1    3    3    0    0 -0.65294997758E+02  0.79098944909E+02 -0.27966016366E+03  0.29787562330E+03  0.00000000000E+00 0. -1.
         -1    1    1    2    0  502 -0.10064897678E+02  0.21702124897E+02 -0.48502447186E+01  0.24409204497E+02  0.00000000000E+00 0.  1.
<scales pt_clust_5="13000.00000" pt_clust_6="13000.00000" pt_clust_7="13000.00000" pt_clust_8="13000.00000" pt_clust_9="23.92247"></scales>
<clustering>
<clus scale="   23.922">  1  9  2 -1</clus>
<clus scale="   79.440">  5  6 -1 -1</clus>
<clus scale="   86.765">  7  8 -1 -1</clus>
<clus scale="  149.695">  1  5  2 -1</clus>
<clus scale="   23.922">  1  5  2 -1</clus>
</clustering>
</event>
<event>
 9    1  0.6014990E-005  0.1295732E+03  0.7546771E-02  0.1230170E+00
         21   -1    0    0  501  502  0.00000000000E+00  0.00000000000E+00  0.22073099436E+03  0.22073099436E+03  0.00000000000E+00 0. -1.
          1   -1    0    0  502    0 -0.00000000000E+00 -0.00000000000E+00 -0.25075995764E+03  0.25075995764E+03  0.00000000000E+00 0. -1.
        -24    2    1    2    0    0 -0.83535858388E+02  0.97040316227E+01 -0.10368982818E+03  0.15746008064E+03  0.83484661223E+02 0.  0.
         23    2    1    2    0    0  0.10435020256E+03  0.92792687862E+01 -0.78246792931E+02  0.15953317195E+03  0.91395857371E+02 0.  0.
         11    1    3    3    0    0 -0.67399635353E+02 -0.77871300303E+01 -0.11308342991E+03  0.13187574591E+03  0.00000000000E+00 0. -1.
        -12    1    3    3    0    0 -0.16136223035E+02  0.17491161653E+02  0.93936017290E+01  0.25584334724E+02  0.00000000000E+00 0.  1.
        -13    1    4    4    0    0  0.62019065819E+02  0.36439176145E+02 -0.69292368912E+01  0.72264738338E+02  0.00000000000E+00 0.  1.
         13    1    4    4    0    0  0.42331136744E+02 -0.27159907359E+02 -0.71317556040E+02  0.87268433613E+02  0.00000000000E+00 0. -1.
          2    1    1    2  501    0 -0.20814344175E+02 -0.18983300409E+02  0.15190765783E+03  0.15449769941E+03  0.00000000000E+00 0. -1.
<scales pt_clust_5="13000.00000" pt_clust_6="13000.00000" pt_clust_7="13000.00000" pt_clust_8="13000.00000" pt_clust_9="28.17095"></scales>
<clustering>
<clus scale="   28.171">  1  9  2 -1</clus>
<clus scale="   83.485">  5  6 -1 -1</clus>
<clus scale="   91.396">  7  8 -1 -1</clus>
<clus scale="  124.120">  2  5  1 -1</clus>
<clus scale="   28.171">  1  5  2 -1</clus>
</clustering>
</event>
<event>
 9    1  0.6014990E-005  0.8339559E+02  0.7546771E-02  0.1320500E+00
          1   -1    0    0  502    0 -0.00000000000E+00  0.00000000000E+00  0.14500110367E+03  0.14500110367E+03  0.00000000000E+00 0. -1.
         21   -1    0    0  501  502  0.00000000000E+00 -0.00000000000E+00 -0.19776396008E+03  0.19776396008E+03  0.00000000000E+00 0.  1.
        -24    2    1    2    0    0 -0.54803919437E+01 -0.88629645208E+01  0.10957210707E+03  0.13673724784E+03  0.81132246758E+02 0.  0.
         23    2    1    2    0    0  0.22727954174E+00  0.41157624100E+02 -0.10210913212E+03  0.13748811216E+03  0.82357176031E+02 0.  0.
         11    1    3    3    0    0 -0.26267336009E+02 -0.83249092025E+01  0.11242136569E+03  0.11574904111E+03  0.00000000000E+00 0. -1.
        -12    1    3    3    0    0  0.20786944065E+02 -0.53805531833E+00 -0.28492586226E+01  0.20988206731E+02  0.00000000000E+00 0.  1.
        -11    1    4    4    0    0 -0.18782369587E+02 -0.19306828198E+02 -0.18975007586E+02  0.32948170439E+02  0.00000000000E+00 0. -1.
         11    1    4    4    0    0  0.19009649129E+02  0.60464452298E+02 -0.83134124538E+02  0.10453994172E+03  0.00000000000E+00 0.  1.
          2    1    1    2  501    0  0.52531124020E+01 -0.32294659579E+02 -0.60225831357E+02  0.68539703748E+02  0.00000000000E+00 0. -1.
<scales pt_clust_5="13000.00000" pt_clust_6="13000.00000" pt_clust_7="13000.00000" pt_clust_8="13000.00000" pt_clust_9="32.71911"></scales>
<clustering>
<clus scale="   32.719">  2  9  1 -1</clus>
<clus scale="   81.132">  5  6 -1 -1</clus>
<clus scale="   82.186">  1  5  2 -1</clus>
<clus scale="   82.357">  7  8 -1 -1</clus>
<clus scale="   32.719">  2  5  1 -1</clus>
</clustering>
</event>
<event>
 9    1  0.6014990E-005  0.1640419E+03  0.7546771E-02  0.1202292E+00
         21   -1    0    0  501  502  0.00000000000E+00  0.00000000000E+00  0.33229637237E+03  0.33229637237E+03  0.00000000000E+00 0.  1.
          1   -1    0    0  502    0 -0.00000000000E+00 -0.00000000000E+00 -0.24686672199E+03  0.24686672199E+03  0.00000000000E+00 0. -1.
         23    2    1    2    0    0 -0.48484927331E+02 -0.45375874479E+02  0.21345627821E+03  0.24024708244E+03  0.88007498244E+02 0.  0.
        -24    2    1    2    0    0 -0.31243999050E+02  0.15516486601E+03 -0.69822250469E+02  0.19127430404E+03  0.81598955911E+02 0.  0.
         11    1    4    4    0    0 -0.57337918375E+01  0.15180186908E+03 -0.64296522289E+02  0.16495674161E+03  0.00000000000E+00 0. -1.
        -12    1    4    4    0    0 -0.25510207212E+02  0.33629969308E+01 -0.55257281803E+01  0.26317562431E+02  0.00000000000E+00 0.  1.
        -11    1    3    3    0    0 -0.39206520757E+02 -0.71573566753E+02  0.14543430427E+03  0.16676649419E+03  0.00000000000E+00 0.  1.
         11    1    3    3    0    0 -0.92784065739E+01  0.26197692274E+02  0.68021973946E+02  0.73480588243E+02  0.00000000000E+00 0. -1.
          2    1    1    2  501    0  0.79728926380E+02 -0.10978899153E+03 -0.58204377362E+02  0.14764170788E+03  0.00000000000E+00 0. -1.
<scales pt_clust_5="13000.00000" pt_clust_6="13000.00000" pt_clust_7="13000.00000" pt_clust_8="13000.00000" pt_clust_9="142.30729"></scales>
<clustering>
<clus scale="   81.599">  5  6 -1 -1</clus>
<clus scale="   88.007">  7  8 -1 -1</clus>
<clus scale="  110.250">  2  7  1 -1</clus>
<clus scale="  142.307">  1  9  2 -1</clus>
<clus scale="  142.307">  1  5  2 -1</clus>
</clustering>
</event>
<event>
 9    1  0.6014990E-005  0.1419165E+03  0.7546771E-02  0.1213079E+00
         21   -1    0    0  501  502  0.00000000000E+00  0.00000000000E+00  0.70529927714E+02  0.70529927714E+02  0.00000000000E+00 0. -1.
         -2   -1    0    0    0  501 -0.00000000000E+00 -0.00000000000E+00 -0.71205189174E+03  0.71205189174E+03  0.00000000000E+00 0.  1.
        -24    2    1    2    0    0 -0.61025604053E+02  0.10432530550E+03 -0.46308018407E+03  0.48516380268E+03  0.79578670732E+02 0.  0.
         23    2    1    2    0    0  0.65971880292E+02 -0.24551021272E+02 -0.15341475537E+02  0.11578621511E+03  0.90642402351E+02 0.  0.
         11    1    3    3    0    0  0.30759178280E+00  0.30937942630E+02 -0.35830899644E+02  0.47340302874E+02  0.00000000000E+00 0. -1.
        -12    1    3    3    0    0 -0.61333195836E+02  0.73387362870E+02 -0.42724928443E+03  0.43782349981E+03  0.00000000000E+00 0.  1.
        -11    1    4    4    0    0  0.79536821068E+02  0.55737162511E+00 -0.28326933755E+02  0.84432409327E+02  0.00000000000E+00 0. -1.
         11    1    4    4    0    0 -0.13564940777E+02 -0.25108392897E+02  0.12985458218E+02  0.31353805786E+02  0.00000000000E+00 0.  1.
         -1    1    1    2    0  502 -0.49462762384E+01 -0.79774284228E+02 -0.16310030442E+03  0.18163180166E+03  0.00000000000E+00 0.  1.
<scales pt_clust_5="13000.00000" pt_clust_6="13000.00000" pt_clust_7="13000.00000" pt_clust_8="13000.00000" pt_clust_9="79.92752"></scales>
<clustering>
<clus scale="   79.579">  5  6 -1 -1</clus>
<clus scale="   79.928">  1  9  2 -1</clus>
<clus scale="   90.642">  7  8 -1 -1</clus>
<clus scale="  135.119">  2  5  1 -1</clus>
<clus scale="   79.928">  1  5  2 -1</clus>
</clustering>
</event>
<event>
 9    1  0.6014990E-005  0.1405917E+03  0.7546771E-02  0.1215514E+00
         21   -1    0    0  501  502  0.00000000000E+00  0.00000000000E+00  0.96818764864E+02  0.96818764864E+02  0.00000000000E+00 0.  1.
         -2   -1    0    0    0  501 -0.00000000000E+00 -0.00000000000E+00 -0.26758455461E+03  0.26758455461E+03  0.00000000000E+00 0.  1.
         23    2    1    2    0    0  0.53050223498E+02  0.93230977836E+02 -0.15549677295E+03  0.21152107977E+03  0.95160807838E+02 0.  0.
        -24    2    1    2    0    0 -0.31932606314E+02 -0.90558521714E+02  0.79565666891E+00  0.12621447806E+03  0.81908022820E+02 0.  0.
         13    1    4    4    0    0  0.11443824263E+02 -0.63216258770E+02 -0.24851709755E+02  0.68882972965E+02  0.00000000000E+00 0. -1.
        -14    1    4    4    0    0 -0.43376430576E+02 -0.27342262943E+02  0.25647366424E+02  0.57331505099E+02  0.00000000000E+00 0.  1.
        -11    1    3    3    0    0  0.70086379732E+01 -0.19871539528E+02 -0.18999131321E+02  0.28371924157E+02  0.00000000000E+00 0. -1.
         11    1    3    3    0    0  0.46041585525E+02  0.11310251736E+03 -0.13649764163E+03  0.18314915561E+03  0.00000000000E+00 0.  1.
         -1    1    1    2    0  502 -0.21117617185E+02 -0.26724561228E+01 -0.16064673464E+02  0.26667761639E+02  0.00000000000E+00 0.  1.
<scales pt_clust_5="13000.00000" pt_clust_6="13000.00000" pt_clust_7="13000.00000" pt_clust_8="13000.00000" pt_clust_9="21.28606"></scales>
<clustering>
<clus scale="   21.286">  1  9  2 -1</clus>
<clus scale="   81.908">  5  6 -1 -1</clus>
<clus scale="   95.161">  7  8 -1 -1</clus>
<clus scale="  131.982">  1  5  2 -1</clus>
<clus scale="   21.286">  1  5  2 -1</clus>
</clustering>
</event>
<event>
 9    1  0.6014990E-005  0.2844361E+03  0.7546771E-02  0.1112389E+00
         21   -1    0    0  501  502  0.00000000000E+00  0.00000000000E+00  0.15167728377E+04  0.15167728377E+04  0.00000000000E+00 0.  1.
         -2   -1    0    0    0  501 -0.00000000000E+00 -0.00000000000E+00 -0.16712644045E+03  0.16712644045E+03  0.00000000000E+00 0.  1.
         23    2    1    2    0    0  0.14023004007E+03 -0.42368062590E+02 -0.22988066919E+02  0.17524791106E+03  0.93401618000E+02 0.  0.
        -24    2    1    2    0    0  0.11814140863E+03 -0.13502222133E+03  0.15142679877E+03  0.24786935565E+03  0.79503140808E+02 0.  0.
         13    1    4    4    0    0  0.17979679826E+02 -0.78478429557E+02  0.52108258479E+02  0.95903093768E+02  0.00000000000E+00 0. -1.
        -14    1    4    4    0    0  0.10016172880E+03 -0.56543791776E+02  0.99318540289E+02  0.15196626188E+03  0.00000000000E+00 0.  1.
        -13    1    3    3    0    0  0.22770695413E+02 -0.50320335138E+02  0.32518131703E+00  0.55233562631E+02  0.00000000000E+00 0.  1.
         13    1    3    3    0    0  0.11745934465E+03  0.79522725480E+01 -0.23313248236E+02  0.12001434843E+03  0.00000000000E+00 0. -1.
         -1    1    1    2    0  502 -0.25837144870E+03  0.17739028392E+03  0.12212076654E+04  0.12607820115E+04  0.00000000000E+00 0.  1.
<scales pt_clust_5="13000.00000" pt_clust_6="13000.00000" pt_clust_7="13000.00000" pt_clust_8="13000.00000" pt_clust_9="273.09912"></scales>
<clustering>
<clus scale="   79.503">  5  6 -1 -1</clus>
<clus scale="   93.402">  7  8 -1 -1</clus>
<clus scale="  173.734">  2  7  1 -1</clus>
<clus scale="  273.099">  1  9  2 -1</clus>
<clus scale="  273.099">  1  5  2 -1</clus>
</clustering>
</event>
<event>
 9    1  0.6014990E-005  0.1451840E+03  0.7546771E-02  0.1216553E+00
          1   -1    0    0  502    0 -0.00000000000E+00  0.00000000000E+00  0.22766727575E+03  0.22766727575E+03  0.00000000000E+00 0. -1.
         21   -1    0    0  501  502  0.00000000000E+00 -0.00000000000E+00 -0.14988843088E+03  0.14988843088E+03  0.00000000000E+00 0. -1.
         23    2    1    2    0    0 -0.69064374522E+02  0.56194668793E+02  0.97853192149E+02  0.17685073622E+03  0.11735930751E+03 0.  0.
        -24    2    1    2    0    0  0.90710357371E+02 -0.48439557755E+01  0.30994624047E+02  0.12511737794E+03  0.80261190509E+02 0.  0.
         13    1    4    4    0    0  0.91996576424E+02  0.21605663578E+02  0.27413176106E+02  0.98395411461E+02  0.00000000000E+00 0. -1.
        -14    1    4    4    0    0 -0.12862190532E+01 -0.26449619353E+02  0.35814479414E+01  0.26721966483E+02  0.00000000000E+00 0.  1.
        -11    1    3    3    0    0  0.26296418058E+02 -0.10568828413E+02  0.33349417877E+02  0.43765116354E+02  0.00000000000E+00 0.  1.
         11    1    3    3    0    0 -0.95360792580E+02  0.66763497206E+02  0.64503774273E+02  0.13308561987E+03  0.00000000000E+00 0. -1.
          2    1    1    2  501    0 -0.21645982849E+02 -0.51350713018E+02 -0.51068971330E+02  0.75587592459E+02  0.00000000000E+00 0. -1.
<scales pt_clust_5="13000.00000" pt_clust_6="13000.00000" pt_clust_7="13000.00000" pt_clust_8="13000.00000" pt_clust_9="55.72651"></scales>
<clustering>
<clus scale="   55.727">  2  9  1 -1</clus>
<clus scale="   80.261">  5  6 -1 -1</clus>
<clus scale="  117.248">  2  5  1 -1</clus>
<clus scale="  117.359">  7  8 -1 -1</clus>
<clus scale="   55.727">  2  5  1 -1</clus>
</clustering>
</event>
<event>
 9    1  0.6014990E-005  0.1064792E+03  0.7546771E-02  0.1272141E+00
         21   -1    0    0  501  502  0.00000000000E+00  0.00000000000E+00  0.55939208798E+02  0.55939208798E+02  0.00000000000E+00 0.  1.
          1   -1    0    0  502    0 -0.00000000000E+00 -0.00000000000E+00 -0.61326638000E+03  0.61326638000E+03  0.00000000000E+00 0. -1.
        -24    2    1    2    0    0  0.77695364421E+02  0.21969094681E+02 -0.11029635697E+03  0.15812835811E+03  0.79498933972E+02 0.  0.
         23    2    1    2    0    0 -0.15207562323E+02 -0.26723174305E+02 -0.48420442429E+02  0.10757065678E+03  0.91002796429E+02 0.  0.
         13    1    3    3    0    0  0.16694263618E+02  0.35037215192E+02 -0.10110106191E+02  0.40106347793E+02  0.00000000000E+00 0. -1.
        -14    1    3    3    0    0  0.61001100803E+02 -0.13068120511E+02 -0.10018625078E+03  0.11802201031E+03  0.00000000000E+00 0.  1.
        -11    1    4    4    0    0  0.49349374539E+01 -0.43354693682E+02  0.89412930919E+01  0.44541326811E+02  0.00000000000E+00 0.  1.
         11    1    4    4    0    0 -0.20142499777E+02  0.16631519377E+02 -0.57361735521E+02  0.63029329967E+02  0.00000000000E+00 0. -1.
          2    1    1    2  501    0 -0.62487802098E+02  0.47540796245E+01 -0.39861037181E+03  0.40350657392E+03  0.00000000000E+00 0. -1.
<scales pt_clust_5="13000.00000" pt_clust_6="13000.00000" pt_clust_7="13000.00000" pt_clust_8="13000.00000" pt_clust_9="62.66842"></scales>
<clustering>
<clus scale="   62.668">  1  9  2 -1</clus>
<clus scale="   79.499">  5  6 -1 -1</clus>
<clus scale="   91.003">  7  8 -1 -1</clus>
<clus scale="   96.832">  2  5  1 -1</clus>
<clus scale="   62.668">  1  5  2 -1</clus>
</clustering>
</event>
<event>
 9    1  0.6014990E-005  0.8222805E+02  0.7546771E-02  0.1328308E+00
         21   -1    0    0  501  502  0.00000000000E+00  0.00000000000E+00  0.60191357329E+02  0.60191357329E+02  0.00000000000E+00 0.  1.
          1   -1    0    0  502    0 -0.00000000000E+00 -0.00000000000E+00 -0.50246066482E+03  0.50246066482E+03  0.00000000000E+00 0. -1.
        -24    2    1    2    0    0 -0.64476097034E+01  0.12307948566E+02 -0.44536679149E+03  0.45296382859E+03  0.81434598169E+02 0.  0.
         23    2    1    2    0    0 -0.15117935756E+02  0.26157570723E+01 -0.16273716771E+02  0.77084004268E+02  0.73767985535E+02 0.  0.
         11    1    3    3    0    0 -0.85011235996E+01  0.47013377507E+02 -0.24854850380E+03  0.25309856876E+03  0.00000000000E+00 0. -1.
        -12    1    3    3    0    0  0.20535138962E+01 -0.34705428941E+02 -0.19681828769E+03  0.19986525983E+03  0.00000000000E+00 0.  1.
        -13    1    4    4    0    0 -0.28106407906E+02 -0.29474569530E+02 -0.87979813467E+01  0.41666832015E+02  0.00000000000E+00 0.  1.
         13    1    4    4    0    0  0.12988472150E+02  0.32090326603E+02 -0.74757354247E+01  0.35417172253E+02  0.00000000000E+00 0. -1.
          2    1    1    2  501    0  0.21565545460E+02 -0.14923705638E+02  0.19371200762E+02  0.32604189300E+02  0.00000000000E+00 0. -1.
<scales pt_clust_5="13000.00000" pt_clust_6="13000.00000" pt_clust_7="13000.00000" pt_clust_8="13000.00000" pt_clust_9="26.22575"></scales>
<clustering>
<clus scale="   26.226">  1  9  2 -1</clus>
<clus scale="   73.768">  7  8 -1 -1</clus>
<clus scale="   74.643">  1  7  2 -1</clus>
<clus scale="   81.435">  5  6 -1 -1</clus>
<clus scale="   26.226">  1  5  2 -1</clus>
</clustering>
</event>
<event>
 9    1  0.6014990E-005  0.1523286E+03  0.7546771E-02  0.1217746E+00
          1   -1    0    0  502    0 -0.00000000000E+00  0.00000000000E+00  0.10394771933E+04  0.10394771933E+04  0.00000000000E+00 0. -1.
         21   -1    0    0  501  502  0.00000000000E+00 -0.00000000000E+00 -0.90828467248E+02  0.90828467248E+02  0.00000000000E+00 0. -1.
        -24    2    1    2    0    0 -0.49893279287E+02 -0.30004053171E+02  0.18976849660E+02  0.10079135235E+03  0.80057437891E+02 0.  0.
         23    2    1    2    0    0  0.15374207196E+02 -0.11683317852E+03  0.86428754585E+02  0.17288620836E+03  0.92376152610E+02 0.  0.
         11    1    3    3    0    0 -0.29382492667E+02 -0.49872953238E+02 -0.11511303755E+02  0.59018238318E+02  0.00000000000E+00 0. -1.
        -12    1    3    3    0    0 -0.20510786620E+02  0.19868900067E+02  0.30488153415E+02  0.41773114036E+02  0.00000000000E+00 0.  1.
        -11    1    4    4    0    0  0.48445003654E+02 -0.38445466737E+02  0.53094415401E+02  0.81510669476E+02  0.00000000000E+00 0.  1.
         11    1    4    4    0    0 -0.33070796458E+02 -0.78387711787E+02  0.33334339184E+02  0.91375538885E+02  0.00000000000E+00 0. -1.
          2    1    1    2  501    0  0.34519072090E+02  0.14683723170E+03  0.84324312185E+03  0.85662809988E+03  0.00000000000E+00 0. -1.
<scales pt_clust_5="13000.00000" pt_clust_6="13000.00000" pt_clust_7="13000.00000" pt_clust_8="13000.00000" pt_clust_9="121.12248"></scales>
<clustering>
<clus scale="   80.057">  5  6 -1 -1</clus>
<clus scale="   92.376">  7  8 -1 -1</clus>
<clus scale="   98.989">  1  5  2 -1</clus>
<clus scale="  121.122">  2  9  1 -1</clus>
<clus scale="  121.122">  2  5  1 -1</clus>
</clustering>
</event>
<event>
 9    1  0.6014990E-005  0.9820652E+02  0.7546771E-02  0.1289607E+00
         21   -1    0    0  501  502  0.00000000000E+00  0.00000000000E+00  0.20417134197E+03  0.20417134197E+03  0.00000000000E+00 0. -1.
          1   -1    0    0  502    0 -0.00000000000E+00 -0.00000000000E+00 -0.10017456803E+03  0.10017456803E+03  0.00000000000E+00 0. -1.
         23    2    1    2    0    0 -0.33226127582E+02 -0.63543518295E+02  0.39206313576E+02  0.12353511712E+03  0.92639278205E+02 0.  0.
        -24    2    1    2    0    0 -0.17195046410E+01 -0.65160020272E+01  0.60503204205E+02  0.10240215710E+03  0.82341660671E+02 0.  0.
         11    1    4    4    0    0  0.19948181526E+02 -0.28339510267E+02  0.62626225920E+02  0.71575847612E+02  0.00000000000E+00 0. -1.
        -12    1    4    4    0    0 -0.21667686167E+02  0.21823508240E+02 -0.21230217152E+01  0.30826309493E+02  0.00000000000E+00 0.  1.
        -13    1    3    3    0    0  0.12092179541E+02 -0.66706831160E+02  0.76551568219E+01  0.68224801615E+02  0.00000000000E+00 0.  1.
         13    1    3    3    0    0 -0.45318307123E+02  0.31633128653E+01  0.31551156754E+02  0.55310315505E+02  0.00000000000E+00 0. -1.
          2    1    1    2  501    0  0.34945632223E+02  0.70059520322E+02  0.42872561569E+01  0.78408635778E+02  0.00000000000E+00 0. -1.
<scales pt_clust_5="13000.00000" pt_clust_6="13000.00000" pt_clust_7="13000.00000" pt_clust_8="13000.00000" pt_clust_9="78.29138"></scales>
<clustering>
<clus scale="   78.291">  1  9  2 -1</clus>
<clus scale="   82.342">  5  6 -1 -1</clus>
<clus scale="   88.559">  1  5  2 -1</clus>
<clus scale="   92.639">  7  8 -1 -1</clus>
<clus scale="   78.291">  1  5  2 -1</clus>
</clustering>
</event>
<event>
 9    1  0.6014990E-005  0.2780439E+03  0.7546771E-02  0.1097401E+00
         21   -1    0    0  501  502  0.00000000000E+00  0.00000000000E+00  0.88258769291E+03  0.88258769291E+03  0.00000000000E+00 0.  1.
          1   -1    0    0  502    0 -0.00000000000E+00 -0.00000000000E+00 -0.14276662519E+03  0.14276662519E+03  0.00000000000E+00 0. -1.
        -24    2    1    2    0    0  0.26434001154E+03  0.16974347386E+02  0.98066701785E+02  0.29453449663E+03  0.83484858117E+02 0.  0.
         23    2    1    2    0    0 -0.24019782551E+03 -0.88673612508E+02  0.50035399961E+03  0.57045245147E+03  0.97487791687E+02 0.  0.
         13    1    3    3    0    0  0.17083307318E+03  0.16217708847E+02  0.20079505320E+02  0.17277192916E+03  0.00000000000E+00 0. -1.
        -14    1    3    3    0    0  0.93506938356E+02  0.75663853945E+00  0.77987196465E+02  0.12176256746E+03  0.00000000000E+00 0.  1.
        -11    1    4    4    0    0 -0.22921136194E+03 -0.10540901248E+03  0.47764380064E+03  0.54017821934E+03  0.00000000000E+00 0.  1.
         11    1    4    4    0    0 -0.10986463566E+02  0.16735399974E+02  0.22710198966E+02  0.30274232130E+02  0.00000000000E+00 0. -1.
          2    1    1    2  501    0 -0.24142186032E+02  0.71699265122E+02  0.14140036632E+03  0.16036737000E+03  0.00000000000E+00 0. -1.
<scales pt_clust_5="13000.00000" pt_clust_6="13000.00000" pt_clust_7="13000.00000" pt_clust_8="13000.00000" pt_clust_9="75.65467"></scales>
<clustering>
<clus scale="   75.655">  1  9  2 -1</clus>
<clus scale="   83.485">  5  6 -1 -1</clus>
<clus scale="   97.488">  7  8 -1 -1</clus>
<clus scale="  273.449">  2  5  1 -1</clus>
<clus scale="   75.655">  1  5  2 -1</clus>
</clustering>
</event>
<event>
 9    1  0.6014990E-005  0.1377231E+03  0.7546771E-02  0.1224351E+00
         -2   -1    0    0    0  501 -0.00000000000E+00  0.00000000000E+00  0.70829826082E+03  0.70829826082E+03  0.00000000000E+00 0.  1.
         21   -1    0    0  501  502  0.00000000000E+00 -0.00000000000E+00 -0.58561284939E+02  0.58561284939E+02  0.00000000000E+00 0.  1.
         23    2    1    2    0    0  0.24793045037E+02 -0.57959570642E+02  0.31252459463E+03  0.33357528060E+03  0.98116454623E+02 0.  0.
        -24    2    1    2    0    0  0.37211377292E+01 -0.86949448542E+02  0.11759600990E+03  0.16862782177E+03  0.83859807205E+02 0.  0.
         11    1    4    4    0    0 -0.28654870249E+02 -0.11920513639E+02  0.82357129266E+01  0.32109612296E+02  0.00000000000E+00 0. -1.
        -12    1    4    4    0    0  0.32376007978E+02 -0.75028934902E+02  0.10936029697E+03  0.13651820948E+03  0.00000000000E+00 0.  1.
        -11    1    3    3    0    0 -0.37031260079E+02 -0.15045622417E+02  0.13404279783E+03  0.13987550403E+03  0.00000000000E+00 0.  1.
         11    1    3    3    0    0  0.61824305116E+02 -0.42913948225E+02  0.17848179680E+03  0.19369977657E+03  0.00000000000E+00 0. -1.
         -1    1    1    2    0  502 -0.28514182766E+02  0.14490901918E+03  0.21961637136E+03  0.26465644339E+03  0.00000000000E+00 0.  1.
<scales pt_clust_5="13000.00000" pt_clust_6="13000.00000" pt_clust_7="13000.00000" pt_clust_8="13000.00000" pt_clust_9="109.24831"></scales>
<clustering>
<clus scale="   83.860">  5  6 -1 -1</clus>
<clus scale="   98.116">  7  8 -1 -1</clus>
<clus scale="  116.623">  1  7  2 -1</clus>
<clus scale="  109.248">  2  9  1 -1</clus>
<clus scale="  109.248">  2  5  1 -1</clus>
</clustering>
</event>
<event>
 9    1  0.6014990E-005  0.1126790E+03  0.7546771E-02  0.1259292E+00
          1   -1    0    0  502    0 -0.00000000000E+00  0.00000000000E+00  0.37317587877E+03  0.37317587877E+03  0.00000000000E+00 0. -1.
         21   -1    0    0  501  502  0.00000000000E+00 -0.00000000000E+00 -0.72782330115E+02  0.72782330115E+02  0.00000000000E+00 0. -1.
        -24    2    1    2    0    0  0.27226399551E+01 -0.37771471800E+02  0.79558049616E+02  0.11951128130E+03  0.80742592527E+02 0.  0.
         23    2    1    2    0    0 -0.24771948075E+02  0.11993546979E+03  0.11613832462E+03  0.19154476718E+03  0.90571082924E+02 0.  0.
         11    1    3    3    0    0 -0.32449237277E+02 -0.31827670905E+00  0.11917710297E+02  0.34570017626E+02  0.00000000000E+00 0. -1.
        -12    1    3    3    0    0  0.35171877233E+02 -0.37453195091E+02  0.67640339319E+02  0.84941263669E+02  0.00000000000E+00 0.  1.
        -11    1    4    4    0    0  0.19706788842E+02  0.99106517818E+02  0.92691035823E+02  0.13712070421E+03  0.00000000000E+00 0. -1.
         11    1    4    4    0    0 -0.44478736918E+02  0.20828951967E+02  0.23447288800E+02  0.54424062968E+02  0.00000000000E+00 0.  1.
          2    1    1    2  501    0  0.22049308120E+02 -0.82163997985E+02  0.10469717441E+03  0.13490216041E+03  0.00000000000E+00 0. -1.
<scales pt_clust_5="13000.00000" pt_clust_6="13000.00000" pt_clust_7="13000.00000" pt_clust_8="13000.00000" pt_clust_9="85.07116"></scales>
<clustering>
<clus scale="   80.743">  5  6 -1 -1</clus>
<clus scale="   85.071">  2  9  1 -1</clus>
<clus scale="   90.571">  7  8 -1 -1</clus>
<clus scale="  104.942">  1  5  2 -1</clus>
<clus scale="   85.071">  2  5  1 -1</clus>
</clustering>
</event>
<event>
 9    1  0.6014990E-005  0.1204974E+03  0.7546771E-02  0.1245746E+00
         -2   -1    0    0    0  501 -0.00000000000E+00  0.00000000000E+00  0.22464859116E+03  0.22464859116E+03  0.00000000000E+00 0.  1.
         21   -1    0    0  501  502  0.00000000000E+00 -0.00000000000E+00 -0.19935518567E+03  0.19935518567E+03  0.00000000000E+00 0. -1.
        -24    2    1    2    0    0  0.72806599371E+02  0.32542795743E+02  0.17440078229E+03  0.20790879589E+03  0.80315627842E+02 0.  0.
         23    2    1    2    0    0 -0.56717918525E+02 -0.46387071071E+02 -0.75144688584E+02  0.13914701891E+03  0.91359104668E+02 0.  0.
         13    1    3    3    0    0  0.32650176070E+02 -0.17369303424E+02  0.23097835514E+02  0.43603173098E+02  0.00000000000E+00 0. -1.
        -14    1    3    3    0    0  0.40156423301E+02  0.49912099167E+02  0.15130294678E+03  0.16430562279E+03  0.00000000000E+00 0.  1.
        -13    1    4    4    0    0 -0.19022032513E+02 -0.65503372814E+02 -0.67938121819E+02  0.96271065057E+02  0.00000000000E+00 0. -1.
         13    1    4    4    0    0 -0.37695886012E+02  0.19116301743E+02 -0.72065667643E+01  0.42875953856E+02  0.00000000000E+00 0.  1.
         -1    1    1    2    0  502 -0.16088680846E+02  0.13844275328E+02 -0.73962688228E+02  0.76947962030E+02  0.00000000000E+00 0.  1.
<scales pt_clust_5="13000.00000" pt_clust_6="13000.00000" pt_clust_7="13000.00000" pt_clust_8="13000.00000" pt_clust_9="21.22521"></scales>
<clustering>
<clus scale="   21.225">  2  9  1 -1</clus>
<clus scale="   80.316">  5  6 -1 -1</clus>
<clus scale="   91.359">  7  8 -1 -1</clus>
<clus scale="  112.355">  1  5  2 -1</clus>
<clus scale="   21.225">  2  5  1 -1</clus>
</clustering>
</event>
<event>
 9    1  0.6014990E-005  0.2022581E+03  0.7546771E-02  0.1148844E+00
         21   -1    0    0  501  502  0.00000000000E+00  0.00000000000E+00  0.66840547244E+02  0.66840547244E+02  0.00000000000E+00 0.  1.
          3   -1    0    0  502    0 -0.00000000000E+00 -0.00000000000E+00 -0.89946320091E+03  0.89946320091E+03  0.00000000000E+00 0. -1.
         23    2    1    2    0    0  0.25398175664E+02  0.16586974364E+03 -0.35847992023E+03  0.40612025206E+03  0.90928360450E+02 0.  0.
        -24    2    1    2    0    0 -0.35744232390E+02 -0.20002279520E+03 -0.24449774624E+03  0.32778235160E+03  0.79845809898E+02 0.  0.
         11    1    4    4    0    0 -0.31057820364E+01 -0.66237908236E+02 -0.14001361165E+03  0.15492229606E+03  0.00000000000E+00 0. -1.
        -12    1    4    4    0    0 -0.32638450353E+02 -0.13378488696E+03 -0.10448413459E+03  0.17286005554E+03  0.00000000000E+00 0.  1.
        -11    1    3    3    0    0  0.30476114220E+02  0.70039743873E+01 -0.47404246743E+02  0.56789187390E+02  0.00000000000E+00 0. -1.
         11    1    3    3    0    0 -0.50779385561E+01  0.15886576926E+03 -0.31107567349E+03  0.34933106467E+03  0.00000000000E+00 0.  1.
          4    1    1    2  501    0  0.10346056726E+02  0.34153051554E+02 -0.22964498719E+03  0.23240114449E+03  0.00000000000E+00 0. -1.
<scales pt_clust_5="13000.00000" pt_clust_6="13000.00000" pt_clust_7="13000.00000" pt_clust_8="13000.00000" pt_clust_9="35.68575"></scales>
<clustering>
<clus scale="   35.686">  1  9  2 -1</clus>
<clus scale="   79.846">  5  6 -1 -1</clus>
<clus scale="   90.928">  7  8 -1 -1</clus>
<clus scale="  197.524">  1  5  2 -1</clus>
<clus scale="   35.686">  1  5  2 -1</clus>
</clustering>
</event>
<event>
 9    1  0.6014990E-005  0.1072587E+03  0.7546771E-02  0.1271867E+00
          1   -1    0    0  502    0 -0.00000000000E+00  0.00000000000E+00  0.11855469715E+03  0.11855469715E+03  0.00000000000E+00 0. -1.
         21   -1    0    0  501  502  0.00000000000E+00 -0.00000000000E+00 -0.17622260452E+03  0.17622260452E+03  0.00000000000E+00 0.  1.
        -24    2    1    2    0    0 -0.24999587576E+02 -0.40601326336E+02  0.47788354843E+01  0.91212060328E+02  0.77610280256E+02 0.  0.
         23    2    1    2    0    0  0.86210225830E+02  0.13398064788E+02 -0.41351236459E+02  0.13333860776E+03  0.91964930197E+02 0.  0.
         13    1    3    3    0    0  0.44630121238E+01 -0.47462508315E+02  0.25960913143E+02  0.54282383735E+02  0.00000000000E+00 0. -1.
        -14    1    3    3    0    0 -0.29462599700E+02  0.68611819790E+01 -0.21182077659E+02  0.36929676592E+02  0.00000000000E+00 0.  1.
        -13    1    4    4    0    0  0.86641333974E+02 -0.11809465109E+02 -0.56327856822E+02  0.10401447819E+03  0.00000000000E+00 0.  1.
         13    1    4    4    0    0 -0.43110814345E+00  0.25207529898E+02  0.14976620364E+02  0.29324129574E+02  0.00000000000E+00 0. -1.
          2    1    1    2  501    0 -0.61210638254E+02  0.27203261548E+02 -0.21095506399E+02  0.70226633584E+02  0.00000000000E+00 0. -1.
<scales pt_clust_5="13000.00000" pt_clust_6="13000.00000" pt_clust_7="13000.00000" pt_clust_8="13000.00000" pt_clust_9="66.98328"></scales>
<clustering>
<clus scale="   66.983">  2  9  1 -1</clus>
<clus scale="   77.610">  5  6 -1 -1</clus>
<clus scale="   91.965">  7  8 -1 -1</clus>
<clus scale="   95.238">  1  5  2 -1</clus>
<clus scale="   66.983">  2  5  1 -1</clus>
</clustering>
</event>
<event>
 9    1  0.6014990E-005  0.1078616E+03  0.7546771E-02  0.1273301E+00
         21   -1    0    0  501  502  0.00000000000E+00  0.00000000000E+00  0.37340175668E+03  0.37340175668E+03  0.00000000000E+00 0.  1.
          1   -1    0    0  502    0 -0.00000000000E+00 -0.00000000000E+00 -0.12958785558E+03  0.12958785558E+03  0.00000000000E+00 0. -1.
        -24    2    1    2    0    0  0.46830591624E+00  0.47716012447E+02 -0.90262633325E+01  0.88392924409E+02  0.73856607704E+02 0.  0.
         23    2    1    2    0    0  0.75932989625E+02 -0.90448600388E+02  0.28410566419E+03  0.32164098062E+03  0.93755659891E+02 0.  0.
         11    1    3    3    0    0  0.29537423846E+02  0.24536417521E+02 -0.27153489643E+02  0.47029854263E+02  0.00000000000E+00 0. -1.
        -12    1    3    3    0    0 -0.29069117930E+02  0.23179594926E+02  0.18127226310E+02  0.41363070146E+02  0.00000000000E+00 0.  1.
        -13    1    4    4    0    0  0.43975812680E+02 -0.31670312687E+02  0.22791956332E+03  0.23427378887E+03  0.00000000000E+00 0.  1.
         13    1    4    4    0    0  0.31957176944E+02 -0.58778287700E+02  0.56186100874E+02  0.87367191752E+02  0.00000000000E+00 0. -1.
          2    1    1    2  501    0 -0.76401295541E+02  0.42732587941E+02 -0.31265499758E+02  0.92955707235E+02  0.00000000000E+00 0. -1.
<scales pt_clust_5="13000.00000" pt_clust_6="13000.00000" pt_clust_7="13000.00000" pt_clust_8="13000.00000" pt_clust_9="87.53993"></scales>
<clustering>
<clus scale="   73.857">  5  6 -1 -1</clus>
<clus scale="   87.540">  1  9  2 -1</clus>
<clus scale="   91.098">  2  5  1 -1</clus>
<clus scale="   93.756">  7  8 -1 -1</clus>
<clus scale="   87.540">  1  5  2 -1</clus>
</clustering>
</event>
<event>
 9    1  0.6014990E-005  0.1725005E+03  0.7546771E-02  0.1194761E+00
          1   -1    0    0  502    0 -0.00000000000E+00  0.00000000000E+00  0.88608878794E+03  0.88608878794E+03  0.00000000000E+00 0. -1.
         21   -1    0    0  501  502  0.00000000000E+00 -0.00000000000E+00 -0.54174253029E+02  0.54174253029E+02  0.00000000000E+00 0. -1.
        -24    2    1    2    0    0  0.42653006179E+02  0.61389744060E+02  0.18825238973E+03  0.21890258554E+03  0.83014457202E+02 0.  0.
         23    2    1    2    0    0 -0.96582340739E+02  0.84481444179E+02  0.27873623764E+03  0.32467708714E+03  0.10609457001E+03 0.  0.
         13    1    3    3    0    0  0.63038902784E+02  0.26289414807E+02  0.93214866680E+02  0.11555971601E+03  0.00000000000E+00 0. -1.
        -14    1    3    3    0    0 -0.20385896605E+02  0.35100329252E+02  0.95037523055E+02  0.10334286953E+03  0.00000000000E+00 0.  1.
        -11    1    4    4    0    0  0.77976420829E+01  0.37935822215E+02  0.24220271730E+02  0.45678784921E+02  0.00000000000E+00 0.  1.
         11    1    4    4    0    0 -0.10437998282E+03  0.46545621964E+02  0.25451596591E+03  0.27899830222E+03  0.00000000000E+00 0. -1.
          2    1    1    2  501    0  0.53929334560E+02 -0.14587118824E+03  0.36492590754E+03  0.39668336829E+03  0.00000000000E+00 0. -1.
<scales pt_clust_5="13000.00000" pt_clust_6="13000.00000" pt_clust_7="13000.00000" pt_clust_8="13000.00000" pt_clust_9="136.01608"></scales>
<clustering>
<clus scale="   83.014">  5  6 -1 -1</clus>
<clus scale="  106.095">  7  8 -1 -1</clus>
<clus scale="  111.711">  1  5  2 -1</clus>
<clus scale="  136.016">  2  9  1 -1</clus>
<clus scale="  136.016">  2  5  1 -1</clus>
</clustering>
</event>
<event>
 9    1  0.6014990E-005  0.1700929E+03  0.7546771E-02  0.1179636E+00
          1   -1    0    0  502    0 -0.00000000000E+00  0.00000000000E+00  0.68782899542E+03  0.68782899542E+03  0.00000000000E+00 0. -1.
         21   -1    0    0  501  502  0.00000000000E+00 -0.00000000000E+00 -0.99254797961E+02  0.99254797961E+02  0.00000000000E+00 0. -1.
         23    2    1    2    0    0  0.14791511623E+03  0.25713581610E+02  0.40708195321E+03  0.44374493488E+03  0.93025699245E+02 0.  0.
        -24    2    1    2    0    0 -0.13429793931E+03  0.40395111656E+02  0.21443571104E+03  0.26823187589E+03  0.79359709700E+02 0.  0.
         13    1    4    4    0    0 -0.77566591445E+02  0.16104788704E+02  0.52768679583E+02  0.95186521486E+02  0.00000000000E+00 0. -1.
        -14    1    4    4    0    0 -0.56731347868E+02  0.24290322951E+02  0.16166703146E+03  0.17304535440E+03  0.00000000000E+00 0.  1.
        -13    1    3    3    0    0  0.11252662237E+03 -0.19420457428E+02  0.31715182880E+03  0.33708259732E+03  0.00000000000E+00 0. -1.
         13    1    3    3    0    0  0.35388493862E+02  0.45134039038E+02  0.89930124408E+02  0.10666233756E+03  0.00000000000E+00 0.  1.
          2    1    1    2  501    0 -0.13617176921E+02 -0.66108693266E+02 -0.32943466787E+02  0.75106982608E+02  0.00000000000E+00 0. -1.
<scales pt_clust_5="13000.00000" pt_clust_6="13000.00000" pt_clust_7="13000.00000" pt_clust_8="13000.00000" pt_clust_9="67.49657"></scales>
<clustering>
<clus scale="   67.497">  2  9  1 -1</clus>
<clus scale="   79.360">  5  6 -1 -1</clus>
<clus scale="   93.026">  7  8 -1 -1</clus>
<clus scale="  163.021">  2  5  1 -1</clus>
<clus scale="   67.497">  2  5  1 -1</clus>
</clustering>
</event>
<event>
 9    1  0.6014990E-005  0.2005085E+03  0.7546771E-02  0.1149311E+00
         21   -1    0    0  501  502  0.00000000000E+00  0.00000000000E+00  0.22566036481E+03  0.22566036481E+03  0.00000000000E+00 0.  1.
          1   -1    0    0  502    0 -0.00000000000E+00 -0.00000000000E+00 -0.23845731141E+03  0.23845731141E+03  0.00000000000E+00 0. -1.
        -24    2    1    2    0    0  0.63507377678E+02 -0.18700481957E+02 -0.88477792663E+02  0.13365424615E+03  0.75181398464E+02 0.  0.
         23    2    1    2    0    0  0.37474756501E+02  0.20938680572E+02 -0.91077775702E+02  0.13549974399E+03  0.90676533212E+02 0.  0.
         13    1    3    3    0    0  0.71248942865E+01 -0.39333690706E+02 -0.31664528953E+02  0.50995546246E+02  0.00000000000E+00 0. -1.
        -14    1    3    3    0    0  0.56382483391E+02  0.20633208749E+02 -0.56813263711E+02  0.82658699906E+02  0.00000000000E+00 0.  1.
        -11    1    4    4    0    0  0.10696839231E+02  0.24174798232E+02  0.11941737075E+02  0.29007728685E+02  0.00000000000E+00 0.  1.
         11    1    4    4    0    0  0.26777917270E+02 -0.32361176601E+01 -0.10301951278E+03  0.10649201530E+03  0.00000000000E+00 0. -1.
          2    1    1    2  501    0 -0.10098213418E+03 -0.22381986147E+01  0.16675862176E+03  0.19496368607E+03  0.00000000000E+00 0. -1.
<scales pt_clust_5="13000.00000" pt_clust_6="13000.00000" pt_clust_7="13000.00000" pt_clust_8="13000.00000" pt_clust_9="101.00694"></scales>
<clustering>
<clus scale="   75.181">  5  6 -1 -1</clus>
<clus scale="   90.677">  7  8 -1 -1</clus>
<clus scale="   98.064">  5  7 -1 -1</clus>
<clus scale="  101.007">  1  9  2 -1</clus>
<clus scale="  101.007">  1  5  2 -1</clus>
</clustering>
</event>
<event>
 9    1  0.6014990E-005  0.9521357E+02  0.7546771E-02  0.1297817E+00
          1   -1    0    0  502    0 -0.00000000000E+00  0.00000000000E+00  0.14639755783E+03  0.14639755783E+03  0.00000000000E+00 0. -1.
         21   -1    0    0  501  502  0.00000000000E+00 -0.00000000000E+00 -0.95025169036E+02  0.95025169036E+02  0.00000000000E+00 0. -1.
        -24    2    1    2    0    0 -0.40705712629E+01  0.38156884826E+01  0.13638142368E+02  0.82247556184E+02  0.80916824839E+02 0.  0.
         23    2    1    2    0    0  0.24193043061E+02  0.40876192924E+02  0.16518762961E+02  0.10576754132E+03  0.93046960120E+02 0.  0.
         13    1    3    3    0    0 -0.29464731221E+02 -0.10093065219E+02 -0.20650562385E+02  0.37369587612E+02  0.00000000000E+00 0. -1.
        -14    1    3    3    0    0  0.25394159958E+02  0.13908753702E+02  0.34288704753E+02  0.44877968572E+02  0.00000000000E+00 0.  1.
        -11    1    4    4    0    0  0.59652051567E+02  0.32793805492E+02  0.95754579422E+01  0.68742201955E+02  0.00000000000E+00 0. -1.
         11    1    4    4    0    0 -0.35459008506E+02  0.80823874328E+01  0.69433050186E+01  0.37025339370E+02  0.00000000000E+00 0.  1.
          2    1    1    2  501    0 -0.20122471798E+02 -0.44691881407E+02  0.21215483465E+02  0.53407629358E+02  0.00000000000E+00 0. -1.
<scales pt_clust_5="13000.00000" pt_clust_6="13000.00000" pt_clust_7="13000.00000" pt_clust_8="13000.00000" pt_clust_9="49.01306"></scales>
<clustering>
<clus scale="   49.013">  2  9  1 -1</clus>
<clus scale="   80.917">  5  6 -1 -1</clus>
<clus scale="   83.399">  1  5  2 -1</clus>
<clus scale="   93.047">  7  8 -1 -1</clus>
<clus scale="   49.013">  2  5  1 -1</clus>
</clustering>
</event>
<event>
 9    1  0.6014990E-005  0.1029065E+03  0.7546771E-02  0.1278576E+00
         21   -1    0    0  501  502  0.00000000000E+00  0.00000000000E+00  0.37178900655E+02  0.37178900655E+02  0.00000000000E+00 0. -1.
          1   -1    0    0  502    0 -0.00000000000E+00 -0.00000000000E+00 -0.51664378178E+03  0.51664378178E+03  0.00000000000E+00 0. -1.
        -24    2    1    2    0    0 -0.62860573475E+02 -0.78754132508E+01 -0.32108537730E+03  0.33672559398E+03  0.79213839054E+02 0.  0.
         23    2    1    2    0    0  0.25748206949E+02 -0.28322757169E+02 -0.10372202437E+03  0.14176399246E+03  0.88733434987E+02 0.  0.
         13    1    3    3    0    0 -0.41079932501E+02 -0.39758840527E+02 -0.24274583830E+03  0.24938698496E+03  0.00000000000E+00 0. -1.
        -14    1    3    3    0    0 -0.21780640974E+02  0.31883427276E+02 -0.78339538993E+02  0.87338609021E+02  0.00000000000E+00 0.  1.
        -11    1    4    4    0    0  0.49120156207E+02 -0.34583127239E+02 -0.10086635232E+03  0.11740018512E+03  0.00000000000E+00 0. -1.
         11    1    4    4    0    0 -0.23371949257E+02  0.62603700702E+01 -0.28556720520E+01  0.24363807346E+02  0.00000000000E+00 0.  1.
          2    1    1    2  501    0  0.37112366526E+02  0.36198170420E+02 -0.54657479458E+02  0.75333095991E+02  0.00000000000E+00 0. -1.
<scales pt_clust_5="13000.00000" pt_clust_6="13000.00000" pt_clust_7="13000.00000" pt_clust_8="13000.00000" pt_clust_9="51.84241"></scales>
<clustering>
<clus scale="   51.842">  1  9  2 -1</clus>
<clus scale="   79.214">  5  6 -1 -1</clus>
<clus scale="   88.733">  7  8 -1 -1</clus>
<clus scale="   94.821">  2  5  1 -1</clus>
<clus scale="   51.842">  1  5  2 -1</clus>
</clustering>
</event>
<event>
 9    1  0.6014990E-005  0.1004460E+03  0.7546771E-02  0.1287545E+00
         21   -1    0    0  501  502  0.00000000000E+00  0.00000000000E+00  0.16915409238E+03  0.16915409238E+03  0.00000000000E+00 0. -1.
         -2   -1    0    0    0  501 -0.00000000000E+00 -0.00000000000E+00 -0.12203522440E+03  0.12203522440E+03  0.00000000000E+00 0.  1.
         23    2    1    2    0    0 -0.17214612264E+02  0.19845445585E+02 -0.43979856104E+02  0.10817525627E+03  0.95275777299E+02 0.  0.
        -24    2    1    2    0    0  0.48660430175E+02 -0.90870201614E+00  0.10153421091E+02  0.94134468944E+02  0.79934617528E+02 0.  0.
         13    1    4    4    0    0  0.43321770861E+02  0.17395802280E+02  0.38131011853E+02  0.60277390723E+02  0.00000000000E+00 0. -1.
        -14    1    4    4    0    0  0.53386593135E+01 -0.18304504296E+02 -0.27977590762E+02  0.33857078221E+02  0.00000000000E+00 0.  1.
        -13    1    3    3    0    0 -0.33736307286E+02 -0.30648494940E+02 -0.17611546370E+02  0.48863434560E+02  0.00000000000E+00 0.  1.
         13    1    3    3    0    0  0.16521695022E+02  0.50493940525E+02 -0.26368309734E+02  0.59311821709E+02  0.00000000000E+00 0. -1.
         -1    1    1    2    0  502 -0.31445817910E+02 -0.18936743569E+02  0.80945302988E+02  0.88879591565E+02  0.00000000000E+00 0.  1.
<scales pt_clust_5="13000.00000" pt_clust_6="13000.00000" pt_clust_7="13000.00000" pt_clust_8="13000.00000" pt_clust_9="36.70749"></scales>
<clustering>
<clus scale="   36.707">  1  9  2 -1</clus>
<clus scale="   79.935">  5  6 -1 -1</clus>
<clus scale="   86.032">  1  5  2 -1</clus>
<clus scale="   95.276">  7  8 -1 -1</clus>
<clus scale="   36.707">  1  5  2 -1</clus>
</clustering>
</event>
<event>
 9    1  0.6014990E-005  0.1076570E+03  0.7546771E-02  0.1268717E+00
         21   -1    0    0  501  502  0.00000000000E+00  0.00000000000E+00  0.57767150037E+03  0.57767150037E+03  0.00000000000E+00 0.  1.
          1   -1    0    0  502    0 -0.00000000000E+00 -0.00000000000E+00 -0.58659601205E+02  0.58659601205E+02  0.00000000000E+00 0. -1.
         23    2    1    2    0    0  0.61488305582E+02  0.49983345449E+02  0.43122209422E+02  0.12687139986E+03  0.89205832833E+02 0.  0.
        -24    2    1    2    0    0 -0.38069020144E+02  0.28146960785E+01  0.12128093809E+03  0.15017783066E+03  0.79919597526E+02 0.  0.
         11    1    4    4    0    0  0.23302674704E+02 -0.64111728331E+01  0.19888777156E+02  0.31299860099E+02  0.00000000000E+00 0. -1.
        -12    1    4    4    0    0 -0.61371694847E+02  0.92258689116E+01  0.10139216093E+03  0.11887797056E+03  0.00000000000E+00 0.  1.
        -13    1    3    3    0    0  0.21357926690E+00 -0.23494918339E+02  0.11045985384E+02  0.25962869583E+02  0.00000000000E+00 0.  1.
         13    1    3    3    0    0  0.61274726316E+02  0.73478263788E+02  0.32076224038E+02  0.10090853028E+03  0.00000000000E+00 0. -1.
          2    1    1    2  501    0 -0.23419285439E+02 -0.52798041527E+02  0.35460875165E+03  0.35928187106E+03  0.00000000000E+00 0. -1.
<scales pt_clust_5="13000.00000" pt_clust_6="13000.00000" pt_clust_7="13000.00000" pt_clust_8="13000.00000" pt_clust_9="57.75895"></scales>
<clustering>
<clus scale="   57.759">  1  9  2 -1</clus>
<clus scale="   79.920">  5  6 -1 -1</clus>
<clus scale="   89.206">  7  8 -1 -1</clus>
<clus scale="  100.097">  1  5  2 -1</clus>
<clus scale="   57.759">  1  5  2 -1</clus>
</clustering>
</event>
<event>
 9    1  0.6014990E-005  0.9086398E+02  0.7546771E-02  0.1305042E+00
         21   -1    0    0  501  502  0.00000000000E+00  0.00000000000E+00  0.27138901129E+02  0.27138901129E+02  0.00000000000E+00 0. -1.
          1   -1    0    0  502    0 -0.00000000000E+00 -0.00000000000E+00 -0.80712917130E+03  0.80712917130E+03  0.00000000000E+00 0. -1.
        -24    2    1    2    0    0  0.32814844196E+02 -0.31341114495E+02 -0.36277004761E+03  0.37465755434E+03  0.81896862738E+02 0.  0.
         23    2    1    2    0    0  0.10408745040E+02 -0.48583748826E+02 -0.20980014152E+03  0.23316107017E+03  0.88765210730E+02 0.  0.
         13    1    3    3    0    0  0.58250207651E+02 -0.16679323816E+02 -0.19050233844E+03  0.19990604664E+03  0.00000000000E+00 0. -1.
        -14    1    3    3    0    0 -0.25435363455E+02 -0.14661790679E+02 -0.17226770917E+03  0.17475150770E+03  0.00000000000E+00 0.  1.
        -13    1    4    4    0    0  0.21200201767E+02  0.19196472119E+02 -0.96932800841E+02  0.10106394498E+03  0.00000000000E+00 0.  1.
         13    1    4    4    0    0 -0.10791456727E+02 -0.67780220945E+02 -0.11286734068E+03  0.13209712518E+03  0.00000000000E+00 0. -1.
          2    1    1    2  501    0 -0.43223589236E+02  0.79924863321E+02 -0.20742008103E+03  0.22644944791E+03  0.00000000000E+00 0. -1.
<scales pt_clust_5="13000.00000" pt_clust_6="13000.00000" pt_clust_7="13000.00000" pt_clust_8="13000.00000" pt_clust_9="90.86398"></scales>
<clustering>
<clus scale="   81.897">  5  6 -1 -1</clus>
<clus scale="   88.765">  7  8 -1 -1</clus>
<clus scale="   90.864">  1  9  2 -1</clus>
<clus scale="   84.018">  2  5  1 -1</clus>
<clus scale="   90.864">  1  5  2 -1</clus>
</clustering>
</event>
<event>
 9    1  0.6014990E-005  0.1037269E+03  0.7546771E-02  0.1278032E+00
         21   -1    0    0  501  502  0.00000000000E+00  0.00000000000E+00  0.12051619150E+03  0.12051619150E+03  0.00000000000E+00 0.  1.
          3   -1    0    0  502    0 -0.00000000000E+00 -0.00000000000E+00 -0.33180721529E+03  0.33180721529E+03  0.00000000000E+00 0. -1.
        -24    2    1    2    0    0  0.38223339454E+02 -0.10969539557E+02 -0.27959638079E+03  0.29459040458E+03  0.83833262159E+02 0.  0.
         23    2    1    2    0    0 -0.64409244614E+02  0.71604665653E+01  0.61320148660E+02  0.13036506839E+03  0.95052971287E+02 0.  0.
         11    1    3    3    0    0  0.62944577156E+02  0.31699153799E+01 -0.21378289057E+03  0.22287932263E+03  0.00000000000E+00 0. -1.
        -12    1    3    3    0    0 -0.24721237702E+02 -0.14139454937E+02 -0.65813490214E+02  0.71711081944E+02  0.00000000000E+00 0.  1.
        -13    1    4    4    0    0 -0.21324277145E+02 -0.24017438901E+02  0.69495029394E+02  0.76557960249E+02  0.00000000000E+00 0.  1.
         13    1    4    4    0    0 -0.43084967469E+02  0.31177905466E+02 -0.81748807334E+01  0.53807108137E+02  0.00000000000E+00 0. -1.
          4    1    1    2  501    0  0.26185905160E+02  0.38090729920E+01  0.69852083370E+01  0.27367933821E+02  0.00000000000E+00 0. -1.
<scales pt_clust_5="13000.00000" pt_clust_6="13000.00000" pt_clust_7="13000.00000" pt_clust_8="13000.00000" pt_clust_9="26.46149"></scales>
<clustering>
<clus scale="   26.461">  1  9  2 -1</clus>
<clus scale="   83.833">  5  6 -1 -1</clus>
<clus scale="   93.553">  2  5  1 -1</clus>
<clus scale="   95.053">  7  8 -1 -1</clus>
<clus scale="   26.461">  1  5  2 -1</clus>
</clustering>
</event>
<event>
 9    1  0.6014990E-005  0.9169337E+02  0.7546771E-02  0.1309209E+00
         21   -1    0    0  501  502  0.00000000000E+00  0.00000000000E+00  0.47797741478E+02  0.47797741478E+02  0.00000000000E+00 0. -1.
          1   -1    0    0  502    0 -0.00000000000E+00 -0.00000000000E+00 -0.36056751337E+03  0.36056751337E+03  0.00000000000E+00 0. -1.
         23    2    1    2    0    0 -0.13890900877E+02 -0.19117727584E+02 -0.20171974094E+03  0.22200229468E+03  0.89642179393E+02 0.  0.
        -24    2    1    2    0    0 -0.34438704642E+02  0.16757530630E+02 -0.11045043424E+03  0.13797204350E+03  0.73281287889E+02 0.  0.
         11    1    4    4    0    0 -0.47800823700E+02  0.25948733611E+02 -0.10884115166E+03  0.12167436795E+03  0.00000000000E+00 0. -1.
        -12    1    4    4    0    0  0.13362119058E+02 -0.91912029811E+01 -0.16092825821E+01  0.16297675552E+02  0.00000000000E+00 0.  1.
        -11    1    3    3    0    0  0.26425354904E+02  0.74167978015E+01 -0.19942257394E+02  0.33926418930E+02  0.00000000000E+00 0.  1.
         11    1    3    3    0    0 -0.40316255781E+02 -0.26534525385E+02 -0.18177748354E+03  0.18807587575E+03  0.00000000000E+00 0. -1.
          2    1    1    2  501    0  0.48329605519E+02  0.23601969535E+01 -0.59959671955E+00  0.48390916663E+02  0.00000000000E+00 0. -1.
<scales pt_clust_5="13000.00000" pt_clust_6="13000.00000" pt_clust_7="13000.00000" pt_clust_8="13000.00000" pt_clust_9="48.38720"></scales>
<clustering>
<clus scale="   48.387">  1  9  2 -1</clus>
<clus scale="   73.281">  5  6 -1 -1</clus>
<clus scale="   75.777">  1  5  2 -1</clus>
<clus scale="   89.642">  7  8 -1 -1</clus>
<clus scale="   48.387">  1  5  2 -1</clus>
</clustering>
</event>
<event>
 9    1  0.6014990E-005  0.9507410E+02  0.7546771E-02  0.1293173E+00
         -4   -1    0    0    0  501 -0.00000000000E+00  0.00000000000E+00  0.99469822986E+03  0.99469822986E+03  0.00000000000E+00 0.  1.
         21   -1    0    0  501  502  0.00000000000E+00 -0.00000000000E+00 -0.16823091676E+02  0.16823091676E+02  0.00000000000E+00 0.  1.
         23    2    1    2    0    0 -0.26573388906E+02  0.96087187019E+01  0.32681806679E+03  0.33894154791E+03  0.85281015746E+02 0.  0.
        -24    2    1    2    0    0  0.65057431397E+02  0.20041989979E+02  0.29897954139E+03  0.31716624942E+03  0.81064868235E+02 0.  0.
         11    1    4    4    0    0  0.19011417261E+02  0.41685752375E+02  0.20741864151E+03  0.21241852269E+03  0.00000000000E+00 0. -1.
        -12    1    4    4    0    0  0.46046014136E+02 -0.21643762396E+02  0.91560899879E+02  0.10474772673E+03  0.00000000000E+00 0.  1.
        -13    1    3    3    0    0 -0.22369839261E+02 -0.36799114255E+02  0.16764551908E+03  0.17308842996E+03  0.00000000000E+00 0. -1.
         13    1    3    3    0    0 -0.42035496456E+01  0.46407832957E+02  0.15917254771E+03  0.16585311795E+03  0.00000000000E+00 0.  1.
         -3    1    1    2    0  502 -0.38484042491E+02 -0.29650708681E+02  0.35207753000E+03  0.35541352420E+03  0.00000000000E+00 0.  1.
<scales pt_clust_5="13000.00000" pt_clust_6="13000.00000" pt_clust_7="13000.00000" pt_clust_8="13000.00000" pt_clust_9="48.58177"></scales>
<clustering>
<clus scale="   48.582">  2  9  1 -1</clus>
<clus scale="   81.065">  5  6 -1 -1</clus>
<clus scale="   85.281">  7  8 -1 -1</clus>
<clus scale="   91.311">  2  5  1 -1</clus>
<clus scale="   48.582">  2  5  1 -1</clus>
</clustering>
</event>
<event>
 9    1  0.6014990E-005  0.1638104E+03  0.7546771E-02  0.1199762E+00
         21   -1    0    0  501  502  0.00000000000E+00  0.00000000000E+00  0.36789317274E+03  0.36789317274E+03  0.00000000000E+00 0. -1.
          1   -1    0    0  502    0 -0.00000000000E+00 -0.00000000000E+00 -0.46066287578E+03  0.46066287578E+03  0.00000000000E+00 0. -1.
        -24    2    1    2    0    0 -0.54590256674E+02  0.65043889650E+02 -0.34684699392E+03  0.36603678848E+03  0.80431894343E+02 0.  0.
         23    2    1    2    0    0  0.12407332003E+03  0.55431905291E+02 -0.90840380446E+01  0.16486812480E+03  0.92909062856E+02 0.  0.
         13    1    3    3    0    0 -0.10287833500E+02  0.50695589134E+02 -0.27894273560E+03  0.28369866411E+03  0.00000000000E+00 0. -1.
        -14    1    3    3    0    0 -0.44302423174E+02  0.14348300517E+02 -0.67904258320E+02  0.82338124370E+02  0.00000000000E+00 0.  1.
        -13    1    4    4    0    0  0.84596369151E+02  0.79408229290E+02  0.62680306681E+01  0.11619595845E+03  0.00000000000E+00 0. -1.
         13    1    4    4    0    0  0.39476950884E+02 -0.23976323999E+02 -0.15352068713E+02  0.48672166351E+02  0.00000000000E+00 0.  1.
          2    1    1    2  501    0 -0.69483063360E+02 -0.12047579494E+03  0.26316132892E+03  0.29765113523E+03  0.00000000000E+00 0. -1.
<scales pt_clust_5="13000.00000" pt_clust_6="13000.00000" pt_clust_7="13000.00000" pt_clust_8="13000.00000" pt_clust_9="134.91385"></scales>
<clustering>
<clus scale="   80.432">  5  6 -1 -1</clus>
<clus scale="   92.909">  7  8 -1 -1</clus>
<clus scale="  116.962">  2  5  1 -1</clus>
<clus scale="  134.914">  1  9  2 -1</clus>
<clus scale="  134.914">  1  5  2 -1</clus>
</clustering>
</event>
<event>
 9    1  0.6014990E-005  0.1069655E+03  0.7546771E-02  0.1271945E+00
          1   -1    0    0  502    0 -0.00000000000E+00  0.00000000000E+00  0.13792243581E+03  0.13792243581E+03  0.00000000000E+00 0. -1.
         21   -1    0    0  501  502  0.00000000000E+00 -0.00000000000E+00 -0.14894732537E+03  0.14894732537E+03  0.00000000000E+00 0. -1.
         23    2    1    2    0    0  0.11705234234E+02  0.77722521284E+02  0.52048044453E+02  0.13102840437E+03  0.91003521889E+02 0.  0.
        -24    2    1    2    0    0  0.31017712872E+01 -0.17935361775E+02 -0.45281934786E+02  0.91729957612E+02  0.77670028443E+02 0.  0.
         11    1    4    4    0    0 -0.33275589850E+02  0.16056465731E+01 -0.36678642943E+02  0.49549629957E+02  0.00000000000E+00 0. -1.
        -12    1    4    4    0    0  0.36377361137E+02 -0.19541008348E+02 -0.86032918432E+01  0.42180327655E+02  0.00000000000E+00 0.  1.
        -11    1    3    3    0    0 -0.23553080374E+02 -0.24431905768E+01 -0.78277748420E+01  0.24939744070E+02  0.00000000000E+00 0.  1.
         11    1    3    3    0    0  0.35258314608E+02  0.80165711860E+02  0.59875819295E+02  0.10608866030E+03  0.00000000000E+00 0. -1.
          2    1    1    2  501    0 -0.14807005521E+02 -0.59787159508E+02 -0.17790999230E+02  0.64111399206E+02  0.00000000000E+00 0. -1.
<scales pt_clust_5="13000.00000" pt_clust_6="13000.00000" pt_clust_7="13000.00000" pt_clust_8="13000.00000" pt_clust_9="61.59344"></scales>
<clustering>
<clus scale="   61.593">  2  9  1 -1</clus>
<clus scale="   77.670">  5  6 -1 -1</clus>
<clus scale="   91.004">  7  8 -1 -1</clus>
<clus scale="   95.878">  2  5  1 -1</clus>
<clus scale="   61.593">  2  5  1 -1</clus>
</clustering>
</event>
<event>
 9    1  0.6014990E-005  0.3080278E+03  0.7546771E-02  0.1117825E+00
         21   -1    0    0  501  502  0.00000000000E+00  0.00000000000E+00  0.19172493659E+03  0.19172493659E+03  0.00000000000E+00 0. -1.
          3   -1    0    0  502    0 -0.00000000000E+00 -0.00000000000E+00 -0.76278206596E+03  0.76278206596E+03  0.00000000000E+00 0. -1.
        -24    2    1    2    0    0 -0.81626532993E+02 -0.33450877707E+02 -0.39315502092E+02  0.12557282009E+03  0.80255668534E+02 0.  0.
         23    2    1    2    0    0  0.59703150964E+02 -0.27989110465E+03 -0.15541380758E+03  0.33874395361E+03  0.93222946854E+02 0.  0.
         11    1    3    3    0    0 -0.80592015321E+02  0.49804774553E+01 -0.24637616713E+02  0.84420911192E+02  0.00000000000E+00 0. -1.
        -12    1    3    3    0    0 -0.10345176714E+01 -0.38431355162E+02 -0.14677885379E+02  0.41151908894E+02  0.00000000000E+00 0.  1.
        -11    1    4    4    0    0  0.25235042858E+02 -0.19143333350E+03 -0.14843897763E+03  0.24355216821E+03  0.00000000000E+00 0.  1.
         11    1    4    4    0    0  0.34468108106E+02 -0.88457771148E+02 -0.69748299564E+01  0.95191785391E+02  0.00000000000E+00 0. -1.
          4    1    1    2  501    0  0.21923382029E+02  0.31334198236E+03 -0.37632781970E+03  0.49019022885E+03  0.00000000000E+00 0. -1.
<scales pt_clust_5="13000.00000" pt_clust_6="13000.00000" pt_clust_7="13000.00000" pt_clust_8="13000.00000" pt_clust_9="293.58249"></scales>
<clustering>
<clus scale="   80.256">  5  6 -1 -1</clus>
<clus scale="   93.223">  7  8 -1 -1</clus>
<clus scale="  119.260">  2  5  1 -1</clus>
<clus scale="  293.582">  1  9  2 -1</clus>
<clus scale="  293.582">  1  5  2 -1</clus>
</clustering>
</event>
<event>
 9    1  0.6014990E-005  0.1921801E+03  0.7546771E-02  0.1157513E+00
         21   -1    0    0  501  502  0.00000000000E+00  0.00000000000E+00  0.71605086847E+03  0.71605086847E+03  0.00000000000E+00 0. -1.
          3   -1    0    0  502    0 -0.00000000000E+00 -0.00000000000E+00 -0.98963010447E+02  0.98963010447E+02  0.00000000000E+00 0. -1.
         23    2    1    2    0    0 -0.76519395281E+02 -0.17753982095E+03  0.86169388503E+02  0.23044622964E+03  0.91130101299E+02 0.  0.
        -24    2    1    2    0    0  0.68687626379E+02  0.11159963506E+03  0.23353231719E+03  0.27985800336E+03  0.81306151736E+02 0.  0.
         11    1    4    4    0    0  0.44516361953E+02  0.52320217109E+01  0.76349034652E+02  0.88533923583E+02  0.00000000000E+00 0. -1.
        -12    1    4    4    0    0  0.24171264425E+02  0.10636761335E+03  0.15718328254E+03  0.19132407978E+03  0.00000000000E+00 0.  1.
        -13    1    3    3    0    0 -0.64457413582E+02 -0.85894142215E+02  0.51235825263E+01  0.10751191995E+03  0.00000000000E+00 0. -1.
         13    1    3    3    0    0 -0.12061981699E+02 -0.91645678733E+02  0.81045805977E+02  0.12293430969E+03  0.00000000000E+00 0.  1.
          4    1    1    2  501    0  0.78317689025E+01  0.65940185889E+02  0.29738615233E+03  0.30470964592E+03  0.00000000000E+00 0. -1.
<scales pt_clust_5="13000.00000" pt_clust_6="13000.00000" pt_clust_7="13000.00000" pt_clust_8="13000.00000" pt_clust_9="66.40365"></scales>
<clustering>
<clus scale="   66.404">  1  9  2 -1</clus>
<clus scale="   81.306">  5  6 -1 -1</clus>
<clus scale="   91.130">  7  8 -1 -1</clus>
<clus scale="  187.721">  1  5  2 -1</clus>
<clus scale="   66.404">  1  5  2 -1</clus>
</clustering>
</event>
<event>
 9    1  0.6014990E-005  0.1608523E+03  0.7546771E-02  0.1192267E+00
         21   -1    0    0  501  502  0.00000000000E+00  0.00000000000E+00  0.49421868839E+03  0.49421868839E+03  0.00000000000E+00 0.  1.
          1   -1    0    0  502    0 -0.00000000000E+00 -0.00000000000E+00 -0.64411874880E+02  0.64411874880E+02  0.00000000000E+00 0. -1.
         23    2    1    2    0    0 -0.13289890056E+03  0.58072095485E+02  0.15969723198E+03  0.23438760756E+03  0.91650742685E+02 0.  0.
        -24    2    1    2    0    0  0.10270546302E+03 -0.49957509777E+02  0.26156013021E+03  0.29183025311E+03  0.60885384131E+02 0.  0.
         11    1    4    4    0    0  0.67462489246E+02 -0.49946420788E+01  0.10239259261E+03  0.12272072737E+03  0.00000000000E+00 0. -1.
        -12    1    4    4    0    0  0.35242973769E+02 -0.44962867698E+02  0.15916753760E+03  0.16910952574E+03  0.00000000000E+00 0.  1.
        -11    1    3    3    0    0 -0.86997794757E+02  0.79060761447E+01  0.38596332840E+02  0.95502875565E+02  0.00000000000E+00 0. -1.
         11    1    3    3    0    0 -0.45901105799E+02  0.50166019340E+02  0.12110089914E+03  0.13888473200E+03  0.00000000000E+00 0.  1.
          2    1    1    2  501    0  0.30193437541E+02 -0.81145857085E+01  0.85494513267E+01  0.32412702598E+02  0.00000000000E+00 0. -1.
<scales pt_clust_5="13000.00000" pt_clust_6="13000.00000" pt_clust_7="13000.00000" pt_clust_8="13000.00000" pt_clust_9="31.26485"></scales>
<clustering>
<clus scale="   31.265">  1  9  2 -1</clus>
<clus scale="   60.885">  5  6 -1 -1</clus>
<clus scale="   91.651">  7  8 -1 -1</clus>
<clus scale="  145.536">  1  5  2 -1</clus>
<clus scale="   31.265">  1  5  2 -1</clus>
</clustering>
</event>
<event>
 9    1  0.6014990E-005  0.9289216E+02  0.7546771E-02  0.1302873E+00
         21   -1    0    0  501  502  0.00000000000E+00  0.00000000000E+00  0.44638676123E+03  0.44638676123E+03  0.00000000000E+00 0. -1.
          1   -1    0    0  502    0 -0.00000000000E+00 -0.00000000000E+00 -0.19970829040E+03  0.19970829040E+03  0.00000000000E+00 0. -1.
        -24    2    1    2    0    0  0.38864481007E+00 -0.13428249269E+02 -0.16232716505E+03  0.18194264358E+03  0.81071253311E+02 0.  0.
         23    2    1    2    0    0 -0.47961265760E+02 -0.27604952640E+02  0.93702463165E+02  0.14265129040E+03  0.92232980140E+02 0.  0.
         11    1    3    3    0    0  0.10587495774E+02 -0.36275288123E+02 -0.32852717582E+02  0.50072873371E+02  0.00000000000E+00 0. -1.
        -12    1    3    3    0    0 -0.10198850964E+02  0.22847038853E+02 -0.12947444747E+03  0.13186977020E+03  0.00000000000E+00 0.  1.
        -11    1    4    4    0    0 -0.49764946539E+01  0.32720895874E+02  0.34675431944E+02  0.47935457715E+02  0.00000000000E+00 0.  1.
         11    1    4    4    0    0 -0.42984771106E+02 -0.60325848515E+02  0.59027031221E+02  0.94715832683E+02  0.00000000000E+00 0. -1.
          2    1    1    2  501    0  0.47572620950E+02  0.41033201910E+02  0.31530317272E+03  0.32150111765E+03  0.00000000000E+00 0. -1.
<scales pt_clust_5="13000.00000" pt_clust_6="13000.00000" pt_clust_7="13000.00000" pt_clust_8="13000.00000" pt_clust_9="62.82418"></scales>
<clustering>
<clus scale="   62.824">  1  9  2 -1</clus>
<clus scale="   81.071">  5  6 -1 -1</clus>
<clus scale="   81.820">  2  5  1 -1</clus>
<clus scale="   92.233">  7  8 -1 -1</clus>
<clus scale="   62.824">  1  5  2 -1</clus>
</clustering>
</event>
<event>
 9    1  0.6014990E-005  0.1402732E+03  0.7546771E-02  0.1238072E+00
          3   -1    0    0  502    0 -0.00000000000E+00  0.00000000000E+00  0.71724032009E+02  0.71724032009E+02  0.00000000000E+00 0. -1.
         21   -1    0    0  501  502  0.00000000000E+00 -0.00000000000E+00 -0.55401913729E+03  0.55401913729E+03  0.00000000000E+00 0. -1.
        -24    2    1    2    0    0 -0.22748320113E+02 -0.47786728321E+01 -0.66604755178E+02  0.10656981517E+03  0.79878722512E+02 0.  0.
         23    2    1    2    0    0 -0.50602912355E+02 -0.77744757628E+02 -0.52548823082E+02  0.13961797145E+03  0.90149304303E+02 0.  0.
         13    1    3    3    0    0 -0.37721920239E+02  0.25328753609E+02 -0.54208448820E+02  0.70732205885E+02  0.00000000000E+00 0. -1.
        -14    1    3    3    0    0  0.14973600126E+02 -0.30107426441E+02 -0.12396306358E+02  0.35837609281E+02  0.00000000000E+00 0.  1.
        -13    1    4    4    0    0  0.55810853505E+01 -0.37494207733E+02 -0.59080558979E+02  0.70195986897E+02  0.00000000000E+00 0.  1.
         13    1    4    4    0    0 -0.56183997705E+02 -0.40250549896E+02  0.65317358972E+01  0.69421984550E+02  0.00000000000E+00 0. -1.
          4    1    1    2  501    0  0.73351232468E+02  0.82523430461E+02 -0.36314152702E+03  0.37955538269E+03  0.00000000000E+00 0. -1.
<scales pt_clust_5="13000.00000" pt_clust_6="13000.00000" pt_clust_7="13000.00000" pt_clust_8="13000.00000" pt_clust_9="107.46945"></scales>
<clustering>
<clus scale="   79.879">  5  6 -1 -1</clus>
<clus scale="   83.192">  1  5  2 -1</clus>
<clus scale="   90.149">  7  8 -1 -1</clus>
<clus scale="  107.469">  2  9  1 -1</clus>
<clus scale="  107.469">  2  5  1 -1</clus>
</clustering>
</event>
<event>
 9    1  0.6014990E-005  0.2904813E+03  0.7546771E-02  0.1090098E+00
         21   -1    0    0  501  502  0.00000000000E+00  0.00000000000E+00  0.33571225323E+03  0.33571225323E+03  0.00000000000E+00 0.  1.
         -2   -1    0    0    0  501 -0.00000000000E+00 -0.00000000000E+00 -0.23240992169E+03  0.23240992169E+03  0.00000000000E+00 0.  1.
        -24    2    1    2    0    0 -0.11441594647E+03 -0.10153984694E+03 -0.26332961169E+02  0.17499873102E+03  0.80807064606E+02 0.  0.
         23    2    1    2    0    0 -0.65506902024E+02 -0.45206534251E+02 -0.16735835495E+02  0.11865807455E+03  0.86399453205E+02 0.  0.
         13    1    3    3    0    0 -0.62561142791E+02 -0.91243670385E+02 -0.44286540020E+02  0.11916627711E+03  0.00000000000E+00 0. -1.
        -14    1    3    3    0    0 -0.51854803675E+02 -0.10296176558E+02  0.17953578851E+02  0.55832453909E+02  0.00000000000E+00 0.  1.
        -11    1    4    4    0    0  0.39631374740E+01 -0.42779520999E+02  0.10119459088E+02  0.44138388369E+02  0.00000000000E+00 0.  1.
         11    1    4    4    0    0 -0.69470039498E+02 -0.24270132520E+01 -0.26855294583E+02  0.74519686180E+02  0.00000000000E+00 0. -1.
         -1    1    1    2    0  502  0.17992284849E+03  0.14674638119E+03  0.14637112820E+03  0.27446536935E+03  0.00000000000E+00 0.  1.
<scales pt_clust_5="13000.00000" pt_clust_6="13000.00000" pt_clust_7="13000.00000" pt_clust_8="13000.00000" pt_clust_9="232.17823"></scales>
<clustering>
<clus scale="   80.807">  5  6 -1 -1</clus>
<clus scale="   86.399">  7  8 -1 -1</clus>
<clus scale="   87.264">  5  7 -1 -1</clus>
<clus scale="  232.178">  1  9  2 -1</clus>
<clus scale="  232.178">  1  5  2 -1</clus>
</clustering>
</event>
<event>
 9    1  0.6014990E-005  0.1003242E+03  0.7546771E-02  0.1284217E+00
         21   -1    0    0  501  502  0.00000000000E+00  0.00000000000E+00  0.53800607557E+02  0.53800607557E+02  0.00000000000E+00 0. -1.
          3   -1    0    0  502    0 -0.00000000000E+00 -0.00000000000E+00 -0.54316041600E+03  0.54316041600E+03  0.00000000000E+00 0. -1.
        -24    2    1    2    0    0  0.28312414455E+02  0.34610488295E+02 -0.21081517341E+03  0.23014642222E+03  0.80776603094E+02 0.  0.
         23    2    1    2    0    0  0.53511809884E+01 -0.52636070935E+02 -0.21266612920E+02  0.10671819623E+03  0.90207058928E+02 0.  0.
         13    1    3    3    0    0  0.13396405374E+02  0.48281931863E+02 -0.60860274565E+02  0.78832617878E+02  0.00000000000E+00 0. -1.
        -14    1    3    3    0    0  0.14916009081E+02 -0.13671443568E+02 -0.14995489885E+03  0.15131380434E+03  0.00000000000E+00 0.  1.
        -11    1    4    4    0    0 -0.21723121692E+02  0.15466909532E+02  0.79425941931E+01  0.27824523518E+02  0.00000000000E+00 0.  1.
         11    1    4    4    0    0  0.27074302680E+02 -0.68102980467E+02 -0.29209207113E+02  0.78893672714E+02  0.00000000000E+00 0. -1.
          4    1    1    2  501    0 -0.33663595444E+02  0.18025582640E+02 -0.25727802211E+03  0.26009640511E+03  0.00000000000E+00 0. -1.
<scales pt_clust_5="13000.00000" pt_clust_6="13000.00000" pt_clust_7="13000.00000" pt_clust_8="13000.00000" pt_clust_9="38.18587"></scales>
<clustering>
<clus scale="   38.186">  1  9  2 -1</clus>
<clus scale="   80.777">  5  6 -1 -1</clus>
<clus scale="   90.207">  7  8 -1 -1</clus>
<clus scale="   91.937">  2  5  1 -1</clus>
<clus scale="   38.186">  1  5  2 -1</clus>
</clustering>
</event>
<event>
 9    1  0.6014990E-005  0.1346729E+03  0.7546771E-02  0.1238205E+00
         -4   -1    0    0    0  501 -0.00000000000E+00  0.00000000000E+00  0.21102075408E+03  0.21102075408E+03  0.00000000000E+00 0.  1.
         21   -1    0    0  501  502  0.00000000000E+00 -0.00000000000E+00 -0.13590707629E+03  0.13590707629E+03  0.00000000000E+00 0.  1.
         23    2    1    2    0    0 -0.11370537445E+02 -0.24044005265E+02  0.18457783787E+02  0.95553899473E+02  0.89902472776E+02 0.  0.
        -24    2    1    2    0    0 -0.10221663108E+03  0.21665248790E+02  0.31997845426E+02  0.13511679049E+03  0.79467366164E+02 0.  0.
         11    1    4    4    0    0  0.76244403155E+01  0.19480128623E+02  0.90404544815E+00  0.20938595928E+02  0.00000000000E+00 0. -1.
        -12    1    4    4    0    0 -0.10984107140E+03  0.21851201677E+01  0.31093799978E+02  0.11417819456E+03  0.00000000000E+00 0.  1.
        -11    1    3    3    0    0 -0.98544730417E+01 -0.49130382391E+02  0.38675879814E+02  0.63298726624E+02  0.00000000000E+00 0.  1.
         11    1    3    3    0    0 -0.15160644038E+01  0.25086377126E+02 -0.20218096027E+02  0.32255172849E+02  0.00000000000E+00 0. -1.
         -3    1    1    2    0  502  0.11358716853E+03  0.23787564752E+01  0.24658048578E+02  0.11625714041E+03  0.00000000000E+00 0.  1.
<scales pt_clust_5="13000.00000" pt_clust_6="13000.00000" pt_clust_7="13000.00000" pt_clust_8="13000.00000" pt_clust_9="108.72781"></scales>
<clustering>
<clus scale="   79.467">  5  6 -1 -1</clus>
<clus scale="   89.902">  7  8 -1 -1</clus>
<clus scale="   93.754">  1  7  2 -1</clus>
<clus scale="  108.728">  2  9  1 -1</clus>
<clus scale="  108.728">  2  5  1 -1</clus>
</clustering>
</event>
<event>
 9    1  0.6014990E-005  0.1186309E+03  0.7546771E-02  0.1248643E+00
         21   -1    0    0  501  502  0.00000000000E+00  0.00000000000E+00  0.46263185015E+03  0.46263185015E+03  0.00000000000E+00 0. -1.
          3   -1    0    0  502    0 -0.00000000000E+00 -0.00000000000E+00 -0.10381113542E+03  0.10381113542E+03  0.00000000000E+00 0. -1.
         23    2    1    2    0    0  0.31898142182E+02 -0.79706156550E+02 -0.41580905898E+02  0.13234534875E+03  0.91737433655E+02 0.  0.
        -24    2    1    2    0    0 -0.30557074559E+02  0.31362725788E+02  0.13169621070E+03  0.16107477498E+03  0.81754729824E+02 0.  0.
         13    1    4    4    0    0 -0.43080524982E+02 -0.14113720596E+02  0.58761734423E+02  0.74216374030E+02  0.00000000000E+00 0. -1.
        -14    1    4    4    0    0  0.12523450424E+02  0.45476446384E+02  0.72934476272E+02  0.86858400949E+02  0.00000000000E+00 0.  1.
        -11    1    3    3    0    0 -0.17580034847E+02 -0.37358216516E+02 -0.51992408490E+02  0.66392051535E+02  0.00000000000E+00 0. -1.
         11    1    3    3    0    0  0.49478177029E+02 -0.42347940034E+02  0.10411502592E+02  0.65953297214E+02  0.00000000000E+00 0.  1.
          4    1    1    2  501    0 -0.13410676232E+01  0.48343430762E+02  0.26870540993E+03  0.27302286184E+03  0.00000000000E+00 0. -1.
<scales pt_clust_5="13000.00000" pt_clust_6="13000.00000" pt_clust_7="13000.00000" pt_clust_8="13000.00000" pt_clust_9="48.36203"></scales>
<clustering>
<clus scale="   48.362">  1  9  2 -1</clus>
<clus scale="   81.755">  5  6 -1 -1</clus>
<clus scale="   91.737">  7  8 -1 -1</clus>
<clus scale="  111.092">  1  5  2 -1</clus>
<clus scale="   48.362">  1  5  2 -1</clus>
</clustering>
</event>
<event>
 9    1  0.6014990E-005  0.9898635E+02  0.7546771E-02  0.1287611E+00
          1   -1    0    0  502    0 -0.00000000000E+00  0.00000000000E+00  0.14761415380E+03  0.14761415380E+03  0.00000000000E+00 0. -1.
         21   -1    0    0  501  502  0.00000000000E+00 -0.00000000000E+00 -0.91117190382E+02  0.91117190382E+02  0.00000000000E+00 0.  1.
         23    2    1    2    0    0 -0.32109554643E+02  0.10080314781E+02  0.64605876691E+02  0.11688852657E+03  0.91413194314E+02 0.  0.
        -24    2    1    2    0    0  0.46966262665E+02  0.54184721155E+01  0.88083599210E+01  0.94509169829E+02  0.81358504832E+02 0.  0.
         13    1    4    4    0    0  0.63332258984E+02 -0.12372729540E+02  0.20430697513E+02  0.67686578176E+02  0.00000000000E+00 0. -1.
        -14    1    4    4    0    0 -0.16365996319E+02  0.17791201656E+02 -0.11622337592E+02  0.26822591653E+02  0.00000000000E+00 0.  1.
        -13    1    3    3    0    0 -0.37120334947E+02 -0.35614625837E+02  0.34258986477E+02  0.61806140427E+02  0.00000000000E+00 0. -1.
         13    1    3    3    0    0  0.50107803037E+01  0.45694940618E+02  0.30346890214E+02  0.55082386141E+02  0.00000000000E+00 0.  1.
          2    1    1    2  501    0 -0.14856708022E+02 -0.15498786897E+02 -0.16917273198E+02  0.27333647780E+02  0.00000000000E+00 0. -1.
<scales pt_clust_5="13000.00000" pt_clust_6="13000.00000" pt_clust_7="13000.00000" pt_clust_8="13000.00000" pt_clust_9="21.46938"></scales>
<clustering>
<clus scale="   21.469">  2  9  1 -1</clus>
<clus scale="   81.359">  5  6 -1 -1</clus>
<clus scale="   89.784">  2  5  1 -1</clus>
<clus scale="   91.413">  7  8 -1 -1</clus>
<clus scale="   21.469">  2  5  1 -1</clus>
</clustering>
</event>
<event>
 9    1  0.6014990E-005  0.1617104E+03  0.7546771E-02  0.1188576E+00
         -2   -1    0    0    0  501 -0.00000000000E+00  0.00000000000E+00  0.22804955368E+03  0.22804955368E+03  0.00000000000E+00 0.  1.
         21   -1    0    0  501  502  0.00000000000E+00 -0.00000000000E+00 -0.22719741659E+03  0.22719741659E+03  0.00000000000E+00 0.  1.
        -24    2    1    2    0    0  0.12185024162E+03  0.93376836328E+02 -0.20129844255E+02  0.17425835334E+03  0.79962792169E+02 0.  0.
         23    2    1    2    0    0 -0.27289747494E+02 -0.12673388259E+03 -0.39881314716E+02  0.16369104495E+03  0.91640774859E+02 0.  0.
         11    1    3    3    0    0  0.29295173461E+02 -0.11237553402E+02  0.65495371438E+01  0.32052866196E+02  0.00000000000E+00 0. -1.
        -12    1    3    3    0    0  0.92555068163E+02  0.10461438973E+03 -0.26679381399E+02  0.14220548714E+03  0.00000000000E+00 0.  1.
        -13    1    4    4    0    0 -0.59511828301E+02 -0.92637043526E+02 -0.16707119125E+02  0.11136609614E+03  0.00000000000E+00 0.  1.
         13    1    4    4    0    0  0.32222080807E+02 -0.34096839068E+02 -0.23174195591E+02  0.52324948803E+02  0.00000000000E+00 0. -1.
         -1    1    1    2    0  502 -0.94560494130E+02  0.33357046266E+02  0.60863296069E+02  0.11729757199E+03  0.00000000000E+00 0.  1.
<scales pt_clust_5="13000.00000" pt_clust_6="13000.00000" pt_clust_7="13000.00000" pt_clust_8="13000.00000" pt_clust_9="100.27158"></scales>
<clustering>
<clus scale="   79.963">  5  6 -1 -1</clus>
<clus scale="   91.641">  7  8 -1 -1</clus>
<clus scale="  100.272">  2  9  1 -1</clus>
<clus scale="  155.391">  1  5  2 -1</clus>
<clus scale="  100.272">  2  5  1 -1</clus>
</clustering>
</event>
<event>
 9    1  0.6014990E-005  0.2604672E+03  0.7546771E-02  0.1106863E+00
         -2   -1    0    0    0  501 -0.00000000000E+00  0.00000000000E+00  0.29858622933E+03  0.29858622933E+03  0.00000000000E+00 0.  1.
         21   -1    0    0  501  502  0.00000000000E+00 -0.00000000000E+00 -0.16767438722E+03  0.16767438722E+03  0.00000000000E+00 0.  1.
        -24    2    1    2    0    0  0.11023266969E+03 -0.71513573698E+02  0.11801543816E+03  0.19373099995E+03  0.79615475909E+02 0.  0.
         23    2    1    2    0    0  0.28940064970E+02 -0.32998828669E+02  0.14432574966E+02  0.98477175812E+02  0.86965538472E+02 0.  0.
         13    1    3    3    0    0  0.65399481718E+02 -0.27693062021E+02  0.14157436808E+02  0.72418443163E+02  0.00000000000E+00 0. -1.
        -14    1    3    3    0    0  0.44833187975E+02 -0.43820511676E+02  0.10385800136E+03  0.12131255678E+03  0.00000000000E+00 0.  1.
        -11    1    4    4    0    0 -0.20337312074E+02 -0.39704242955E+02  0.19100823624E+02  0.48527050540E+02  0.00000000000E+00 0. -1.
         11    1    4    4    0    0  0.49277377044E+02  0.67054142858E+01 -0.46682486577E+01  0.49950125271E+02  0.00000000000E+00 0.  1.
         -1    1    1    2    0  502 -0.13917273466E+03  0.10451240237E+03 -0.15361710248E+01  0.17405244079E+03  0.00000000000E+00 0.  1.
<scales pt_clust_5="13000.00000" pt_clust_6="13000.00000" pt_clust_7="13000.00000" pt_clust_8="13000.00000" pt_clust_9="174.04566"></scales>
<clustering>
<clus scale="   79.615">  5  6 -1 -1</clus>
<clus scale="   86.966">  7  8 -1 -1</clus>
<clus scale="   94.805">  5  7 -1 -1</clus>
<clus scale="  174.046">  2  9  1 -1</clus>
<clus scale="  174.046">  2  5  1 -1</clus>
</clustering>
</event>
<event>
 9    1  0.6014990E-005  0.1510741E+03  0.7546771E-02  0.1201220E+00
          1   -1    0    0  502    0 -0.00000000000E+00  0.00000000000E+00  0.35958302532E+03  0.35958302532E+03  0.00000000000E+00 0. -1.
         21   -1    0    0  501  502  0.00000000000E+00 -0.00000000000E+00 -0.12707198977E+03  0.12707198977E+03  0.00000000000E+00 0.  1.
         23    2    1    2    0    0 -0.11885468043E+03 -0.75110464124E+02  0.73266305588E+02  0.18310857448E+03  0.91612126017E+02 0.  0.
        -24    2    1    2    0    0  0.83123634971E+02  0.45016195920E+02 -0.13375610044E+02  0.12471648122E+03  0.80245231365E+02 0.  0.
         13    1    4    4    0    0  0.23553525063E+02 -0.21092671710E+02  0.91618948595E+01  0.32918226869E+02  0.00000000000E+00 0. -1.
        -14    1    4    4    0    0  0.59570109908E+02  0.66108867630E+02 -0.22537504903E+02  0.91798254347E+02  0.00000000000E+00 0.  1.
        -13    1    3    3    0    0 -0.23970446121E+02  0.86029324114E+01 -0.14320579646E+02  0.29217661349E+02  0.00000000000E+00 0. -1.
         13    1    3    3    0    0 -0.94884234311E+02 -0.83713396535E+02  0.87586885234E+02  0.15389091313E+03  0.00000000000E+00 0.  1.
          2    1    1    2  501    0  0.35731045461E+02  0.30094268204E+02  0.17262034001E+03  0.17882995938E+03  0.00000000000E+00 0. -1.
<scales pt_clust_5="13000.00000" pt_clust_6="13000.00000" pt_clust_7="13000.00000" pt_clust_8="13000.00000" pt_clust_9="46.71589"></scales>
<clustering>
<clus scale="   46.716">  2  9  1 -1</clus>
<clus scale="   80.245">  5  6 -1 -1</clus>
<clus scale="   91.612">  7  8 -1 -1</clus>
<clus scale="  144.464">  2  5  1 -1</clus>
<clus scale="   46.716">  2  5  1 -1</clus>
</clustering>
</event>
<event>
 9    1  0.6014990E-005  0.3329987E+03  0.7546771E-02  0.1101382E+00
         21   -1    0    0  501  502  0.00000000000E+00  0.00000000000E+00  0.13151966772E+03  0.13151966772E+03  0.00000000000E+00 0. -1.
          1   -1    0    0  502    0 -0.00000000000E+00 -0.00000000000E+00 -0.13345938185E+04  0.13345938185E+04  0.00000000000E+00 0. -1.
        -24    2    1    2    0    0 -0.62791665469E+02 -0.10064182706E+03 -0.17751421121E+03  0.22828731282E+03  0.80822220987E+02 0.  0.
         23    2    1    2    0    0  0.21556062262E+03  0.33417066599E+03 -0.68601010250E+03  0.79831716924E+03  0.92542022591E+02 0.  0.
         13    1    3    3    0    0 -0.15444976983E+02 -0.93939807800E+02 -0.10878166162E+03  0.14455685632E+03  0.00000000000E+00 0. -1.
        -14    1    3    3    0    0 -0.47346688486E+02 -0.67020192647E+01 -0.68732549596E+02  0.83730456506E+02  0.00000000000E+00 0.  1.
        -11    1    4    4    0    0  0.17225264465E+03  0.19714668626E+03 -0.39696570801E+03  0.47552030748E+03  0.00000000000E+00 0. -1.
         11    1    4    4    0    0  0.43307977970E+02  0.13702397974E+03 -0.28904439449E+03  0.32279686176E+03  0.00000000000E+00 0.  1.
          2    1    1    2  501    0 -0.15276895715E+03 -0.23352883893E+03 -0.33954983708E+03  0.43950900417E+03  0.00000000000E+00 0. -1.
<scales pt_clust_5="13000.00000" pt_clust_6="13000.00000" pt_clust_7="13000.00000" pt_clust_8="13000.00000" pt_clust_9="319.88137"></scales>
<clustering>
<clus scale="   80.822">  5  6 -1 -1</clus>
<clus scale="   92.542">  7  8 -1 -1</clus>
<clus scale="  143.540">  2  5  1 -1</clus>
<clus scale="  319.881">  1  9  2 -1</clus>
<clus scale="  319.881">  1  5  2 -1</clus>
</clustering>
</event>
<event>
 9    1  0.6014990E-005  0.9695337E+02  0.7546771E-02  0.1292456E+00
         21   -1    0    0  501  502  0.00000000000E+00  0.00000000000E+00  0.14909964855E+03  0.14909964855E+03  0.00000000000E+00 0.  1.
         -2   -1    0    0    0  501 -0.00000000000E+00 -0.00000000000E+00 -0.19693829839E+03  0.19693829839E+03  0.00000000000E+00 0.  1.
        -24    2    1    2    0    0  0.15957294530E+02 -0.42207739513E+02 -0.63281256597E+02  0.11252134440E+03  0.81365883431E+02 0.  0.
         23    2    1    2    0    0  0.56275688704E+02  0.83085775580E+01 -0.60211721651E+02  0.12356054562E+03  0.91682994109E+02 0.  0.
         13    1    3    3    0    0  0.12299249773E+02  0.23015916884E+02 -0.90580853966E+01  0.27623411919E+02  0.00000000000E+00 0. -1.
        -14    1    3    3    0    0  0.36580447573E+01 -0.65223656397E+02 -0.54223171200E+02  0.84897932485E+02  0.00000000000E+00 0.  1.
        -11    1    4    4    0    0 -0.80183177534E+01 -0.30056921480E+02 -0.75114308774E+01  0.32002086530E+02  0.00000000000E+00 0.  1.
         11    1    4    4    0    0  0.64294006457E+02  0.38365499038E+02 -0.52700290773E+02  0.91558459086E+02  0.00000000000E+00 0. -1.
         -1    1    1    2    0  502 -0.72232983234E+02  0.33899161955E+02  0.75654328406E+02  0.10995605693E+03  0.00000000000E+00 0.  1.
<scales pt_clust_5="13000.00000" pt_clust_6="13000.00000" pt_clust_7="13000.00000" pt_clust_8="13000.00000" pt_clust_9="79.79196"></scales>
<clustering>
<clus scale="   79.792">  1  9  2 -1</clus>
<clus scale="   81.366">  5  6 -1 -1</clus>
<clus scale="   87.262">  2  5  1 -1</clus>
<clus scale="   91.683">  7  8 -1 -1</clus>
<clus scale="   79.792">  1  5  2 -1</clus>
</clustering>
</event>
<event>
 9    1  0.6014990E-005  0.9950375E+02  0.7546771E-02  0.1284564E+00
         21   -1    0    0  501  502  0.00000000000E+00  0.00000000000E+00  0.37665738726E+03  0.37665738726E+03  0.00000000000E+00 0.  1.
         -2   -1    0    0    0  501 -0.00000000000E+00 -0.00000000000E+00 -0.71352290986E+02  0.71352290986E+02  0.00000000000E+00 0.  1.
        -24    2    1    2    0    0  0.26218439659E+02  0.51880019522E+02 -0.35751839699E+01  0.10052617521E+03  0.81937701694E+02 0.  0.
         23    2    1    2    0    0 -0.19971860560E+02  0.14753003540E+02  0.16946680041E+03  0.19283843239E+03  0.88606648957E+02 0.  0.
         11    1    3    3    0    0  0.18863031526E+02 -0.18271442222E+02  0.11047388272E+02  0.28490425529E+02  0.00000000000E+00 0. -1.
        -12    1    3    3    0    0  0.73554081330E+01  0.70151461744E+02 -0.14622572241E+02  0.72035749684E+02  0.00000000000E+00 0.  1.
        -13    1    4    4    0    0  0.24638216177E+02 -0.70360077700E+01  0.13096808154E+02  0.28776266011E+02  0.00000000000E+00 0. -1.
         13    1    4    4    0    0 -0.44610076737E+02  0.21789011310E+02  0.15636999225E+03  0.16406216638E+03  0.00000000000E+00 0.  1.
         -1    1    1    2    0  502 -0.62465790982E+01 -0.66633023062E+02  0.13941347984E+03  0.15464507064E+03  0.00000000000E+00 0.  1.
<scales pt_clust_5="13000.00000" pt_clust_6="13000.00000" pt_clust_7="13000.00000" pt_clust_8="13000.00000" pt_clust_9="66.92518"></scales>
<clustering>
<clus scale="   66.925">  1  9  2 -1</clus>
<clus scale="   81.938">  5  6 -1 -1</clus>
<clus scale="   88.607">  7  8 -1 -1</clus>
<clus scale="   93.614">  2  5  1 -1</clus>
<clus scale="   66.925">  1  5  2 -1</clus>
</clustering>
</event>
<event>
 9    1  0.6014990E-005  0.1680653E+03  0.7546771E-02  0.1212351E+00
          1   -1    0    0  502    0 -0.00000000000E+00  0.00000000000E+00  0.13918693197E+04  0.13918693197E+04  0.00000000000E+00 0. -1.
         21   -1    0    0  501  502  0.00000000000E+00 -0.00000000000E+00 -0.35259140587E+02  0.35259140587E+02  0.00000000000E+00 0.  1.
        -24    2    1    2    0    0 -0.13368334562E+02 -0.52301759314E+00  0.18285952766E+03  0.20065971732E+03  0.81533608905E+02 0.  0.
         23    2    1    2    0    0 -0.12248694647E+03 -0.61991407989E+02  0.32403715042E+03  0.36369545605E+03  0.91805899474E+02 0.  0.
         13    1    3    3    0    0 -0.46262730652E+02  0.73630338882E+01  0.12690659387E+03  0.13527652451E+03  0.00000000000E+00 0. -1.
        -14    1    3    3    0    0  0.32894396090E+02 -0.78860514813E+01  0.55952933792E+02  0.65383192810E+02  0.00000000000E+00 0.  1.
        -13    1    4    4    0    0 -0.12311398774E+03 -0.22086837679E+02  0.23862881384E+03  0.26942270351E+03  0.00000000000E+00 0.  1.
         13    1    4    4    0    0  0.62704127222E+00 -0.39904570310E+02  0.85408336582E+02  0.94272752533E+02  0.00000000000E+00 0. -1.
          2    1    1    2  501    0  0.13585528103E+03  0.62514425582E+02  0.84971350100E+03  0.86277328689E+03  0.00000000000E+00 0. -1.
<scales pt_clust_5="13000.00000" pt_clust_6="13000.00000" pt_clust_7="13000.00000" pt_clust_8="13000.00000" pt_clust_9="140.77512"></scales>
<clustering>
<clus scale="   81.534">  5  6 -1 -1</clus>
<clus scale="   82.624">  1  5  2 -1</clus>
<clus scale="   91.806">  7  8 -1 -1</clus>
<clus scale="  140.775">  2  9  1 -1</clus>
<clus scale="  140.775">  2  5  1 -1</clus>
</clustering>
</event>
<event>
 9    1  0.6014990E-005  0.1010495E+03  0.7546771E-02  0.1288070E+00
         21   -1    0    0  501  502  0.00000000000E+00  0.00000000000E+00  0.45875248248E+03  0.45875248248E+03  0.00000000000E+00 0. -1.
          3   -1    0    0  502    0 -0.00000000000E+00 -0.00000000000E+00 -0.53466434726E+02  0.53466434726E+02  0.00000000000E+00 0. -1.
        -24    2    1    2    0    0  0.13109469772E+02 -0.23969782699E+02  0.15478495763E+02  0.86348662560E+02  0.80436925690E+02 0.  0.
         23    2    1    2    0    0  0.33730087357E+02  0.19026912249E+02  0.16347908479E+03  0.19469293927E+03  0.98387942625E+02 0.  0.
         11    1    3    3    0    0  0.20552007649E+02  0.82972794415E+00 -0.28599825189E+02  0.35228162991E+02  0.00000000000E+00 0. -1.
        -12    1    3    3    0    0 -0.74425378768E+01 -0.24799510643E+02  0.44078320952E+02  0.51120499569E+02  0.00000000000E+00 0.  1.
        -11    1    4    4    0    0  0.40342216567E+01  0.22292193862E+02 -0.53199818649E+01  0.23270562061E+02  0.00000000000E+00 0.  1.
         11    1    4    4    0    0  0.29695865701E+02 -0.32652816138E+01  0.16879906665E+03  0.17142237721E+03  0.00000000000E+00 0. -1.
          4    1    1    2  501    0 -0.46839557129E+02  0.49428704504E+01  0.22632846720E+03  0.23117731538E+03  0.00000000000E+00 0. -1.
<scales pt_clust_5="13000.00000" pt_clust_6="13000.00000" pt_clust_7="13000.00000" pt_clust_8="13000.00000" pt_clust_9="47.09964"></scales>
<clustering>
<clus scale="   47.100">  1  9  2 -1</clus>
<clus scale="   80.437">  5  6 -1 -1</clus>
<clus scale="   83.671">  2  5  1 -1</clus>
<clus scale="   98.388">  7  8 -1 -1</clus>
<clus scale="   47.100">  1  5  2 -1</clus>
</clustering>
</event>
<event>
 9    1  0.6014990E-005  0.1004604E+03  0.7546771E-02  0.1283249E+00
         21   -1    0    0  501  502  0.00000000000E+00  0.00000000000E+00  0.11730966115E+03  0.11730966115E+03  0.00000000000E+00 0. -1.
          1   -1    0    0  502    0 -0.00000000000E+00 -0.00000000000E+00 -0.23495236287E+03  0.23495236287E+03  0.00000000000E+00 0. -1.
         23    2    1    2    0    0  0.87567199208E+01 -0.44391504700E+02 -0.87465050236E+02  0.13374419323E+03  0.90499107051E+02 0.  0.
        -24    2    1    2    0    0 -0.74289837562E+02  0.10253581511E+02  0.38238299459E+02  0.11781664087E+03  0.82428620159E+02 0.  0.
         13    1    4    4    0    0 -0.48275238944E+02  0.34204521515E+02 -0.78962282338E+01  0.59689181662E+02  0.00000000000E+00 0. -1.
        -14    1    4    4    0    0 -0.26014598618E+02 -0.23950940004E+02  0.46134527693E+02  0.58127459207E+02  0.00000000000E+00 0.  1.
        -11    1    3    3    0    0 -0.24618849567E+02 -0.16266005869E+02 -0.85059283274E+02  0.90031951950E+02  0.00000000000E+00 0. -1.
         11    1    3    3    0    0  0.33375569488E+02 -0.28125498831E+02 -0.24057669622E+01  0.43712241281E+02  0.00000000000E+00 0.  1.
          2    1    1    2  501    0  0.65533117641E+02  0.34137923189E+02 -0.68415950939E+02  0.10070118992E+03  0.00000000000E+00 0. -1.
<scales pt_clust_5="13000.00000" pt_clust_6="13000.00000" pt_clust_7="13000.00000" pt_clust_8="13000.00000" pt_clust_9="73.89176"></scales>
<clustering>
<clus scale="   73.892">  1  9  2 -1</clus>
<clus scale="   82.429">  5  6 -1 -1</clus>
<clus scale="   90.499">  7  8 -1 -1</clus>
<clus scale="   93.256">  1  5  2 -1</clus>
<clus scale="   73.892">  1  5  2 -1</clus>
</clustering>
</event>
<event>
 9    1  0.6014990E-005  0.9761207E+02  0.7546771E-02  0.1292887E+00
         21   -1    0    0  501  502  0.00000000000E+00  0.00000000000E+00  0.37330087373E+02  0.37330087373E+02  0.00000000000E+00 0.  1.
          3   -1    0    0  502    0 -0.00000000000E+00 -0.00000000000E+00 -0.74498982665E+03  0.74498982665E+03  0.00000000000E+00 0. -1.
        -24    2    1    2    0    0 -0.18538924838E+02  0.14685167484E+02 -0.52590706803E+03  0.53246480200E+03  0.79882258899E+02 0.  0.
         23    2    1    2    0    0  0.69500645485E+02 -0.74524030574E+00 -0.14276673792E+03  0.18419445761E+03  0.93350745317E+02 0.  0.
         13    1    3    3    0    0 -0.42573593156E+02  0.30046797499E+02 -0.27079769530E+03  0.27576568433E+03  0.00000000000E+00 0. -1.
        -14    1    3    3    0    0  0.24034668318E+02 -0.15361630015E+02 -0.25510937272E+03  0.25669911766E+03  0.00000000000E+00 0.  1.
        -13    1    4    4    0    0  0.89293029935E+02 -0.11568688054E+02 -0.13040963496E+03  0.15847319215E+03  0.00000000000E+00 0.  1.
         13    1    4    4    0    0 -0.19792384450E+02  0.10823447748E+02 -0.12357102956E+02  0.25721265460E+02  0.00000000000E+00 0. -1.
          4    1    1    2  501    0 -0.50961720647E+02 -0.13939927178E+02 -0.38985933333E+02  0.65660654420E+02  0.00000000000E+00 0. -1.
<scales pt_clust_5="13000.00000" pt_clust_6="13000.00000" pt_clust_7="13000.00000" pt_clust_8="13000.00000" pt_clust_9="52.83388"></scales>
<clustering>
<clus scale="   52.834">  1  9  2 -1</clus>
<clus scale="   79.882">  5  6 -1 -1</clus>
<clus scale="   84.823">  2  5  1 -1</clus>
<clus scale="   93.351">  7  8 -1 -1</clus>
<clus scale="   52.834">  1  5  2 -1</clus>
</clustering>
</event>
<event>
 9    1  0.6014990E-005  0.1704728E+03  0.7546771E-02  0.1183407E+00
          1   -1    0    0  502    0 -0.00000000000E+00  0.00000000000E+00  0.30872743714E+03  0.30872743714E+03  0.00000000000E+00 0. -1.
         21   -1    0    0  501  502  0.00000000000E+00 -0.00000000000E+00 -0.44384928155E+03  0.44384928155E+03  0.00000000000E+00 0. -1.
         23    2    1    2    0    0  0.43626637567E+02  0.11090317677E+03  0.35634806568E+02  0.15301338609E+03  0.89109251826E+02 0.  0.
        -24    2    1    2    0    0 -0.12893283778E+03  0.19161066918E+02  0.16766365725E+03  0.22710909340E+03  0.80477420450E+02 0.  0.
         11    1    4    4    0    0 -0.12869504341E+03  0.23022567252E+02  0.17522022807E+03  0.21861971806E+03  0.00000000000E+00 0. -1.
        -12    1    4    4    0    0 -0.23779437376E+00 -0.38615003331E+01 -0.75565708278E+01  0.84893753399E+01  0.00000000000E+00 0.  1.
        -11    1    3    3    0    0  0.66001425438E+02  0.54437139669E+02  0.69310696629E+01  0.85834900022E+02  0.00000000000E+00 0. -1.
         11    1    3    3    0    0 -0.22374787871E+02  0.56466037103E+02  0.28703736906E+02  0.67178486070E+02  0.00000000000E+00 0.  1.
          2    1    1    2  501    0  0.85306200213E+02 -0.13006424369E+03 -0.33842030822E+03  0.37245423920E+03  0.00000000000E+00 0. -1.
<scales pt_clust_5="13000.00000" pt_clust_6="13000.00000" pt_clust_7="13000.00000" pt_clust_8="13000.00000" pt_clust_9="150.28096"></scales>
<clustering>
<clus scale="   80.477">  5  6 -1 -1</clus>
<clus scale="   89.109">  7  8 -1 -1</clus>
<clus scale="  148.806">  1  7  2 -1</clus>
<clus scale="  150.281">  2  9  1 -1</clus>
<clus scale="  150.281">  2  5  1 -1</clus>
</clustering>
</event>
<event>
 9    1  0.6014990E-005  0.1361407E+03  0.7546771E-02  0.1220838E+00
         21   -1    0    0  501  502  0.00000000000E+00  0.00000000000E+00  0.77302471257E+02  0.77302471257E+02  0.00000000000E+00 0.  1.
          1   -1    0    0  502    0 -0.00000000000E+00 -0.00000000000E+00 -0.51490562084E+03  0.51490562084E+03  0.00000000000E+00 0. -1.
        -24    2    1    2    0    0  0.66587500628E+02 -0.18217656451E+02 -0.82978685084E+02  0.13518303505E+03  0.81383121971E+02 0.  0.
         23    2    1    2    0    0 -0.14789865375E+03 -0.48092711493E+02 -0.19028169719E+03  0.26204527941E+03  0.90959790551E+02 0.  0.
         13    1    3    3    0    0  0.64484003570E+02 -0.20615431603E+02 -0.98397793258E+02  0.11943746671E+03  0.00000000000E+00 0. -1.
        -14    1    3    3    0    0  0.21034970583E+01  0.23977751524E+01  0.15419108174E+02  0.15745568342E+02  0.00000000000E+00 0.  1.
        -11    1    4    4    0    0 -0.12560813051E+03 -0.19462244162E+02 -0.18631768151E+03  0.22554480672E+03  0.00000000000E+00 0.  1.
         11    1    4    4    0    0 -0.22290523241E+02 -0.28630467331E+02 -0.39640156776E+01  0.36500472685E+02  0.00000000000E+00 0. -1.
          2    1    1    2  501    0  0.81311153120E+02  0.66310367944E+02 -0.16434276732E+03  0.19497977764E+03  0.00000000000E+00 0. -1.
<scales pt_clust_5="13000.00000" pt_clust_6="13000.00000" pt_clust_7="13000.00000" pt_clust_8="13000.00000" pt_clust_9="104.92178"></scales>
<clustering>
<clus scale="   81.383">  5  6 -1 -1</clus>
<clus scale="   90.960">  7  8 -1 -1</clus>
<clus scale="  104.922">  1  9  2 -1</clus>
<clus scale="  129.938">  2  5  1 -1</clus>
<clus scale="  104.922">  1  5  2 -1</clus>
</clustering>
</event>
<event>
 9    1  0.6014990E-005  0.1070257E+03  0.7546771E-02  0.1270629E+00
         21   -1    0    0  501  502  0.00000000000E+00  0.00000000000E+00  0.29839774679E+03  0.29839774679E+03  0.00000000000E+00 0. -1.
          1   -1    0    0  502    0 -0.00000000000E+00 -0.00000000000E+00 -0.17619164700E+03  0.17619164700E+03  0.00000000000E+00 0. -1.
         23    2    1    2    0    0 -0.51215790693E+02  0.31868113582E+02 -0.13621885638E+03  0.17457572157E+03  0.91008086733E+02 0.  0.
        -24    2    1    2    0    0  0.35900166222E+02 -0.94139194813E+01  0.79435940848E+02  0.11897271886E+03  0.80417630646E+02 0.  0.
         13    1    4    4    0    0  0.43021630896E+02 -0.30186653097E+01  0.44252815007E+01  0.43353848521E+02  0.00000000000E+00 0. -1.
        -14    1    4    4    0    0 -0.71214646739E+01 -0.63952541715E+01  0.75010659347E+02  0.75618870335E+02  0.00000000000E+00 0.  1.
        -13    1    3    3    0    0 -0.12835327931E+02 -0.27459792026E+02 -0.13971874644E+02  0.33376625088E+02  0.00000000000E+00 0.  1.
         13    1    3    3    0    0 -0.38380462762E+02  0.59327905608E+02 -0.12224698173E+03  0.14119909649E+03  0.00000000000E+00 0. -1.
          2    1    1    2  501    0  0.15315624471E+02 -0.22454194101E+02  0.17898901532E+03  0.18104095335E+03  0.00000000000E+00 0. -1.
<scales pt_clust_5="13000.00000" pt_clust_6="13000.00000" pt_clust_7="13000.00000" pt_clust_8="13000.00000" pt_clust_9="27.18012"></scales>
<clustering>
<clus scale="   27.180">  1  9  2 -1</clus>
<clus scale="   80.418">  5  6 -1 -1</clus>
<clus scale="   91.008">  7  8 -1 -1</clus>
<clus scale="   98.178">  1  5  2 -1</clus>
<clus scale="   27.180">  1  5  2 -1</clus>
</clustering>
</event>
<event>
 9    1  0.6014990E-005  0.1000087E+03  0.7546771E-02  0.1287235E+00
          1   -1    0    0  502    0 -0.00000000000E+00  0.00000000000E+00  0.56198267925E+03  0.56198267925E+03  0.00000000000E+00 0. -1.
         21   -1    0    0  501  502  0.00000000000E+00 -0.00000000000E+00 -0.40240045388E+02  0.40240045388E+02  0.00000000000E+00 0. -1.
         23    2    1    2    0    0  0.26636647656E+02  0.26291771489E+01  0.22067003920E+03  0.24083486778E+03  0.92680870548E+02 0.  0.
        -24    2    1    2    0    0 -0.61113123562E+02 -0.35170625578E+02  0.73748275580E+02  0.12917261339E+03  0.79214702694E+02 0.  0.
         13    1    4    4    0    0 -0.66570894928E+02 -0.13607598610E+02  0.19729829351E+02  0.70753918320E+02  0.00000000000E+00 0. -1.
        -14    1    4    4    0    0  0.54577713654E+01 -0.21563026968E+02  0.54018446229E+02  0.58418695066E+02  0.00000000000E+00 0.  1.
        -11    1    3    3    0    0  0.33262431107E+02 -0.36856314024E+02  0.16469198262E+03  0.17201228545E+03  0.00000000000E+00 0.  1.
         11    1    3    3    0    0 -0.66257834509E+01  0.39485491173E+02  0.55978056578E+02  0.68822582324E+02  0.00000000000E+00 0. -1.
          2    1    1    2  501    0  0.34476475906E+02  0.32541448429E+02  0.22732431908E+03  0.23221524348E+03  0.00000000000E+00 0. -1.
<scales pt_clust_5="13000.00000" pt_clust_6="13000.00000" pt_clust_7="13000.00000" pt_clust_8="13000.00000" pt_clust_9="47.40860"></scales>
<clustering>
<clus scale="   47.409">  2  9  1 -1</clus>
<clus scale="   79.215">  5  6 -1 -1</clus>
<clus scale="   87.675">  2  5  1 -1</clus>
<clus scale="   92.681">  7  8 -1 -1</clus>
<clus scale="   47.409">  2  5  1 -1</clus>
</clustering>
</event>
<event>
 9    1  0.6014990E-005  0.9352648E+02  0.7546771E-02  0.1300232E+00
          3   -1    0    0  502    0 -0.00000000000E+00  0.00000000000E+00  0.33678263643E+03  0.33678263643E+03  0.00000000000E+00 0. -1.
         21   -1    0    0  501  502  0.00000000000E+00 -0.00000000000E+00 -0.46874566993E+02  0.46874566993E+02  0.00000000000E+00 0.  1.
         23    2    1    2    0    0 -0.68937030014E+01  0.26562893755E+02  0.22965302624E+03  0.24857050651E+03  0.91069609514E+02 0.  0.
        -24    2    1    2    0    0  0.14265632495E+02 -0.42238235212E+01  0.71166473496E+02  0.10915527361E+03  0.81417798123E+02 0.  0.
         11    1    4    4    0    0  0.42358223542E+02 -0.14625367348E+02  0.64378863252E+02  0.78439521323E+02  0.00000000000E+00 0. -1.
        -12    1    4    4    0    0 -0.28092591047E+02  0.10401543826E+02  0.67876102440E+01  0.30715752287E+02  0.00000000000E+00 0.  1.
        -11    1    3    3    0    0 -0.26594775860E+02  0.46323414968E+02  0.20326304448E+03  0.21016423609E+03  0.00000000000E+00 0.  1.
         11    1    3    3    0    0  0.19701072859E+02 -0.19760521213E+02  0.26389981763E+02  0.38406270424E+02  0.00000000000E+00 0. -1.
          4    1    1    2  501    0 -0.73719294935E+01 -0.22339070234E+02 -0.10911430304E+02  0.25931423306E+02  0.00000000000E+00 0. -1.
<scales pt_clust_5="13000.00000" pt_clust_6="13000.00000" pt_clust_7="13000.00000" pt_clust_8="13000.00000" pt_clust_9="23.52402"></scales>
<clustering>
<clus scale="   23.524">  2  9  1 -1</clus>
<clus scale="   81.418">  5  6 -1 -1</clus>
<clus scale="   84.157">  2  5  1 -1</clus>
<clus scale="   91.070">  7  8 -1 -1</clus>
<clus scale="   23.524">  2  5  1 -1</clus>
</clustering>
</event>
<event>
 9    1  0.6014990E-005  0.2080907E+03  0.7546771E-02  0.1175533E+00
          1   -1    0    0  502    0 -0.00000000000E+00  0.00000000000E+00  0.81411075588E+03  0.81411075588E+03  0.00000000000E+00 0. -1.
         21   -1    0    0  501  502  0.00000000000E+00 -0.00000000000E+00 -0.76808730225E+02  0.76808730225E+02  0.00000000000E+00 0. -1.
        -24    2    1    2    0    0  0.17930928155E+02  0.52545756168E+02  0.11237185604E+03  0.14888607761E+03  0.80355805022E+02 0.  0.
         23    2    1    2    0    0  0.97463213674E+00  0.15617028967E+03  0.36969385045E+03  0.41178291778E+03  0.92203682295E+02 0.  0.
         13    1    3    3    0    0 -0.47918933311E+01  0.24433099501E+02 -0.55829163369E+01  0.25516809121E+02  0.00000000000E+00 0. -1.
        -14    1    3    3    0    0  0.22722821486E+02  0.28112656667E+02  0.11795477238E+03  0.12336926849E+03  0.00000000000E+00 0.  1.
        -13    1    4    4    0    0  0.43143937836E+02  0.93984418893E+02  0.17755455479E+03  0.20547527903E+03  0.00000000000E+00 0. -1.
         13    1    4    4    0    0 -0.42169305699E+02  0.62185870776E+02  0.19213929566E+03  0.20630763875E+03  0.00000000000E+00 0.  1.
          2    1    1    2  501    0 -0.18905560291E+02 -0.20871604584E+03  0.25523631917E+03  0.33025049072E+03  0.00000000000E+00 0. -1.
<scales pt_clust_5="13000.00000" pt_clust_6="13000.00000" pt_clust_7="13000.00000" pt_clust_8="13000.00000" pt_clust_9="186.54813"></scales>
<clustering>
<clus scale="   80.356">  5  6 -1 -1</clus>
<clus scale="   92.204">  7  8 -1 -1</clus>
<clus scale="   97.671">  1  5  2 -1</clus>
<clus scale="  186.548">  2  9  1 -1</clus>
<clus scale="  186.548">  2  5  1 -1</clus>
</clustering>
</event>
<event>
 9    1  0.6014990E-005  0.9449582E+02  0.7546771E-02  0.1298065E+00
         -2   -1    0    0    0  501 -0.00000000000E+00  0.00000000000E+00  0.32228124702E+03  0.32228124702E+03  0.00000000000E+00 0.  1.
         21   -1    0    0  501  502  0.00000000000E+00 -0.00000000000E+00 -0.17030083534E+03  0.17030083534E+03  0.00000000000E+00 0.  1.
        -24    2    1    2    0    0  0.11906416381E+02 -0.25138144945E+02  0.26951295914E+03  0.28275295847E+03  0.80859825001E+02 0.  0.
         23    2    1    2    0    0  0.50147272404E+02  0.11999225193E+02 -0.98550980289E+02  0.14362042811E+03  0.90861440229E+02 0.  0.
         11    1    3    3    0    0 -0.33844552916E+02 -0.16186495992E+02  0.95528930030E+02  0.10263153944E+03  0.00000000000E+00 0. -1.
        -12    1    3    3    0    0  0.45750969297E+02 -0.89516489530E+01  0.17398402911E+03  0.18012141903E+03  0.00000000000E+00 0.  1.
        -13    1    4    4    0    0  0.18705579974E+02 -0.73639662129E+01 -0.10432651979E+03  0.10624570322E+03  0.00000000000E+00 0.  1.
         13    1    4    4    0    0  0.31441692431E+02  0.19363191406E+02  0.57755395031E+01  0.37374724894E+02  0.00000000000E+00 0. -1.
         -1    1    1    2    0  502 -0.62053688785E+02  0.13138919751E+02 -0.18981567161E+02  0.66208695773E+02  0.00000000000E+00 0.  1.
<scales pt_clust_5="13000.00000" pt_clust_6="13000.00000" pt_clust_7="13000.00000" pt_clust_8="13000.00000" pt_clust_9="63.42942"></scales>
<clustering>
<clus scale="   63.429">  2  9  1 -1</clus>
<clus scale="   80.860">  5  6 -1 -1</clus>
<clus scale="   84.923">  1  5  2 -1</clus>
<clus scale="   90.861">  7  8 -1 -1</clus>
<clus scale="   63.429">  2  5  1 -1</clus>
</clustering>
</event>
<event>
 9    1  0.6014990E-005  0.8581307E+02  0.7546771E-02  0.1317234E+00
         21   -1    0    0  501  502  0.00000000000E+00  0.00000000000E+00  0.81332848183E+02  0.81332848183E+02  0.00000000000E+00 0. -1.
         -2   -1    0    0    0  501 -0.00000000000E+00 -0.00000000000E+00 -0.15485152711E+03  0.15485152711E+03  0.00000000000E+00 0.  1.
         23    2    1    2    0    0 -0.85666653132E+00 -0.17586265837E+02 -0.58915370714E+02  0.10551132289E+03  0.85741516947E+02 0.  0.
        -24    2    1    2    0    0 -0.10200807347E+02 -0.26049224299E+02 -0.12848832749E+02  0.85624168817E+02  0.79898605904E+02 0.  0.
         11    1    4    4    0    0 -0.32501327863E+02  0.15500221808E+02  0.23356280489E+01  0.36083907041E+02  0.00000000000E+00 0. -1.
        -12    1    4    4    0    0  0.22300520515E+02 -0.41549446108E+02 -0.15184460798E+02  0.49540261776E+02  0.00000000000E+00 0.  1.
        -13    1    3    3    0    0  0.34818191944E+02  0.15012128329E+02 -0.34961182680E+02  0.51574749458E+02  0.00000000000E+00 0.  1.
         13    1    3    3    0    0 -0.35674858475E+02 -0.32598394166E+02 -0.23954188034E+02  0.53936573434E+02  0.00000000000E+00 0. -1.
         -1    1    1    2    0  502  0.11057473879E+02  0.43635490137E+02 -0.17544754644E+01  0.45048883584E+02  0.00000000000E+00 0.  1.
<scales pt_clust_5="13000.00000" pt_clust_6="13000.00000" pt_clust_7="13000.00000" pt_clust_8="13000.00000" pt_clust_9="45.01471"></scales>
<clustering>
<clus scale="   45.015">  1  9  2 -1</clus>
<clus scale="   79.899">  5  6 -1 -1</clus>
<clus scale="   79.975">  1  5  2 -1</clus>
<clus scale="   85.742">  7  8 -1 -1</clus>
<clus scale="   45.015">  1  5  2 -1</clus>
</clustering>
</event>
<event>
 9    1  0.6014990E-005  0.1237454E+03  0.7546771E-02  0.1240800E+00
          1   -1    0    0  502    0 -0.00000000000E+00  0.00000000000E+00  0.16444052641E+03  0.16444052641E+03  0.00000000000E+00 0. -1.
         21   -1    0    0  501  502  0.00000000000E+00 -0.00000000000E+00 -0.13323030776E+03  0.13323030776E+03  0.00000000000E+00 0. -1.
         23    2    1    2    0    0 -0.58175391572E+02 -0.48551359510E+02  0.12041952736E+02  0.12030501023E+03  0.92664319807E+02 0.  0.
        -24    2    1    2    0    0  0.82209416525E+02  0.41418489799E+02 -0.26867400457E+02  0.12494641186E+03  0.80099120885E+02 0.  0.
         13    1    4    4    0    0  0.80964889490E+02  0.31712512273E+01 -0.57301668964E+01  0.81229335693E+02  0.00000000000E+00 0. -1.
        -14    1    4    4    0    0  0.12445270347E+01  0.38247238572E+02 -0.21137233561E+02  0.43717076166E+02  0.00000000000E+00 0.  1.
        -11    1    3    3    0    0 -0.59301244699E+02 -0.27689123277E+02 -0.31032118433E+02  0.72431467921E+02  0.00000000000E+00 0. -1.
         11    1    3    3    0    0  0.11258531276E+01 -0.20862236233E+02  0.43074071169E+02  0.47873542306E+02  0.00000000000E+00 0.  1.
          2    1    1    2  501    0 -0.24034024953E+02  0.71328697115E+01  0.46035666363E+02  0.52419412084E+02  0.00000000000E+00 0. -1.
<scales pt_clust_5="13000.00000" pt_clust_6="13000.00000" pt_clust_7="13000.00000" pt_clust_8="13000.00000" pt_clust_9="25.07016"></scales>
<clustering>
<clus scale="   25.070">  2  9  1 -1</clus>
<clus scale="   80.099">  5  6 -1 -1</clus>
<clus scale="   92.664">  7  8 -1 -1</clus>
<clus scale="  114.639">  2  5  1 -1</clus>
<clus scale="   25.070">  2  5  1 -1</clus>
</clustering>
</event>
<event>
 9    1  0.6014990E-005  0.2038893E+03  0.7546771E-02  0.1147505E+00
         21   -1    0    0  501  502  0.00000000000E+00  0.00000000000E+00  0.46840205088E+02  0.46840205088E+02  0.00000000000E+00 0. -1.
          1   -1    0    0  502    0 -0.00000000000E+00 -0.00000000000E+00 -0.14747814129E+04  0.14747814129E+04  0.00000000000E+00 0. -1.
         23    2    1    2    0    0 -0.96206735339E+01  0.20630602834E+03 -0.72258338431E+03  0.75706033260E+03  0.91426829868E+02 0.  0.
        -24    2    1    2    0    0  0.15272873757E+02 -0.14282279147E+03 -0.21809055097E+03  0.27314347577E+03  0.80076585206E+02 0.  0.
         13    1    4    4    0    0 -0.54271261622E+01 -0.14256248347E+03 -0.17889033979E+03  0.22881273798E+03  0.00000000000E+00 0. -1.
        -14    1    4    4    0    0  0.20699999919E+02 -0.26030800365E+00 -0.39200211175E+02  0.44330737790E+02  0.00000000000E+00 0.  1.
        -11    1    3    3    0    0  0.17412964681E+02  0.53884949864E+02 -0.94380005288E+02  0.11006536494E+03  0.00000000000E+00 0.  1.
         11    1    3    3    0    0 -0.27033638215E+02  0.15242107848E+03 -0.62820337902E+03  0.64699496766E+03  0.00000000000E+00 0. -1.
          2    1    1    2  501    0 -0.56522002227E+01 -0.63483236872E+02 -0.48726727253E+03  0.49141780962E+03  0.00000000000E+00 0. -1.
<scales pt_clust_5="13000.00000" pt_clust_6="13000.00000" pt_clust_7="13000.00000" pt_clust_8="13000.00000" pt_clust_9="63.73439"></scales>
<clustering>
<clus scale="   63.734">  1  9  2 -1</clus>
<clus scale="   80.077">  5  6 -1 -1</clus>
<clus scale="   91.427">  7  8 -1 -1</clus>
<clus scale="  199.058">  1  5  2 -1</clus>
<clus scale="   63.734">  1  5  2 -1</clus>
</clustering>
</event>
<event>
 9    1  0.6014990E-005  0.9210630E+02  0.7546771E-02  0.1304927E+00
          3   -1    0    0  502    0 -0.00000000000E+00  0.00000000000E+00  0.20122340041E+03  0.20122340041E+03  0.00000000000E+00 0. -1.
         21   -1    0    0  501  502  0.00000000000E+00 -0.00000000000E+00 -0.76886638569E+02  0.76886638569E+02  0.00000000000E+00 0. -1.
         23    2    1    2    0    0  0.23424309786E+02  0.63373244530E+01  0.10618892471E+03  0.14159387785E+03  0.90464791726E+02 0.  0.
        -24    2    1    2    0    0  0.10165285900E+02 -0.25834388133E+02  0.39108543868E+02  0.92382866920E+02  0.78958009405E+02 0.  0.
         13    1    4    4    0    0  0.44152298271E+02 -0.73642168387E+01  0.17392912170E+02  0.48022604324E+02  0.00000000000E+00 0. -1.
        -14    1    4    4    0    0 -0.33987012371E+02 -0.18470171294E+02  0.21715631698E+02  0.44360262596E+02  0.00000000000E+00 0.  1.
        -13    1    3    3    0    0 -0.60544144259E+00  0.24594209029E+02  0.10856917563E+03  0.11132164019E+03  0.00000000000E+00 0. -1.
         13    1    3    3    0    0  0.24029751228E+02 -0.18256884576E+02 -0.23802509169E+01  0.30272237660E+02  0.00000000000E+00 0.  1.
          4    1    1    2  501    0 -0.33589595686E+02  0.19497063680E+02 -0.20960706743E+02  0.44133294208E+02  0.00000000000E+00 0. -1.
<scales pt_clust_5="13000.00000" pt_clust_6="13000.00000" pt_clust_7="13000.00000" pt_clust_8="13000.00000" pt_clust_9="38.83808"></scales>
<clustering>
<clus scale="   38.838">  2  9  1 -1</clus>
<clus scale="   78.958">  5  6 -1 -1</clus>
<clus scale="   80.834">  2  5  1 -1</clus>
<clus scale="   90.465">  7  8 -1 -1</clus>
<clus scale="   38.838">  2  5  1 -1</clus>
</clustering>
</event>
<event>
 9    1  0.6014990E-005  0.2263312E+03  0.7546771E-02  0.1129249E+00
         21   -1    0    0  501  502  0.00000000000E+00  0.00000000000E+00  0.90778958722E+02  0.90778958722E+02  0.00000000000E+00 0. -1.
          1   -1    0    0  502    0 -0.00000000000E+00 -0.00000000000E+00 -0.48662927716E+03  0.48662927716E+03  0.00000000000E+00 0. -1.
        -24    2    1    2    0    0  0.91052015262E+01  0.71175232719E+02 -0.18605114483E+03  0.21497872825E+03  0.80324383970E+02 0.  0.
         23    2    1    2    0    0  0.54342513737E+02  0.51364637367E+02 -0.18872603951E+03  0.22283828544E+03  0.91912723260E+02 0.  0.
         13    1    3    3    0    0  0.13674547460E+02  0.70267469101E+02 -0.74458241703E+02  0.10328862580E+03  0.00000000000E+00 0. -1.
        -14    1    3    3    0    0 -0.45693459335E+01  0.90776361781E+00 -0.11159290313E+03  0.11169010245E+03  0.00000000000E+00 0.  1.
        -13    1    4    4    0    0  0.71538166805E+02  0.31806462439E+02 -0.17840091592E+03  0.19482363092E+03  0.00000000000E+00 0. -1.
         13    1    4    4    0    0 -0.17195653068E+02  0.19558174927E+02 -0.10325123593E+02  0.28014654524E+02  0.00000000000E+00 0.  1.
          2    1    1    2  501    0 -0.63447715264E+02 -0.12253987009E+03 -0.21073134098E+02  0.13959122219E+03  0.00000000000E+00 0. -1.
<scales pt_clust_5="13000.00000" pt_clust_6="13000.00000" pt_clust_7="13000.00000" pt_clust_8="13000.00000" pt_clust_9="137.99142"></scales>
<clustering>
<clus scale="   80.324">  5  6 -1 -1</clus>
<clus scale="   91.913">  7  8 -1 -1</clus>
<clus scale="  103.930">  5  7 -1 -1</clus>
<clus scale="  137.991">  1  9  2 -1</clus>
<clus scale="  137.991">  1  5  2 -1</clus>
</clustering>
</event>
<event>
 9    1  0.6014990E-005  0.9664132E+02  0.7546771E-02  0.1298381E+00
         21   -1    0    0  501  502  0.00000000000E+00  0.00000000000E+00  0.21428550444E+03  0.21428550444E+03  0.00000000000E+00 0. -1.
          3   -1    0    0  502    0 -0.00000000000E+00 -0.00000000000E+00 -0.59612522672E+02  0.59612522672E+02  0.00000000000E+00 0. -1.
         23    2    1    2    0    0 -0.37830365431E+01  0.14650908870E+02  0.57997002524E+02  0.11357916393E+03  0.96475974630E+02 0.  0.
        -24    2    1    2    0    0  0.65505991145E+01  0.13599589842E+02  0.10370571305E+03  0.13107562059E+03  0.78727912462E+02 0.  0.
         13    1    4    4    0    0 -0.33134110351E+02  0.21209667000E+02  0.57810975128E+02  0.69927305741E+02  0.00000000000E+00 0. -1.
        -14    1    4    4    0    0  0.39684709465E+02 -0.76100771582E+01  0.45894737924E+02  0.61148314848E+02  0.00000000000E+00 0.  1.
        -13    1    3    3    0    0 -0.45319739360E+02 -0.68977479463E+01  0.46703215963E+02  0.65441944376E+02  0.00000000000E+00 0.  1.
         13    1    3    3    0    0  0.41536702817E+02  0.21548656816E+02  0.11293786560E+02  0.48137219553E+02  0.00000000000E+00 0. -1.
          4    1    1    2  501    0 -0.27675625715E+01 -0.28250498711E+02 -0.70297338075E+01  0.29243242594E+02  0.00000000000E+00 0. -1.
<scales pt_clust_5="13000.00000" pt_clust_6="13000.00000" pt_clust_7="13000.00000" pt_clust_8="13000.00000" pt_clust_9="28.38575"></scales>
<clustering>
<clus scale="   28.386">  1  9  2 -1</clus>
<clus scale="   78.728">  5  6 -1 -1</clus>
<clus scale="   78.930">  1  5  2 -1</clus>
<clus scale="   96.476">  7  8 -1 -1</clus>
<clus scale="   28.386">  1  5  2 -1</clus>
</clustering>
</event>
<event>
 9    1  0.6014990E-005  0.1137778E+03  0.7546771E-02  0.1256767E+00
         21   -1    0    0  501  502  0.00000000000E+00  0.00000000000E+00  0.40382875187E+03  0.40382875187E+03  0.00000000000E+00 0. -1.
          1   -1    0    0  502    0 -0.00000000000E+00 -0.00000000000E+00 -0.62278618723E+02  0.62278618723E+02  0.00000000000E+00 0. -1.
        -24    2    1    2    0    0 -0.45942396528E+02  0.75292637667E+02  0.12652599791E+03  0.17502425045E+03  0.82734364154E+02 0.  0.
         23    2    1    2    0    0  0.11973235167E+02 -0.36394223570E+02  0.21797037038E+03  0.23935623309E+03  0.91172507284E+02 0.  0.
         13    1    3    3    0    0  0.13134056261E+02  0.56702332756E+02  0.71347403027E+02  0.92076652266E+02  0.00000000000E+00 0. -1.
        -14    1    3    3    0    0 -0.59076452789E+02  0.18590304912E+02  0.55178594882E+02  0.82947598181E+02  0.00000000000E+00 0.  1.
        -13    1    4    4    0    0 -0.18751001724E+02 -0.42166419613E+02  0.48192686892E+02  0.66724373946E+02  0.00000000000E+00 0. -1.
         13    1    4    4    0    0  0.30724236891E+02  0.57721960435E+01  0.16977768349E+03  0.17263185914E+03  0.00000000000E+00 0.  1.
          2    1    1    2  501    0  0.33969161361E+02 -0.38898414098E+02 -0.29462351465E+01  0.51726887055E+02  0.00000000000E+00 0. -1.
<scales pt_clust_5="13000.00000" pt_clust_6="13000.00000" pt_clust_7="13000.00000" pt_clust_8="13000.00000" pt_clust_9="51.64294"></scales>
<clustering>
<clus scale="   51.643">  1  9  2 -1</clus>
<clus scale="   82.734">  5  6 -1 -1</clus>
<clus scale="   91.173">  7  8 -1 -1</clus>
<clus scale="  107.135">  2  5  1 -1</clus>
<clus scale="   51.643">  1  5  2 -1</clus>
</clustering>
</event>
<event>
 9    1  0.6014990E-005  0.1189424E+03  0.7546771E-02  0.1248860E+00
         21   -1    0    0  501  502  0.00000000000E+00  0.00000000000E+00  0.54609933766E+03  0.54609933766E+03  0.00000000000E+00 0.  1.
         -2   -1    0    0    0  501 -0.00000000000E+00 -0.00000000000E+00 -0.96870035552E+02  0.96870035552E+02  0.00000000000E+00 0.  1.
        -24    2    1    2    0    0 -0.39735608608E+02  0.66750163801E+02 -0.51328920018E+02  0.12229925386E+03  0.79296573096E+02 0.  0.
         23    2    1    2    0    0  0.11630759024E+02 -0.60441545801E+02  0.33746870654E+03  0.35505649876E+03  0.91605318657E+02 0.  0.
         13    1    3    3    0    0  0.20533445389E+02  0.32038220778E+01 -0.21182683741E+02  0.29674786367E+02  0.00000000000E+00 0. -1.
        -14    1    3    3    0    0 -0.60269053997E+02  0.63546341723E+02 -0.30146236277E+02  0.92624467489E+02  0.00000000000E+00 0.  1.
        -11    1    4    4    0    0 -0.29912594821E+02  0.16944244551E-03  0.16423706922E+03  0.16693884580E+03  0.00000000000E+00 0.  1.
         11    1    4    4    0    0  0.41543353845E+02 -0.60441715244E+02  0.17323163732E+03  0.18811765297E+03  0.00000000000E+00 0. -1.
         -1    1    1    2    0  502  0.28104849584E+02 -0.63086179994E+01  0.16308951559E+03  0.16561362059E+03  0.00000000000E+00 0.  1.
<scales pt_clust_5="13000.00000" pt_clust_6="13000.00000" pt_clust_7="13000.00000" pt_clust_8="13000.00000" pt_clust_9="28.80419"></scales>
<clustering>
<clus scale="   28.804">  1  9  2 -1</clus>
<clus scale="   79.297">  5  6 -1 -1</clus>
<clus scale="   91.605">  7  8 -1 -1</clus>
<clus scale="  109.744">  2  5  1 -1</clus>
<clus scale="   28.804">  1  5  2 -1</clus>
</clustering>
</event>
<event>
 9    1  0.6014990E-005  0.1182586E+03  0.7546771E-02  0.1249590E+00
         21   -1    0    0  501  502  0.00000000000E+00  0.00000000000E+00  0.72241034738E+02  0.72241034738E+02  0.00000000000E+00 0. -1.
         -2   -1    0    0    0  501 -0.00000000000E+00 -0.00000000000E+00 -0.34135928023E+03  0.34135928023E+03  0.00000000000E+00 0.  1.
        -24    2    1    2    0    0  0.76467702715E+02  0.12100200880E+02 -0.25576492175E+03  0.27962927023E+03  0.82359633013E+02 0.  0.
         23    2    1    2    0    0 -0.56236226700E+02 -0.51242567247E+01 -0.21717849745E+02  0.11099406249E+03  0.93055068154E+02 0.  0.
         13    1    3    3    0    0  0.22968714396E+02 -0.13225581680E+02 -0.12568447246E+02  0.29333320950E+02  0.00000000000E+00 0. -1.
        -14    1    3    3    0    0  0.53498988319E+02  0.25325782560E+02 -0.24319647450E+03  0.25029594928E+03  0.00000000000E+00 0.  1.
        -11    1    4    4    0    0 -0.74172161129E+02 -0.27250510709E+02 -0.23544770521E+02  0.82452750344E+02  0.00000000000E+00 0. -1.
         11    1    4    4    0    0  0.17935934430E+02  0.22126253984E+02  0.18269207758E+01  0.28541312141E+02  0.00000000000E+00 0.  1.
         -1    1    1    2    0  502 -0.20231476015E+02 -0.69759441552E+01  0.83645259984E+01  0.22976982260E+02  0.00000000000E+00 0.  1.
<scales pt_clust_5="13000.00000" pt_clust_6="13000.00000" pt_clust_7="13000.00000" pt_clust_8="13000.00000" pt_clust_9="21.40038"></scales>
<clustering>
<clus scale="   21.400">  1  9  2 -1</clus>
<clus scale="   82.360">  5  6 -1 -1</clus>
<clus scale="   93.055">  7  8 -1 -1</clus>
<clus scale="  110.041">  2  5  1 -1</clus>
<clus scale="   21.400">  1  5  2 -1</clus>
</clustering>
</event>
<event>
 9    1  0.6014990E-005  0.1254316E+03  0.7546771E-02  0.1237121E+00
         -2   -1    0    0    0  501 -0.00000000000E+00  0.00000000000E+00  0.21948919265E+03  0.21948919265E+03  0.00000000000E+00 0.  1.
         21   -1    0    0  501  502  0.00000000000E+00 -0.00000000000E+00 -0.23337460266E+03  0.23337460266E+03  0.00000000000E+00 0.  1.
         23    2    1    2    0    0  0.69602001912E+02  0.53020992603E+02  0.14804368349E+03  0.19456361770E+03  0.91007718274E+02 0.  0.
        -24    2    1    2    0    0 -0.52773447116E+02 -0.66097527859E+02 -0.25366719779E+02  0.12008484581E+03  0.81381692107E+02 0.  0.
         11    1    4    4    0    0 -0.47267275306E+02 -0.72022177407E+02  0.72767535035E+01  0.86454268228E+02  0.00000000000E+00 0. -1.
        -12    1    4    4    0    0 -0.55061718101E+01  0.59246495476E+01 -0.32643473283E+02  0.33630577578E+02  0.00000000000E+00 0.  1.
        -13    1    3    3    0    0  0.62006257915E+02  0.74897153931E+02  0.13915266845E+03  0.16975813626E+03  0.00000000000E+00 0.  1.
         13    1    3    3    0    0  0.75957439969E+01 -0.21876161328E+02  0.88910150342E+01  0.24805481444E+02  0.00000000000E+00 0. -1.
         -1    1    1    2    0  502 -0.16828554796E+02  0.13076535256E+02 -0.13656237372E+03  0.13821533181E+03  0.00000000000E+00 0.  1.
<scales pt_clust_5="13000.00000" pt_clust_6="13000.00000" pt_clust_7="13000.00000" pt_clust_8="13000.00000" pt_clust_9="21.31188"></scales>
<clustering>
<clus scale="   21.312">  2  9  1 -1</clus>
<clus scale="   81.382">  5  6 -1 -1</clus>
<clus scale="   91.008">  7  8 -1 -1</clus>
<clus scale="  118.632">  2  5  1 -1</clus>
<clus scale="   21.312">  2  5  1 -1</clus>
</clustering>
</event>
<event>
 9    1  0.6014990E-005  0.1138252E+03  0.7546771E-02  0.1253691E+00
         21   -1    0    0  501  502  0.00000000000E+00  0.00000000000E+00  0.10187797739E+03  0.10187797739E+03  0.00000000000E+00 0.  1.
          3   -1    0    0  502    0 -0.00000000000E+00 -0.00000000000E+00 -0.38102696579E+03  0.38102696579E+03  0.00000000000E+00 0. -1.
        -24    2    1    2    0    0  0.44505173576E+02 -0.70205759821E+02 -0.25179033124E+03  0.27713778603E+03  0.80606590024E+02 0.  0.
         23    2    1    2    0    0 -0.95899412873E+02  0.11467874858E+02 -0.16928275716E+02  0.12702517458E+03  0.80750349317E+02 0.  0.
         13    1    3    3    0    0  0.21316554604E+02 -0.32417066339E+02 -0.21791387042E+03  0.22134072516E+03  0.00000000000E+00 0. -1.
        -14    1    3    3    0    0  0.23188618972E+02 -0.37788693483E+02 -0.33876460811E+02  0.55797060873E+02  0.00000000000E+00 0.  1.
        -11    1    4    4    0    0 -0.73134198362E+02 -0.57839222684E+01  0.23935173776E+02  0.77168369625E+02  0.00000000000E+00 0.  1.
         11    1    4    4    0    0 -0.22765214510E+02  0.17251797127E+02 -0.40863449491E+02  0.49856804953E+02  0.00000000000E+00 0. -1.
          4    1    1    2  501    0  0.51394239296E+02  0.58737884963E+02 -0.10430381448E+02  0.78741982576E+02  0.00000000000E+00 0. -1.
<scales pt_clust_5="13000.00000" pt_clust_6="13000.00000" pt_clust_7="13000.00000" pt_clust_8="13000.00000" pt_clust_9="78.04811"></scales>
<clustering>
<clus scale="   78.048">  1  9  2 -1</clus>
<clus scale="   80.607">  5  6 -1 -1</clus>
<clus scale="   80.750">  7  8 -1 -1</clus>
<clus scale="  113.723">  2  5  1 -1</clus>
<clus scale="   78.048">  1  5  2 -1</clus>
</clustering>
</event>
<event>
 9    1  0.6014990E-005  0.9184795E+02  0.7546771E-02  0.1305064E+00
         21   -1    0    0  501  502  0.00000000000E+00  0.00000000000E+00  0.25944528018E+03  0.25944528018E+03  0.00000000000E+00 0.  1.
         -2   -1    0    0    0  501 -0.00000000000E+00 -0.00000000000E+00 -0.54870133228E+02  0.54870133228E+02  0.00000000000E+00 0.  1.
        -24    2    1    2    0    0  0.19178873477E+02  0.15839941187E+02  0.72373135841E+02  0.11162474377E+03  0.81261797338E+02 0.  0.
         23    2    1    2    0    0  0.27716042913E+02  0.14558548017E+02  0.93417393270E+02  0.13466532208E+03  0.91803100433E+02 0.  0.
         13    1    3    3    0    0 -0.12933443530E+02 -0.17209634109E+02  0.60242754645E+02  0.63973705184E+02  0.00000000000E+00 0. -1.
        -14    1    3    3    0    0  0.32112317007E+02  0.33049575296E+02  0.12130381195E+02  0.47651038590E+02  0.00000000000E+00 0.  1.
        -11    1    4    4    0    0  0.17567500611E+02 -0.38468589065E+02  0.33015653063E+02  0.53651493638E+02  0.00000000000E+00 0. -1.
         11    1    4    4    0    0  0.10148542302E+02  0.53027137083E+02  0.60401740207E+02  0.81013828437E+02  0.00000000000E+00 0.  1.
         -1    1    1    2    0  502 -0.46894916390E+02 -0.30398489204E+02  0.38784617837E+02  0.68025347554E+02  0.00000000000E+00 0.  1.
<scales pt_clust_5="13000.00000" pt_clust_6="13000.00000" pt_clust_7="13000.00000" pt_clust_8="13000.00000" pt_clust_9="55.88564"></scales>
<clustering>
<clus scale="   55.886">  1  9  2 -1</clus>
<clus scale="   81.262">  5  6 -1 -1</clus>
<clus scale="   81.312">  2  5  1 -1</clus>
<clus scale="   91.803">  7  8 -1 -1</clus>
<clus scale="   55.886">  1  5  2 -1</clus>
</clustering>
</event>
<event>
 9    1  0.6014990E-005  0.1027017E+03  0.7546771E-02  0.1280168E+00
         21   -1    0    0  501  502  0.00000000000E+00  0.00000000000E+00  0.33543146431E+03  0.33543146431E+03  0.00000000000E+00 0.  1.
         -4   -1    0    0    0  501 -0.00000000000E+00 -0.00000000000E+00 -0.49516814452E+02  0.49516814452E+02  0.00000000000E+00 0.  1.
        -24    2    1    2    0    0 -0.27163823628E+02  0.52172524426E+02  0.76111927507E+02  0.12526830610E+03  0.80245108170E+02 0.  0.
         23    2    1    2    0    0  0.23734563352E+02 -0.97424820880E+01  0.19035978399E+03  0.21288150932E+03  0.91779323353E+02 0.  0.
         11    1    3    3    0    0  0.25931557162E+02  0.31100748012E+02  0.19875763562E+02  0.45108182860E+02  0.00000000000E+00 0. -1.
        -12    1    3    3    0    0 -0.53095380791E+02  0.21071776414E+02  0.56236163945E+02  0.80160123240E+02  0.00000000000E+00 0.  1.
        -11    1    4    4    0    0 -0.23114917831E+02 -0.30791389392E+02  0.11817792741E+03  0.12429171981E+03  0.00000000000E+00 0.  1.
         11    1    4    4    0    0  0.46849481184E+02  0.21048907304E+02  0.72181856588E+02  0.88589789516E+02  0.00000000000E+00 0. -1.
         -3    1    1    2    0  502  0.34292602759E+01 -0.42430042338E+02  0.19442938356E+02  0.46798463337E+02  0.00000000000E+00 0.  1.
<scales pt_clust_5="13000.00000" pt_clust_6="13000.00000" pt_clust_7="13000.00000" pt_clust_8="13000.00000" pt_clust_9="42.56842"></scales>
<clustering>
<clus scale="   42.568">  1  9  2 -1</clus>
<clus scale="   80.245">  5  6 -1 -1</clus>
<clus scale="   91.779">  7  8 -1 -1</clus>
<clus scale="   92.539">  2  5  1 -1</clus>
<clus scale="   42.568">  1  5  2 -1</clus>
</clustering>
</event>
<event>
 9    1  0.6014990E-005  0.1544403E+03  0.7546771E-02  0.1195854E+00
         21   -1    0    0  501  502  0.00000000000E+00  0.00000000000E+00  0.22793796700E+03  0.22793796700E+03  0.00000000000E+00 0. -1.
          3   -1    0    0  502    0 -0.00000000000E+00 -0.00000000000E+00 -0.16385478305E+03  0.16385478305E+03  0.00000000000E+00 0. -1.
         23    2    1    2    0    0  0.10026548335E+03  0.47646690208E+02  0.16488542769E+02  0.14113950351E+03  0.85586874978E+02 0.  0.
        -24    2    1    2    0    0 -0.10615748303E+03 -0.10802461595E+03 -0.27676330221E+01  0.17180802957E+03  0.81065469711E+02 0.  0.
         13    1    4    4    0    0 -0.11576849778E+03 -0.99189694450E+02  0.10986060231E+02  0.15284513104E+03  0.00000000000E+00 0. -1.
        -14    1    4    4    0    0  0.96110147564E+01 -0.88349214975E+01 -0.13753693253E+02  0.18962898529E+02  0.00000000000E+00 0.  1.
        -13    1    3    3    0    0  0.33374861145E+02  0.58593188742E+02 -0.10383671180E+02  0.68226561914E+02  0.00000000000E+00 0.  1.
         13    1    3    3    0    0  0.66890622208E+02 -0.10946498535E+02  0.26872213949E+02  0.72912941595E+02  0.00000000000E+00 0. -1.
          4    1    1    2  501    0  0.58919996722E+01  0.60377925740E+02  0.50362274200E+02  0.78845216972E+02  0.00000000000E+00 0. -1.
<scales pt_clust_5="13000.00000" pt_clust_6="13000.00000" pt_clust_7="13000.00000" pt_clust_8="13000.00000" pt_clust_9="60.66473"></scales>
<clustering>
<clus scale="   60.665">  1  9  2 -1</clus>
<clus scale="   81.065">  5  6 -1 -1</clus>
<clus scale="   85.587">  7  8 -1 -1</clus>
<clus scale="  151.981">  1  5  2 -1</clus>
<clus scale="   60.665">  1  5  2 -1</clus>
</clustering>
</event>
<event>
 9    1  0.6014990E-005  0.9572199E+02  0.7546771E-02  0.1296882E+00
         -2   -1    0    0    0  501 -0.00000000000E+00  0.00000000000E+00  0.67836660856E+02  0.67836660856E+02  0.00000000000E+00 0.  1.
         21   -1    0    0  501  502  0.00000000000E+00 -0.00000000000E+00 -0.36366360484E+03  0.36366360484E+03  0.00000000000E+00 0.  1.
         23    2    1    2    0    0  0.77508788253E+01  0.16315841159E+02  0.17794131184E+02  0.97939062875E+02  0.94599926728E+02 0.  0.
        -24    2    1    2    0    0  0.10712618067E+02 -0.21921032377E+01 -0.18344562223E+03  0.20132645233E+03  0.82222129557E+02 0.  0.
         11    1    4    4    0    0  0.34487354990E+02 -0.28693418027E+02 -0.12593623829E+03  0.13368854105E+03  0.00000000000E+00 0. -1.
        -12    1    4    4    0    0 -0.23774736923E+02  0.26501314789E+02 -0.57509383939E+02  0.67637911281E+02  0.00000000000E+00 0.  1.
        -11    1    3    3    0    0 -0.28905123713E+02 -0.22359414552E+02 -0.99341127443E+01  0.37869990652E+02  0.00000000000E+00 0.  1.
         11    1    3    3    0    0  0.36656002538E+02  0.38675255710E+02  0.27728243929E+02  0.60069072223E+02  0.00000000000E+00 0. -1.
         -1    1    1    2    0  502 -0.18463496892E+02 -0.14123737921E+02 -0.13017545294E+03  0.13223475050E+03  0.00000000000E+00 0.  1.
<scales pt_clust_5="13000.00000" pt_clust_6="13000.00000" pt_clust_7="13000.00000" pt_clust_8="13000.00000" pt_clust_9="23.24609"></scales>
<clustering>
<clus scale="   23.246">  2  9  1 -1</clus>
<clus scale="   82.222">  5  6 -1 -1</clus>
<clus scale="   83.511">  2  5  1 -1</clus>
<clus scale="   94.600">  7  8 -1 -1</clus>
<clus scale="   23.246">  2  5  1 -1</clus>
</clustering>
</event>
<event>
 9    1  0.6014990E-005  0.1396206E+03  0.7546771E-02  0.1223364E+00
         -2   -1    0    0    0  501 -0.00000000000E+00  0.00000000000E+00  0.89641821564E+02  0.89641821564E+02  0.00000000000E+00 0.  1.
         21   -1    0    0  501  502  0.00000000000E+00 -0.00000000000E+00 -0.36577258974E+03  0.36577258974E+03  0.00000000000E+00 0.  1.
         23    2    1    2    0    0 -0.69462793808E+02 -0.23225518991E+02 -0.93196120159E+01  0.13510579333E+03  0.11314687696E+03 0.  0.
        -24    2    1    2    0    0  0.96140672317E+02  0.54263966021E+02 -0.20949952315E+03  0.24988335493E+03  0.79774895754E+02 0.  0.
         13    1    4    4    0    0  0.15400027765E+02  0.52814572322E+02 -0.94835351478E+02  0.10963705484E+03  0.00000000000E+00 0. -1.
        -14    1    4    4    0    0  0.80740644552E+02  0.14493936990E+01 -0.11466417167E+03  0.14024630009E+03  0.00000000000E+00 0.  1.
        -13    1    3    3    0    0 -0.12292672506E+02 -0.59520308961E+02 -0.24798801925E+02  0.65641126994E+02  0.00000000000E+00 0.  1.
         13    1    3    3    0    0 -0.57170121301E+02  0.36294789970E+02  0.15479189909E+02  0.69464666333E+02  0.00000000000E+00 0. -1.
         -1    1    1    2    0  502 -0.26677878510E+02 -0.31038447030E+02 -0.57311633016E+02  0.70425263044E+02  0.00000000000E+00 0.  1.
<scales pt_clust_5="13000.00000" pt_clust_6="13000.00000" pt_clust_7="13000.00000" pt_clust_8="13000.00000" pt_clust_9="40.92792"></scales>
<clustering>
<clus scale="   40.928">  2  9  1 -1</clus>
<clus scale="   79.775">  5  6 -1 -1</clus>
<clus scale="  113.147">  7  8 -1 -1</clus>
<clus scale="  114.262">  2  5  1 -1</clus>
<clus scale="   40.928">  2  5  1 -1</clus>
</clustering>
</event>
<event>
 9    1  0.6014990E-005  0.1354656E+03  0.7546771E-02  0.1220956E+00
         21   -1    0    0  501  502  0.00000000000E+00  0.00000000000E+00  0.21532456433E+03  0.21532456433E+03  0.00000000000E+00 0. -1.
         -2   -1    0    0    0  501 -0.00000000000E+00 -0.00000000000E+00 -0.18236098765E+03  0.18236098765E+03  0.00000000000E+00 0.  1.
         23    2    1    2    0    0  0.11905831944E+03  0.87051844614E+01  0.22301007670E+01  0.14778898301E+03  0.87097339140E+02 0.  0.
        -24    2    1    2    0    0 -0.75993062322E+02  0.24716855221E+01  0.11171539251E+03  0.15749738277E+03  0.80895252678E+02 0.  0.
         13    1    4    4    0    0 -0.46839065594E+02  0.41193985957E+02  0.67184844333E+02  0.91676855600E+02  0.00000000000E+00 0. -1.
        -14    1    4    4    0    0 -0.29153996728E+02 -0.38722300434E+02  0.44530548178E+02  0.65820527172E+02  0.00000000000E+00 0.  1.
        -11    1    3    3    0    0  0.27262550431E+02 -0.35877466672E+02 -0.57611356439E+01  0.45427194000E+02  0.00000000000E+00 0.  1.
         11    1    3    3    0    0  0.91795769009E+02  0.44582651133E+02  0.79912364109E+01  0.10236178901E+03  0.00000000000E+00 0. -1.
         -1    1    1    2    0  502 -0.43065257118E+02 -0.11176869983E+02 -0.80981916600E+02  0.92399186195E+02  0.00000000000E+00 0.  1.
<scales pt_clust_5="13000.00000" pt_clust_6="13000.00000" pt_clust_7="13000.00000" pt_clust_8="13000.00000" pt_clust_9="44.49203"></scales>
<clustering>
<clus scale="   44.492">  1  9  2 -1</clus>
<clus scale="   80.895">  5  6 -1 -1</clus>
<clus scale="   87.097">  7  8 -1 -1</clus>
<clus scale="  131.564">  1  5  2 -1</clus>
<clus scale="   44.492">  1  5  2 -1</clus>
</clustering>
</event>
<event>
 9    1  0.6014990E-005  0.2075418E+03  0.7546771E-02  0.1178436E+00
         21   -1    0    0  501  502  0.00000000000E+00  0.00000000000E+00  0.59410174012E+03  0.59410174012E+03  0.00000000000E+00 0. -1.
          1   -1    0    0  502    0 -0.00000000000E+00 -0.00000000000E+00 -0.12448623855E+03  0.12448623855E+03  0.00000000000E+00 0. -1.
        -24    2    1    2    0    0 -0.26306703394E+02 -0.32830086927E+02  0.24674602960E+03  0.26340807136E+03  0.82038720628E+02 0.  0.
         23    2    1    2    0    0 -0.16891322230E+03  0.54111394985E+02  0.92950662606E+02  0.21971736148E+03  0.90422195962E+02 0.  0.
         11    1    3    3    0    0 -0.12142059545E+02  0.27511429104E+02  0.87621138101E+02  0.92637855024E+02  0.00000000000E+00 0. -1.
        -12    1    3    3    0    0 -0.14164643849E+02 -0.60341516031E+02  0.15912489150E+03  0.17077021634E+03  0.00000000000E+00 0.  1.
        -13    1    4    4    0    0 -0.32848346959E+02  0.52949393903E+02  0.20726839761E+02  0.65667755399E+02  0.00000000000E+00 0.  1.
         13    1    4    4    0    0 -0.13606487534E+03  0.11620010817E+01  0.72223822845E+02  0.15404960608E+03  0.00000000000E+00 0. -1.
          2    1    1    2  501    0  0.19521992569E+03 -0.21281308057E+02  0.12991880937E+03  0.23546254583E+03  0.00000000000E+00 0. -1.
<scales pt_clust_5="13000.00000" pt_clust_6="13000.00000" pt_clust_7="13000.00000" pt_clust_8="13000.00000" pt_clust_9="186.80857"></scales>
<clustering>
<clus scale="   82.039">  5  6 -1 -1</clus>
<clus scale="   90.422">  7  8 -1 -1</clus>
<clus scale="   92.197">  2  5  1 -1</clus>
<clus scale="  186.809">  1  9  2 -1</clus>
<clus scale="  186.809">  1  5  2 -1</clus>
</clustering>
</event>
<event>
 9    1  0.6014990E-005  0.1463500E+03  0.7546771E-02  0.1207128E+00
         21   -1    0    0  501  502  0.00000000000E+00  0.00000000000E+00  0.22768395307E+03  0.22768395307E+03  0.00000000000E+00 0. -1.
         -2   -1    0    0    0  501 -0.00000000000E+00 -0.00000000000E+00 -0.19049918403E+03  0.19049918403E+03  0.00000000000E+00 0.  1.
         23    2    1    2    0    0  0.70315980480E+02  0.65561906609E+02 -0.47092714145E+01  0.13292028610E+03  0.91667467024E+02 0.  0.
        -24    2    1    2    0    0 -0.15996507803E+03 -0.22542507247E+02  0.43294890903E+02  0.18581642424E+03  0.80971014045E+02 0.  0.
         13    1    4    4    0    0 -0.70074244889E+02  0.18921672494E+02  0.47481535421E+02  0.86734800931E+02  0.00000000000E+00 0. -1.
        -14    1    4    4    0    0 -0.89890833142E+02 -0.41464179741E+02 -0.41866445174E+01  0.99081623305E+02  0.00000000000E+00 0.  1.
        -11    1    3    3    0    0  0.19454729396E+02 -0.70840743775E+01 -0.33759266429E+02  0.39602508450E+02  0.00000000000E+00 0. -1.
         11    1    3    3    0    0  0.50861251083E+02  0.72645980987E+02  0.29049995015E+02  0.93317777650E+02  0.00000000000E+00 0.  1.
         -1    1    1    2    0  502  0.89649097551E+02 -0.43019399362E+02 -0.14008504535E+01  0.99446426759E+02  0.00000000000E+00 0.  1.
<scales pt_clust_5="13000.00000" pt_clust_6="13000.00000" pt_clust_7="13000.00000" pt_clust_8="13000.00000" pt_clust_9="99.43661"></scales>
<clustering>
<clus scale="   80.971">  5  6 -1 -1</clus>
<clus scale="   91.667">  7  8 -1 -1</clus>
<clus scale="   99.437">  1  9  2 -1</clus>
<clus scale="  139.899">  1  5  2 -1</clus>
<clus scale="   99.437">  1  5  2 -1</clus>
</clustering>
</event>
<event>
 9    1  0.6014990E-005  0.1381828E+03  0.7546771E-02  0.1242226E+00
          1   -1    0    0  502    0 -0.00000000000E+00  0.00000000000E+00  0.28449158628E+03  0.28449158628E+03  0.00000000000E+00 0. -1.
         21   -1    0    0  501  502  0.00000000000E+00 -0.00000000000E+00 -0.90693015547E+02  0.90693015547E+02  0.00000000000E+00 0. -1.
        -24    2    1    2    0    0  0.89300256877E+01  0.10412296054E+02  0.40635800062E+02  0.89715450202E+02  0.78799952350E+02 0.  0.
         23    2    1    2    0    0 -0.72398858285E+02  0.71112412922E+02  0.89418550854E+02  0.16406941338E+03  0.92868321935E+02 0.  0.
         11    1    3    3    0    0  0.17870989895E+02 -0.13654019451E+02 -0.15954028745E+02  0.27574182856E+02  0.00000000000E+00 0. -1.
        -12    1    3    3    0    0 -0.89409642069E+01  0.24066315505E+02  0.56589828807E+02  0.62141267346E+02  0.00000000000E+00 0.  1.
        -11    1    4    4    0    0  0.10565811766E+02  0.35245642170E+02 -0.18628492955E+00  0.36795738508E+02  0.00000000000E+00 0.  1.
         11    1    4    4    0    0 -0.82964670051E+02  0.35866770752E+02  0.89604835784E+02  0.12727367488E+03  0.00000000000E+00 0. -1.
          2    1    1    2  501    0  0.63468832597E+02 -0.81524708976E+02  0.63744219816E+02  0.12139973824E+03  0.00000000000E+00 0. -1.
<scales pt_clust_5="13000.00000" pt_clust_6="13000.00000" pt_clust_7="13000.00000" pt_clust_8="13000.00000" pt_clust_9="102.32285"></scales>
<clustering>
<clus scale="   78.800">  5  6 -1 -1</clus>
<clus scale="   79.985">  1  5  2 -1</clus>
<clus scale="   92.868">  7  8 -1 -1</clus>
<clus scale="  102.323">  2  9  1 -1</clus>
<clus scale="  102.323">  2  5  1 -1</clus>
</clustering>
</event>
<event>
 9    1  0.6014990E-005  0.9347134E+02  0.7546771E-02  0.1301052E+00
         -2   -1    0    0    0  501 -0.00000000000E+00  0.00000000000E+00  0.15509408921E+03  0.15509408921E+03  0.00000000000E+00 0.  1.
         21   -1    0    0  501  502  0.00000000000E+00 -0.00000000000E+00 -0.83112339113E+02  0.83112339113E+02  0.00000000000E+00 0.  1.
         23    2    1    2    0    0 -0.14042816375E+02 -0.98519954806E+01  0.77129360888E+02  0.12091824127E+03  0.91531526010E+02 0.  0.
        -24    2    1    2    0    0 -0.52117153132E+01  0.32621520763E+02 -0.30193707820E+01  0.87393075786E+02  0.80852380930E+02 0.  0.
         13    1    4    4    0    0 -0.83187549795E+00  0.33905508695E+02  0.35212560277E+02  0.48889671076E+02  0.00000000000E+00 0. -1.
        -14    1    4    4    0    0 -0.43798398152E+01 -0.12839879316E+01 -0.38231931059E+02  0.38503404710E+02  0.00000000000E+00 0.  1.
        -11    1    3    3    0    0  0.40817008170E+01 -0.39263858954E+02  0.76819850017E+02  0.86368977406E+02  0.00000000000E+00 0.  1.
         11    1    3    3    0    0 -0.18124517192E+02  0.29411863473E+02  0.30951087031E+00  0.34549263862E+02  0.00000000000E+00 0. -1.
         -1    1    1    2    0  502  0.19254531688E+02 -0.22769525282E+02 -0.21282400119E+01  0.29895111267E+02  0.00000000000E+00 0.  1.
<scales pt_clust_5="13000.00000" pt_clust_6="13000.00000" pt_clust_7="13000.00000" pt_clust_8="13000.00000" pt_clust_9="29.81926"></scales>
<clustering>
<clus scale="   29.819">  2  9  1 -1</clus>
<clus scale="   80.852">  5  6 -1 -1</clus>
<clus scale="   83.042">  2  5  1 -1</clus>
<clus scale="   91.532">  7  8 -1 -1</clus>
<clus scale="   29.819">  2  5  1 -1</clus>
</clustering>
</event>
<event>
 9    1  0.6014990E-005  0.1164533E+03  0.7546771E-02  0.1252662E+00
          3   -1    0    0  502    0 -0.00000000000E+00  0.00000000000E+00  0.45200167505E+03  0.45200167505E+03  0.00000000000E+00 0. -1.
         21   -1    0    0  501  502  0.00000000000E+00 -0.00000000000E+00 -0.11499194403E+03  0.11499194403E+03  0.00000000000E+00 0. -1.
        -24    2    1    2    0    0 -0.71188659286E+02 -0.14183815154E+02  0.38959042142E+03  0.40443943637E+03  0.80756147793E+02 0.  0.
         23    2    1    2    0    0  0.72995111495E+02 -0.17676119516E+02 -0.55329717522E+02  0.13052488585E+03  0.91294231370E+02 0.  0.
         11    1    3    3    0    0 -0.57164625118E+02  0.16309876071E+02  0.33591126386E+03  0.34113074269E+03  0.00000000000E+00 0. -1.
        -12    1    3    3    0    0 -0.14024034168E+02 -0.30493691225E+02  0.53679157565E+02  0.63308693682E+02  0.00000000000E+00 0.  1.
        -11    1    4    4    0    0  0.24740339010E+01  0.26858102243E+02 -0.35869972774E+02  0.44879098104E+02  0.00000000000E+00 0.  1.
         11    1    4    4    0    0  0.70521077594E+02 -0.44534221759E+02 -0.19459744747E+02  0.85645787744E+02  0.00000000000E+00 0. -1.
          4    1    1    2  501    0 -0.18064522090E+01  0.31859934671E+02  0.27490271207E+01  0.32029296853E+02  0.00000000000E+00 0. -1.
<scales pt_clust_5="13000.00000" pt_clust_6="13000.00000" pt_clust_7="13000.00000" pt_clust_8="13000.00000" pt_clust_9="31.91111"></scales>
<clustering>
<clus scale="   31.911">  2  9  1 -1</clus>
<clus scale="   80.756">  5  6 -1 -1</clus>
<clus scale="   91.294">  7  8 -1 -1</clus>
<clus scale="  108.390">  1  5  2 -1</clus>
<clus scale="   31.911">  2  5  1 -1</clus>
</clustering>
</event>
<event>
 9    1  0.6014990E-005  0.1057834E+03  0.7546771E-02  0.1272011E+00
          3   -1    0    0  502    0 -0.00000000000E+00  0.00000000000E+00  0.17467446495E+03  0.17467446495E+03  0.00000000000E+00 0. -1.
         21   -1    0    0  501  502  0.00000000000E+00 -0.00000000000E+00 -0.15986719282E+03  0.15986719282E+03  0.00000000000E+00 0. -1.
         23    2    1    2    0    0  0.57774969450E+02 -0.38724098496E+02  0.27754257726E+02  0.11766519125E+03  0.90759547772E+02 0.  0.
        -24    2    1    2    0    0 -0.36983712881E+02 -0.28132520151E+02 -0.76820055417E+02  0.12210382882E+03  0.82757418935E+02 0.  0.
         11    1    4    4    0    0  0.67247412979E+01 -0.22210085804E+02 -0.74393977465E+02  0.77929288076E+02  0.00000000000E+00 0. -1.
        -12    1    4    4    0    0 -0.43708454179E+02 -0.59224343477E+01 -0.24260779513E+01  0.44174540740E+02  0.00000000000E+00 0.  1.
        -13    1    3    3    0    0  0.65106670522E+02 -0.50868014846E+01  0.44854111269E+02  0.79225282540E+02  0.00000000000E+00 0. -1.
         13    1    3    3    0    0 -0.73317010716E+01 -0.33637297011E+02 -0.17099853543E+02  0.38439908715E+02  0.00000000000E+00 0.  1.
          4    1    1    2  501    0 -0.20791256569E+02  0.66856618647E+02  0.63873069822E+02  0.94772637693E+02  0.00000000000E+00 0. -1.
<scales pt_clust_5="13000.00000" pt_clust_6="13000.00000" pt_clust_7="13000.00000" pt_clust_8="13000.00000" pt_clust_9="70.01492"></scales>
<clustering>
<clus scale="   70.015">  2  9  1 -1</clus>
<clus scale="   82.757">  5  6 -1 -1</clus>
<clus scale="   90.760">  7  8 -1 -1</clus>
<clus scale="   99.003">  2  5  1 -1</clus>
<clus scale="   70.015">  2  5  1 -1</clus>
</clustering>
</event>
<event>
 9    1  0.6014990E-005  0.1994203E+03  0.7546771E-02  0.1170354E+00
         21   -1    0    0  501  502  0.00000000000E+00  0.00000000000E+00  0.18956585377E+03  0.18956585377E+03  0.00000000000E+00 0.  1.
         -2   -1    0    0    0  501 -0.00000000000E+00 -0.00000000000E+00 -0.56315796137E+03  0.56315796137E+03  0.00000000000E+00 0.  1.
        -24    2    1    2    0    0 -0.28401673447E+02 -0.90813732668E+02 -0.27942161502E+03  0.30604729486E+03  0.80837606667E+02 0.  0.
         23    2    1    2    0    0  0.17255079022E+03 -0.43894741031E+02  0.46714335595E+02  0.20424328089E+03  0.88501780434E+02 0.  0.
         13    1    3    3    0    0 -0.44820474505E+02 -0.18561062834E+02 -0.83308083534E+02  0.96403447918E+02  0.00000000000E+00 0. -1.
        -14    1    3    3    0    0  0.16418801058E+02 -0.72252669834E+02 -0.19611353149E+03  0.20964384694E+03  0.00000000000E+00 0.  1.
        -13    1    4    4    0    0  0.12003698294E+03 -0.65789348702E+02  0.53453407017E+02  0.14695027185E+03  0.00000000000E+00 0.  1.
         13    1    4    4    0    0  0.52513807282E+02  0.21894607670E+02 -0.67390714215E+01  0.57293009032E+02  0.00000000000E+00 0. -1.
         -1    1    1    2    0  502 -0.14414911678E+03  0.13470847370E+03 -0.14088482817E+03  0.24243323939E+03  0.00000000000E+00 0.  1.
<scales pt_clust_5="13000.00000" pt_clust_6="13000.00000" pt_clust_7="13000.00000" pt_clust_8="13000.00000" pt_clust_9="178.70623"></scales>
<clustering>
<clus scale="   80.838">  5  6 -1 -1</clus>
<clus scale="   88.502">  7  8 -1 -1</clus>
<clus scale="  124.854">  2  5  1 -1</clus>
<clus scale="  178.706">  1  9  2 -1</clus>
<clus scale="  178.706">  1  5  2 -1</clus>
</clustering>
</event>
<event>
 9    1  0.6014990E-005  0.1143355E+03  0.7546771E-02  0.1256638E+00
         21   -1    0    0  501  502  0.00000000000E+00  0.00000000000E+00  0.23955715637E+02  0.23955715637E+02  0.00000000000E+00 0. -1.
          1   -1    0    0  502    0 -0.00000000000E+00 -0.00000000000E+00 -0.82023517092E+03  0.82023517092E+03  0.00000000000E+00 0. -1.
         23    2    1    2    0    0  0.36389042347E+02  0.70111350756E+02 -0.53821621174E+03  0.55151108966E+03  0.90818651907E+02 0.  0.
        -24    2    1    2    0    0 -0.20695716684E+02 -0.52441311473E+02 -0.24876381658E+03  0.26728314160E+03  0.79865120699E+02 0.  0.
         13    1    4    4    0    0  0.28521422388E+02 -0.92852028684E+01 -0.10721585211E+03  0.11133249961E+03  0.00000000000E+00 0. -1.
        -14    1    4    4    0    0 -0.49217139072E+02 -0.43156108605E+02 -0.14154796447E+03  0.15595064198E+03  0.00000000000E+00 0.  1.
        -11    1    3    3    0    0  0.51576509159E+02  0.84007758394E+02 -0.47135168563E+03  0.48154942769E+03  0.00000000000E+00 0. -1.
         11    1    3    3    0    0 -0.15187466812E+02 -0.13896407638E+02 -0.66864526115E+02  0.69961661973E+02  0.00000000000E+00 0.  1.
          2    1    1    2  501    0 -0.15693325663E+02 -0.17670039282E+02 -0.92994269683E+01  0.25396655302E+02  0.00000000000E+00 0. -1.
<scales pt_clust_5="13000.00000" pt_clust_6="13000.00000" pt_clust_7="13000.00000" pt_clust_8="13000.00000" pt_clust_9="23.63283"></scales>
<clustering>
<clus scale="   23.633">  1  9  2 -1</clus>
<clus scale="   79.865">  5  6 -1 -1</clus>
<clus scale="   90.819">  7  8 -1 -1</clus>
<clus scale="  105.844">  1  5  2 -1</clus>
<clus scale="   23.633">  1  5  2 -1</clus>
</clustering>
</event>
<event>
 9    1  0.6014990E-005  0.9674062E+02  0.7546771E-02  0.1292743E+00
         21   -1    0    0  501  502  0.00000000000E+00  0.00000000000E+00  0.24254649607E+02  0.24254649607E+02  0.00000000000E+00 0.  1.
          1   -1    0    0  502    0 -0.00000000000E+00 -0.00000000000E+00 -0.77978842475E+03  0.77978842475E+03  0.00000000000E+00 0. -1.
        -24    2    1    2    0    0  0.47620834978E+02  0.15889117332E+02 -0.40763751503E+03  0.41870426022E+03  0.81392296291E+02 0.  0.
         23    2    1    2    0    0 -0.96348676192E+01 -0.49199526175E+01 -0.32879614459E+03  0.34142901223E+03  0.91377399194E+02 0.  0.
         13    1    3    3    0    0  0.70870440683E+02  0.97753371408E+01 -0.29927869010E+03  0.30771075855E+03  0.00000000000E+00 0. -1.
        -14    1    3    3    0    0 -0.23249605705E+02  0.61137801911E+01 -0.10835882493E+03  0.11099350167E+03  0.00000000000E+00 0.  1.
        -11    1    4    4    0    0  0.22297135331E+02 -0.35504348072E+02 -0.10056584631E+03  0.10895508441E+03  0.00000000000E+00 0. -1.
         11    1    4    4    0    0 -0.31932002950E+02  0.30584395455E+02 -0.22823029828E+03  0.23247392781E+03  0.00000000000E+00 0.  1.
          2    1    1    2  501    0 -0.37985967358E+02 -0.10969164714E+02 -0.19100115522E+02  0.43909801909E+02  0.00000000000E+00 0. -1.
<scales pt_clust_5="13000.00000" pt_clust_6="13000.00000" pt_clust_7="13000.00000" pt_clust_8="13000.00000" pt_clust_9="39.53804"></scales>
<clustering>
<clus scale="   39.538">  1  9  2 -1</clus>
<clus scale="   81.392">  5  6 -1 -1</clus>
<clus scale="   87.371">  2  5  1 -1</clus>
<clus scale="   91.377">  7  8 -1 -1</clus>
<clus scale="   39.538">  1  5  2 -1</clus>
</clustering>
</event>
<event>
 9    1  0.6014990E-005  0.1043148E+03  0.7546771E-02  0.1276296E+00
         21   -1    0    0  501  502  0.00000000000E+00  0.00000000000E+00  0.37614753236E+03  0.37614753236E+03  0.00000000000E+00 0.  1.
          1   -1    0    0  502    0 -0.00000000000E+00 -0.00000000000E+00 -0.10398018799E+03  0.10398018799E+03  0.00000000000E+00 0. -1.
         23    2    1    2    0    0 -0.44297741591E+02  0.25610487343E+02 -0.30859076343E+02  0.10920988261E+03  0.91412958027E+02 0.  0.
        -24    2    1    2    0    0  0.67269256696E+02  0.50774888827E+02  0.10329819670E+03  0.15585091869E+03  0.80720190683E+02 0.  0.
         13    1    4    4    0    0  0.33065444334E+02  0.32032149679E+01 -0.41375228989E+01  0.33476906829E+02  0.00000000000E+00 0. -1.
        -14    1    4    4    0    0  0.34203812362E+02  0.47571673859E+02  0.10743571960E+03  0.12237401186E+03  0.00000000000E+00 0.  1.
        -11    1    3    3    0    0  0.18305624528E+02  0.35982472438E+02 -0.49730720928E+01  0.40676352567E+02  0.00000000000E+00 0.  1.
         11    1    3    3    0    0 -0.62603366119E+02 -0.10371985095E+02 -0.25886004250E+02  0.68533530044E+02  0.00000000000E+00 0. -1.
          2    1    1    2  501    0 -0.22971515105E+02 -0.76385376170E+02  0.19972822402E+03  0.21506691905E+03  0.00000000000E+00 0. -1.
<scales pt_clust_5="13000.00000" pt_clust_6="13000.00000" pt_clust_7="13000.00000" pt_clust_8="13000.00000" pt_clust_9="79.76476"></scales>
<clustering>
<clus scale="   79.765">  1  9  2 -1</clus>
<clus scale="   80.720">  5  6 -1 -1</clus>
<clus scale="   91.413">  7  8 -1 -1</clus>
<clus scale="   95.084">  1  5  2 -1</clus>
<clus scale="   79.765">  1  5  2 -1</clus>
</clustering>
</event>
<event>
 9    1  0.6014990E-005  0.1005082E+03  0.7546771E-02  0.1282333E+00
         21   -1    0    0  501  502  0.00000000000E+00  0.00000000000E+00  0.46950701206E+03  0.46950701206E+03  0.00000000000E+00 0.  1.
         -2   -1    0    0    0  501 -0.00000000000E+00 -0.00000000000E+00 -0.50454909428E+02  0.50454909428E+02  0.00000000000E+00 0.  1.
        -24    2    1    2    0    0 -0.20479591982E+02  0.48810075500E+02  0.37200378237E+02  0.10763155734E+03  0.86016549783E+02 0.  0.
         23    2    1    2    0    0 -0.21513767529E+02 -0.76662653182E+01  0.20552550236E+03  0.22646161493E+03  0.92317479917E+02 0.  0.
         13    1    3    3    0    0 -0.15978900208E+02 -0.15340863033E+02  0.37231821646E+02  0.43322925496E+02  0.00000000000E+00 0. -1.
        -14    1    3    3    0    0 -0.45006917747E+01  0.64150938533E+02 -0.31443409356E-01  0.64308631845E+02  0.00000000000E+00 0.  1.
        -11    1    4    4    0    0 -0.24356238869E+02  0.26228604401E+02  0.18105708632E+03  0.18456119464E+03  0.00000000000E+00 0.  1.
         11    1    4    4    0    0  0.28424713401E+01 -0.33894869720E+02  0.24468416037E+02  0.41900420284E+02  0.00000000000E+00 0. -1.
         -1    1    1    2    0  502  0.41993359511E+02 -0.41143810182E+02  0.17632622203E+03  0.18586874922E+03  0.00000000000E+00 0.  1.
<scales pt_clust_5="13000.00000" pt_clust_6="13000.00000" pt_clust_7="13000.00000" pt_clust_8="13000.00000" pt_clust_9="58.78993"></scales>
<clustering>
<clus scale="   58.790">  1  9  2 -1</clus>
<clus scale="   86.017">  5  6 -1 -1</clus>
<clus scale="   92.317">  7  8 -1 -1</clus>
<clus scale="   94.754">  2  5  1 -1</clus>
<clus scale="   58.790">  1  5  2 -1</clus>
</clustering>
</event>
<event>
 9    1  0.6014990E-005  0.3413263E+03  0.7546771E-02  0.1066232E+00
         -2   -1    0    0    0  501 -0.00000000000E+00  0.00000000000E+00  0.13691667104E+03  0.13691667104E+03  0.00000000000E+00 0.  1.
         21   -1    0    0  501  502  0.00000000000E+00 -0.00000000000E+00 -0.77815031767E+03  0.77815031767E+03  0.00000000000E+00 0. -1.
        -24    2    1    2    0    0  0.43090470918E+02  0.60206382790E+02 -0.12404611909E+03  0.16511994641E+03  0.79972244120E+02 0.  0.
         23    2    1    2    0    0  0.15310875400E+03  0.14600279166E+03 -0.35265729389E+03  0.42118184148E+03  0.90927833661E+02 0.  0.
         13    1    3    3    0    0  0.46052942788E+01  0.49080351720E+02 -0.19238770326E+02  0.52917104456E+02  0.00000000000E+00 0. -1.
        -14    1    3    3    0    0  0.38485176639E+02  0.11126031069E+02 -0.10480734876E+03  0.11220284195E+03  0.00000000000E+00 0.  1.
        -11    1    4    4    0    0  0.14040208446E+03  0.83127761675E+02 -0.28158265273E+03  0.32544087082E+03  0.00000000000E+00 0. -1.
         11    1    4    4    0    0  0.12706669535E+02  0.62875029985E+02 -0.71074641157E+02  0.95740970655E+02  0.00000000000E+00 0.  1.
         -1    1    1    2    0  502 -0.19619922492E+03 -0.20620917445E+03 -0.16453023366E+03  0.32876520082E+03  0.00000000000E+00 0.  1.
<scales pt_clust_5="13000.00000" pt_clust_6="13000.00000" pt_clust_7="13000.00000" pt_clust_8="13000.00000" pt_clust_9="284.63387"></scales>
<clustering>
<clus scale="   79.972">  5  6 -1 -1</clus>
<clus scale="   90.928">  7  8 -1 -1</clus>
<clus scale="   93.358">  5  7 -1 -1</clus>
<clus scale="  284.634">  2  9  1 -1</clus>
<clus scale="  284.634">  2  5  1 -1</clus>
</clustering>
</event>
<event>
 9    1  0.6014990E-005  0.1178303E+03  0.7546771E-02  0.1251907E+00
         -4   -1    0    0    0  501 -0.00000000000E+00  0.00000000000E+00  0.11872783587E+03  0.11872783587E+03  0.00000000000E+00 0.  1.
         21   -1    0    0  501  502  0.00000000000E+00 -0.00000000000E+00 -0.23160987406E+03  0.23160987406E+03  0.00000000000E+00 0.  1.
         23    2    1    2    0    0 -0.13519926655E+02  0.75917721693E+02  0.29297701858E+02  0.12524133627E+03  0.94237721183E+02 0.  0.
        -24    2    1    2    0    0 -0.31495176778E+02 -0.53285359525E+02 -0.14287189001E+03  0.17470726347E+03  0.79239985191E+02 0.  0.
         11    1    4    4    0    0 -0.39637360569E+02 -0.56273181224E+01 -0.24734867576E+02  0.47059544581E+02  0.00000000000E+00 0. -1.
        -12    1    4    4    0    0  0.81421837916E+01 -0.47658041402E+02 -0.11813702244E+03  0.12764771889E+03  0.00000000000E+00 0.  1.
        -13    1    3    3    0    0 -0.54051756275E+02  0.46563331842E+02  0.22062871225E+02  0.74676010307E+02  0.00000000000E+00 0.  1.
         13    1    3    3    0    0  0.40531829620E+02  0.29354389852E+02  0.72348306325E+01  0.50565325968E+02  0.00000000000E+00 0. -1.
         -3    1    1    2    0  502  0.45015103432E+02 -0.22632362169E+02  0.69214996785E+00  0.50389110192E+02  0.00000000000E+00 0.  1.
<scales pt_clust_5="13000.00000" pt_clust_6="13000.00000" pt_clust_7="13000.00000" pt_clust_8="13000.00000" pt_clust_9="50.38438"></scales>
<clustering>
<clus scale="   50.384">  2  9  1 -1</clus>
<clus scale="   79.240">  5  6 -1 -1</clus>
<clus scale="   94.238">  7  8 -1 -1</clus>
<clus scale="  106.218">  2  5  1 -1</clus>
<clus scale="   50.384">  2  5  1 -1</clus>
</clustering>
</event>
<event>
 9    1  0.6014990E-005  0.2318317E+03  0.7546771E-02  0.1131708E+00
         21   -1    0    0  501  502  0.00000000000E+00  0.00000000000E+00  0.37011794546E+03  0.37011794546E+03  0.00000000000E+00 0. -1.
          1   -1    0    0  502    0 -0.00000000000E+00 -0.00000000000E+00 -0.31815118469E+03  0.31815118469E+03  0.00000000000E+00 0. -1.
        -24    2    1    2    0    0  0.99562259651E+02  0.15220531078E+03  0.31964871620E+02  0.20083024898E+03  0.78942610241E+02 0.  0.
         23    2    1    2    0    0  0.12098134736E+03 -0.20408831355E+03  0.52562369322E+02  0.25854695593E+03  0.88290427650E+02 0.  0.
         11    1    3    3    0    0  0.43766830043E+02  0.12883777388E+03  0.98551327144E+01  0.13642518474E+03  0.00000000000E+00 0. -1.
        -12    1    3    3    0    0  0.55795429608E+02  0.23367536907E+02  0.22109738906E+02  0.64405064247E+02  0.00000000000E+00 0.  1.
        -11    1    4    4    0    0  0.62498037461E+02 -0.12928815882E+03  0.73497033497E+02  0.16131722360E+03  0.00000000000E+00 0.  1.
         11    1    4    4    0    0  0.58483309900E+02 -0.74800154723E+02 -0.20934664174E+02  0.97229732322E+02  0.00000000000E+00 0. -1.
          2    1    1    2  501    0 -0.22054360701E+03  0.51883002763E+02 -0.32560480173E+02  0.22889192524E+03  0.00000000000E+00 0. -1.
<scales pt_clust_5="13000.00000" pt_clust_6="13000.00000" pt_clust_7="13000.00000" pt_clust_8="13000.00000" pt_clust_9="214.36130"></scales>
<clustering>
<clus scale="   78.943">  5  6 -1 -1</clus>
<clus scale="   88.290">  7  8 -1 -1</clus>
<clus scale="  198.270">  2  5  1 -1</clus>
<clus scale="  214.361">  1  9  2 -1</clus>
<clus scale="  214.361">  1  5  2 -1</clus>
</clustering>
</event>
<event>
 9    1  0.6014990E-005  0.1365935E+03  0.7546771E-02  0.1218565E+00
          1   -1    0    0  502    0 -0.00000000000E+00  0.00000000000E+00  0.12541022797E+04  0.12541022797E+04  0.00000000000E+00 0. -1.
         21   -1    0    0  501  502  0.00000000000E+00 -0.00000000000E+00 -0.39487428991E+02  0.39487428991E+02  0.00000000000E+00 0. -1.
        -24    2    1    2    0    0  0.45294546387E+02 -0.75103861731E+02  0.38362344699E+03  0.40325140982E+03  0.88048648259E+02 0.  0.
         23    2    1    2    0    0 -0.14027767577E+03  0.12670884948E+02  0.68579914925E+03  0.70594615636E+03  0.90560062578E+02 0.  0.
         13    1    3    3    0    0  0.14987766112E+02 -0.67247736347E+02  0.35226412848E+03  0.35893858443E+03  0.00000000000E+00 0. -1.
        -14    1    3    3    0    0  0.30306780275E+02 -0.78561253833E+01  0.31359318510E+02  0.44312825391E+02  0.00000000000E+00 0.  1.
        -13    1    4    4    0    0 -0.99243250998E+02  0.41224640599E+02  0.56638689311E+03  0.57649180961E+03  0.00000000000E+00 0.  1.
         13    1    4    4    0    0 -0.41034424768E+02 -0.28553755651E+02  0.11941225614E+03  0.12945434676E+03  0.00000000000E+00 0. -1.
          2    1    1    2  501    0  0.94983129379E+02  0.62432976783E+02  0.14519225442E+03  0.18439214246E+03  0.00000000000E+00 0. -1.
<scales pt_clust_5="13000.00000" pt_clust_6="13000.00000" pt_clust_7="13000.00000" pt_clust_8="13000.00000" pt_clust_9="113.66473"></scales>
<clustering>
<clus scale="   88.049">  5  6 -1 -1</clus>
<clus scale="   90.560">  7  8 -1 -1</clus>
<clus scale="  113.665">  2  9  1 -1</clus>
<clus scale="  134.942">  1  5  2 -1</clus>
<clus scale="  113.665">  2  5  1 -1</clus>
</clustering>
</event>
<event>
 9    1  0.6014990E-005  0.8686334E+02  0.7546771E-02  0.1318351E+00
         -4   -1    0    0    0  501 -0.00000000000E+00  0.00000000000E+00  0.14326029065E+03  0.14326029065E+03  0.00000000000E+00 0.  1.
         21   -1    0    0  501  502  0.00000000000E+00 -0.00000000000E+00 -0.12081973169E+03  0.12081973169E+03  0.00000000000E+00 0.  1.
        -24    2    1    2    0    0 -0.37694986838E+02  0.56947623045E+01  0.98307361800E+02  0.13311272560E+03  0.81248495254E+02 0.  0.
         23    2    1    2    0    0  0.64911613231E+01  0.10004952706E+02 -0.39076574960E+02  0.80235840570E+02  0.69054885037E+02 0.  0.
         13    1    3    3    0    0 -0.42368007821E+02 -0.24398506515E+02  0.27641344294E+02  0.56163859565E+02  0.00000000000E+00 0. -1.
        -14    1    3    3    0    0  0.46730209824E+01  0.30093268819E+02  0.70666017506E+02  0.76948866032E+02  0.00000000000E+00 0.  1.
        -13    1    4    4    0    0 -0.31074404809E+02  0.16146780924E+01 -0.12884506255E+02  0.33678425157E+02  0.00000000000E+00 0.  1.
         13    1    4    4    0    0  0.37565566132E+02  0.83902746140E+01 -0.26192068705E+02  0.46557415414E+02  0.00000000000E+00 0. -1.
         -3    1    1    2    0  502  0.31203825515E+02 -0.15699715011E+02 -0.36790227877E+02  0.50731456173E+02  0.00000000000E+00 0.  1.
<scales pt_clust_5="13000.00000" pt_clust_6="13000.00000" pt_clust_7="13000.00000" pt_clust_8="13000.00000" pt_clust_9="34.93079"></scales>
<clustering>
<clus scale="   34.931">  2  9  1 -1</clus>
<clus scale="   69.055">  7  8 -1 -1</clus>
<clus scale="   75.581">  2  7  1 -1</clus>
<clus scale="   81.248">  5  6 -1 -1</clus>
<clus scale="   34.931">  2  5  1 -1</clus>
</clustering>
</event>
<event>
 9    1  0.6014990E-005  0.1591460E+03  0.7546771E-02  0.1221302E+00
         21   -1    0    0  501  502  0.00000000000E+00  0.00000000000E+00  0.59511372115E+02  0.59511372115E+02  0.00000000000E+00 0. -1.
          1   -1    0    0  502    0 -0.00000000000E+00 -0.00000000000E+00 -0.64582603023E+03  0.64582603023E+03  0.00000000000E+00 0. -1.
        -24    2    1    2    0    0 -0.60945698286E+01 -0.40862746968E+01 -0.60950262292E+02  0.10101425943E+03  0.80219104406E+02 0.  0.
         23    2    1    2    0    0  0.95437208019E+02  0.90078639873E+02 -0.20652773025E+03  0.26222138440E+03  0.94254596908E+02 0.  0.
         13    1    3    3    0    0  0.17824207878E+02 -0.31895182297E+02 -0.93673423762E+01  0.37719386838E+02  0.00000000000E+00 0. -1.
        -14    1    3    3    0    0 -0.23918777707E+02  0.27808907601E+02 -0.51582919915E+02  0.63294872588E+02  0.00000000000E+00 0.  1.
        -13    1    4    4    0    0 -0.13274550986E+02  0.30566610005E+02 -0.71819413715E+02  0.79174235313E+02  0.00000000000E+00 0. -1.
         13    1    4    4    0    0  0.10871175901E+03  0.59512029868E+02 -0.13470831653E+03  0.18304714909E+03  0.00000000000E+00 0.  1.
          2    1    1    2  501    0 -0.89342638191E+02 -0.85992365176E+02 -0.31883666557E+03  0.34210175852E+03  0.00000000000E+00 0. -1.
<scales pt_clust_5="13000.00000" pt_clust_6="13000.00000" pt_clust_7="13000.00000" pt_clust_8="13000.00000" pt_clust_9="128.23240"></scales>
<clustering>
<clus scale="   80.219">  5  6 -1 -1</clus>
<clus scale="   80.554">  2  5  1 -1</clus>
<clus scale="   94.255">  7  8 -1 -1</clus>
<clus scale="  128.232">  1  9  2 -1</clus>
<clus scale="  128.232">  1  5  2 -1</clus>
</clustering>
</event>
<event>
 9    1  0.6014990E-005  0.9845053E+02  0.7546771E-02  0.1290648E+00
         21   -1    0    0  501  502  0.00000000000E+00  0.00000000000E+00  0.83899757362E+02  0.83899757362E+02  0.00000000000E+00 0. -1.
          1   -1    0    0  502    0 -0.00000000000E+00 -0.00000000000E+00 -0.20553830754E+03  0.20553830754E+03  0.00000000000E+00 0. -1.
        -24    2    1    2    0    0 -0.37938677612E+02  0.21887496213E+02 -0.11199976690E+03  0.14440858620E+03  0.79946771262E+02 0.  0.
         23    2    1    2    0    0  0.13574293409E+02  0.12850318362E+02 -0.27810171235E+02  0.98871724001E+02  0.93020535686E+02 0.  0.
         13    1    3    3    0    0 -0.22129901371E+02  0.46985007528E+02 -0.37032285078E+02  0.63786468825E+02  0.00000000000E+00 0. -1.
        -14    1    3    3    0    0 -0.15808776240E+02 -0.25097511315E+02 -0.74967481818E+02  0.80622117379E+02  0.00000000000E+00 0.  1.
        -13    1    4    4    0    0  0.22473578257E+02  0.31367904218E+02  0.22401972540E+02  0.44619003893E+02  0.00000000000E+00 0. -1.
         13    1    4    4    0    0 -0.88992848482E+01 -0.18517585856E+02 -0.50212143775E+02  0.54252720109E+02  0.00000000000E+00 0.  1.
          2    1    1    2  501    0  0.24364384203E+02 -0.34737814575E+02  0.18171387950E+02  0.46157754701E+02  0.00000000000E+00 0. -1.
<scales pt_clust_5="13000.00000" pt_clust_6="13000.00000" pt_clust_7="13000.00000" pt_clust_8="13000.00000" pt_clust_9="42.43040"></scales>
<clustering>
<clus scale="   42.430">  1  9  2 -1</clus>
<clus scale="   79.947">  5  6 -1 -1</clus>
<clus scale="   86.204">  2  5  1 -1</clus>
<clus scale="   93.021">  7  8 -1 -1</clus>
<clus scale="   42.430">  1  5  2 -1</clus>
</clustering>
</event>
<event>
 9    1  0.6014990E-005  0.1286722E+03  0.7546771E-02  0.1230769E+00
          3   -1    0    0  502    0 -0.00000000000E+00  0.00000000000E+00  0.18007772806E+03  0.18007772806E+03  0.00000000000E+00 0. -1.
         21   -1    0    0  501  502  0.00000000000E+00 -0.00000000000E+00 -0.12169784687E+03  0.12169784687E+03  0.00000000000E+00 0.  1.
         23    2    1    2    0    0  0.85574148772E+02 -0.58877255324E+02  0.59937958901E+02  0.14664981366E+03  0.84404637293E+02 0.  0.
        -24    2    1    2    0    0 -0.58526491246E+02  0.65189932043E+02 -0.22818579769E+02  0.12014813110E+03  0.78992457904E+02 0.  0.
         13    1    4    4    0    0 -0.10968234839E+02  0.29486126098E+02  0.27853674639E+02  0.42018579208E+02  0.00000000000E+00 0. -1.
        -14    1    4    4    0    0 -0.47558256406E+02  0.35703805945E+02 -0.50672254408E+02  0.78129551887E+02  0.00000000000E+00 0.  1.
        -13    1    3    3    0    0  0.11955896934E+02 -0.58901440727E+02  0.30044973382E+02  0.67193925445E+02  0.00000000000E+00 0.  1.
         13    1    3    3    0    0  0.73618251838E+02  0.24185403448E-01  0.29892985519E+02  0.79455888214E+02  0.00000000000E+00 0. -1.
          4    1    1    2  501    0 -0.27047657526E+02 -0.63126767192E+01  0.21260502060E+02  0.34977630178E+02  0.00000000000E+00 0. -1.
<scales pt_clust_5="13000.00000" pt_clust_6="13000.00000" pt_clust_7="13000.00000" pt_clust_8="13000.00000" pt_clust_9="27.77456"></scales>
<clustering>
<clus scale="   27.775">  2  9  1 -1</clus>
<clus scale="   78.992">  5  6 -1 -1</clus>
<clus scale="   84.405">  7  8 -1 -1</clus>
<clus scale="  125.189">  2  5  1 -1</clus>
<clus scale="   27.775">  2  5  1 -1</clus>
</clustering>
</event>
<event>
 9    1  0.6014990E-005  0.8970154E+02  0.7546771E-02  0.1307913E+00
         21   -1    0    0  501  502  0.00000000000E+00  0.00000000000E+00  0.45326474881E+03  0.45326474881E+03  0.00000000000E+00 0.  1.
          3   -1    0    0  502    0 -0.00000000000E+00 -0.00000000000E+00 -0.47515683388E+02  0.47515683388E+02  0.00000000000E+00 0. -1.
         23    2    1    2    0    0  0.94377832472E+01  0.17329622925E+01  0.15825032562E+02  0.90518416302E+02  0.88606304083E+02 0.  0.
        -24    2    1    2    0    0 -0.28964993967E+02 -0.31292529340E+02  0.28241652530E+03  0.29706773979E+03  0.81682035913E+02 0.  0.
         13    1    4    4    0    0  0.28638042858E+02 -0.13220061143E+02  0.10706126425E+03  0.11161102911E+03  0.00000000000E+00 0. -1.
        -14    1    4    4    0    0 -0.57603036825E+02 -0.18072468197E+02  0.17535526105E+03  0.18545671068E+03  0.00000000000E+00 0.  1.
        -11    1    3    3    0    0  0.62492608119E+01 -0.43358461495E+02  0.10075198652E+02  0.44950184336E+02  0.00000000000E+00 0. -1.
         11    1    3    3    0    0  0.31885224353E+01  0.45091423788E+02  0.57498339102E+01  0.45568231966E+02  0.00000000000E+00 0.  1.
          4    1    1    2  501    0  0.19527210720E+02  0.29559567048E+02  0.10750750756E+03  0.11319427611E+03  0.00000000000E+00 0. -1.
<scales pt_clust_5="13000.00000" pt_clust_6="13000.00000" pt_clust_7="13000.00000" pt_clust_8="13000.00000" pt_clust_9="35.42711"></scales>
<clustering>
<clus scale="   35.427">  1  9  2 -1</clus>
<clus scale="   81.682">  5  6 -1 -1</clus>
<clus scale="   82.869">  1  5  2 -1</clus>
<clus scale="   88.606">  7  8 -1 -1</clus>
<clus scale="   35.427">  1  5  2 -1</clus>
</clustering>
</event>
<event>
 9    1  0.6014990E-005  0.1027495E+03  0.7546771E-02  0.1274816E+00
         21   -1    0    0  501  502  0.00000000000E+00  0.00000000000E+00  0.45582298904E+02  0.45582298904E+02  0.00000000000E+00 0. -1.
         -2   -1    0    0    0  501 -0.00000000000E+00 -0.00000000000E+00 -0.50931018271E+03  0.50931018271E+03  0.00000000000E+00 0.  1.
        -24    2    1    2    0    0  0.24938590316E+02  0.45964033661E+02 -0.35981434140E+03  0.37470653319E+03  0.90575935330E+02 0.  0.
         23    2    1    2    0    0 -0.37549369116E+02 -0.18293536711E+02 -0.11044264113E+03  0.14908422382E+03  0.91016043666E+02 0.  0.
         13    1    3    3    0    0  0.47063837580E+02 -0.46094090357E-01 -0.10864041963E+03  0.11839656967E+03  0.00000000000E+00 0. -1.
        -14    1    3    3    0    0 -0.22125247263E+02  0.46010127751E+02 -0.25117392177E+03  0.25630996352E+03  0.00000000000E+00 0.  1.
        -13    1    4    4    0    0 -0.67730177741E+02 -0.10947298554E+02 -0.69131566442E+02  0.97398120111E+02  0.00000000000E+00 0. -1.
         13    1    4    4    0    0  0.30180808625E+02 -0.73462381568E+01 -0.41311074687E+02  0.51686103704E+02  0.00000000000E+00 0.  1.
         -1    1    1    2    0  502  0.12610778799E+02 -0.27670496950E+02  0.65290987239E+01  0.31101724607E+02  0.00000000000E+00 0.  1.
<scales pt_clust_5="13000.00000" pt_clust_6="13000.00000" pt_clust_7="13000.00000" pt_clust_8="13000.00000" pt_clust_9="30.40869"></scales>
<clustering>
<clus scale="   30.409">  1  9  2 -1</clus>
<clus scale="   90.576">  5  6 -1 -1</clus>
<clus scale="   91.016">  7  8 -1 -1</clus>
<clus scale="  102.360">  2  5  1 -1</clus>
<clus scale="   30.409">  1  5  2 -1</clus>
</clustering>
</event>
<event>
 9    1  0.6014990E-005  0.9476902E+02  0.7546771E-02  0.1295368E+00
         -2   -1    0    0    0  501 -0.00000000000E+00  0.00000000000E+00  0.50404823399E+02  0.50404823399E+02  0.00000000000E+00 0.  1.
         21   -1    0    0  501  502  0.00000000000E+00 -0.00000000000E+00 -0.39942770148E+03  0.39942770148E+03  0.00000000000E+00 0. -1.
        -24    2    1    2    0    0 -0.11498487725E+02  0.54297601005E+02 -0.14167897017E+03  0.17438542535E+03  0.85187447982E+02 0.  0.
         23    2    1    2    0    0  0.17282058086E+02  0.19679821168E+02 -0.16347016175E+03  0.18924376850E+03  0.91677397654E+02 0.  0.
         11    1    3    3    0    0 -0.18975584482E+02  0.69206554478E+02 -0.68067497483E+02  0.98908059342E+02  0.00000000000E+00 0. -1.
        -12    1    3    3    0    0  0.74770967574E+01 -0.14908953473E+02 -0.73611472682E+02  0.75477366011E+02  0.00000000000E+00 0.  1.
        -11    1    4    4    0    0 -0.34484094788E+01  0.40175086766E+02 -0.15307105079E+03  0.15829300589E+03  0.00000000000E+00 0. -1.
         11    1    4    4    0    0  0.20730467564E+02 -0.20495265598E+02 -0.10399110965E+02  0.30950762612E+02  0.00000000000E+00 0.  1.
         -1    1    1    2    0  502 -0.57835703611E+01 -0.73977422173E+02 -0.43873746167E+02  0.86203331028E+02  0.00000000000E+00 0.  1.
<scales pt_clust_5="13000.00000" pt_clust_6="13000.00000" pt_clust_7="13000.00000" pt_clust_8="13000.00000" pt_clust_9="74.20320"></scales>
<clustering>
<clus scale="   74.203">  2  9  1 -1</clus>
<clus scale="   85.187">  5  6 -1 -1</clus>
<clus scale="   88.506">  1  5  2 -1</clus>
<clus scale="   91.677">  7  8 -1 -1</clus>
<clus scale="   74.203">  2  5  1 -1</clus>
</clustering>
</event>
<event>
 9    1  0.6014990E-005  0.3409950E+03  0.7546771E-02  0.1066453E+00
         21   -1    0    0  501  502  0.00000000000E+00  0.00000000000E+00  0.31113069315E+03  0.31113069315E+03  0.00000000000E+00 0.  1.
          1   -1    0    0  502    0 -0.00000000000E+00 -0.00000000000E+00 -0.99317715521E+03  0.99317715521E+03  0.00000000000E+00 0. -1.
         23    2    1    2    0    0 -0.29744852096E+02  0.33400615286E+03 -0.73596182154E+03  0.81316402087E+03  0.84563914803E+02 0.  0.
        -24    2    1    2    0    0 -0.45917149855E+01 -0.31572265798E+03 -0.93049563346E+02  0.33911759762E+03  0.81490141532E+02 0.  0.
         13    1    4    4    0    0  0.17556442055E+02 -0.11923537905E+02 -0.95673324161E+01  0.23279460118E+02  0.00000000000E+00 0. -1.
        -14    1    4    4    0    0 -0.22148157041E+02 -0.30379912008E+03 -0.83482230930E+02  0.31583813750E+03  0.00000000000E+00 0.  1.
        -13    1    3    3    0    0  0.15631838399E+02  0.78167784471E+02 -0.11396395604E+03  0.13907674204E+03  0.00000000000E+00 0.  1.
         13    1    3    3    0    0 -0.45376690495E+02  0.25583836839E+03 -0.62199786551E+03  0.67408727883E+03  0.00000000000E+00 0. -1.
          2    1    1    2  501    0  0.34336567082E+02 -0.18283494874E+02  0.14696492283E+03  0.15202622986E+03  0.00000000000E+00 0. -1.
<scales pt_clust_5="13000.00000" pt_clust_6="13000.00000" pt_clust_7="13000.00000" pt_clust_8="13000.00000" pt_clust_9="38.90098"></scales>
<clustering>
<clus scale="   38.901">  1  9  2 -1</clus>
<clus scale="   81.490">  5  6 -1 -1</clus>
<clus scale="   84.564">  7  8 -1 -1</clus>
<clus scale="  340.246">  1  5  2 -1</clus>
<clus scale="   38.901">  1  5  2 -1</clus>
</clustering>
</event>
<event>
 9    1  0.6014990E-005  0.9025685E+02  0.7546771E-02  0.1304290E+00
          1   -1    0    0  502    0 -0.00000000000E+00  0.00000000000E+00  0.10371271028E+03  0.10371271028E+03  0.00000000000E+00 0. -1.
         21   -1    0    0  501  502  0.00000000000E+00 -0.00000000000E+00 -0.49921721156E+03  0.49921721156E+03  0.00000000000E+00 0. -1.
        -24    2    1    2    0    0  0.15393251026E+02  0.21488009248E+02  0.57424621447E+02  0.10281567772E+03  0.81085077037E+02 0.  0.
         23    2    1    2    0    0 -0.24252250697E+01 -0.98989223432E+02 -0.23883953435E+03  0.27205951439E+03  0.84659955887E+02 0.  0.
         11    1    3    3    0    0  0.42835684705E+02  0.15922360470E+02  0.59166715612E+02  0.74760401841E+02  0.00000000000E+00 0. -1.
        -12    1    3    3    0    0 -0.27442433679E+02  0.55656487780E+01 -0.17420941652E+01  0.28055275879E+02  0.00000000000E+00 0.  1.
        -13    1    4    4    0    0  0.39178457904E+02 -0.29241212902E+02 -0.82988071400E+02  0.96317288637E+02  0.00000000000E+00 0. -1.
         13    1    4    4    0    0 -0.41603682974E+02 -0.69748010530E+02 -0.15585146295E+03  0.17574222575E+03  0.00000000000E+00 0.  1.
          2    1    1    2  501    0 -0.12968025956E+02  0.77501214184E+02 -0.21408958838E+03  0.22805472973E+03  0.00000000000E+00 0. -1.
<scales pt_clust_5="13000.00000" pt_clust_6="13000.00000" pt_clust_7="13000.00000" pt_clust_8="13000.00000" pt_clust_9="78.57867"></scales>
<clustering>
<clus scale="   78.579">  2  9  1 -1</clus>
<clus scale="   81.085">  5  6 -1 -1</clus>
<clus scale="   84.660">  7  8 -1 -1</clus>
<clus scale="   86.912">  1  5  2 -1</clus>
<clus scale="   78.579">  2  5  1 -1</clus>
</clustering>
</event>
<event>
 9    1  0.6014990E-005  0.5279524E+03  0.7546771E-02  0.1006730E+00
          1   -1    0    0  502    0 -0.00000000000E+00  0.00000000000E+00  0.56447050550E+03  0.56447050550E+03  0.00000000000E+00 0. -1.
         21   -1    0    0  501  502  0.00000000000E+00 -0.00000000000E+00 -0.45476808484E+03  0.45476808484E+03  0.00000000000E+00 0. -1.
        -24    2    1    2    0    0  0.68106458301E+01 -0.18512119906E+03  0.65088758016E+02  0.21198524098E+03  0.79905899265E+02 0.  0.
         23    2    1    2    0    0  0.15427636084E+03 -0.26927374363E+03  0.33051287296E+02  0.32501121497E+03  0.90721319110E+02 0.  0.
         11    1    3    3    0    0  0.11345562278E+02 -0.95554087366E+02  0.74662181646E+02  0.12179386998E+03  0.00000000000E+00 0. -1.
        -12    1    3    3    0    0 -0.45349164482E+01 -0.89567111690E+02 -0.95734236303E+01  0.90191371005E+02  0.00000000000E+00 0.  1.
        -11    1    4    4    0    0  0.86168191643E+02 -0.17555562862E+03 -0.21903640866E+02  0.19678543003E+03  0.00000000000E+00 0. -1.
         11    1    4    4    0    0  0.68108169199E+02 -0.93718115011E+02  0.54954928162E+02  0.12822578493E+03  0.00000000000E+00 0.  1.
          2    1    1    2  501    0 -0.16108700667E+03  0.45439494268E+03  0.11562375353E+02  0.48224213439E+03  0.00000000000E+00 0. -1.
<scales pt_clust_5="13000.00000" pt_clust_6="13000.00000" pt_clust_7="13000.00000" pt_clust_8="13000.00000" pt_clust_9="482.10350"></scales>
<clustering>
<clus scale="   79.906">  5  6 -1 -1</clus>
<clus scale="   90.721">  7  8 -1 -1</clus>
<clus scale="  134.098">  5  7 -1 -1</clus>
<clus scale="  482.104">  2  9  1 -1</clus>
<clus scale="  482.104">  2  5  1 -1</clus>
</clustering>
</event>
<event>
 9    1  0.6014990E-005  0.9954388E+02  0.7546771E-02  0.1287131E+00
         21   -1    0    0  501  502  0.00000000000E+00  0.00000000000E+00  0.44903284290E+03  0.44903284290E+03  0.00000000000E+00 0. -1.
         -4   -1    0    0    0  501 -0.00000000000E+00 -0.00000000000E+00 -0.10963279571E+03  0.10963279571E+03  0.00000000000E+00 0.  1.
        -24    2    1    2    0    0 -0.12165156550E+02  0.42129971222E+02 -0.66443152047E+02  0.11323013307E+03  0.80519842717E+02 0.  0.
         23    2    1    2    0    0  0.36176862274E+02  0.33352505777E+02  0.22408753336E+03  0.24716980395E+03  0.91959416991E+02 0.  0.
         11    1    3    3    0    0  0.21174156567E+02 -0.80010095198E+01  0.12098491368E+01  0.22667703779E+02  0.00000000000E+00 0. -1.
        -12    1    3    3    0    0 -0.33339313117E+02  0.50130980741E+02 -0.67653001184E+02  0.90562429287E+02  0.00000000000E+00 0.  1.
        -13    1    4    4    0    0 -0.40906831888E+01 -0.23725094458E+02  0.19485971523E+02  0.30972841041E+02  0.00000000000E+00 0.  1.
         13    1    4    4    0    0  0.40267545463E+02  0.57077600234E+02  0.20460156184E+03  0.21619696291E+03  0.00000000000E+00 0. -1.
         -3    1    1    2    0  502 -0.24011705724E+02 -0.75482476998E+02  0.18175566589E+03  0.19826570159E+03  0.00000000000E+00 0.  1.
<scales pt_clust_5="13000.00000" pt_clust_6="13000.00000" pt_clust_7="13000.00000" pt_clust_8="13000.00000" pt_clust_9="79.20964"></scales>
<clustering>
<clus scale="   79.210">  1  9  2 -1</clus>
<clus scale="   80.520">  5  6 -1 -1</clus>
<clus scale="   89.084">  2  5  1 -1</clus>
<clus scale="   91.959">  7  8 -1 -1</clus>
<clus scale="   79.210">  1  5  2 -1</clus>
</clustering>
</event>
<event>
 9    1  0.6014990E-005  0.2120427E+03  0.7546771E-02  0.1140119E+00
         21   -1    0    0  501  502  0.00000000000E+00  0.00000000000E+00  0.77496707834E+03  0.77496707834E+03  0.00000000000E+00 0. -1.
          3   -1    0    0  502    0 -0.00000000000E+00 -0.00000000000E+00 -0.63725736757E+03  0.63725736757E+03  0.00000000000E+00 0. -1.
        -24    2    1    2    0    0  0.11560306003E+02 -0.17187901352E+03 -0.29990595988E+03  0.35639766192E+03  0.86021350147E+02 0.  0.
         23    2    1    2    0    0  0.56688058134E+02  0.23086875819E+03 -0.25370573138E+03  0.35864466281E+03  0.88008389282E+02 0.  0.
         13    1    3    3    0    0  0.40084484893E+02 -0.36582366713E+02 -0.86295339188E+02  0.10194077226E+03  0.00000000000E+00 0. -1.
        -14    1    3    3    0    0 -0.28524178890E+02 -0.13529664681E+03 -0.21361062070E+03  0.25445688966E+03  0.00000000000E+00 0.  1.
        -11    1    4    4    0    0  0.36748985421E+02  0.41937161292E+02 -0.99076330491E+02  0.11368963317E+03  0.00000000000E+00 0. -1.
         11    1    4    4    0    0  0.19939072713E+02  0.18893159690E+03 -0.15462940089E+03  0.24495502964E+03  0.00000000000E+00 0.  1.
          4    1    1    2  501    0 -0.68248364137E+02 -0.58989744666E+02  0.69132140204E+03  0.69718212118E+03  0.00000000000E+00 0. -1.
<scales pt_clust_5="13000.00000" pt_clust_6="13000.00000" pt_clust_7="13000.00000" pt_clust_8="13000.00000" pt_clust_9="90.20881"></scales>
<clustering>
<clus scale="   86.021">  5  6 -1 -1</clus>
<clus scale="   88.008">  7  8 -1 -1</clus>
<clus scale="   90.209">  1  9  2 -1</clus>
<clus scale="  211.226">  2  5  1 -1</clus>
<clus scale="   90.209">  1  5  2 -1</clus>
</clustering>
</event>
<event>
 9    1  0.6014990E-005  0.1698729E+03  0.7546771E-02  0.1179124E+00
          1   -1    0    0  502    0 -0.00000000000E+00  0.00000000000E+00  0.20546916758E+03  0.20546916758E+03  0.00000000000E+00 0. -1.
         21   -1    0    0  501  502  0.00000000000E+00 -0.00000000000E+00 -0.19549144755E+03  0.19549144755E+03  0.00000000000E+00 0. -1.
        -24    2    1    2    0    0  0.65809429993E+02  0.12527590761E+03  0.19186788547E+02  0.16387492849E+03  0.80386100973E+02 0.  0.
         23    2    1    2    0    0 -0.93617977030E+02 -0.11915586964E+03 -0.54165590152E+02  0.18387047273E+03  0.88949382750E+02 0.  0.
         13    1    3    3    0    0  0.43430614386E+02  0.10305289964E+03  0.47491998399E+02  0.12149735924E+03  0.00000000000E+00 0. -1.
        -14    1    3    3    0    0  0.22378815606E+02  0.22223007978E+02 -0.28305209851E+02  0.42377569258E+02  0.00000000000E+00 0.  1.
        -13    1    4    4    0    0 -0.56930422707E+02 -0.60538025424E+02 -0.74692679909E+02  0.11173594759E+03  0.00000000000E+00 0.  1.
         13    1    4    4    0    0 -0.36687554323E+02 -0.58617844220E+02  0.20527089758E+02  0.72134525140E+02  0.00000000000E+00 0. -1.
          2    1    1    2  501    0  0.27808547038E+02 -0.61200379708E+01  0.44956521634E+02  0.53215213901E+02  0.00000000000E+00 0. -1.
<scales pt_clust_5="13000.00000" pt_clust_6="13000.00000" pt_clust_7="13000.00000" pt_clust_8="13000.00000" pt_clust_9="28.47404"></scales>
<clustering>
<clus scale="   28.474">  2  9  1 -1</clus>
<clus scale="   80.386">  5  6 -1 -1</clus>
<clus scale="   88.949">  7  8 -1 -1</clus>
<clus scale="  165.550">  1  5  2 -1</clus>
<clus scale="   28.474">  2  5  1 -1</clus>
</clustering>
</event>
<event>
 9    1  0.6014990E-005  0.9213850E+02  0.7546771E-02  0.1306179E+00
         -4   -1    0    0    0  501 -0.00000000000E+00  0.00000000000E+00  0.19511327341E+03  0.19511327341E+03  0.00000000000E+00 0.  1.
         21   -1    0    0  501  502  0.00000000000E+00 -0.00000000000E+00 -0.12139758616E+03  0.12139758616E+03  0.00000000000E+00 0.  1.
        -24    2    1    2    0    0  0.86221052127E+01 -0.10953698139E+02  0.14005778370E+03  0.16111534647E+03  0.78406937773E+02 0.  0.
         23    2    1    2    0    0  0.17845052536E+01 -0.25993096104E+02 -0.24116633377E+02  0.98331050624E+02  0.91698189772E+02 0.  0.
         11    1    3    3    0    0 -0.31863972401E+02  0.49128798455E+01  0.85315368276E+02  0.91203953805E+02  0.00000000000E+00 0. -1.
        -12    1    3    3    0    0  0.40486077614E+02 -0.15866577984E+02  0.54742415425E+02  0.69911392662E+02  0.00000000000E+00 0.  1.
        -11    1    4    4    0    0 -0.49127767288E+01 -0.54676600757E+02 -0.36979184783E+02  0.66190075938E+02  0.00000000000E+00 0.  1.
         11    1    4    4    0    0  0.66972819824E+01  0.28683504652E+02  0.12862551407E+02  0.32140974686E+02  0.00000000000E+00 0. -1.
         -3    1    1    2    0  502 -0.10406610466E+02  0.36946794243E+02 -0.42225463073E+02  0.57064462479E+02  0.00000000000E+00 0.  1.
<scales pt_clust_5="13000.00000" pt_clust_6="13000.00000" pt_clust_7="13000.00000" pt_clust_8="13000.00000" pt_clust_9="38.38441"></scales>
<clustering>
<clus scale="   38.384">  2  9  1 -1</clus>
<clus scale="   78.407">  5  6 -1 -1</clus>
<clus scale="   78.921">  1  5  2 -1</clus>
<clus scale="   91.698">  7  8 -1 -1</clus>
<clus scale="   38.384">  2  5  1 -1</clus>
</clustering>
</event>
<event>
 9    1  0.6014990E-005  0.9767281E+02  0.7546771E-02  0.1295286E+00
         -2   -1    0    0    0  501 -0.00000000000E+00  0.00000000000E+00  0.89234922771E+02  0.89234922771E+02  0.00000000000E+00 0.  1.
         21   -1    0    0  501  502  0.00000000000E+00 -0.00000000000E+00 -0.26147352325E+03  0.26147352325E+03  0.00000000000E+00 0.  1.
         23    2    1    2    0    0 -0.18039406521E+02  0.70649406596E+01  0.41140899701E+01  0.99561979713E+02  0.97572170694E+02 0.  0.
        -24    2    1    2    0    0 -0.57056869512E+02  0.14905325149E+02 -0.89597223131E+02  0.13431901079E+03  0.80847258395E+02 0.  0.
         13    1    4    4    0    0  0.11315768851E+01  0.20527187768E+02 -0.69538921282E+02  0.72514188108E+02  0.00000000000E+00 0. -1.
        -14    1    4    4    0    0 -0.58188446398E+02 -0.56218626191E+01 -0.20058301849E+02  0.61804822680E+02  0.00000000000E+00 0.  1.
        -11    1    3    3    0    0 -0.10098419996E+01  0.23018296500E+02  0.46094453109E+02  0.51532129415E+02  0.00000000000E+00 0.  1.
         11    1    3    3    0    0 -0.17029564521E+02 -0.15953355841E+02 -0.41980363139E+02  0.48029850298E+02  0.00000000000E+00 0. -1.
         -1    1    1    2    0  502  0.75096276033E+02 -0.21970265808E+02 -0.86755467319E+02  0.11682745552E+03  0.00000000000E+00 0.  1.
<scales pt_clust_5="13000.00000" pt_clust_6="13000.00000" pt_clust_7="13000.00000" pt_clust_8="13000.00000" pt_clust_9="78.24413"></scales>
<clustering>
<clus scale="   78.244">  2  9  1 -1</clus>
<clus scale="   80.847">  5  6 -1 -1</clus>
<clus scale="   80.969">  2  5  1 -1</clus>
<clus scale="   97.572">  7  8 -1 -1</clus>
<clus scale="   78.244">  2  5  1 -1</clus>
</clustering>
</event>
<event>
 9    1  0.6014990E-005  0.9385640E+02  0.7546771E-02  0.1301868E+00
         -4   -1    0    0    0  501 -0.00000000000E+00  0.00000000000E+00  0.18235084843E+03  0.18235084843E+03  0.00000000000E+00 0.  1.
         21   -1    0    0  501  502  0.00000000000E+00 -0.00000000000E+00 -0.37365754680E+03  0.37365754680E+03  0.00000000000E+00 0. -1.
        -24    2    1    2    0    0  0.52000750349E+01 -0.10365534409E+02  0.15580865394E+03  0.17544722370E+03  0.79817958989E+02 0.  0.
         23    2    1    2    0    0 -0.34993680203E+02  0.12653550336E+02 -0.14494862437E+03  0.17619806378E+03  0.93010665966E+02 0.  0.
         13    1    3    3    0    0  0.38557359654E+01 -0.24186290971E+02  0.62918179361E+01  0.25286959954E+02  0.00000000000E+00 0. -1.
        -14    1    3    3    0    0  0.13443390695E+01  0.13820756562E+02  0.14951683600E+03  0.15016026374E+03  0.00000000000E+00 0.  1.
        -13    1    4    4    0    0  0.23678185611E+02 -0.17469456650E+02 -0.22225563013E+02  0.36875656479E+02  0.00000000000E+00 0.  1.
         13    1    4    4    0    0 -0.58671865814E+02  0.30123006986E+02 -0.12272306135E+03  0.13932240730E+03  0.00000000000E+00 0. -1.
         -3    1    1    2    0  502  0.29793605168E+02 -0.22880159262E+01 -0.20216672794E+03  0.20436310776E+03  0.00000000000E+00 0.  1.
<scales pt_clust_5="13000.00000" pt_clust_6="13000.00000" pt_clust_7="13000.00000" pt_clust_8="13000.00000" pt_clust_9="29.88133"></scales>
<clustering>
<clus scale="   29.881">  2  9  1 -1</clus>
<clus scale="   79.818">  5  6 -1 -1</clus>
<clus scale="   80.802">  1  5  2 -1</clus>
<clus scale="   93.011">  7  8 -1 -1</clus>
<clus scale="   29.881">  2  5  1 -1</clus>
</clustering>
</event>
<event>
 9    1  0.6014990E-005  0.1362731E+03  0.7546771E-02  0.1220847E+00
          1   -1    0    0  502    0 -0.00000000000E+00  0.00000000000E+00  0.24222475461E+03  0.24222475461E+03  0.00000000000E+00 0. -1.
         21   -1    0    0  501  502  0.00000000000E+00 -0.00000000000E+00 -0.13138739939E+03  0.13138739939E+03  0.00000000000E+00 0. -1.
        -24    2    1    2    0    0  0.94198300770E+02 -0.90350679493E+02  0.10864674648E+03  0.18748115138E+03  0.79426075376E+02 0.  0.
         23    2    1    2    0    0 -0.39157435039E+02  0.40232454947E+02 -0.21064118116E+02  0.10814308270E+03  0.89995967212E+02 0.  0.
         11    1    3    3    0    0  0.80660290215E+02 -0.54235681806E+02  0.11255426958E+03  0.14871467715E+03  0.00000000000E+00 0. -1.
        -12    1    3    3    0    0  0.13538010555E+02 -0.36114997687E+02 -0.39075230998E+01  0.38766474234E+02  0.00000000000E+00 0.  1.
        -13    1    4    4    0    0 -0.23271139615E+02 -0.22577051949E+02 -0.28190655237E+02  0.42964895629E+02  0.00000000000E+00 0. -1.
         13    1    4    4    0    0 -0.15886295424E+02  0.62809506896E+02  0.71265371205E+01  0.65178187073E+02  0.00000000000E+00 0.  1.
          2    1    1    2  501    0 -0.55040865732E+02  0.50118224547E+02  0.23254726851E+02  0.77987919918E+02  0.00000000000E+00 0. -1.
<scales pt_clust_5="13000.00000" pt_clust_6="13000.00000" pt_clust_7="13000.00000" pt_clust_8="13000.00000" pt_clust_9="74.44017"></scales>
<clustering>
<clus scale="   74.440">  2  9  1 -1</clus>
<clus scale="   79.426">  5  6 -1 -1</clus>
<clus scale="   89.996">  7  8 -1 -1</clus>
<clus scale="  129.536">  1  5  2 -1</clus>
<clus scale="   74.440">  2  5  1 -1</clus>
</clustering>
</event>
<event>
 9    1  0.6014990E-005  0.1705597E+03  0.7546771E-02  0.1180895E+00
         21   -1    0    0  501  502  0.00000000000E+00  0.00000000000E+00  0.13682842494E+03  0.13682842494E+03  0.00000000000E+00 0. -1.
          1   -1    0    0  502    0 -0.00000000000E+00 -0.00000000000E+00 -0.55355386331E+03  0.55355386331E+03  0.00000000000E+00 0. -1.
        -24    2    1    2    0    0  0.65018552708E+02  0.10923380207E+03 -0.13793854290E+03  0.20911959448E+03  0.92436613229E+02 0.  0.
         23    2    1    2    0    0 -0.96555556393E+02  0.89591709816E+02 -0.35407086135E+02  0.16541478991E+03  0.93588145807E+02 0.  0.
         13    1    3    3    0    0  0.43253142991E+02  0.11389940741E+03 -0.14133753090E+03  0.18660173372E+03  0.00000000000E+00 0. -1.
        -14    1    3    3    0    0  0.21765409716E+02 -0.46656053472E+01  0.33989879983E+01  0.22517860751E+02  0.00000000000E+00 0.  1.
        -11    1    4    4    0    0 -0.65089231390E+01  0.56701492502E+02  0.12224576746E+02  0.58368361369E+02  0.00000000000E+00 0.  1.
         11    1    4    4    0    0 -0.90046633254E+02  0.32890217315E+02 -0.47631662881E+02  0.10704642855E+03  0.00000000000E+00 0. -1.
          2    1    1    2  501    0  0.31537003686E+02 -0.19882551188E+03 -0.24337980934E+03  0.31584790386E+03  0.00000000000E+00 0. -1.
<scales pt_clust_5="13000.00000" pt_clust_6="13000.00000" pt_clust_7="13000.00000" pt_clust_8="13000.00000" pt_clust_9="142.58991"></scales>
<clustering>
<clus scale="   92.437">  5  6 -1 -1</clus>
<clus scale="   93.588">  7  8 -1 -1</clus>
<clus scale="  157.175">  2  5  1 -1</clus>
<clus scale="  142.590">  1  9  2 -1</clus>
<clus scale="  142.590">  1  5  2 -1</clus>
</clustering>
</event>
<event>
 9    1  0.6014990E-005  0.1797804E+03  0.7546771E-02  0.1169260E+00
         -2   -1    0    0    0  501 -0.00000000000E+00  0.00000000000E+00  0.44187341682E+03  0.44187341682E+03  0.00000000000E+00 0.  1.
         21   -1    0    0  501  502  0.00000000000E+00 -0.00000000000E+00 -0.17898478462E+03  0.17898478462E+03  0.00000000000E+00 0.  1.
        -24    2    1    2    0    0  0.91733206399E+02  0.12500864609E+03  0.22589888275E+03  0.28495138368E+03  0.78261376675E+02 0.  0.
         23    2    1    2    0    0 -0.57799025948E+02 -0.15700118757E+03 -0.83225161306E+02  0.20696234878E+03  0.88976884866E+02 0.  0.
         13    1    3    3    0    0  0.23058111711E+02  0.23908245794E+02  0.65566261993E+01  0.33856610576E+02  0.00000000000E+00 0. -1.
        -14    1    3    3    0    0  0.68675094688E+02  0.10110040030E+03  0.21934225655E+03  0.25109477310E+03  0.00000000000E+00 0.  1.
        -13    1    4    4    0    0 -0.43367976209E+01 -0.12895499195E+03 -0.59676273865E+02  0.14215996421E+03  0.00000000000E+00 0.  1.
         13    1    4    4    0    0 -0.53462228327E+02 -0.28046195623E+02 -0.23548887441E+02  0.64802384573E+02  0.00000000000E+00 0. -1.
         -1    1    1    2    0  502 -0.33934180451E+02  0.31992541481E+02  0.12021491076E+03  0.12894446898E+03  0.00000000000E+00 0.  1.
<scales pt_clust_5="13000.00000" pt_clust_6="13000.00000" pt_clust_7="13000.00000" pt_clust_8="13000.00000" pt_clust_9="46.63747"></scales>
<clustering>
<clus scale="   46.637">  2  9  1 -1</clus>
<clus scale="   78.261">  5  6 -1 -1</clus>
<clus scale="   88.977">  7  8 -1 -1</clus>
<clus scale="  174.725">  1  5  2 -1</clus>
<clus scale="   46.637">  2  5  1 -1</clus>
</clustering>
</event>
<event>
 9    1  0.6014990E-005  0.1658088E+03  0.7546771E-02  0.1183602E+00
          1   -1    0    0  502    0 -0.00000000000E+00  0.00000000000E+00  0.26513349470E+03  0.26513349470E+03  0.00000000000E+00 0. -1.
         21   -1    0    0  501  502  0.00000000000E+00 -0.00000000000E+00 -0.31301625690E+03  0.31301625690E+03  0.00000000000E+00 0. -1.
         23    2    1    2    0    0 -0.38416025252E+02 -0.13203114516E+03  0.17109749602E+03  0.23763366158E+03  0.91035101386E+02 0.  0.
        -24    2    1    2    0    0 -0.30009814394E+02  0.15497716943E+03 -0.10787766281E+03  0.20803061056E+03  0.81979465659E+02 0.  0.
         11    1    4    4    0    0  0.90730205888E+01  0.39870513655E+02  0.61615173940E+01  0.41351443243E+02  0.00000000000E+00 0. -1.
        -12    1    4    4    0    0 -0.39082834983E+02  0.11510665578E+03 -0.11403918020E+03  0.16667916731E+03  0.00000000000E+00 0.  1.
        -11    1    3    3    0    0 -0.47475314391E+02 -0.27681289741E+02  0.88790429169E+02  0.10442173907E+03  0.00000000000E+00 0.  1.
         11    1    3    3    0    0  0.90592891393E+01 -0.10434985542E+03  0.82307066850E+02  0.13321192251E+03  0.00000000000E+00 0. -1.
          2    1    1    2  501    0  0.68425839646E+02 -0.22946024269E+02 -0.11110259541E+03  0.13248547946E+03  0.00000000000E+00 0. -1.
<scales pt_clust_5="13000.00000" pt_clust_6="13000.00000" pt_clust_7="13000.00000" pt_clust_8="13000.00000" pt_clust_9="72.17074"></scales>
<clustering>
<clus scale="   72.171">  2  9  1 -1</clus>
<clus scale="   81.979">  5  6 -1 -1</clus>
<clus scale="   91.035">  7  8 -1 -1</clus>
<clus scale="  161.015">  2  5  1 -1</clus>
<clus scale="   72.171">  2  5  1 -1</clus>
</clustering>
</event>
<event>
 9    1  0.6014990E-005  0.1566189E+03  0.7546771E-02  0.1193842E+00
         21   -1    0    0  501  502  0.00000000000E+00  0.00000000000E+00  0.63374081421E+02  0.63374081421E+02  0.00000000000E+00 0.  1.
          1   -1    0    0  502    0 -0.00000000000E+00 -0.00000000000E+00 -0.54870477125E+03  0.54870477125E+03  0.00000000000E+00 0. -1.
         23    2    1    2    0    0 -0.24783549941E+02  0.12817523999E+03 -0.36237444336E+03  0.39692286297E+03  0.95861386648E+02 0.  0.
        -24    2    1    2    0    0  0.44364639864E+02 -0.10300998657E+03 -0.11145534611E+03  0.18125938558E+03  0.88619366283E+02 0.  0.
         11    1    4    4    0    0  0.70731110873E+02 -0.86839408671E+02 -0.88329383610E+02  0.14263959111E+03  0.00000000000E+00 0. -1.
        -12    1    4    4    0    0 -0.26366471009E+02 -0.16170577896E+02 -0.23125962505E+02  0.38619794468E+02  0.00000000000E+00 0.  1.
        -13    1    3    3    0    0 -0.60363963128E+02  0.92977887628E+02 -0.22773401007E+03  0.25328141458E+03  0.00000000000E+00 0. -1.
         13    1    3    3    0    0  0.35580413187E+02  0.35197352362E+02 -0.13464043330E+03  0.14364144838E+03  0.00000000000E+00 0.  1.
          2    1    1    2  501    0 -0.19581089923E+02 -0.25165253423E+02 -0.11500900356E+02  0.33896604128E+02  0.00000000000E+00 0. -1.
<scales pt_clust_5="13000.00000" pt_clust_6="13000.00000" pt_clust_7="13000.00000" pt_clust_8="13000.00000" pt_clust_9="31.88588"></scales>
<clustering>
<clus scale="   31.886">  1  9  2 -1</clus>
<clus scale="   88.619">  5  6 -1 -1</clus>
<clus scale="   95.861">  7  8 -1 -1</clus>
<clus scale="  152.294">  1  5  2 -1</clus>
<clus scale="   31.886">  1  5  2 -1</clus>
</clustering>
</event>
<event>
 9    1  0.7056147E-005  0.9334454E+02  0.7546771E-02  0.1301727E+00
         21   -1    0    0  501  502  0.00000000000E+00  0.00000000000E+00  0.10795176736E+03  0.10795176736E+03  0.00000000000E+00 0. -1.
          3   -1    0    0  502    0 -0.00000000000E+00 -0.00000000000E+00 -0.43222728597E+03  0.43222728597E+03  0.00000000000E+00 0. -1.
         23    2    1    2    0    0 -0.58459160351E+01 -0.15677581934E+02 -0.39046987756E+03  0.40157337406E+03  0.92273984229E+02 0.  0.
        -24    2    1    2    0    0 -0.18872419537E+02 -0.10128721102E+02  0.34121069181E+02  0.90588418763E+02  0.81137260501E+02 0.  0.
         13    1    4    4    0    0  0.25055175776E+02 -0.21484367163E+02  0.30720086915E+02  0.45089506602E+02  0.00000000000E+00 0. -1.
        -14    1    4    4    0    0 -0.43927595313E+02  0.11355646061E+02  0.34009822661E+01  0.45498912161E+02  0.00000000000E+00 0.  1.
        -11    1    3    3    0    0  0.43059444574E+02 -0.26262629468E+01 -0.18404195673E+03  0.18903030143E+03  0.00000000000E+00 0.  1.
         11    1    3    3    0    0 -0.48905360609E+02 -0.13051318988E+02 -0.20642792083E+03  0.21254307263E+03  0.00000000000E+00 0. -1.
          4    1    1    2  501    0  0.24718335573E+02  0.25806303037E+02  0.32073289770E+02  0.48017260507E+02  0.00000000000E+00 0. -1.
<scales pt_clust_5="13000.00000" pt_clust_6="13000.00000" pt_clust_7="13000.00000" pt_clust_8="13000.00000" pt_clust_9="35.73460"></scales>
<clustering>
<clus scale="   35.735">  1  9  2 -1</clus>
<clus scale="   81.137">  5  6 -1 -1</clus>
<clus scale="   82.353">  1  5  2 -1</clus>
<clus scale="   92.274">  7  8 -1 -1</clus>
<clus scale="   35.735">  1  5  2 -1</clus>
</clustering>
</event>
<event>
 9    1  0.6940305E-005  0.1097321E+03  0.7546771E-02  0.1264279E+00
         -2   -1    0    0    0  501 -0.00000000000E+00  0.00000000000E+00  0.52537513388E+03  0.52537513388E+03  0.00000000000E+00 0.  1.
         21   -1    0    0  501  502  0.00000000000E+00 -0.00000000000E+00 -0.21921387846E+03  0.21921387846E+03  0.00000000000E+00 0.  1.
        -24    2    1    2    0    0  0.13520125429E+02  0.63805599133E+02  0.46946978744E+03  0.48074152676E+03  0.80352883921E+02 0.  0.
         23    2    1    2    0    0  0.61162055094E+01 -0.59583016088E+02 -0.81474746816E+01  0.10739183879E+03  0.88764192780E+02 0.  0.
         11    1    3    3    0    0  0.15626131687E+02  0.37273642667E+02  0.73509222218E+02  0.83887461400E+02  0.00000000000E+00 0. -1.
        -12    1    3    3    0    0 -0.21060062579E+01  0.26531956466E+02  0.39596056522E+03  0.39685406536E+03  0.00000000000E+00 0.  1.
        -11    1    4    4    0    0 -0.25941340335E+02 -0.61782073745E+02 -0.24489336381E+02  0.71342171056E+02  0.00000000000E+00 0. -1.
         11    1    4    4    0    0  0.32057545845E+02  0.21990576573E+01  0.16341861699E+02  0.36049667737E+02  0.00000000000E+00 0.  1.
         -1    1    1    2    0  502 -0.19636330939E+02 -0.42225830446E+01 -0.15516105734E+03  0.15645564680E+03  0.00000000000E+00 0.  1.
<scales pt_clust_5="13000.00000" pt_clust_6="13000.00000" pt_clust_7="13000.00000" pt_clust_8="13000.00000" pt_clust_9="20.08521"></scales>
<clustering>
<clus scale="   20.085">  2  9  1 -1</clus>
<clus scale="   80.353">  5  6 -1 -1</clus>
<clus scale="   88.764">  7  8 -1 -1</clus>
<clus scale="  103.047">  1  5  2 -1</clus>
<clus scale="   20.085">  2  5  1 -1</clus>
</clustering>
</event>
<event>
 9    1  0.6014990E-005  0.9414626E+02  0.7546771E-02  0.1299989E+00
          1   -1    0    0  502    0 -0.00000000000E+00  0.00000000000E+00  0.28747943974E+03  0.28747943974E+03  0.00000000000E+00 0. -1.
         21   -1    0    0  501  502  0.00000000000E+00 -0.00000000000E+00 -0.59871948604E+02  0.59871948604E+02  0.00000000000E+00 0.  1.
         23    2    1    2    0    0  0.58089170625E+01  0.21334849464E+02  0.61916498356E+02  0.11076194903E+03  0.89138304145E+02 0.  0.
        -24    2    1    2    0    0  0.60407226753E+02 -0.20794467458E+01  0.79390040824E+02  0.12612133286E+03  0.77139191572E+02 0.  0.
         13    1    4    4    0    0  0.47246248382E+02 -0.32831579934E+02  0.71463350883E+02  0.91744924364E+02  0.00000000000E+00 0. -1.
        -14    1    4    4    0    0  0.13160978371E+02  0.30752133189E+02  0.79266899415E+01  0.34376408491E+02  0.00000000000E+00 0.  1.
        -11    1    3    3    0    0 -0.20502766216E+02  0.57230346057E+00 -0.15953714532E+02  0.25984840987E+02  0.00000000000E+00 0.  1.
         11    1    3    3    0    0  0.26311683279E+02  0.20762546004E+02  0.77870212887E+02  0.84777108046E+02  0.00000000000E+00 0. -1.
          2    1    1    2  501    0 -0.66216143815E+02 -0.19255402719E+02  0.86300951959E+02  0.11046810646E+03  0.00000000000E+00 0. -1.
<scales pt_clust_5="13000.00000" pt_clust_6="13000.00000" pt_clust_7="13000.00000" pt_clust_8="13000.00000" pt_clust_9="68.95907"></scales>
<clustering>
<clus scale="   68.959">  2  9  1 -1</clus>
<clus scale="   77.139">  5  6 -1 -1</clus>
<clus scale="   82.875">  2  5  1 -1</clus>
<clus scale="   89.138">  7  8 -1 -1</clus>
<clus scale="   68.959">  2  5  1 -1</clus>
</clustering>
</event>
<event>
 9    1  0.6014990E-005  0.1022061E+03  0.7546771E-02  0.1280552E+00
          1   -1    0    0  502    0 -0.00000000000E+00  0.00000000000E+00  0.67045001250E+03  0.67045001250E+03  0.00000000000E+00 0. -1.
         21   -1    0    0  501  502  0.00000000000E+00 -0.00000000000E+00 -0.23727947242E+02  0.23727947242E+02  0.00000000000E+00 0. -1.
         23    2    1    2    0    0  0.41073484632E+02 -0.20085742251E+02  0.28185113706E+03  0.29942885731E+03  0.90150479455E+02 0.  0.
        -24    2    1    2    0    0 -0.57194172783E+02 -0.24568293605E+02  0.21696780909E+03  0.23941336235E+03  0.79805723102E+02 0.  0.
         11    1    4    4    0    0 -0.37450524593E+02 -0.46364693581E+02  0.19132997098E+03  0.20039806485E+03  0.00000000000E+00 0. -1.
        -12    1    4    4    0    0 -0.19743648190E+02  0.21796399975E+02  0.25637838116E+02  0.39015297500E+02  0.00000000000E+00 0.  1.
        -11    1    3    3    0    0 -0.18941405950E+02 -0.20669522938E+02  0.32338333469E+02  0.42799227205E+02  0.00000000000E+00 0.  1.
         11    1    3    3    0    0  0.60014890582E+02  0.58378068634E+00  0.24951280359E+03  0.25662963010E+03  0.00000000000E+00 0. -1.
          2    1    1    2  501    0  0.16120688152E+02  0.44654035856E+02  0.14790311911E+03  0.15533574008E+03  0.00000000000E+00 0. -1.
<scales pt_clust_5="13000.00000" pt_clust_6="13000.00000" pt_clust_7="13000.00000" pt_clust_8="13000.00000" pt_clust_9="47.47485"></scales>
<clustering>
<clus scale="   47.475">  2  9  1 -1</clus>
<clus scale="   79.806">  5  6 -1 -1</clus>
<clus scale="   90.150">  7  8 -1 -1</clus>
<clus scale="   93.209">  2  5  1 -1</clus>
<clus scale="   47.475">  2  5  1 -1</clus>
</clustering>
</event>
<event>
 9    1  0.6014990E-005  0.1179734E+03  0.7546771E-02  0.1260577E+00
         21   -1    0    0  501  502  0.00000000000E+00  0.00000000000E+00  0.28629906746E+03  0.28629906746E+03  0.00000000000E+00 0.  1.
          1   -1    0    0  502    0 -0.00000000000E+00 -0.00000000000E+00 -0.67515716206E+02  0.67515716206E+02  0.00000000000E+00 0. -1.
         23    2    1    2    0    0 -0.28439515078E+02  0.98876501145E+00  0.35116997318E+02  0.12012787017E+03  0.11130012586E+03 0.  0.
        -24    2    1    2    0    0  0.53451159187E+02 -0.34818243501E+02  0.13075272806E+03  0.16608611647E+03  0.80118572684E+02 0.  0.
         13    1    4    4    0    0  0.20975937890E+02 -0.27548792410E+02  0.37875965609E+01  0.34832051638E+02  0.00000000000E+00 0. -1.
        -14    1    4    4    0    0  0.32475221296E+02 -0.72694510912E+01  0.12696513150E+03  0.13125406483E+03  0.00000000000E+00 0.  1.
        -11    1    3    3    0    0  0.29808332686E+02  0.35560376896E+02  0.76116430509E+01  0.47021422909E+02  0.00000000000E+00 0.  1.
         11    1    3    3    0    0 -0.58247847764E+02 -0.34571611884E+02  0.27505354267E+02  0.73106447258E+02  0.00000000000E+00 0. -1.
          2    1    1    2  501    0 -0.25011644109E+02  0.33829478490E+02  0.52913625877E+02  0.67600797032E+02  0.00000000000E+00 0. -1.
<scales pt_clust_5="13000.00000" pt_clust_6="13000.00000" pt_clust_7="13000.00000" pt_clust_8="13000.00000" pt_clust_9="42.07156"></scales>
<clustering>
<clus scale="   42.072">  1  9  2 -1</clus>
<clus scale="   80.119">  5  6 -1 -1</clus>
<clus scale="   89.157">  1  5  2 -1</clus>
<clus scale="  111.300">  7  8 -1 -1</clus>
<clus scale="   42.072">  1  5  2 -1</clus>
</clustering>
</event>
<event>
 9    1  0.6014990E-005  0.1243877E+03  0.7546771E-02  0.1239474E+00
         21   -1    0    0  501  502  0.00000000000E+00  0.00000000000E+00  0.78768225007E+02  0.78768225007E+02  0.00000000000E+00 0.  1.
         -2   -1    0    0    0  501 -0.00000000000E+00 -0.00000000000E+00 -0.53245492831E+03  0.53245492831E+03  0.00000000000E+00 0.  1.
        -24    2    1    2    0    0  0.16271066124E+02  0.92265998851E+02 -0.36710125798E+03  0.38703617401E+03  0.79094274377E+02 0.  0.
         23    2    1    2    0    0  0.16928026972E+02 -0.67269658219E+02 -0.12366808806E+03  0.16849030778E+03  0.91013311099E+02 0.  0.
         11    1    3    3    0    0  0.19415293645E+02  0.61566004401E+02 -0.10594725220E+03  0.12406509088E+03  0.00000000000E+00 0. -1.
        -12    1    3    3    0    0 -0.31442275213E+01  0.30699994450E+02 -0.26115400578E+03  0.26297108313E+03  0.00000000000E+00 0.  1.
        -13    1    4    4    0    0  0.22718182401E+02  0.17460368849E+02 -0.40597094122E+02  0.49690082945E+02  0.00000000000E+00 0.  1.
         13    1    4    4    0    0 -0.57901554291E+01 -0.84730027068E+02 -0.83070993940E+02  0.11880022484E+03  0.00000000000E+00 0. -1.
         -1    1    1    2    0  502 -0.33199093096E+02 -0.24996340632E+02  0.37082642739E+02  0.55696671534E+02  0.00000000000E+00 0.  1.
<scales pt_clust_5="13000.00000" pt_clust_6="13000.00000" pt_clust_7="13000.00000" pt_clust_8="13000.00000" pt_clust_9="41.55715"></scales>
<clustering>
<clus scale="   41.557">  1  9  2 -1</clus>
<clus scale="   79.094">  5  6 -1 -1</clus>
<clus scale="   91.013">  7  8 -1 -1</clus>
<clus scale="  115.952">  2  5  1 -1</clus>
<clus scale="   41.557">  1  5  2 -1</clus>
</clustering>
</event>
<event>
 9    1  0.6014990E-005  0.1867447E+03  0.7546771E-02  0.1175882E+00
          1   -1    0    0  502    0 -0.00000000000E+00  0.00000000000E+00  0.27150246968E+03  0.27150246968E+03  0.00000000000E+00 0. -1.
         21   -1    0    0  501  502  0.00000000000E+00 -0.00000000000E+00 -0.25482293556E+03  0.25482293556E+03  0.00000000000E+00 0. -1.
         23    2    1    2    0    0  0.19529682405E+02 -0.95629481091E+02 -0.25686186625E+01  0.13410040522E+03  0.91923417738E+02 0.  0.
        -24    2    1    2    0    0  0.15215530200E+03 -0.16713143292E+02 -0.38264526396E+02  0.17914213494E+03  0.84836109317E+02 0.  0.
         11    1    4    4    0    0  0.71283671311E+02  0.30595439368E+02 -0.35755017422E+02  0.85415829778E+02  0.00000000000E+00 0. -1.
        -12    1    4    4    0    0  0.80871630689E+02 -0.47308582660E+02 -0.25095089738E+01  0.93726305160E+02  0.00000000000E+00 0.  1.
        -11    1    3    3    0    0 -0.15423362006E+01 -0.96931695512E+02 -0.28134644066E+02  0.10094399731E+03  0.00000000000E+00 0. -1.
         11    1    3    3    0    0  0.21072018605E+02  0.13022144200E+01  0.25566025403E+02  0.33156407909E+02  0.00000000000E+00 0.  1.
          2    1    1    2  501    0 -0.17168498441E+03  0.11234262438E+03  0.57512679178E+02  0.21308286508E+03  0.00000000000E+00 0. -1.
<scales pt_clust_5="13000.00000" pt_clust_6="13000.00000" pt_clust_7="13000.00000" pt_clust_8="13000.00000" pt_clust_9="166.36239"></scales>
<clustering>
<clus scale="   84.836">  5  6 -1 -1</clus>
<clus scale="   91.923">  7  8 -1 -1</clus>
<clus scale="  134.076">  1  7  2 -1</clus>
<clus scale="  166.362">  2  9  1 -1</clus>
<clus scale="  166.362">  2  5  1 -1</clus>
</clustering>
</event>
<event>
 9    1  0.6014990E-005  0.1655373E+03  0.7546771E-02  0.1204786E+00
         21   -1    0    0  501  502  0.00000000000E+00  0.00000000000E+00  0.90114003715E+02  0.90114003715E+02  0.00000000000E+00 0. -1.
          1   -1    0    0  502    0 -0.00000000000E+00 -0.00000000000E+00 -0.50912930080E+03  0.50912930080E+03  0.00000000000E+00 0. -1.
        -24    2    1    2    0    0 -0.46863046487E+02 -0.11116487833E+02 -0.48740270580E+02  0.11274540820E+03  0.89533187515E+02 0.  0.
         23    2    1    2    0    0  0.13567750722E+03  0.80856890249E+02 -0.13930703445E+03  0.22940268920E+03  0.90955600701E+02 0.  0.
         13    1    3    3    0    0  0.22654065515E+02 -0.21569915245E+02 -0.12877571648E+02  0.33827500345E+02  0.00000000000E+00 0. -1.
        -14    1    3    3    0    0 -0.69517112002E+02  0.10453427413E+02 -0.35862698932E+02  0.78917907857E+02  0.00000000000E+00 0.  1.
        -11    1    4    4    0    0  0.10643389895E+03  0.96679263044E+02 -0.89009785490E+02  0.16910883082E+03  0.00000000000E+00 0. -1.
         11    1    4    4    0    0  0.29243608275E+02 -0.15822372795E+02 -0.50297248959E+02  0.60293858382E+02  0.00000000000E+00 0.  1.
          2    1    1    2  501    0 -0.88814460737E+02 -0.69740402416E+02 -0.23096799205E+03  0.25709520711E+03  0.00000000000E+00 0. -1.
<scales pt_clust_5="13000.00000" pt_clust_6="13000.00000" pt_clust_7="13000.00000" pt_clust_8="13000.00000" pt_clust_9="138.31017"></scales>
<clustering>
<clus scale="   89.533">  5  6 -1 -1</clus>
<clus scale="   90.956">  7  8 -1 -1</clus>
<clus scale="  101.666">  2  5  1 -1</clus>
<clus scale="  138.310">  1  9  2 -1</clus>
<clus scale="  138.310">  1  5  2 -1</clus>
</clustering>
</event>
<event>
 9    1  0.6014990E-005  0.9135865E+02  0.7546771E-02  0.1303295E+00
          1   -1    0    0  502    0 -0.00000000000E+00  0.00000000000E+00  0.31117290678E+03  0.31117290678E+03  0.00000000000E+00 0. -1.
         21   -1    0    0  501  502  0.00000000000E+00 -0.00000000000E+00 -0.39738317400E+02  0.39738317400E+02  0.00000000000E+00 0.  1.
        -24    2    1    2    0    0 -0.12878532591E+02  0.19877873276E+02  0.16027973879E+03  0.18080849202E+03  0.80256648781E+02 0.  0.
         23    2    1    2    0    0 -0.11682851529E+01 -0.46038914898E+02  0.76084648650E+02  0.12415023221E+03  0.86622513367E+02 0.  0.
         13    1    3    3    0    0 -0.44211452755E+02  0.21467812753E+02  0.12055891001E+03  0.13019205169E+03  0.00000000000E+00 0. -1.
        -14    1    3    3    0    0  0.31332920163E+02 -0.15899394774E+01  0.39720828773E+02  0.50616440333E+02  0.00000000000E+00 0.  1.
        -11    1    4    4    0    0 -0.42453162163E+02 -0.30974212051E+02  0.30185028894E+02  0.60603702521E+02  0.00000000000E+00 0. -1.
         11    1    4    4    0    0  0.41284877010E+02 -0.15064702847E+02  0.45899619756E+02  0.63546529688E+02  0.00000000000E+00 0.  1.
          2    1    1    2  501    0  0.14046817744E+02  0.26161041622E+02  0.35070201949E+02  0.45952499956E+02  0.00000000000E+00 0. -1.
<scales pt_clust_5="13000.00000" pt_clust_6="13000.00000" pt_clust_7="13000.00000" pt_clust_8="13000.00000" pt_clust_9="29.69366"></scales>
<clustering>
<clus scale="   29.694">  2  9  1 -1</clus>
<clus scale="   80.257">  5  6 -1 -1</clus>
<clus scale="   85.347">  1  5  2 -1</clus>
<clus scale="   86.623">  7  8 -1 -1</clus>
<clus scale="   29.694">  2  5  1 -1</clus>
</clustering>
</event>
<event>
 9    1  0.6014990E-005  0.1010081E+03  0.7546771E-02  0.1285181E+00
         21   -1    0    0  501  502  0.00000000000E+00  0.00000000000E+00  0.24125299353E+03  0.24125299353E+03  0.00000000000E+00 0. -1.
         -4   -1    0    0    0  501 -0.00000000000E+00 -0.00000000000E+00 -0.52238838681E+03  0.52238838681E+03  0.00000000000E+00 0.  1.
        -24    2    1    2    0    0 -0.31545806735E+02 -0.18578489326E+02 -0.50288169153E+03  0.51063106856E+03  0.80708080829E+02 0.  0.
         23    2    1    2    0    0  0.97353438485E+01  0.20113473767E+02  0.15525715906E+03  0.18301846869E+03  0.94295523188E+02 0.  0.
         11    1    3    3    0    0  0.21771036764E+02 -0.26861526118E+02 -0.20777555577E+03  0.21063285879E+03  0.00000000000E+00 0. -1.
        -12    1    3    3    0    0 -0.53316843498E+02  0.82830367924E+01 -0.29510613576E+03  0.29999820976E+03  0.00000000000E+00 0.  1.
        -13    1    4    4    0    0 -0.22158694410E+02  0.12001698702E+02  0.92562764404E+00  0.25217162731E+02  0.00000000000E+00 0.  1.
         13    1    4    4    0    0  0.31894038259E+02  0.81117750659E+01  0.15433153142E+03  0.15780130596E+03  0.00000000000E+00 0. -1.
         -3    1    1    2    0  502  0.21810462886E+02 -0.15349844418E+01  0.66489139189E+02  0.69991843086E+02  0.00000000000E+00 0.  1.
<scales pt_clust_5="13000.00000" pt_clust_6="13000.00000" pt_clust_7="13000.00000" pt_clust_8="13000.00000" pt_clust_9="21.86441"></scales>
<clustering>
<clus scale="   21.864">  1  9  2 -1</clus>
<clus scale="   80.708">  5  6 -1 -1</clus>
<clus scale="   88.458">  2  5  1 -1</clus>
<clus scale="   94.296">  7  8 -1 -1</clus>
<clus scale="   21.864">  1  5  2 -1</clus>
</clustering>
</event>
<event>
 9    1  0.6014990E-005  0.9476557E+02  0.7546771E-02  0.1297765E+00
         21   -1    0    0  501  502  0.00000000000E+00  0.00000000000E+00  0.19620825006E+03  0.19620825006E+03  0.00000000000E+00 0.  1.
          1   -1    0    0  502    0 -0.00000000000E+00 -0.00000000000E+00 -0.12442564014E+03  0.12442564014E+03  0.00000000000E+00 0. -1.
        -24    2    1    2    0    0  0.92671262489E+01 -0.26049818535E+02 -0.83586472462E+02  0.11977337870E+03  0.81206472593E+02 0.  0.
         23    2    1    2    0    0 -0.10484549248E+02 -0.81505002602E+01  0.12059937809E+03  0.15207448624E+03  0.91684693062E+02 0.  0.
         13    1    3    3    0    0  0.21364531087E+02 -0.17361804608E+02 -0.96320778796E+02  0.10017768152E+03  0.00000000000E+00 0. -1.
        -14    1    3    3    0    0 -0.12097404839E+02 -0.86880139268E+01  0.12734306334E+02  0.19595697171E+02  0.00000000000E+00 0.  1.
        -13    1    4    4    0    0  0.71459355276E+01 -0.41977156683E+02  0.10007632642E+03  0.10875852696E+03  0.00000000000E+00 0.  1.
         13    1    4    4    0    0 -0.17630484776E+02  0.33826656422E+02  0.20523051672E+02  0.43315959277E+02  0.00000000000E+00 0. -1.
          2    1    1    2  501    0  0.12174229992E+01  0.34200318795E+02  0.34769704289E+02  0.48786025262E+02  0.00000000000E+00 0. -1.
<scales pt_clust_5="13000.00000" pt_clust_6="13000.00000" pt_clust_7="13000.00000" pt_clust_8="13000.00000" pt_clust_9="34.22198"></scales>
<clustering>
<clus scale="   34.222">  1  9  2 -1</clus>
<clus scale="   81.206">  5  6 -1 -1</clus>
<clus scale="   84.669">  2  5  1 -1</clus>
<clus scale="   91.685">  7  8 -1 -1</clus>
<clus scale="   34.222">  1  5  2 -1</clus>
</clustering>
</event>
<event>
 9    1  0.7499684E-005  0.1136337E+03  0.7546771E-02  0.1258370E+00
          3   -1    0    0  502    0 -0.00000000000E+00  0.00000000000E+00  0.15529928276E+03  0.15529928276E+03  0.00000000000E+00 0. -1.
         21   -1    0    0  501  502  0.00000000000E+00 -0.00000000000E+00 -0.27668373937E+03  0.27668373937E+03  0.00000000000E+00 0. -1.
         23    2    1    2    0    0 -0.41787034060E+02  0.59591703626E+02  0.10777011320E+03  0.15909956888E+03  0.91656686395E+02 0.  0.
        -24    2    1    2    0    0  0.13856479099E+02 -0.43868890557E+02 -0.85119271882E+02  0.12532502481E+03  0.79652933572E+02 0.  0.
         13    1    4    4    0    0 -0.21745477513E+02 -0.11344391786E+02 -0.70942267948E+02  0.75062416687E+02  0.00000000000E+00 0. -1.
        -14    1    4    4    0    0  0.35601956613E+02 -0.32524498771E+02 -0.14177003934E+02  0.50262608124E+02  0.00000000000E+00 0.  1.
        -11    1    3    3    0    0 -0.23924614888E+02  0.47036350706E+02  0.12207794673E+03  0.13299560355E+03  0.00000000000E+00 0. -1.
         11    1    3    3    0    0 -0.17862419172E+02  0.12555352919E+02 -0.14307833528E+02  0.26103965328E+02  0.00000000000E+00 0.  1.
          4    1    1    2  501    0  0.27930554961E+02 -0.15722813069E+02 -0.14403529794E+03  0.14755842844E+03  0.00000000000E+00 0. -1.
<scales pt_clust_5="13000.00000" pt_clust_6="13000.00000" pt_clust_7="13000.00000" pt_clust_8="13000.00000" pt_clust_9="32.05188"></scales>
<clustering>
<clus scale="   32.052">  2  9  1 -1</clus>
<clus scale="   79.653">  5  6 -1 -1</clus>
<clus scale="   91.657">  7  8 -1 -1</clus>
<clus scale="  104.193">  2  5  1 -1</clus>
<clus scale="   32.052">  2  5  1 -1</clus>
</clustering>
</event>
<event>
 9    1  0.6014990E-005  0.1045611E+03  0.7546771E-02  0.1276034E+00
         21   -1    0    0  501  502  0.00000000000E+00  0.00000000000E+00  0.11796489152E+03  0.11796489152E+03  0.00000000000E+00 0. -1.
          1   -1    0    0  502    0 -0.00000000000E+00 -0.00000000000E+00 -0.33925412571E+03  0.33925412571E+03  0.00000000000E+00 0. -1.
        -24    2    1    2    0    0  0.50203855121E+02  0.10505248860E+02 -0.22011378716E+02  0.98183787046E+02  0.80776035574E+02 0.  0.
         23    2    1    2    0    0 -0.48935252741E+02  0.21264249978E+02  0.43005689927E+02  0.11467437656E+03  0.91945070481E+02 0.  0.
         13    1    3    3    0    0  0.52131992246E+02 -0.22081519270E+02  0.35442213314E+01  0.56726533595E+02  0.00000000000E+00 0. -1.
        -14    1    3    3    0    0 -0.19281371250E+01  0.32586768130E+02 -0.25555600047E+02  0.41457253451E+02  0.00000000000E+00 0.  1.
        -13    1    4    4    0    0 -0.22362841651E+02  0.45621372582E+02  0.56682418915E+02  0.76120318818E+02  0.00000000000E+00 0. -1.
         13    1    4    4    0    0 -0.26572411090E+02 -0.24357122604E+02 -0.13676728988E+02  0.38554057744E+02  0.00000000000E+00 0.  1.
          2    1    1    2  501    0 -0.12686023805E+01 -0.31769498838E+02 -0.24228354541E+03  0.24436085362E+03  0.00000000000E+00 0. -1.
<scales pt_clust_5="13000.00000" pt_clust_6="13000.00000" pt_clust_7="13000.00000" pt_clust_8="13000.00000" pt_clust_9="31.79483"></scales>
<clustering>
<clus scale="   31.795">  1  9  2 -1</clus>
<clus scale="   80.776">  5  6 -1 -1</clus>
<clus scale="   91.945">  7  8 -1 -1</clus>
<clus scale="   94.889">  2  5  1 -1</clus>
<clus scale="   31.795">  1  5  2 -1</clus>
</clustering>
</event>
<event>
 9    1  0.6014990E-005  0.1164840E+03  0.7546771E-02  0.1250755E+00
          1   -1    0    0  502    0 -0.00000000000E+00  0.00000000000E+00  0.61867838946E+03  0.61867838946E+03  0.00000000000E+00 0. -1.
         21   -1    0    0  501  502  0.00000000000E+00 -0.00000000000E+00 -0.48834813240E+02  0.48834813240E+02  0.00000000000E+00 0. -1.
        -24    2    1    2    0    0 -0.72786367254E+02 -0.19294921005E+02  0.39963619788E+03  0.41547907332E+03  0.85109461727E+02 0.  0.
         23    2    1    2    0    0  0.71172478391E+02 -0.20086427632E+02  0.52661844823E+02  0.12805651968E+03  0.90311771529E+02 0.  0.
         11    1    3    3    0    0 -0.63389864152E+02 -0.45834948607E+02  0.34782137548E+03  0.35650922377E+03  0.00000000000E+00 0. -1.
        -12    1    3    3    0    0 -0.93965031019E+01  0.26540027602E+02  0.51814822395E+02  0.58969849546E+02  0.00000000000E+00 0.  1.
        -13    1    4    4    0    0  0.30871064288E+02  0.15204257311E+02 -0.18433789738E+02  0.39038399747E+02  0.00000000000E+00 0.  1.
         13    1    4    4    0    0  0.40301414103E+02 -0.35290684944E+02  0.71095634562E+02  0.89018119932E+02  0.00000000000E+00 0. -1.
          2    1    1    2  501    0  0.16138888625E+01  0.39381348637E+02  0.11754553352E+03  0.12397760971E+03  0.00000000000E+00 0. -1.
<scales pt_clust_5="13000.00000" pt_clust_6="13000.00000" pt_clust_7="13000.00000" pt_clust_8="13000.00000" pt_clust_9="39.41442"></scales>
<clustering>
<clus scale="   39.414">  2  9  1 -1</clus>
<clus scale="   85.109">  5  6 -1 -1</clus>
<clus scale="   90.312">  7  8 -1 -1</clus>
<clus scale="  112.499">  1  5  2 -1</clus>
<clus scale="   39.414">  2  5  1 -1</clus>
</clustering>
</event>
<event>
 9    1  0.6014990E-005  0.9167653E+02  0.7546771E-02  0.1301984E+00
          1   -1    0    0  502    0 -0.00000000000E+00  0.00000000000E+00  0.24746897427E+03  0.24746897427E+03  0.00000000000E+00 0. -1.
         21   -1    0    0  501  502  0.00000000000E+00 -0.00000000000E+00 -0.14119511656E+03  0.14119511656E+03  0.00000000000E+00 0. -1.
        -24    2    1    2    0    0 -0.43350174680E+02  0.20369272537E+02  0.20780988904E+03  0.22590567753E+03  0.74527043751E+02 0.  0.
         23    2    1    2    0    0  0.17414641819E+02  0.12332385680E+02 -0.52707895862E+02  0.98522620100E+02  0.80456366429E+02 0.  0.
         11    1    3    3    0    0 -0.43631288031E+02 -0.36120023898E+01  0.19258424667E+03  0.19749791878E+03  0.00000000000E+00 0. -1.
        -12    1    3    3    0    0  0.28111335066E+00  0.23981274926E+02  0.15225642369E+02  0.28407758753E+02  0.00000000000E+00 0.  1.
        -11    1    4    4    0    0 -0.29028915933E+02 -0.26358305938E+01 -0.37327650075E+02  0.47360099486E+02  0.00000000000E+00 0.  1.
         11    1    4    4    0    0  0.46443557752E+02  0.14968216274E+02 -0.15380245787E+02  0.51162520614E+02  0.00000000000E+00 0. -1.
          2    1    1    2  501    0  0.25935532861E+02 -0.32701658217E+02 -0.48828135463E+02  0.64235793197E+02  0.00000000000E+00 0. -1.
<scales pt_clust_5="13000.00000" pt_clust_6="13000.00000" pt_clust_7="13000.00000" pt_clust_8="13000.00000" pt_clust_9="41.73788"></scales>
<clustering>
<clus scale="   41.738">  2  9  1 -1</clus>
<clus scale="   74.527">  5  6 -1 -1</clus>
<clus scale="   80.456">  7  8 -1 -1</clus>
<clus scale="   86.520">  1  5  2 -1</clus>
<clus scale="   41.738">  2  5  1 -1</clus>
</clustering>
</event>
<event>
 9    1  0.6014990E-005  0.3305213E+03  0.7546771E-02  0.1102049E+00
         21   -1    0    0  501  502  0.00000000000E+00  0.00000000000E+00  0.15856728385E+03  0.15856728385E+03  0.00000000000E+00 0. -1.
          1   -1    0    0  502    0 -0.00000000000E+00 -0.00000000000E+00 -0.10473864758E+04  0.10473864758E+04  0.00000000000E+00 0. -1.
         23    2    1    2    0    0  0.27270261530E+02 -0.11183521098E+03 -0.19830644017E+03  0.24524046787E+03  0.86986558093E+02 0.  0.
        -24    2    1    2    0    0 -0.32905102583E+03  0.13343843061E+03 -0.40839789207E+03  0.54703815008E+03  0.79884335342E+02 0.  0.
         11    1    4    4    0    0 -0.24360471309E+03  0.82572920269E+02 -0.34004669606E+03  0.42637225390E+03  0.00000000000E+00 0. -1.
        -12    1    4    4    0    0 -0.85446312747E+02  0.50865510336E+02 -0.68351196008E+02  0.12066589617E+03  0.00000000000E+00 0.  1.
        -11    1    3    3    0    0  0.24083542516E+02 -0.75291161147E+02 -0.19250317122E+03  0.20810153026E+03  0.00000000000E+00 0.  1.
         11    1    3    3    0    0  0.31867190133E+01 -0.36544049834E+02 -0.58032689515E+01  0.37138937611E+02  0.00000000000E+00 0. -1.
          2    1    1    2  501    0  0.30178076430E+03 -0.21603219624E+02 -0.28211485975E+03  0.41367514174E+03  0.00000000000E+00 0. -1.
<scales pt_clust_5="13000.00000" pt_clust_6="13000.00000" pt_clust_7="13000.00000" pt_clust_8="13000.00000" pt_clust_9="320.72231"></scales>
<clustering>
<clus scale="   79.884">  5  6 -1 -1</clus>
<clus scale="   86.987">  7  8 -1 -1</clus>
<clus scale="  144.283">  2  7  1 -1</clus>
<clus scale="  320.722">  1  9  2 -1</clus>
<clus scale="  320.722">  1  5  2 -1</clus>
</clustering>
</event>
<event>
 9    1  0.6014990E-005  0.1718983E+03  0.7546771E-02  0.1192800E+00
         21   -1    0    0  501  502  0.00000000000E+00  0.00000000000E+00  0.10751083974E+04  0.10751083974E+04  0.00000000000E+00 0.  1.
         -2   -1    0    0    0  501 -0.00000000000E+00 -0.00000000000E+00 -0.20821064707E+03  0.20821064707E+03  0.00000000000E+00 0.  1.
        -24    2    1    2    0    0  0.64546036088E+02  0.59192664856E+02 -0.16326125984E+03  0.20135474397E+03  0.78864007038E+02 0.  0.
         23    2    1    2    0    0  0.97462420332E+02  0.36596454184E+02  0.41228904128E+03  0.43606524202E+03  0.96604440407E+02 0.  0.
         11    1    3    3    0    0 -0.13367330289E+02  0.24723628508E+02 -0.67850786079E+02  0.73441626461E+02  0.00000000000E+00 0. -1.
        -12    1    3    3    0    0  0.77913366377E+02  0.34469036348E+02 -0.95410473762E+02  0.12791311751E+03  0.00000000000E+00 0.  1.
        -11    1    4    4    0    0  0.17082540359E+02 -0.29944542646E+02  0.14707813486E+03  0.15106444510E+03  0.00000000000E+00 0. -1.
         11    1    4    4    0    0  0.80379879973E+02  0.66540996830E+02  0.26521090642E+03  0.28500079693E+03  0.00000000000E+00 0.  1.
         -1    1    1    2    0  502 -0.16200845642E+03 -0.95789119040E+02  0.61786996893E+03  0.64589905851E+03  0.00000000000E+00 0.  1.
<scales pt_clust_5="13000.00000" pt_clust_6="13000.00000" pt_clust_7="13000.00000" pt_clust_8="13000.00000" pt_clust_9="142.18514"></scales>
<clustering>
<clus scale="   78.864">  5  6 -1 -1</clus>
<clus scale="   96.604">  7  8 -1 -1</clus>
<clus scale="  117.854">  2  5  1 -1</clus>
<clus scale="  142.185">  1  9  2 -1</clus>
<clus scale="  142.185">  1  5  2 -1</clus>
</clustering>
</event>
<event>
 9    1  0.6014990E-005  0.1045327E+03  0.7546771E-02  0.1275508E+00
          3   -1    0    0  502    0 -0.00000000000E+00  0.00000000000E+00  0.67806758993E+02  0.67806758993E+02  0.00000000000E+00 0. -1.
         21   -1    0    0  501  502  0.00000000000E+00 -0.00000000000E+00 -0.24434677763E+03  0.24434677763E+03  0.00000000000E+00 0.  1.
        -24    2    1    2    0    0 -0.41719144642E+02 -0.89075478150E+01 -0.24571860006E+02  0.95885993427E+02  0.82283145258E+02 0.  0.
         23    2    1    2    0    0  0.68735413830E+02 -0.12496150337E+02 -0.13525846011E+03  0.17796335126E+03  0.92170453357E+02 0.  0.
         11    1    3    3    0    0 -0.23839202874E+02 -0.43097670930E+02 -0.28829166265E+02  0.57068709997E+02  0.00000000000E+00 0. -1.
        -12    1    3    3    0    0 -0.17879941768E+02  0.34190123115E+02  0.42573062586E+01  0.38817283429E+02  0.00000000000E+00 0.  1.
        -13    1    4    4    0    0  0.39524935721E+02  0.13199878216E+02 -0.49410422901E+01  0.41962736179E+02  0.00000000000E+00 0. -1.
         13    1    4    4    0    0  0.29210478109E+02 -0.25696028553E+02 -0.13031741782E+03  0.13600061508E+03  0.00000000000E+00 0.  1.
          4    1    1    2  501    0 -0.27016269188E+02  0.21403698152E+02 -0.16709698523E+02  0.38304191940E+02  0.00000000000E+00 0. -1.
<scales pt_clust_5="13000.00000" pt_clust_6="13000.00000" pt_clust_7="13000.00000" pt_clust_8="13000.00000" pt_clust_9="34.46735"></scales>
<clustering>
<clus scale="   34.467">  2  9  1 -1</clus>
<clus scale="   82.283">  5  6 -1 -1</clus>
<clus scale="   92.170">  7  8 -1 -1</clus>
<clus scale="   95.928">  1  5  2 -1</clus>
<clus scale="   34.467">  2  5  1 -1</clus>
</clustering>
</event>
<event>
 9    1  0.6014990E-005  0.2374058E+03  0.7546771E-02  0.1128961E+00
         -4   -1    0    0    0  501 -0.00000000000E+00  0.00000000000E+00  0.29983209669E+03  0.29983209669E+03  0.00000000000E+00 0.  1.
         21   -1    0    0  501  502  0.00000000000E+00 -0.00000000000E+00 -0.44243993928E+03  0.44243993928E+03  0.00000000000E+00 0.  1.
        -24    2    1    2    0    0 -0.13426368660E+03 -0.11935149014E+03  0.67195842756E+02  0.20862332850E+03  0.82078597527E+02 0.  0.
         23    2    1    2    0    0  0.26490877755E+03 -0.39458857049E+02 -0.14495577679E+03  0.31802376131E+03  0.91614811643E+02 0.  0.
         13    1    3    3    0    0 -0.13006356726E+02 -0.32635692585E+02 -0.15216967378E+02  0.38285896124E+02  0.00000000000E+00 0. -1.
        -14    1    3    3    0    0 -0.12125732988E+03 -0.86715797554E+02  0.82412810134E+02  0.17033743238E+03  0.00000000000E+00 0.  1.
        -13    1    4    4    0    0  0.21965219073E+03 -0.64505138614E+02 -0.13362282299E+03  0.26507179522E+03  0.00000000000E+00 0.  1.
         13    1    4    4    0    0  0.45256586823E+02  0.25046281565E+02 -0.11332953803E+02  0.52951966092E+02  0.00000000000E+00 0. -1.
         -3    1    1    2    0  502 -0.13064509095E+03  0.15881034719E+03 -0.64847908558E+02  0.21562494616E+03  0.00000000000E+00 0.  1.
<scales pt_clust_5="13000.00000" pt_clust_6="13000.00000" pt_clust_7="13000.00000" pt_clust_8="13000.00000" pt_clust_9="219.01652"></scales>
<clustering>
<clus scale="   82.079">  5  6 -1 -1</clus>
<clus scale="   91.615">  7  8 -1 -1</clus>
<clus scale="  197.505">  1  5  2 -1</clus>
<clus scale="  219.017">  2  9  1 -1</clus>
<clus scale="  219.017">  2  5  1 -1</clus>
</clustering>
</event>
<event>
 9    1  0.6014990E-005  0.1089432E+03  0.7546771E-02  0.1267441E+00
         -2   -1    0    0    0  501 -0.00000000000E+00  0.00000000000E+00  0.17422620298E+03  0.17422620298E+03  0.00000000000E+00 0.  1.
         21   -1    0    0  501  502  0.00000000000E+00 -0.00000000000E+00 -0.15867993181E+03  0.15867993181E+03  0.00000000000E+00 0.  1.
         23    2    1    2    0    0  0.36066178251E+02  0.49086036138E+02  0.12221686516E+03  0.16453052723E+03  0.91777579517E+02 0.  0.
        -24    2    1    2    0    0 -0.15821506076E+02 -0.50364130715E+02 -0.49437247000E+02  0.10765381340E+03  0.79739804568E+02 0.  0.
         13    1    4    4    0    0 -0.44346268871E+02 -0.11552905446E+02 -0.34042730073E+02  0.57087377395E+02  0.00000000000E+00 0. -1.
        -14    1    4    4    0    0  0.28524762794E+02 -0.38811225269E+02 -0.15394516927E+02  0.50566436010E+02  0.00000000000E+00 0.  1.
        -11    1    3    3    0    0 -0.17742272369E+02  0.52543209158E+02  0.71690912000E+02  0.90637541454E+02  0.00000000000E+00 0.  1.
         11    1    3    3    0    0  0.53808450620E+02 -0.34571730203E+01  0.50525953160E+02  0.73892985771E+02  0.00000000000E+00 0. -1.
         -1    1    1    2    0  502 -0.20244672175E+02  0.12780945774E+01 -0.57233346992E+02  0.60721794152E+02  0.00000000000E+00 0.  1.
<scales pt_clust_5="13000.00000" pt_clust_6="13000.00000" pt_clust_7="13000.00000" pt_clust_8="13000.00000" pt_clust_9="20.28498"></scales>
<clustering>
<clus scale="   20.285">  2  9  1 -1</clus>
<clus scale="   79.740">  5  6 -1 -1</clus>
<clus scale="   91.778">  7  8 -1 -1</clus>
<clus scale="   99.015">  2  5  1 -1</clus>
<clus scale="   20.285">  2  5  1 -1</clus>
</clustering>
</event>
<event>
 9    1  0.6014990E-005  0.1055297E+03  0.7546771E-02  0.1273773E+00
         21   -1    0    0  501  502  0.00000000000E+00  0.00000000000E+00  0.30772107316E+03  0.30772107316E+03  0.00000000000E+00 0.  1.
         -2   -1    0    0    0  501 -0.00000000000E+00 -0.00000000000E+00 -0.58544082534E+02  0.58544082534E+02  0.00000000000E+00 0.  1.
         23    2    1    2    0    0  0.21258398611E+02  0.39714635720E+02  0.29962428011E+02  0.10695879125E+03  0.92267351389E+02 0.  0.
        -24    2    1    2    0    0 -0.45754763736E+02 -0.48199460408E+02  0.13505609543E+03  0.17124552324E+03  0.81659010085E+02 0.  0.
         11    1    4    4    0    0  0.22477481416E+02 -0.19937116245E+02  0.52388986608E+02  0.60393142763E+02  0.00000000000E+00 0. -1.
        -12    1    4    4    0    0 -0.68232245152E+02 -0.28262344163E+02  0.82667108823E+02  0.11085238048E+03  0.00000000000E+00 0.  1.
        -11    1    3    3    0    0 -0.34250080396E+02  0.10525131585E+02 -0.32752626905E+01  0.35980185488E+02  0.00000000000E+00 0.  1.
         11    1    3    3    0    0  0.55508479007E+02  0.29189504135E+02  0.33237690702E+02  0.70978605766E+02  0.00000000000E+00 0. -1.
         -1    1    1    2    0  502  0.24496365125E+02  0.84848246873E+01  0.84158467182E+02  0.88060841199E+02  0.00000000000E+00 0.  1.
<scales pt_clust_5="13000.00000" pt_clust_6="13000.00000" pt_clust_7="13000.00000" pt_clust_8="13000.00000" pt_clust_9="25.92420"></scales>
<clustering>
<clus scale="   25.924">  1  9  2 -1</clus>
<clus scale="   81.659">  5  6 -1 -1</clus>
<clus scale="   92.267">  7  8 -1 -1</clus>
<clus scale="   96.392">  1  5  2 -1</clus>
<clus scale="   25.924">  1  5  2 -1</clus>
</clustering>
</event>
<event>
 9    1  0.6014990E-005  0.1052204E+03  0.7546771E-02  0.1269806E+00
         21   -1    0    0  501  502  0.00000000000E+00  0.00000000000E+00  0.18045824312E+03  0.18045824312E+03  0.00000000000E+00 0. -1.
          1   -1    0    0  502    0 -0.00000000000E+00 -0.00000000000E+00 -0.23491944551E+03  0.23491944551E+03  0.00000000000E+00 0. -1.
        -24    2    1    2    0    0  0.65744475163E+02 -0.11691621149E+02 -0.18136996837E+03  0.20921742477E+03  0.80111393580E+02 0.  0.
         23    2    1    2    0    0 -0.81014085717E+02  0.27852298560E+02  0.13828422480E+03  0.18118568551E+03  0.79791560867E+02 0.  0.
         11    1    3    3    0    0  0.78381935328E+02 -0.23368494571E+02 -0.16983061557E+03  0.18850000612E+03  0.00000000000E+00 0. -1.
        -12    1    3    3    0    0 -0.12637460166E+02  0.11676873422E+02 -0.11539352806E+02  0.20717418650E+02  0.00000000000E+00 0.  1.
        -11    1    4    4    0    0 -0.30473428411E+02  0.32162472709E+02  0.11889497147E+03  0.12688210564E+03  0.00000000000E+00 0. -1.
         11    1    4    4    0    0 -0.50540657306E+02 -0.43101741486E+01  0.19389253324E+02  0.54303579869E+02  0.00000000000E+00 0.  1.
          2    1    1    2  501    0  0.15269610554E+02 -0.16160677411E+02 -0.11375458809E+02  0.24974578355E+02  0.00000000000E+00 0. -1.
<scales pt_clust_5="13000.00000" pt_clust_6="13000.00000" pt_clust_7="13000.00000" pt_clust_8="13000.00000" pt_clust_9="22.23351"></scales>
<clustering>
<clus scale="   22.234">  1  9  2 -1</clus>
<clus scale="   79.792">  7  8 -1 -1</clus>
<clus scale="   80.111">  5  6 -1 -1</clus>
<clus scale="  104.977">  1  7  2 -1</clus>
<clus scale="   22.234">  1  5  2 -1</clus>
</clustering>
</event>
<event>
 9    1  0.6014990E-005  0.1969575E+03  0.7546771E-02  0.1183522E+00
          1   -1    0    0  502    0 -0.00000000000E+00  0.00000000000E+00  0.27895608038E+03  0.27895608038E+03  0.00000000000E+00 0. -1.
         21   -1    0    0  501  502  0.00000000000E+00 -0.00000000000E+00 -0.40786996777E+03  0.40786996777E+03  0.00000000000E+00 0. -1.
         23    2    1    2    0    0  0.24497605199E+02 -0.23361255101E+02  0.17064376513E+03  0.19591067017E+03  0.90087819427E+02 0.  0.
        -24    2    1    2    0    0 -0.10525651284E+03 -0.14296397095E+03 -0.20638706158E+03  0.28387228827E+03  0.80437717370E+02 0.  0.
         11    1    4    4    0    0 -0.76688741716E+02 -0.45915569061E+02 -0.12687866472E+03  0.15520179815E+03  0.00000000000E+00 0. -1.
        -12    1    4    4    0    0 -0.28567771121E+02 -0.97048401893E+02 -0.79508396858E+02  0.12867049012E+03  0.00000000000E+00 0.  1.
        -11    1    3    3    0    0 -0.14259111058E+02  0.25998175665E+02  0.31453149239E+02  0.43226473175E+02  0.00000000000E+00 0.  1.
         11    1    3    3    0    0  0.38756716258E+02 -0.49359430766E+02  0.13919061589E+03  0.15268419699E+03  0.00000000000E+00 0. -1.
          2    1    1    2  501    0  0.80758907637E+02  0.16632522606E+03 -0.93170590939E+02  0.20704308972E+03  0.00000000000E+00 0. -1.
<scales pt_clust_5="13000.00000" pt_clust_6="13000.00000" pt_clust_7="13000.00000" pt_clust_8="13000.00000" pt_clust_9="179.78340"></scales>
<clustering>
<clus scale="   80.438">  5  6 -1 -1</clus>
<clus scale="   90.088">  7  8 -1 -1</clus>
<clus scale="   96.238">  1  7  2 -1</clus>
<clus scale="  179.783">  2  9  1 -1</clus>
<clus scale="  179.783">  2  5  1 -1</clus>
</clustering>
</event>
<event>
 9    1  0.6014990E-005  0.9337306E+02  0.7546771E-02  0.1299588E+00
         21   -1    0    0  501  502  0.00000000000E+00  0.00000000000E+00  0.27332357356E+03  0.27332357356E+03  0.00000000000E+00 0. -1.
          3   -1    0    0  502    0 -0.00000000000E+00 -0.00000000000E+00 -0.10361337514E+03  0.10361337514E+03  0.00000000000E+00 0. -1.
        -24    2    1    2    0    0  0.25412054351E+02 -0.48837161247E+00 -0.41521501946E+02  0.93989267281E+02  0.80398608365E+02 0.  0.
         23    2    1    2    0    0 -0.31408550981E+02  0.60494701656E+02  0.76934913610E+02  0.13573238143E+03  0.88646446246E+02 0.  0.
         13    1    3    3    0    0 -0.73163594270E+01  0.26721667353E+02 -0.43283099747E+02  0.51390693176E+02  0.00000000000E+00 0. -1.
        -14    1    3    3    0    0  0.32728413778E+02 -0.27210038966E+02  0.17615978010E+01  0.42598574105E+02  0.00000000000E+00 0.  1.
        -11    1    4    4    0    0 -0.27988726502E+02  0.27952240697E+02 -0.11700045005E+02  0.41250304536E+02  0.00000000000E+00 0.  1.
         11    1    4    4    0    0 -0.34198244796E+01  0.32542460959E+02  0.88634958615E+02  0.94482076890E+02  0.00000000000E+00 0. -1.
          4    1    1    2  501    0  0.59964966300E+01 -0.60006330044E+02  0.13429678676E+03  0.14721529999E+03  0.00000000000E+00 0. -1.
<scales pt_clust_5="13000.00000" pt_clust_6="13000.00000" pt_clust_7="13000.00000" pt_clust_8="13000.00000" pt_clust_9="60.30520"></scales>
<clustering>
<clus scale="   60.305">  1  9  2 -1</clus>
<clus scale="   80.399">  5  6 -1 -1</clus>
<clus scale="   85.582">  2  5  1 -1</clus>
<clus scale="   88.646">  7  8 -1 -1</clus>
<clus scale="   60.305">  1  5  2 -1</clus>
</clustering>
</event>
<event>
 9    1  0.6014990E-005  0.2652736E+03  0.7546771E-02  0.1104016E+00
         21   -1    0    0  501  502  0.00000000000E+00  0.00000000000E+00  0.39769028227E+03  0.39769028227E+03  0.00000000000E+00 0.  1.
         -2   -1    0    0    0  501 -0.00000000000E+00 -0.00000000000E+00 -0.15830288524E+03  0.15830288524E+03  0.00000000000E+00 0.  1.
        -24    2    1    2    0    0  0.80575010077E+01  0.11514996899E+03  0.18220575117E+03  0.22971503582E+03  0.79029255592E+02 0.  0.
         23    2    1    2    0    0 -0.39473019042E+02  0.64266896594E+02  0.79312009862E+02  0.14279216646E+03  0.91710711821E+02 0.  0.
         13    1    3    3    0    0  0.43682241660E+02  0.66246806477E+02  0.10073736027E+03  0.12823725418E+03  0.00000000000E+00 0. -1.
        -14    1    3    3    0    0 -0.35624740652E+02  0.48903162511E+02  0.81468390900E+02  0.10147778164E+03  0.00000000000E+00 0.  1.
        -13    1    4    4    0    0  0.38812509329E+01  0.51879838457E+02  0.82561824343E+02  0.97586047086E+02  0.00000000000E+00 0. -1.
         13    1    4    4    0    0 -0.43354269975E+02  0.12387058137E+02 -0.32498144804E+01  0.45206119370E+02  0.00000000000E+00 0.  1.
         -1    1    1    2    0  502  0.31415518034E+02 -0.17941686558E+03 -0.22130363999E+02  0.18348596524E+03  0.00000000000E+00 0.  1.
<scales pt_clust_5="13000.00000" pt_clust_6="13000.00000" pt_clust_7="13000.00000" pt_clust_8="13000.00000" pt_clust_9="182.14659"></scales>
<clustering>
<clus scale="   79.029">  5  6 -1 -1</clus>
<clus scale="   91.711">  7  8 -1 -1</clus>
<clus scale="  108.769">  5  7 -1 -1</clus>
<clus scale="  182.147">  1  9  2 -1</clus>
<clus scale="  182.147">  1  5  2 -1</clus>
</clustering>
</event>
<event>
 9    1  0.6014990E-005  0.9364574E+02  0.7546771E-02  0.1300736E+00
         21   -1    0    0  501  502  0.00000000000E+00  0.00000000000E+00  0.24736329197E+02  0.24736329197E+02  0.00000000000E+00 0.  1.
          3   -1    0    0  502    0 -0.00000000000E+00 -0.00000000000E+00 -0.69713152816E+03  0.69713152816E+03  0.00000000000E+00 0. -1.
        -24    2    1    2    0    0  0.20373730997E+02  0.13274073930E+02 -0.34649133081E+03  0.35648765279E+03  0.80224150400E+02 0.  0.
         23    2    1    2    0    0 -0.24894485432E+02  0.42972040188E+02 -0.16562888126E+03  0.19546218317E+03  0.91138395310E+02 0.  0.
         11    1    3    3    0    0 -0.25848122551E+02  0.23023040078E+02 -0.10974795427E+03  0.11507736215E+03  0.00000000000E+00 0. -1.
        -12    1    3    3    0    0  0.46221853548E+02 -0.97489661483E+01 -0.23674337655E+03  0.24141029063E+03  0.00000000000E+00 0.  1.
        -13    1    4    4    0    0 -0.23109367054E+02 -0.25229868298E+02 -0.70883561174E+02  0.78708756468E+02  0.00000000000E+00 0. -1.
         13    1    4    4    0    0 -0.17851183780E+01  0.68201908486E+02 -0.94745320087E+02  0.11675342670E+03  0.00000000000E+00 0.  1.
          4    1    1    2  501    0  0.45207544358E+01 -0.56246114118E+02 -0.16027498689E+03  0.16991802140E+03  0.00000000000E+00 0. -1.
<scales pt_clust_5="13000.00000" pt_clust_6="13000.00000" pt_clust_7="13000.00000" pt_clust_8="13000.00000" pt_clust_9="56.42753"></scales>
<clustering>
<clus scale="   56.428">  1  9  2 -1</clus>
<clus scale="   80.224">  5  6 -1 -1</clus>
<clus scale="   83.062">  2  5  1 -1</clus>
<clus scale="   91.138">  7  8 -1 -1</clus>
<clus scale="   56.428">  1  5  2 -1</clus>
</clustering>
</event>
<event>
 9    1  0.6014990E-005  0.1210757E+03  0.7546771E-02  0.1250288E+00
         21   -1    0    0  501  502  0.00000000000E+00  0.00000000000E+00  0.29601496419E+03  0.29601496419E+03  0.00000000000E+00 0.  1.
          1   -1    0    0  502    0 -0.00000000000E+00 -0.00000000000E+00 -0.79524734605E+02  0.79524734605E+02  0.00000000000E+00 0. -1.
         23    2    1    2    0    0  0.40805435484E+02 -0.62728020334E+02  0.31340329780E+02  0.13109594949E+03  0.10297593700E+03 0.  0.
        -24    2    1    2    0    0 -0.19768304939E+02  0.49629533706E+02  0.50590636340E+02  0.10762150478E+03  0.78543614057E+02 0.  0.
         11    1    4    4    0    0 -0.36475172959E+02  0.15761261315E+02 -0.53847341064E+01  0.40098016934E+02  0.00000000000E+00 0. -1.
        -12    1    4    4    0    0  0.16706868021E+02  0.33868272392E+02  0.55975370446E+02  0.67523487843E+02  0.00000000000E+00 0.  1.
        -11    1    3    3    0    0 -0.56414773368E+01 -0.54398905453E+02  0.55640469093E+02  0.78018773266E+02  0.00000000000E+00 0.  1.
         11    1    3    3    0    0  0.46446912820E+02 -0.83291148812E+01 -0.24300139314E+02  0.53077176224E+02  0.00000000000E+00 0. -1.
          2    1    1    2  501    0 -0.21037130545E+02  0.13098486628E+02  0.13455926347E+03  0.13682224453E+03  0.00000000000E+00 0. -1.
<scales pt_clust_5="13000.00000" pt_clust_6="13000.00000" pt_clust_7="13000.00000" pt_clust_8="13000.00000" pt_clust_9="24.78167"></scales>
<clustering>
<clus scale="   24.782">  1  9  2 -1</clus>
<clus scale="   78.544">  5  6 -1 -1</clus>
<clus scale="  101.116">  1  5  2 -1</clus>
<clus scale="  102.976">  7  8 -1 -1</clus>
<clus scale="   24.782">  1  5  2 -1</clus>
</clustering>
</event>
<event>
 9    1  0.6014990E-005  0.9997439E+02  0.7546771E-02  0.1284192E+00
         21   -1    0    0  501  502  0.00000000000E+00  0.00000000000E+00  0.19212655818E+03  0.19212655818E+03  0.00000000000E+00 0.  1.
          1   -1    0    0  502    0 -0.00000000000E+00 -0.00000000000E+00 -0.10147430714E+03  0.10147430714E+03  0.00000000000E+00 0. -1.
        -24    2    1    2    0    0 -0.30263347602E+01 -0.46130932135E+02 -0.27663984596E+02  0.98726057747E+02  0.82730386394E+02 0.  0.
         23    2    1    2    0    0 -0.24854323802E+02  0.26824333864E+02  0.12667365998E+03  0.15994742003E+03  0.90552077529E+02 0.  0.
         13    1    3    3    0    0  0.89932715867E+01 -0.67149309694E+02 -0.30595036747E+02  0.74336834744E+02  0.00000000000E+00 0. -1.
        -14    1    3    3    0    0 -0.12019606347E+02  0.21018377560E+02  0.29310521515E+01  0.24389223003E+02  0.00000000000E+00 0.  1.
        -13    1    4    4    0    0 -0.46221524126E+02 -0.11318987754E+02  0.37337135495E+02  0.60486448592E+02  0.00000000000E+00 0. -1.
         13    1    4    4    0    0  0.21367200324E+02  0.38143321618E+02  0.89336524481E+02  0.99460971441E+02  0.00000000000E+00 0.  1.
          2    1    1    2  501    0  0.27880658562E+02  0.19306598271E+02 -0.83574243462E+01  0.34927387540E+02  0.00000000000E+00 0. -1.
<scales pt_clust_5="13000.00000" pt_clust_6="13000.00000" pt_clust_7="13000.00000" pt_clust_8="13000.00000" pt_clust_9="33.91279"></scales>
<clustering>
<clus scale="   33.913">  1  9  2 -1</clus>
<clus scale="   82.730">  5  6 -1 -1</clus>
<clus scale="   90.552">  7  8 -1 -1</clus>
<clus scale="   92.949">  2  5  1 -1</clus>
<clus scale="   33.913">  1  5  2 -1</clus>
</clustering>
</event>
<event>
 9    1  0.6014990E-005  0.9361721E+02  0.7546771E-02  0.1299914E+00
          1   -1    0    0  502    0 -0.00000000000E+00  0.00000000000E+00  0.40589352901E+03  0.40589352901E+03  0.00000000000E+00 0. -1.
         21   -1    0    0  501  502  0.00000000000E+00 -0.00000000000E+00 -0.26437163934E+02  0.26437163934E+02  0.00000000000E+00 0. -1.
         23    2    1    2    0    0  0.18433595811E+02  0.10856392613E+02  0.22124963009E+03  0.24012986408E+03  0.90847642200E+02 0.  0.
        -24    2    1    2    0    0 -0.58196490589E+01 -0.28624336576E+02  0.13568159394E+03  0.16086086293E+03  0.81323436535E+02 0.  0.
         11    1    4    4    0    0 -0.42406330250E+02 -0.16520992326E+02  0.54548117755E+02  0.71040391210E+02  0.00000000000E+00 0. -1.
        -12    1    4    4    0    0  0.36586681191E+02 -0.12103344251E+02  0.81133476186E+02  0.89820471724E+02  0.00000000000E+00 0.  1.
        -11    1    3    3    0    0 -0.34212321146E+02  0.67343037866E+01  0.13104765064E+03  0.13560722880E+03  0.00000000000E+00 0.  1.
         11    1    3    3    0    0  0.52645916957E+02  0.41220888262E+01  0.90201979450E+02  0.10452263528E+03  0.00000000000E+00 0. -1.
          2    1    1    2  501    0 -0.12613946752E+02  0.17767943964E+02  0.22525141045E+02  0.31339965929E+02  0.00000000000E+00 0. -1.
<scales pt_clust_5="13000.00000" pt_clust_6="13000.00000" pt_clust_7="13000.00000" pt_clust_8="13000.00000" pt_clust_9="21.79017"></scales>
<clustering>
<clus scale="   21.790">  2  9  1 -1</clus>
<clus scale="   81.323">  5  6 -1 -1</clus>
<clus scale="   84.406">  2  5  1 -1</clus>
<clus scale="   90.848">  7  8 -1 -1</clus>
<clus scale="   21.790">  2  5  1 -1</clus>
</clustering>
</event>
<event>
 9    1  0.6014990E-005  0.2197124E+03  0.7546771E-02  0.1168352E+00
         21   -1    0    0  501  502  0.00000000000E+00  0.00000000000E+00  0.82259213676E+02  0.82259213676E+02  0.00000000000E+00 0. -1.
          1   -1    0    0  502    0 -0.00000000000E+00 -0.00000000000E+00 -0.85042127757E+03  0.85042127757E+03  0.00000000000E+00 0. -1.
        -24    2    1    2    0    0 -0.51353229073E+02  0.87569362950E+01 -0.21816384373E+03  0.23905584472E+03  0.82694595454E+02 0.  0.
         23    2    1    2    0    0 -0.16919609305E+01 -0.20180936112E+03 -0.27337708785E+03  0.35215388386E+03  0.92452392004E+02 0.  0.
         11    1    3    3    0    0 -0.67270921886E+02  0.26686959287E+02 -0.17976863374E+03  0.19378940220E+03  0.00000000000E+00 0. -1.
        -12    1    3    3    0    0  0.15917692814E+02 -0.17930022992E+02 -0.38395209984E+02  0.45266442524E+02  0.00000000000E+00 0.  1.
        -11    1    4    4    0    0  0.19548454749E+02 -0.75603016590E+02 -0.17196194125E+03  0.18886203281E+03  0.00000000000E+00 0. -1.
         11    1    4    4    0    0 -0.21240415680E+02 -0.12620634453E+03 -0.10141514661E+03  0.16329185105E+03  0.00000000000E+00 0.  1.
          2    1    1    2  501    0  0.53045190003E+02  0.19305242482E+03 -0.27662113232E+03  0.34147076267E+03  0.00000000000E+00 0. -1.
<scales pt_clust_5="13000.00000" pt_clust_6="13000.00000" pt_clust_7="13000.00000" pt_clust_8="13000.00000" pt_clust_9="199.31414"></scales>
<clustering>
<clus scale="   82.695">  5  6 -1 -1</clus>
<clus scale="   92.452">  7  8 -1 -1</clus>
<clus scale="   97.736">  2  5  1 -1</clus>
<clus scale="  199.314">  1  9  2 -1</clus>
<clus scale="  199.314">  1  5  2 -1</clus>
</clustering>
</event>
<event>
 9    1  0.6014990E-005  0.9444143E+02  0.7546771E-02  0.1297398E+00
         21   -1    0    0  501  502  0.00000000000E+00  0.00000000000E+00  0.27980168769E+02  0.27980168769E+02  0.00000000000E+00 0.  1.
         -4   -1    0    0    0  501 -0.00000000000E+00 -0.00000000000E+00 -0.45112369377E+03  0.45112369377E+03  0.00000000000E+00 0.  1.
         23    2    1    2    0    0 -0.52377326129E+01  0.13343386277E+02 -0.18186976265E+03  0.20301649288E+03  0.89070792166E+02 0.  0.
        -24    2    1    2    0    0  0.70727060797E+00 -0.48637136809E+02 -0.20413222977E+03  0.22465131853E+03  0.80200850231E+02 0.  0.
         13    1    4    4    0    0  0.15156871976E+02 -0.13165268479E+02 -0.34793859800E+01  0.20375504633E+02  0.00000000000E+00 0. -1.
        -14    1    4    4    0    0 -0.14449601368E+02 -0.35471868329E+02 -0.20065284379E+03  0.20427581390E+03  0.00000000000E+00 0.  1.
        -13    1    3    3    0    0 -0.46995736267E+02  0.94658347907E+01 -0.10574255217E+03  0.11610206111E+03  0.00000000000E+00 0. -1.
         13    1    3    3    0    0  0.41758003654E+02  0.38775514859E+01 -0.76127210480E+02  0.86914431771E+02  0.00000000000E+00 0.  1.
         -3    1    1    2    0  502  0.45304620049E+01  0.35293750532E+02 -0.37141532579E+02  0.51436051121E+02  0.00000000000E+00 0.  1.
<scales pt_clust_5="13000.00000" pt_clust_6="13000.00000" pt_clust_7="13000.00000" pt_clust_8="13000.00000" pt_clust_9="35.58334"></scales>
<clustering>
<clus scale="   35.583">  1  9  2 -1</clus>
<clus scale="   80.201">  5  6 -1 -1</clus>
<clus scale="   86.126">  1  5  2 -1</clus>
<clus scale="   89.071">  7  8 -1 -1</clus>
<clus scale="   35.583">  1  5  2 -1</clus>
</clustering>
</event>
<event>
 9    1  0.6014990E-005  0.1360929E+03  0.7546771E-02  0.1230428E+00
         21   -1    0    0  501  502  0.00000000000E+00  0.00000000000E+00  0.42979318673E+03  0.42979318673E+03  0.00000000000E+00 0.  1.
         -2   -1    0    0    0  501 -0.00000000000E+00 -0.00000000000E+00 -0.15049074733E+03  0.15049074733E+03  0.00000000000E+00 0.  1.
         23    2    1    2    0    0  0.55358884746E+02 -0.11496385337E+02  0.63635405448E+02  0.12410919724E+03  0.90315308876E+02 0.  0.
        -24    2    1    2    0    0  0.26438436381E+02  0.91162189322E+02 -0.74905951889E+02  0.14397271541E+03  0.78151810433E+02 0.  0.
         11    1    4    4    0    0 -0.18832766174E+02  0.34735309918E+02  0.44652211582E+00  0.39514734199E+02  0.00000000000E+00 0. -1.
        -12    1    4    4    0    0  0.45271202555E+02  0.56426879404E+02 -0.75352474005E+02  0.10445798121E+03  0.00000000000E+00 0.  1.
        -11    1    3    3    0    0 -0.10777876301E+02  0.24384367187E+02  0.34081698511E+02  0.43270338040E+02  0.00000000000E+00 0.  1.
         11    1    3    3    0    0  0.66136761046E+02 -0.35880752524E+02  0.29553706937E+02  0.80838859202E+02  0.00000000000E+00 0. -1.
         -1    1    1    2    0  502 -0.81797321126E+02 -0.79665803985E+02  0.29057298584E+03  0.31220202140E+03  0.00000000000E+00 0.  1.
<scales pt_clust_5="13000.00000" pt_clust_6="13000.00000" pt_clust_7="13000.00000" pt_clust_8="13000.00000" pt_clust_9="111.41623"></scales>
<clustering>
<clus scale="   78.152">  5  6 -1 -1</clus>
<clus scale="   90.315">  7  8 -1 -1</clus>
<clus scale="  106.553">  2  7  1 -1</clus>
<clus scale="  111.416">  1  9  2 -1</clus>
<clus scale="  111.416">  1  5  2 -1</clus>
</clustering>
</event>
<event>
 9    1  0.6014990E-005  0.1163748E+03  0.7546771E-02  0.1253484E+00
         -4   -1    0    0    0  501 -0.00000000000E+00  0.00000000000E+00  0.43118633091E+03  0.43118633091E+03  0.00000000000E+00 0.  1.
         21   -1    0    0  501  502  0.00000000000E+00 -0.00000000000E+00 -0.48747126464E+02  0.48747126464E+02  0.00000000000E+00 0.  1.
        -24    2    1    2    0    0 -0.63443598426E+02  0.18548998279E+02  0.17531019121E+03  0.20324542905E+03  0.78777444552E+02 0.  0.
         23    2    1    2    0    0  0.63282507393E+02 -0.54099111059E+02  0.20708392853E+03  0.24113752197E+03  0.91280674211E+02 0.  0.
         11    1    3    3    0    0 -0.10882695949E+02  0.20754267993E+02  0.13487033651E+03  0.13689112601E+03  0.00000000000E+00 0. -1.
        -12    1    3    3    0    0 -0.52560902476E+02 -0.22052697141E+01  0.40439854703E+02  0.66354303041E+02  0.00000000000E+00 0.  1.
        -13    1    4    4    0    0  0.55060383731E+02 -0.77633077825E+02  0.18401917437E+03  0.20717528126E+03  0.00000000000E+00 0.  1.
         13    1    4    4    0    0  0.82221236620E+01  0.23533966766E+02  0.23064754161E+02  0.33962240706E+02  0.00000000000E+00 0. -1.
         -3    1    1    2    0  502  0.16109103267E+00  0.35550112781E+02  0.45084697614E-01  0.35550506349E+02  0.00000000000E+00 0.  1.
<scales pt_clust_5="13000.00000" pt_clust_6="13000.00000" pt_clust_7="13000.00000" pt_clust_8="13000.00000" pt_clust_9="35.55048"></scales>
<clustering>
<clus scale="   35.550">  2  9  1 -1</clus>
<clus scale="   78.777">  5  6 -1 -1</clus>
<clus scale="   91.281">  7  8 -1 -1</clus>
<clus scale="  106.850">  1  5  2 -1</clus>
<clus scale="   35.550">  2  5  1 -1</clus>
</clustering>
</event>
<event>
 9    1  0.6014990E-005  0.1908851E+03  0.7546771E-02  0.1159028E+00
         -2   -1    0    0    0  501 -0.00000000000E+00  0.00000000000E+00  0.67675348221E+03  0.67675348221E+03  0.00000000000E+00 0.  1.
         21   -1    0    0  501  502  0.00000000000E+00 -0.00000000000E+00 -0.70053349551E+02  0.70053349551E+02  0.00000000000E+00 0. -1.
         23    2    1    2    0    0  0.16196618575E+03  0.48449642880E+01  0.29088068054E+03  0.34479257858E+03  0.89520014141E+02 0.  0.
        -24    2    1    2    0    0 -0.17860010252E+03  0.19539408256E+02  0.18827977100E+03  0.27110338628E+03  0.75947276376E+02 0.  0.
         13    1    4    4    0    0 -0.17582465119E+03  0.34719342666E+02  0.16827016484E+03  0.24583447499E+03  0.00000000000E+00 0. -1.
        -14    1    4    4    0    0 -0.27754513305E+01 -0.15179934410E+02  0.20009606160E+02  0.25268911284E+02  0.00000000000E+00 0.  1.
        -11    1    3    3    0    0  0.21543851211E+02 -0.31927717861E+02  0.44719057432E+02  0.59019579721E+02  0.00000000000E+00 0. -1.
         11    1    3    3    0    0  0.14042233453E+03  0.36772682149E+02  0.24616162311E+03  0.28577299886E+03  0.00000000000E+00 0.  1.
         -1    1    1    2    0  502  0.16633916774E+02 -0.24384372544E+02  0.12753968112E+03  0.13091086690E+03  0.00000000000E+00 0.  1.
<scales pt_clust_5="13000.00000" pt_clust_6="13000.00000" pt_clust_7="13000.00000" pt_clust_8="13000.00000" pt_clust_9="29.51755"></scales>
<clustering>
<clus scale="   29.518">  2  9  1 -1</clus>
<clus scale="   75.947">  5  6 -1 -1</clus>
<clus scale="   89.520">  7  8 -1 -1</clus>
<clus scale="  184.909">  2  5  1 -1</clus>
<clus scale="   29.518">  2  5  1 -1</clus>
</clustering>
</event>
<event>
 9    1  0.6014990E-005  0.1310348E+03  0.7546771E-02  0.1228227E+00
         21   -1    0    0  501  502  0.00000000000E+00  0.00000000000E+00  0.69470335635E+02  0.69470335635E+02  0.00000000000E+00 0.  1.
          1   -1    0    0  502    0 -0.00000000000E+00 -0.00000000000E+00 -0.46260879642E+03  0.46260879642E+03  0.00000000000E+00 0. -1.
         23    2    1    2    0    0  0.10619699488E+03  0.11102049178E+02 -0.30508073407E+03  0.33474045832E+03  0.87039433117E+02 0.  0.
        -24    2    1    2    0    0 -0.76063950238E+02 -0.41544747666E+02 -0.99444304282E+02  0.15301698132E+03  0.77545704795E+02 0.  0.
         13    1    4    4    0    0 -0.26368072219E+02  0.19299111435E+02 -0.51472276594E+02  0.60968239211E+02  0.00000000000E+00 0. -1.
        -14    1    4    4    0    0 -0.49695878019E+02 -0.60843859102E+02 -0.47972027689E+02  0.92048742104E+02  0.00000000000E+00 0.  1.
        -13    1    3    3    0    0  0.58598144744E+02 -0.22438916274E+02 -0.76922297067E+02  0.99268763048E+02  0.00000000000E+00 0.  1.
         13    1    3    3    0    0  0.47598850131E+02  0.33540965453E+02 -0.22815843700E+03  0.23547169527E+03  0.00000000000E+00 0. -1.
          2    1    1    2  501    0 -0.30133044637E+02  0.30442698488E+02  0.11386577568E+02  0.44321692421E+02  0.00000000000E+00 0. -1.
<scales pt_clust_5="13000.00000" pt_clust_6="13000.00000" pt_clust_7="13000.00000" pt_clust_8="13000.00000" pt_clust_9="42.83408"></scales>
<clustering>
<clus scale="   42.834">  1  9  2 -1</clus>
<clus scale="   77.546">  5  6 -1 -1</clus>
<clus scale="   87.039">  7  8 -1 -1</clus>
<clus scale="  124.930">  1  5  2 -1</clus>
<clus scale="   42.834">  1  5  2 -1</clus>
</clustering>
</event>
<event>
 9    1  0.6014990E-005  0.1436616E+03  0.7546771E-02  0.1219819E+00
         -2   -1    0    0    0  501 -0.00000000000E+00  0.00000000000E+00  0.10652738645E+03  0.10652738645E+03  0.00000000000E+00 0.  1.
         21   -1    0    0  501  502  0.00000000000E+00 -0.00000000000E+00 -0.39489899551E+03  0.39489899551E+03  0.00000000000E+00 0.  1.
        -24    2    1    2    0    0  0.63548999501E+02 -0.45275315302E+02 -0.27728894284E+02  0.11632466612E+03  0.81695819092E+02 0.  0.
         23    2    1    2    0    0  0.64909563703E+02  0.45774127567E+02 -0.34445338991E+02  0.12497270152E+03  0.90128644352E+02 0.  0.
         13    1    3    3    0    0  0.21233754547E+02  0.17906906347E+02 -0.29154552864E+02  0.40268071468E+02  0.00000000000E+00 0. -1.
        -14    1    3    3    0    0  0.42315244954E+02 -0.63182221649E+02  0.14256585807E+01  0.76056594654E+02  0.00000000000E+00 0.  1.
        -11    1    4    4    0    0  0.55163482289E+02 -0.13027777050E+02 -0.32498709172E+02  0.65336810842E+02  0.00000000000E+00 0. -1.
         11    1    4    4    0    0  0.97460814137E+01  0.58801904617E+02 -0.19466298190E+01  0.59635890680E+02  0.00000000000E+00 0.  1.
         -1    1    1    2    0  502 -0.12845856320E+03 -0.49881226481E+00 -0.22619737579E+03  0.26012901432E+03  0.00000000000E+00 0.  1.
<scales pt_clust_5="13000.00000" pt_clust_6="13000.00000" pt_clust_7="13000.00000" pt_clust_8="13000.00000" pt_clust_9="111.87257"></scales>
<clustering>
<clus scale="   81.696">  5  6 -1 -1</clus>
<clus scale="   90.129">  7  8 -1 -1</clus>
<clus scale="  112.971">  1  5  2 -1</clus>
<clus scale="  111.873">  2  9  1 -1</clus>
<clus scale="  111.873">  2  5  1 -1</clus>
</clustering>
</event>
<event>
 9    1  0.6014990E-005  0.9277738E+02  0.7546771E-02  0.1300983E+00
         21   -1    0    0  501  502  0.00000000000E+00  0.00000000000E+00  0.25156804174E+03  0.25156804174E+03  0.00000000000E+00 0. -1.
         -4   -1    0    0    0  501 -0.00000000000E+00 -0.00000000000E+00 -0.64143894150E+02  0.64143894150E+02  0.00000000000E+00 0.  1.
         23    2    1    2    0    0 -0.28799330198E+02 -0.12614285581E+02  0.80621447044E+02  0.12351145236E+03  0.88129107109E+02 0.  0.
        -24    2    1    2    0    0  0.11213954507E+02  0.29094408614E+02  0.13193625669E+03  0.15737900254E+03  0.79929576658E+02 0.  0.
         13    1    4    4    0    0  0.49801946245E+01  0.25772648018E+02  0.14237523715E+03  0.14477479020E+03  0.00000000000E+00 0. -1.
        -14    1    4    4    0    0  0.62337598821E+01  0.33217605962E+01 -0.10438980462E+02  0.12604212344E+02  0.00000000000E+00 0.  1.
        -13    1    3    3    0    0  0.23729811478E+02  0.71317614120E+01 -0.60390656278E+00  0.24785695003E+02  0.00000000000E+00 0.  1.
         13    1    3    3    0    0 -0.52529141676E+02 -0.19746046993E+02  0.81225353607E+02  0.98725757356E+02  0.00000000000E+00 0. -1.
         -3    1    1    2    0  502  0.17585375691E+02 -0.16480123034E+02 -0.25133556144E+02  0.34821480983E+02  0.00000000000E+00 0.  1.
<scales pt_clust_5="13000.00000" pt_clust_6="13000.00000" pt_clust_7="13000.00000" pt_clust_8="13000.00000" pt_clust_9="24.10063"></scales>
<clustering>
<clus scale="   24.101">  1  9  2 -1</clus>
<clus scale="   79.930">  5  6 -1 -1</clus>
<clus scale="   85.027">  1  5  2 -1</clus>
<clus scale="   88.129">  7  8 -1 -1</clus>
<clus scale="   24.101">  1  5  2 -1</clus>
</clustering>
</event>
<event>
 9    1  0.6014990E-005  0.9057504E+02  0.7546771E-02  0.1308561E+00
          1   -1    0    0  502    0 -0.00000000000E+00  0.00000000000E+00  0.14903809464E+03  0.14903809464E+03  0.00000000000E+00 0. -1.
         21   -1    0    0  501  502  0.00000000000E+00 -0.00000000000E+00 -0.10558522270E+03  0.10558522270E+03  0.00000000000E+00 0.  1.
        -24    2    1    2    0    0 -0.22215801326E+01 -0.10186617585E+02  0.47212382852E+02  0.92839275146E+02  0.79255405614E+02 0.  0.
         23    2    1    2    0    0 -0.18436748974E+02 -0.44730328135E+02 -0.91295889338E+01  0.10286481590E+03  0.90316692746E+02 0.  0.
         13    1    3    3    0    0 -0.36088439973E+02 -0.73599034106E+00  0.28153330014E+01  0.36205569756E+02  0.00000000000E+00 0. -1.
        -14    1    3    3    0    0  0.33866859841E+02 -0.94506272438E+01  0.44397049850E+02  0.56633705390E+02  0.00000000000E+00 0.  1.
        -13    1    4    4    0    0 -0.26858980193E+02  0.10304569801E+02 -0.31682755954E+02  0.42794695940E+02  0.00000000000E+00 0. -1.
         13    1    4    4    0    0  0.84222312186E+01 -0.55034897936E+02  0.22553167020E+02  0.60070119961E+02  0.00000000000E+00 0.  1.
          2    1    1    2  501    0  0.20658329107E+02  0.54916945720E+02  0.53700780199E+01  0.58919226290E+02  0.00000000000E+00 0. -1.
<scales pt_clust_5="13000.00000" pt_clust_6="13000.00000" pt_clust_7="13000.00000" pt_clust_8="13000.00000" pt_clust_9="58.67399"></scales>
<clustering>
<clus scale="   58.674">  2  9  1 -1</clus>
<clus scale="   79.255">  5  6 -1 -1</clus>
<clus scale="   79.550">  1  5  2 -1</clus>
<clus scale="   90.317">  7  8 -1 -1</clus>
<clus scale="   58.674">  2  5  1 -1</clus>
</clustering>
</event>
<event>
 9    1  0.6014990E-005  0.1126121E+03  0.7546771E-02  0.1284029E+00
          1   -1    0    0  502    0 -0.00000000000E+00  0.00000000000E+00  0.68711210327E+02  0.68711210327E+02  0.00000000000E+00 0. -1.
         21   -1    0    0  501  502  0.00000000000E+00 -0.00000000000E+00 -0.47108855399E+03  0.47108855399E+03  0.00000000000E+00 0. -1.
        -24    2    1    2    0    0  0.21308589084E+02 -0.25061213905E+02  0.23537132818E+02  0.69353323433E+02  0.56336191199E+02 0.  0.
         23    2    1    2    0    0 -0.41312142615E+01 -0.44139022544E+02 -0.12419650412E+03  0.16041826511E+03  0.91345103328E+02 0.  0.
         11    1    3    3    0    0  0.37570908967E+02 -0.29184434669E+02  0.22270048711E+02  0.52528654058E+02  0.00000000000E+00 0. -1.
        -12    1    3    3    0    0 -0.16262319883E+02  0.41232207643E+01  0.12670841064E+01  0.16824669375E+02  0.00000000000E+00 0.  1.
        -11    1    4    4    0    0 -0.38062706236E+02  0.68475420471E+01 -0.62407883849E+02  0.73419359876E+02  0.00000000000E+00 0.  1.
         11    1    4    4    0    0  0.33931491975E+02 -0.50986564591E+02 -0.61788620273E+02  0.86998905233E+02  0.00000000000E+00 0. -1.
          2    1    1    2  501    0 -0.17177374823E+02  0.69200236448E+02 -0.30171797235E+03  0.31002817577E+03  0.00000000000E+00 0. -1.
<scales pt_clust_5="13000.00000" pt_clust_6="13000.00000" pt_clust_7="13000.00000" pt_clust_8="13000.00000" pt_clust_9="65.86006"></scales>
<clustering>
<clus scale="   56.336">  5  6 -1 -1</clus>
<clus scale="   65.237">  1  5  2 -1</clus>
<clus scale="   65.860">  2  9  1 -1</clus>
<clus scale="   91.345">  7  8 -1 -1</clus>
<clus scale="   65.860">  2  5  1 -1</clus>
</clustering>
</event>
<event>
 9    1  0.6014990E-005  0.1078425E+03  0.7546771E-02  0.1271014E+00
         21   -1    0    0  501  502  0.00000000000E+00  0.00000000000E+00  0.14205636924E+03  0.14205636924E+03  0.00000000000E+00 0.  1.
          1   -1    0    0  502    0 -0.00000000000E+00 -0.00000000000E+00 -0.20323588233E+03  0.20323588233E+03  0.00000000000E+00 0. -1.
         23    2    1    2    0    0 -0.62041140527E+01  0.54402442965E+02 -0.15598759677E+03  0.19045663003E+03  0.94569978021E+02 0.  0.
        -24    2    1    2    0    0  0.26676665443E+02 -0.34242838509E+02  0.56933089264E+02  0.10729563612E+03  0.79917209710E+02 0.  0.
         13    1    4    4    0    0 -0.26081267405E+02 -0.25854056677E+02  0.16306746606E+02  0.40181771252E+02  0.00000000000E+00 0. -1.
        -14    1    4    4    0    0  0.52757932848E+02 -0.83887818317E+01  0.40626342658E+02  0.67113864863E+02  0.00000000000E+00 0.  1.
        -11    1    3    3    0    0 -0.35808253923E+02  0.60102663464E+02 -0.13958306097E+03  0.15613453210E+03  0.00000000000E+00 0. -1.
         11    1    3    3    0    0  0.29604139870E+02 -0.57002204989E+01 -0.16404535802E+02  0.34322097927E+02  0.00000000000E+00 0.  1.
          2    1    1    2  501    0 -0.20472551391E+02 -0.20159604457E+02  0.37874994422E+02  0.47539985431E+02  0.00000000000E+00 0. -1.
<scales pt_clust_5="13000.00000" pt_clust_6="13000.00000" pt_clust_7="13000.00000" pt_clust_8="13000.00000" pt_clust_9="28.73213"></scales>
<clustering>
<clus scale="   28.732">  1  9  2 -1</clus>
<clus scale="   79.917">  5  6 -1 -1</clus>
<clus scale="   94.570">  7  8 -1 -1</clus>
<clus scale="   95.254">  1  5  2 -1</clus>
<clus scale="   28.732">  1  5  2 -1</clus>
</clustering>
</event>
<event>
 9    1  0.6014990E-005  0.1392294E+03  0.7546771E-02  0.1238726E+00
         -2   -1    0    0    0  501 -0.00000000000E+00  0.00000000000E+00  0.45831150909E+03  0.45831150909E+03  0.00000000000E+00 0.  1.
         21   -1    0    0  501  502  0.00000000000E+00 -0.00000000000E+00 -0.69375681230E+02  0.69375681230E+02  0.00000000000E+00 0.  1.
        -24    2    1    2    0    0  0.11789669109E+02 -0.14478902814E+02  0.10655421626E+03  0.13565278784E+03  0.81848902999E+02 0.  0.
         23    2    1    2    0    0 -0.70643878837E+02 -0.83228183849E+02  0.22774841658E+03  0.26556195969E+03  0.82075117890E+02 0.  0.
         11    1    3    3    0    0  0.10561390322E+02 -0.19698424740E+02 -0.58633980843E+01  0.23107365489E+02  0.00000000000E+00 0. -1.
        -12    1    3    3    0    0  0.12282787877E+01  0.52195219264E+01  0.11241761434E+03  0.11254542235E+03  0.00000000000E+00 0.  1.
        -13    1    4    4    0    0  0.12313834716E+02 -0.35893320554E+02  0.41384863999E+02  0.56148623795E+02  0.00000000000E+00 0.  1.
         13    1    4    4    0    0 -0.82957713553E+02 -0.47334863295E+02  0.18636355258E+03  0.20941333589E+03  0.00000000000E+00 0. -1.
         -1    1    1    2    0  502  0.58854209727E+02  0.97707086663E+02  0.54633195025E+02  0.12647244279E+03  0.00000000000E+00 0.  1.
<scales pt_clust_5="13000.00000" pt_clust_6="13000.00000" pt_clust_7="13000.00000" pt_clust_8="13000.00000" pt_clust_9="112.46555"></scales>
<clustering>
<clus scale="   81.849">  5  6 -1 -1</clus>
<clus scale="   82.075">  7  8 -1 -1</clus>
<clus scale="   83.952">  1  5  2 -1</clus>
<clus scale="  112.466">  2  9  1 -1</clus>
<clus scale="  112.466">  2  5  1 -1</clus>
</clustering>
</event>
<event>
 9    1  0.6014990E-005  0.9983798E+02  0.7546771E-02  0.1285673E+00
          1   -1    0    0  502    0 -0.00000000000E+00  0.00000000000E+00  0.28026653320E+03  0.28026653320E+03  0.00000000000E+00 0. -1.
         21   -1    0    0  501  502  0.00000000000E+00 -0.00000000000E+00 -0.79989619876E+02  0.79989619876E+02  0.00000000000E+00 0.  1.
         23    2    1    2    0    0 -0.20171501333E+02  0.29021228781E+02  0.17731561167E+03  0.20245298351E+03  0.91089314435E+02 0.  0.
        -24    2    1    2    0    0  0.41312183015E+02 -0.34613752653E+02  0.60331448354E+02  0.11450498703E+03  0.81035177897E+02 0.  0.
         13    1    4    4    0    0  0.23170990065E+02 -0.14862681075E+02  0.77781742946E+02  0.82509354652E+02  0.00000000000E+00 0. -1.
        -14    1    4    4    0    0  0.18141192950E+02 -0.19751071578E+02 -0.17450294592E+02  0.31995632381E+02  0.00000000000E+00 0.  1.
        -11    1    3    3    0    0 -0.49688521622E+02  0.38802620387E+02  0.14219775410E+03  0.15554675761E+03  0.00000000000E+00 0. -1.
         11    1    3    3    0    0  0.29517020289E+02 -0.97813916061E+01  0.35117857571E+02  0.46906225907E+02  0.00000000000E+00 0.  1.
          2    1    1    2  501    0 -0.21140681682E+02  0.55925238716E+01 -0.37370146707E+02  0.43298182527E+02  0.00000000000E+00 0. -1.
<scales pt_clust_5="13000.00000" pt_clust_6="13000.00000" pt_clust_7="13000.00000" pt_clust_8="13000.00000" pt_clust_9="21.86789"></scales>
<clustering>
<clus scale="   21.868">  2  9  1 -1</clus>
<clus scale="   81.035">  5  6 -1 -1</clus>
<clus scale="   90.758">  2  5  1 -1</clus>
<clus scale="   91.089">  7  8 -1 -1</clus>
<clus scale="   21.868">  2  5  1 -1</clus>
</clustering>
</event>
<event>
 9    1  0.6258471E-005  0.8907055E+02  0.7546771E-02  0.1307723E+00
         21   -1    0    0  501  502  0.00000000000E+00  0.00000000000E+00  0.61906298630E+02  0.61906298630E+02  0.00000000000E+00 0. -1.
         -4   -1    0    0    0  501 -0.00000000000E+00 -0.00000000000E+00 -0.39778635526E+03  0.39778635526E+03  0.00000000000E+00 0.  1.
         23    2    1    2    0    0  0.20078849766E+01 -0.60766602832E+01 -0.32324886999E+03  0.33529165487E+03  0.88824008422E+02 0.  0.
        -24    2    1    2    0    0  0.25304796869E+02  0.70085745662E+01 -0.28096967985E+02  0.92999702135E+02  0.84676160312E+02 0.  0.
         11    1    4    4    0    0 -0.21848068515E+02 -0.22168880792E+02 -0.65911883944E+00  0.31132488032E+02  0.00000000000E+00 0. -1.
        -12    1    4    4    0    0  0.47152865385E+02  0.29177455358E+02 -0.27437849146E+02  0.61867214103E+02  0.00000000000E+00 0.  1.
        -11    1    3    3    0    0  0.43442405466E+02 -0.32443753319E+01 -0.21456999768E+03  0.21894760211E+03  0.00000000000E+00 0.  1.
         11    1    3    3    0    0 -0.41434520490E+02 -0.28322849513E+01 -0.10867887231E+03  0.11634405276E+03  0.00000000000E+00 0. -1.
         -3    1    1    2    0  502 -0.27312681846E+02 -0.93191428301E+00  0.15465781342E+02  0.31401296890E+02  0.00000000000E+00 0.  1.
<scales pt_clust_5="13000.00000" pt_clust_6="13000.00000" pt_clust_7="13000.00000" pt_clust_8="13000.00000" pt_clust_9="27.32858"></scales>
<clustering>
<clus scale="   27.329">  1  9  2 -1</clus>
<clus scale="   84.676">  5  6 -1 -1</clus>
<clus scale="   84.935">  1  5  2 -1</clus>
<clus scale="   88.824">  7  8 -1 -1</clus>
<clus scale="   27.329">  1  5  2 -1</clus>
</clustering>
</event>
<event>
 9    1  0.6014990E-005  0.1060569E+03  0.7546771E-02  0.1270470E+00
         21   -1    0    0  501  502  0.00000000000E+00  0.00000000000E+00  0.38046180698E+03  0.38046180698E+03  0.00000000000E+00 0.  1.
         -4   -1    0    0    0  501 -0.00000000000E+00 -0.00000000000E+00 -0.40629708957E+02  0.40629708957E+02  0.00000000000E+00 0.  1.
        -24    2    1    2    0    0 -0.62701807379E+02  0.87298215078E+01  0.11269635597E+03  0.15458217399E+03  0.84778850172E+02 0.  0.
         23    2    1    2    0    0  0.39981454989E+02 -0.29176317964E+02  0.13814275017E+03  0.17241350657E+03  0.90516426959E+02 0.  0.
         11    1    3    3    0    0 -0.45581709250E+02  0.34591698921E+02  0.26661712263E+02  0.63127844515E+02  0.00000000000E+00 0. -1.
        -12    1    3    3    0    0 -0.17120098129E+02 -0.25861877413E+02  0.86034643702E+02  0.91454329478E+02  0.00000000000E+00 0.  1.
        -13    1    4    4    0    0 -0.25766100476E+02 -0.11648024378E+02  0.15722183107E+02  0.32353600222E+02  0.00000000000E+00 0.  1.
         13    1    4    4    0    0  0.65747555465E+02 -0.17528293586E+02  0.12242056707E+03  0.14005990635E+03  0.00000000000E+00 0. -1.
         -3    1    1    2    0  502  0.22720352390E+02  0.20446496456E+02  0.88992991888E+02  0.94095835376E+02  0.00000000000E+00 0.  1.
<scales pt_clust_5="13000.00000" pt_clust_6="13000.00000" pt_clust_7="13000.00000" pt_clust_8="13000.00000" pt_clust_9="30.56589"></scales>
<clustering>
<clus scale="   30.566">  1  9  2 -1</clus>
<clus scale="   84.779">  5  6 -1 -1</clus>
<clus scale="   90.516">  7  8 -1 -1</clus>
<clus scale="  101.204">  2  5  1 -1</clus>
<clus scale="   30.566">  1  5  2 -1</clus>
</clustering>
</event>
<event>
 9    1  0.6014990E-005  0.9616136E+02  0.7546771E-02  0.1295194E+00
         21   -1    0    0  501  502  0.00000000000E+00  0.00000000000E+00  0.25638384254E+03  0.25638384254E+03  0.00000000000E+00 0.  1.
         -4   -1    0    0    0  501 -0.00000000000E+00 -0.00000000000E+00 -0.10330964397E+03  0.10330964397E+03  0.00000000000E+00 0.  1.
        -24    2    1    2    0    0  0.19817411790E+02  0.16406901484E+02 -0.45851306963E+02  0.96612190373E+02  0.81053419126E+02 0.  0.
         23    2    1    2    0    0  0.92586854982E+01 -0.40606681586E+02  0.57671547091E+02  0.11684952953E+03  0.92699403240E+02 0.  0.
         11    1    3    3    0    0 -0.10867607718E+02  0.42646514277E+02 -0.17920111929E+02  0.47518001737E+02  0.00000000000E+00 0. -1.
        -12    1    3    3    0    0  0.30685019509E+02 -0.26239612793E+02 -0.27931195034E+02  0.49094188636E+02  0.00000000000E+00 0.  1.
        -13    1    4    4    0    0 -0.30812172585E+02 -0.31411291898E+02  0.61433443109E+02  0.75565383413E+02  0.00000000000E+00 0. -1.
         13    1    4    4    0    0  0.40070858083E+02 -0.91953896877E+01 -0.37618960182E+01  0.41284146118E+02  0.00000000000E+00 0.  1.
         -3    1    1    2    0  502 -0.29076097289E+02  0.24199780102E+02  0.14125395844E+03  0.14623176661E+03  0.00000000000E+00 0.  1.
<scales pt_clust_5="13000.00000" pt_clust_6="13000.00000" pt_clust_7="13000.00000" pt_clust_8="13000.00000" pt_clust_9="37.82921"></scales>
<clustering>
<clus scale="   37.829">  1  9  2 -1</clus>
<clus scale="   81.053">  5  6 -1 -1</clus>
<clus scale="   84.991">  2  5  1 -1</clus>
<clus scale="   92.699">  7  8 -1 -1</clus>
<clus scale="   37.829">  1  5  2 -1</clus>
</clustering>
</event>
<event>
 9    1  0.6014990E-005  0.9409713E+02  0.7546771E-02  0.1299945E+00
         21   -1    0    0  501  502  0.00000000000E+00  0.00000000000E+00  0.83069895259E+02  0.83069895259E+02  0.00000000000E+00 0.  1.
          1   -1    0    0  502    0 -0.00000000000E+00 -0.00000000000E+00 -0.14925663190E+03  0.14925663190E+03  0.00000000000E+00 0. -1.
        -24    2    1    2    0    0  0.10108589044E+02  0.19622025157E+02 -0.61957915574E+02  0.10459361805E+03  0.81325483035E+02 0.  0.
         23    2    1    2    0    0  0.19357925350E+02 -0.10434499046E+02  0.57124483121E+01  0.95305837959E+02  0.92557888044E+02 0.  0.
         11    1    3    3    0    0 -0.11886088118E+02  0.45122077148E+02 -0.51128505109E+02  0.69219975235E+02  0.00000000000E+00 0. -1.
        -12    1    3    3    0    0  0.21994677162E+02 -0.25500051991E+02 -0.10829410464E+02  0.35373642815E+02  0.00000000000E+00 0.  1.
        -13    1    4    4    0    0 -0.19782219193E+02 -0.27174291448E+02  0.31056205478E+02  0.45763153416E+02  0.00000000000E+00 0.  1.
         13    1    4    4    0    0  0.39140144542E+02  0.16739792402E+02 -0.25343757166E+02  0.49542684543E+02  0.00000000000E+00 0. -1.
          2    1    1    2  501    0 -0.29466514393E+02 -0.91875261106E+01 -0.99412693805E+01  0.32427071151E+02  0.00000000000E+00 0. -1.
<scales pt_clust_5="13000.00000" pt_clust_6="13000.00000" pt_clust_7="13000.00000" pt_clust_8="13000.00000" pt_clust_9="30.86563"></scales>
<clustering>
<clus scale="   30.866">  1  9  2 -1</clus>
<clus scale="   81.325">  5  6 -1 -1</clus>
<clus scale="   83.073">  2  5  1 -1</clus>
<clus scale="   92.558">  7  8 -1 -1</clus>
<clus scale="   30.866">  1  5  2 -1</clus>
</clustering>
</event>
<event>
 9    1  0.6014990E-005  0.1008464E+03  0.7546771E-02  0.1286988E+00
         -4   -1    0    0    0  501 -0.00000000000E+00  0.00000000000E+00  0.38580312193E+03  0.38580312193E+03  0.00000000000E+00 0.  1.
         21   -1    0    0  501  502  0.00000000000E+00 -0.00000000000E+00 -0.37284087034E+02  0.37284087034E+02  0.00000000000E+00 0.  1.
        -24    2    1    2    0    0 -0.31805341408E+02  0.14854941199E+02  0.24685199858E+03  0.26217012594E+03  0.81024790738E+02 0.  0.
         23    2    1    2    0    0  0.92829728878E+01 -0.59135126121E+01  0.94444075127E+02  0.13563117000E+03  0.96721185540E+02 0.  0.
         11    1    3    3    0    0 -0.46877182145E+02 -0.11801124900E+02  0.88088588841E+02  0.10048052666E+03  0.00000000000E+00 0. -1.
        -12    1    3    3    0    0  0.15071840737E+02  0.26656066100E+02  0.15876340974E+03  0.16168959928E+03  0.00000000000E+00 0.  1.
        -13    1    4    4    0    0 -0.19044921753E+02  0.24843361814E+02  0.87900047303E+02  0.93307663065E+02  0.00000000000E+00 0.  1.
         13    1    4    4    0    0  0.28327894641E+02 -0.30756874426E+02  0.65440278238E+01  0.42323506936E+02  0.00000000000E+00 0. -1.
         -3    1    1    2    0  502  0.22522368520E+02 -0.89414285874E+01  0.72229611916E+01  0.25285913021E+02  0.00000000000E+00 0.  1.
<scales pt_clust_5="13000.00000" pt_clust_6="13000.00000" pt_clust_7="13000.00000" pt_clust_8="13000.00000" pt_clust_9="24.23234"></scales>
<clustering>
<clus scale="   24.232">  2  9  1 -1</clus>
<clus scale="   81.025">  5  6 -1 -1</clus>
<clus scale="   85.907">  1  5  2 -1</clus>
<clus scale="   96.721">  7  8 -1 -1</clus>
<clus scale="   24.232">  2  5  1 -1</clus>
</clustering>
</event>
<event>
 9    1  0.6014990E-005  0.1203811E+03  0.7546771E-02  0.1257072E+00
         21   -1    0    0  501  502  0.00000000000E+00  0.00000000000E+00  0.49001801155E+02  0.49001801155E+02  0.00000000000E+00 0. -1.
          1   -1    0    0  502    0 -0.00000000000E+00 -0.00000000000E+00 -0.45422999380E+03  0.45422999380E+03  0.00000000000E+00 0. -1.
         23    2    1    2    0    0  0.36633013262E+02 -0.15756547345E+02 -0.16672874005E+03  0.20536019920E+03  0.11306675997E+03 0.  0.
        -24    2    1    2    0    0  0.16749729861E+02  0.64699587281E+02 -0.11888599671E+03  0.15804127984E+03  0.79853465011E+02 0.  0.
         11    1    4    4    0    0  0.43716009587E+01  0.76590996622E+02 -0.62045898087E+02  0.98666028236E+02  0.00000000000E+00 0. -1.
        -12    1    4    4    0    0  0.12378128902E+02 -0.11891409341E+02 -0.56840098623E+02  0.59375251601E+02  0.00000000000E+00 0.  1.
        -11    1    3    3    0    0  0.75883917661E+02 -0.15138443901E+02 -0.86611495973E+02  0.11614255326E+03  0.00000000000E+00 0. -1.
         11    1    3    3    0    0 -0.39250904398E+02 -0.61810344336E+00 -0.80117244076E+02  0.89217645936E+02  0.00000000000E+00 0.  1.
          2    1    1    2  501    0 -0.53382743123E+02 -0.48943039937E+02 -0.11961345589E+03  0.13983031592E+03  0.00000000000E+00 0. -1.
<scales pt_clust_5="13000.00000" pt_clust_6="13000.00000" pt_clust_7="13000.00000" pt_clust_8="13000.00000" pt_clust_9="72.42336"></scales>
<clustering>
<clus scale="   72.423">  1  9  2 -1</clus>
<clus scale="   79.853">  5  6 -1 -1</clus>
<clus scale="   89.912">  1  5  2 -1</clus>
<clus scale="  113.067">  7  8 -1 -1</clus>
<clus scale="   72.423">  1  5  2 -1</clus>
</clustering>
</event>
<event>
 9    1  0.6014990E-005  0.1010578E+03  0.7546771E-02  0.1290806E+00
         -4   -1    0    0    0  501 -0.00000000000E+00  0.00000000000E+00  0.13616539496E+03  0.13616539496E+03  0.00000000000E+00 0.  1.
         21   -1    0    0  501  502  0.00000000000E+00 -0.00000000000E+00 -0.21562491887E+03  0.21562491887E+03  0.00000000000E+00 0. -1.
        -24    2    1    2    0    0  0.15624848689E+02 -0.30638390501E+02  0.59633335860E+02  0.97939305866E+02  0.69664381278E+02 0.  0.
         23    2    1    2    0    0 -0.27208419383E+02  0.70649153238E+02 -0.16542880082E+03  0.20456995648E+03  0.93544524230E+02 0.  0.
         13    1    3    3    0    0 -0.20046331623E+02 -0.72731168074E+00 -0.25934855455E+01  0.20226481679E+02  0.00000000000E+00 0. -1.
        -14    1    3    3    0    0  0.35671180312E+02 -0.29911078820E+02  0.62226821405E+02  0.77712824188E+02  0.00000000000E+00 0.  1.
        -11    1    4    4    0    0  0.10015202956E+02  0.81058852321E+02 -0.11378642904E+03  0.14006496087E+03  0.00000000000E+00 0. -1.
         11    1    4    4    0    0 -0.37223622339E+02 -0.10409699083E+02 -0.51642371778E+02  0.64504995604E+02  0.00000000000E+00 0.  1.
         -3    1    1    2    0  502  0.11583570695E+02 -0.40010762737E+02  0.26335941050E+02  0.49281051489E+02  0.00000000000E+00 0.  1.
<scales pt_clust_5="13000.00000" pt_clust_6="13000.00000" pt_clust_7="13000.00000" pt_clust_8="13000.00000" pt_clust_9="41.65384"></scales>
<clustering>
<clus scale="   41.654">  2  9  1 -1</clus>
<clus scale="   69.664">  5  6 -1 -1</clus>
<clus scale="   79.468">  1  5  2 -1</clus>
<clus scale="   93.545">  7  8 -1 -1</clus>
<clus scale="   41.654">  2  5  1 -1</clus>
</clustering>
</event>
<event>
 9    1  0.6014990E-005  0.1017641E+03  0.7546771E-02  0.1283697E+00
         21   -1    0    0  501  502  0.00000000000E+00  0.00000000000E+00  0.33428477438E+03  0.33428477438E+03  0.00000000000E+00 0. -1.
          3   -1    0    0  502    0 -0.00000000000E+00 -0.00000000000E+00 -0.28415150292E+03  0.28415150292E+03  0.00000000000E+00 0. -1.
        -24    2    1    2    0    0  0.42803773377E+02  0.12990975311E+02 -0.24359289454E+03  0.25993149498E+03  0.78904723276E+02 0.  0.
         23    2    1    2    0    0  0.99633334993E+01 -0.35841619959E+02  0.57915146300E+02  0.11578404456E+03  0.93101509485E+02 0.  0.
         11    1    3    3    0    0 -0.17413456070E+01  0.37864975021E+02 -0.12986753936E+03  0.13528623876E+03  0.00000000000E+00 0. -1.
        -12    1    3    3    0    0  0.44545118984E+02 -0.24873999710E+02 -0.11372535518E+03  0.12464525622E+03  0.00000000000E+00 0.  1.
        -11    1    4    4    0    0  0.50036277598E+02 -0.17914514977E+02  0.46016692146E+02  0.70300034700E+02  0.00000000000E+00 0. -1.
         11    1    4    4    0    0 -0.40072944099E+02 -0.17927104982E+02  0.11898454154E+02  0.45484009861E+02  0.00000000000E+00 0.  1.
          4    1    1    2  501    0 -0.52767106876E+02  0.22850644648E+02  0.23581101970E+03  0.24272073776E+03  0.00000000000E+00 0. -1.
<scales pt_clust_5="13000.00000" pt_clust_6="13000.00000" pt_clust_7="13000.00000" pt_clust_8="13000.00000" pt_clust_9="57.50234"></scales>
<clustering>
<clus scale="   57.502">  1  9  2 -1</clus>
<clus scale="   78.905">  5  6 -1 -1</clus>
<clus scale="   88.961">  2  5  1 -1</clus>
<clus scale="   93.102">  7  8 -1 -1</clus>
<clus scale="   57.502">  1  5  2 -1</clus>
</clustering>
</event>
<event>
 9    1  0.6014990E-005  0.9696653E+02  0.7546771E-02  0.1291466E+00
         21   -1    0    0  501  502  0.00000000000E+00  0.00000000000E+00  0.30682387162E+03  0.30682387162E+03  0.00000000000E+00 0. -1.
          3   -1    0    0  502    0 -0.00000000000E+00 -0.00000000000E+00 -0.61626482581E+02  0.61626482581E+02  0.00000000000E+00 0. -1.
         23    2    1    2    0    0  0.59781127748E+02 -0.15801978245E+02  0.32418488805E+02  0.11280994252E+03  0.88609474459E+02 0.  0.
        -24    2    1    2    0    0 -0.77268924244E+01  0.46028381391E+01  0.83111966577E+02  0.11546702677E+03  0.79650136826E+02 0.  0.
         13    1    4    4    0    0 -0.34396833670E+02 -0.17552912562E+02  0.66778447240E+02  0.77140183573E+02  0.00000000000E+00 0. -1.
        -14    1    4    4    0    0  0.26669941245E+02  0.22155750701E+02  0.16333519337E+02  0.38326843193E+02  0.00000000000E+00 0.  1.
        -13    1    3    3    0    0  0.64934112636E+02  0.19827780732E+02  0.60048343803E+01  0.68158916574E+02  0.00000000000E+00 0. -1.
         13    1    3    3    0    0 -0.51529848880E+01 -0.35629758977E+02  0.26413654425E+02  0.44651025947E+02  0.00000000000E+00 0.  1.
          4    1    1    2  501    0 -0.52054235324E+02  0.11199140106E+02  0.12966693366E+03  0.14017338491E+03  0.00000000000E+00 0. -1.
<scales pt_clust_5="13000.00000" pt_clust_6="13000.00000" pt_clust_7="13000.00000" pt_clust_8="13000.00000" pt_clust_9="53.24532"></scales>
<clustering>
<clus scale="   53.245">  1  9  2 -1</clus>
<clus scale="   79.650">  5  6 -1 -1</clus>
<clus scale="   88.609">  7  8 -1 -1</clus>
<clus scale="   88.854">  1  5  2 -1</clus>
<clus scale="   53.245">  1  5  2 -1</clus>
</clustering>
</event>
<event>
 9    1  0.6014990E-005  0.2843235E+03  0.7546771E-02  0.1122284E+00
         -4   -1    0    0    0  501 -0.00000000000E+00  0.00000000000E+00  0.61569069296E+03  0.61569069296E+03  0.00000000000E+00 0.  1.
         21   -1    0    0  501  502  0.00000000000E+00 -0.00000000000E+00 -0.32315446468E+03  0.32315446468E+03  0.00000000000E+00 0.  1.
        -24    2    1    2    0    0  0.10981632782E+03  0.74819670179E+01 -0.64237853989E+02  0.15008431541E+03  0.79266601800E+02 0.  0.
         23    2    1    2    0    0 -0.25763711878E+02  0.25660655839E+03 -0.57960925508E+02  0.28994953704E+03  0.11916614655E+03 0.  0.
         13    1    3    3    0    0  0.10544212511E+03 -0.17172290447E+02 -0.64966734144E+02  0.12503441867E+03  0.00000000000E+00 0. -1.
        -14    1    3    3    0    0  0.43742027127E+01  0.24654257465E+02  0.72888015553E+00  0.25049896742E+02  0.00000000000E+00 0.  1.
        -13    1    4    4    0    0  0.41311738953E+02  0.61103038362E+02  0.48758537527E+01  0.73918976063E+02  0.00000000000E+00 0. -1.
         13    1    4    4    0    0 -0.67075450831E+02  0.19550352003E+03 -0.62836779261E+02  0.21603056098E+03  0.00000000000E+00 0.  1.
         -3    1    1    2    0  502 -0.84052615946E+02 -0.26408852541E+03  0.41473500778E+03  0.49881130518E+03  0.00000000000E+00 0.  1.
<scales pt_clust_5="13000.00000" pt_clust_6="13000.00000" pt_clust_7="13000.00000" pt_clust_8="13000.00000" pt_clust_9="258.14596"></scales>
<clustering>
<clus scale="   79.267">  5  6 -1 -1</clus>
<clus scale="  119.166">  7  8 -1 -1</clus>
<clus scale="  135.642">  1  5  2 -1</clus>
<clus scale="  258.146">  2  9  1 -1</clus>
<clus scale="  258.146">  2  5  1 -1</clus>
</clustering>
</event>
<event>
 9    1  0.6014990E-005  0.1260266E+03  0.7546771E-02  0.1236833E+00
          1   -1    0    0  502    0 -0.00000000000E+00  0.00000000000E+00  0.21938877409E+03  0.21938877409E+03  0.00000000000E+00 0. -1.
         21   -1    0    0  501  502  0.00000000000E+00 -0.00000000000E+00 -0.89747921147E+02  0.89747921147E+02  0.00000000000E+00 0. -1.
         23    2    1    2    0    0  0.71287728044E+02 -0.30633833785E+02  0.86090553713E+02  0.14863797948E+03  0.93066070958E+02 0.  0.
        -24    2    1    2    0    0 -0.84111105186E+02  0.50326483998E+02  0.23347900579E+02  0.12950877569E+03  0.81363170498E+02 0.  0.
         13    1    4    4    0    0 -0.53909198806E+02  0.41152687210E+01 -0.21697822648E+02  0.58257468708E+02  0.00000000000E+00 0. -1.
        -14    1    4    4    0    0 -0.30201906379E+02  0.46211215277E+02  0.45045723227E+02  0.71251306987E+02  0.00000000000E+00 0.  1.
        -13    1    3    3    0    0  0.88757280607E+02 -0.43975696847E+02  0.73073889289E+02  0.12309147034E+03  0.00000000000E+00 0. -1.
         13    1    3    3    0    0 -0.17469552563E+02  0.13341863062E+02  0.13016664425E+02  0.25546509144E+02  0.00000000000E+00 0.  1.
          2    1    1    2  501    0  0.12823377142E+02 -0.19692650212E+02  0.20202398648E+02  0.30989940059E+02  0.00000000000E+00 0. -1.
<scales pt_clust_5="13000.00000" pt_clust_6="13000.00000" pt_clust_7="13000.00000" pt_clust_8="13000.00000" pt_clust_9="23.49979"></scales>
<clustering>
<clus scale="   23.500">  2  9  1 -1</clus>
<clus scale="   81.363">  5  6 -1 -1</clus>
<clus scale="   93.066">  7  8 -1 -1</clus>
<clus scale="  117.649">  2  5  1 -1</clus>
<clus scale="   23.500">  2  5  1 -1</clus>
</clustering>
</event>
<event>
 9    1  0.6014990E-005  0.1201932E+03  0.7546771E-02  0.1246746E+00
         -4   -1    0    0    0  501 -0.00000000000E+00  0.00000000000E+00  0.21563427182E+03  0.21563427182E+03  0.00000000000E+00 0.  1.
         21   -1    0    0  501  502  0.00000000000E+00 -0.00000000000E+00 -0.11602719038E+03  0.11602719038E+03  0.00000000000E+00 0.  1.
        -24    2    1    2    0    0 -0.95695714406E+02 -0.29237241453E+01  0.27910216561E+02  0.12739759008E+03  0.79277662999E+02 0.  0.
         23    2    1    2    0    0  0.54686915310E+02 -0.26154933062E+02 -0.77509842082E+01  0.11024658312E+03  0.91757790426E+02 0.  0.
         13    1    3    3    0    0 -0.68564445561E+01 -0.27542979394E+02  0.20301547539E+02  0.34896695808E+02  0.00000000000E+00 0. -1.
        -14    1    3    3    0    0 -0.88839269850E+02  0.24619255249E+02  0.76086690228E+01  0.92500894270E+02  0.00000000000E+00 0.  1.
        -11    1    4    4    0    0  0.23042206823E+00 -0.50308677101E+02 -0.57933536137E+01  0.50641672880E+02  0.00000000000E+00 0.  1.
         11    1    4    4    0    0  0.54456493241E+02  0.24153744039E+02 -0.19576305946E+01  0.59604910240E+02  0.00000000000E+00 0. -1.
         -3    1    1    2    0  502  0.41008799097E+02  0.29078657207E+02  0.79447849079E+02  0.94017289004E+02  0.00000000000E+00 0.  1.
<scales pt_clust_5="13000.00000" pt_clust_6="13000.00000" pt_clust_7="13000.00000" pt_clust_8="13000.00000" pt_clust_9="50.27218"></scales>
<clustering>
<clus scale="   50.272">  2  9  1 -1</clus>
<clus scale="   79.278">  5  6 -1 -1</clus>
<clus scale="   91.758">  7  8 -1 -1</clus>
<clus scale="  110.959">  1  5  2 -1</clus>
<clus scale="   50.272">  2  5  1 -1</clus>
</clustering>
</event>
<event>
 9    1  0.6014990E-005  0.9467475E+02  0.7546771E-02  0.1301237E+00
         -4   -1    0    0    0  501 -0.00000000000E+00  0.00000000000E+00  0.32972750850E+03  0.32972750850E+03  0.00000000000E+00 0.  1.
         21   -1    0    0  501  502  0.00000000000E+00 -0.00000000000E+00 -0.72827385771E+02  0.72827385771E+02  0.00000000000E+00 0.  1.
        -24    2    1    2    0    0 -0.17061604833E+02  0.97365475996E+01  0.21407551506E+03  0.22832842184E+03  0.76939218560E+02 0.  0.
         23    2    1    2    0    0  0.73605749925E+01 -0.40086986026E+02 -0.20754485230E+02  0.10310994730E+03  0.92410865502E+02 0.  0.
         13    1    3    3    0    0  0.24322217167E+02  0.18665669239E+02  0.13702377765E+03  0.14041186951E+03  0.00000000000E+00 0. -1.
        -14    1    3    3    0    0 -0.41383822001E+02 -0.89291216389E+01  0.77051737410E+02  0.87916552336E+02  0.00000000000E+00 0.  1.
        -13    1    4    4    0    0 -0.31638481056E+02 -0.35659555748E+02  0.15041630170E+02  0.49988479051E+02  0.00000000000E+00 0.  1.
         13    1    4    4    0    0  0.38999056048E+02 -0.44274302777E+01 -0.35796115400E+02  0.53121468252E+02  0.00000000000E+00 0. -1.
         -3    1    1    2    0  502  0.97010298410E+01  0.30350438426E+02  0.63579092898E+02  0.71116525128E+02  0.00000000000E+00 0.  1.
<scales pt_clust_5="13000.00000" pt_clust_6="13000.00000" pt_clust_7="13000.00000" pt_clust_8="13000.00000" pt_clust_9="31.86315"></scales>
<clustering>
<clus scale="   31.863">  2  9  1 -1</clus>
<clus scale="   76.939">  5  6 -1 -1</clus>
<clus scale="   79.644">  1  5  2 -1</clus>
<clus scale="   92.411">  7  8 -1 -1</clus>
<clus scale="   31.863">  2  5  1 -1</clus>
</clustering>
</event>
<event>
 9    1  0.6014990E-005  0.9969696E+02  0.7546771E-02  0.1288641E+00
          1   -1    0    0  502    0 -0.00000000000E+00  0.00000000000E+00  0.96839668074E+02  0.96839668074E+02  0.00000000000E+00 0. -1.
         21   -1    0    0  501  502  0.00000000000E+00 -0.00000000000E+00 -0.16412840141E+03  0.16412840141E+03  0.00000000000E+00 0. -1.
        -24    2    1    2    0    0  0.22547546537E+02 -0.30007579736E+02  0.13824428022E+02  0.86847177363E+02  0.77087422511E+02 0.  0.
         23    2    1    2    0    0 -0.50932250058E+02  0.89452867404E+01 -0.88875032995E+02  0.13793307330E+03  0.91938288912E+02 0.  0.
         11    1    3    3    0    0 -0.11025313472E+02 -0.36992459149E+02  0.30042453759E+02  0.48913685191E+02  0.00000000000E+00 0. -1.
        -12    1    3    3    0    0  0.33572860009E+02  0.69848794135E+01 -0.16218025737E+02  0.37933492173E+02  0.00000000000E+00 0.  1.
        -11    1    4    4    0    0 -0.69085989693E+02 -0.19455659321E+02 -0.59981581406E+02  0.93537087615E+02  0.00000000000E+00 0.  1.
         11    1    4    4    0    0  0.18153739634E+02  0.28400946062E+02 -0.28893451589E+02  0.44395985682E+02  0.00000000000E+00 0. -1.
          2    1    1    2  501    0  0.28384703521E+02  0.21062292995E+02  0.77618716349E+01  0.36187818828E+02  0.00000000000E+00 0. -1.
<scales pt_clust_5="13000.00000" pt_clust_6="13000.00000" pt_clust_7="13000.00000" pt_clust_8="13000.00000" pt_clust_9="35.34562"></scales>
<clustering>
<clus scale="   35.346">  2  9  1 -1</clus>
<clus scale="   77.087">  5  6 -1 -1</clus>
<clus scale="   86.193">  1  5  2 -1</clus>
<clus scale="   91.938">  7  8 -1 -1</clus>
<clus scale="   35.346">  2  5  1 -1</clus>
</clustering>
</event>
<event>
 9    1  0.6014990E-005  0.1056549E+03  0.7546771E-02  0.1274405E+00
         21   -1    0    0  501  502  0.00000000000E+00  0.00000000000E+00  0.14897595559E+03  0.14897595559E+03  0.00000000000E+00 0.  1.
          1   -1    0    0  502    0 -0.00000000000E+00 -0.00000000000E+00 -0.19666398786E+03  0.19666398786E+03  0.00000000000E+00 0. -1.
        -24    2    1    2    0    0  0.46738330693E+02 -0.18841558525E+02 -0.13008766765E+03  0.15995443064E+03  0.78250512614E+02 0.  0.
         23    2    1    2    0    0 -0.70630611897E+02  0.65095758021E+01  0.19152001235E+02  0.11696010176E+03  0.91004441316E+02 0.  0.
         13    1    3    3    0    0  0.37200956080E+02  0.21693394967E+02 -0.99086144456E+02  0.10803970817E+03  0.00000000000E+00 0. -1.
        -14    1    3    3    0    0  0.95373746128E+01 -0.40534953491E+02 -0.31001523192E+02  0.51914722472E+02  0.00000000000E+00 0.  1.
        -13    1    4    4    0    0  0.13389397933E+02 -0.19968226425E+02  0.15866703482E+02  0.28805525910E+02  0.00000000000E+00 0. -1.
         13    1    4    4    0    0 -0.84020009830E+02  0.26477802227E+02  0.32852977530E+01  0.88154575854E+02  0.00000000000E+00 0.  1.
          2    1    1    2  501    0  0.23892281204E+02  0.12331982723E+02  0.63247634145E+02  0.68725411049E+02  0.00000000000E+00 0. -1.
<scales pt_clust_5="13000.00000" pt_clust_6="13000.00000" pt_clust_7="13000.00000" pt_clust_8="13000.00000" pt_clust_9="26.88715"></scales>
<clustering>
<clus scale="   26.887">  1  9  2 -1</clus>
<clus scale="   78.251">  5  6 -1 -1</clus>
<clus scale="   91.004">  7  8 -1 -1</clus>
<clus scale="   94.891">  2  5  1 -1</clus>
<clus scale="   26.887">  1  5  2 -1</clus>
</clustering>
</event>
<event>
 9    1  0.6014990E-005  0.1052889E+03  0.7546771E-02  0.1273167E+00
         -4   -1    0    0    0  501 -0.00000000000E+00  0.00000000000E+00  0.77348590358E+03  0.77348590358E+03  0.00000000000E+00 0.  1.
         21   -1    0    0  501  502  0.00000000000E+00 -0.00000000000E+00 -0.26697918001E+02  0.26697918001E+02  0.00000000000E+00 0. -1.
         23    2    1    2    0    0  0.37787991067E+02 -0.67380394819E+02  0.34334154605E+03  0.36315842463E+03  0.89624629781E+02 0.  0.
        -24    2    1    2    0    0  0.90647295606E+01  0.31275474050E+02  0.12622214964E+03  0.15356102592E+03  0.81170395001E+02 0.  0.
         11    1    4    4    0    0  0.84647847468E+01 -0.18732106107E+02  0.88668084828E+02  0.91019633306E+02  0.00000000000E+00 0. -1.
        -12    1    4    4    0    0  0.59994481376E+00  0.50007580157E+02  0.37554064809E+02  0.62541392618E+02  0.00000000000E+00 0.  1.
        -11    1    3    3    0    0  0.65049094043E+02 -0.62426319607E+02  0.24835623953E+03  0.26421440485E+03  0.00000000000E+00 0. -1.
         11    1    3    3    0    0 -0.27261102976E+02 -0.49540752118E+01  0.94985306516E+02  0.98944019782E+02  0.00000000000E+00 0.  1.
         -3    1    1    2    0  502 -0.46852720628E+02  0.36104920769E+02  0.27722428989E+03  0.28346437103E+03  0.00000000000E+00 0.  1.
<scales pt_clust_5="13000.00000" pt_clust_6="13000.00000" pt_clust_7="13000.00000" pt_clust_8="13000.00000" pt_clust_9="59.15020"></scales>
<clustering>
<clus scale="   59.150">  2  9  1 -1</clus>
<clus scale="   81.170">  5  6 -1 -1</clus>
<clus scale="   89.625">  7  8 -1 -1</clus>
<clus scale="   98.193">  2  5  1 -1</clus>
<clus scale="   59.150">  2  5  1 -1</clus>
</clustering>
</event>
<event>
 9    1  0.8330388E-005  0.1061222E+03  0.7546771E-02  0.1273692E+00
         21   -1    0    0  501  502  0.00000000000E+00  0.00000000000E+00  0.13859645459E+03  0.13859645459E+03  0.00000000000E+00 0. -1.
          1   -1    0    0  502    0 -0.00000000000E+00 -0.00000000000E+00 -0.55583877038E+03  0.55583877038E+03  0.00000000000E+00 0. -1.
         23    2    1    2    0    0  0.19451652212E+02 -0.45693981596E+02 -0.49136144084E+03  0.50245100534E+03  0.92491299539E+02 0.  0.
        -24    2    1    2    0    0 -0.22862260378E+02  0.70977767742E+02 -0.48072972688E+01  0.10903675293E+03  0.79406403515E+02 0.  0.
         13    1    4    4    0    0 -0.59834744211E+01  0.57692844036E+02 -0.38114182092E+02  0.69404301708E+02  0.00000000000E+00 0. -1.
        -14    1    4    4    0    0 -0.16878785956E+02  0.13284923706E+02  0.33306884823E+02  0.39632451222E+02  0.00000000000E+00 0.  1.
        -11    1    3    3    0    0 -0.31579845605E+02  0.48302965193E+01 -0.18882966128E+03  0.19151307891E+03  0.00000000000E+00 0.  1.
         11    1    3    3    0    0  0.51031497818E+02 -0.50524278115E+02 -0.30253177956E+03  0.31093792643E+03  0.00000000000E+00 0. -1.
          2    1    1    2  501    0  0.34106081651E+01 -0.25283786146E+02  0.78926422331E+02  0.82947466700E+02  0.00000000000E+00 0. -1.
<scales pt_clust_5="13000.00000" pt_clust_6="13000.00000" pt_clust_7="13000.00000" pt_clust_8="13000.00000" pt_clust_9="25.51278"></scales>
<clustering>
<clus scale="   25.513">  1  9  2 -1</clus>
<clus scale="   79.406">  5  6 -1 -1</clus>
<clus scale="   92.491">  7  8 -1 -1</clus>
<clus scale="   94.935">  1  5  2 -1</clus>
<clus scale="   25.513">  1  5  2 -1</clus>
</clustering>
</event>
<event>
 9    1  0.6014990E-005  0.9492514E+02  0.7546771E-02  0.1296680E+00
         -2   -1    0    0    0  501 -0.00000000000E+00  0.00000000000E+00  0.76370553678E+02  0.76370553678E+02  0.00000000000E+00 0.  1.
         21   -1    0    0  501  502  0.00000000000E+00 -0.00000000000E+00 -0.22579425195E+03  0.22579425195E+03  0.00000000000E+00 0.  1.
        -24    2    1    2    0    0 -0.38062919431E+02  0.11673362844E+02  0.20786175738E+01  0.89599446605E+02  0.80241429108E+02 0.  0.
         23    2    1    2    0    0 -0.97908376739E+01 -0.33573109668E+02 -0.10196813325E+03  0.14029353723E+03  0.89787316448E+02 0.  0.
         13    1    3    3    0    0  0.22621121976E+02 -0.10496057686E+02  0.16355536743E+01  0.24991146877E+02  0.00000000000E+00 0. -1.
        -14    1    3    3    0    0 -0.60684041407E+02  0.22169420530E+02  0.44306389953E+00  0.64608299728E+02  0.00000000000E+00 0.  1.
        -11    1    4    4    0    0 -0.36549275648E+02  0.13423788565E+02 -0.61330972378E+02  0.72646650457E+02  0.00000000000E+00 0.  1.
         11    1    4    4    0    0  0.26758437974E+02 -0.46996898233E+02 -0.40637160872E+02  0.67646886773E+02  0.00000000000E+00 0. -1.
         -1    1    1    2    0  502  0.47853757105E+02  0.21899746824E+02 -0.49534182599E+02  0.72271821797E+02  0.00000000000E+00 0.  1.
<scales pt_clust_5="13000.00000" pt_clust_6="13000.00000" pt_clust_7="13000.00000" pt_clust_8="13000.00000" pt_clust_9="52.62681"></scales>
<clustering>
<clus scale="   52.627">  2  9  1 -1</clus>
<clus scale="   80.241">  5  6 -1 -1</clus>
<clus scale="   85.952">  1  5  2 -1</clus>
<clus scale="   89.787">  7  8 -1 -1</clus>
<clus scale="   52.627">  2  5  1 -1</clus>
</clustering>
</event>
<event>
 9    1  0.6014990E-005  0.9818868E+02  0.7546771E-02  0.1292806E+00
         21   -1    0    0  501  502  0.00000000000E+00  0.00000000000E+00  0.12532956285E+03  0.12532956285E+03  0.00000000000E+00 0. -1.
         -2   -1    0    0    0  501 -0.00000000000E+00 -0.00000000000E+00 -0.34996405788E+03  0.34996405788E+03  0.00000000000E+00 0.  1.
        -24    2    1    2    0    0 -0.11614738279E+02  0.28991948679E+02 -0.30614572652E+03  0.31717082029E+03  0.76789896078E+02 0.  0.
         23    2    1    2    0    0  0.17899413197E+02 -0.53268561761E+02  0.54419679860E+02  0.12120663527E+03  0.92583034154E+02 0.  0.
         11    1    3    3    0    0  0.23500961246E+02  0.15450245961E+02 -0.43221264466E+02  0.51566296957E+02  0.00000000000E+00 0. -1.
        -12    1    3    3    0    0 -0.35115699526E+02  0.13541702718E+02 -0.26292446206E+03  0.26560452333E+03  0.00000000000E+00 0.  1.
        -13    1    4    4    0    0  0.41100181819E+02 -0.26742461871E+02 -0.78476570774E+01  0.49658533346E+02  0.00000000000E+00 0. -1.
         13    1    4    4    0    0 -0.23200768622E+02 -0.26526099890E+02  0.62267336937E+02  0.71548101927E+02  0.00000000000E+00 0.  1.
         -1    1    1    2    0  502 -0.62846749175E+01  0.24276613083E+02  0.27091551631E+02  0.36916165177E+02  0.00000000000E+00 0.  1.
<scales pt_clust_5="13000.00000" pt_clust_6="13000.00000" pt_clust_7="13000.00000" pt_clust_8="13000.00000" pt_clust_9="25.07690"></scales>
<clustering>
<clus scale="   25.077">  1  9  2 -1</clus>
<clus scale="   76.790">  5  6 -1 -1</clus>
<clus scale="   83.463">  2  5  1 -1</clus>
<clus scale="   92.583">  7  8 -1 -1</clus>
<clus scale="   25.077">  1  5  2 -1</clus>
</clustering>
</event>
<event>
 9    1  0.6014990E-005  0.1474122E+03  0.7546771E-02  0.1206012E+00
         21   -1    0    0  501  502  0.00000000000E+00  0.00000000000E+00  0.40182434952E+03  0.40182434952E+03  0.00000000000E+00 0.  1.
         -4   -1    0    0    0  501 -0.00000000000E+00 -0.00000000000E+00 -0.97367315123E+02  0.97367315123E+02  0.00000000000E+00 0.  1.
         23    2    1    2    0    0 -0.85495138985E+02 -0.13387128513E+03  0.11285922221E+03  0.21592063296E+03  0.93024598504E+02 0.  0.
        -24    2    1    2    0    0  0.41311401618E+02  0.55518221378E+02  0.15030087834E+03  0.18429203395E+03  0.81143668507E+02 0.  0.
         11    1    4    4    0    0  0.34569373855E+02  0.59643899134E+02  0.53743481167E+02  0.87411658722E+02  0.00000000000E+00 0. -1.
        -12    1    4    4    0    0  0.67420277628E+01 -0.41256777565E+01  0.96557397171E+02  0.96880375225E+02  0.00000000000E+00 0.  1.
        -11    1    3    3    0    0 -0.80567432137E+01 -0.42942987502E+02  0.81443489888E+02  0.92423229396E+02  0.00000000000E+00 0. -1.
         11    1    3    3    0    0 -0.77438395772E+02 -0.90928297631E+02  0.31415732320E+02  0.12349740356E+03  0.00000000000E+00 0.  1.
         -3    1    1    2    0  502  0.44183737367E+02  0.78353063756E+02  0.41296933853E+02  0.98978997738E+02  0.00000000000E+00 0.  1.
<scales pt_clust_5="13000.00000" pt_clust_6="13000.00000" pt_clust_7="13000.00000" pt_clust_8="13000.00000" pt_clust_9="89.95228"></scales>
<clustering>
<clus scale="   81.144">  5  6 -1 -1</clus>
<clus scale="   89.952">  1  9  2 -1</clus>
<clus scale="   93.025">  7  8 -1 -1</clus>
<clus scale="  140.218">  1  5  2 -1</clus>
<clus scale="   89.952">  1  5  2 -1</clus>
</clustering>
</event>
<event>
 9    1  0.6014990E-005  0.9372959E+02  0.7546771E-02  0.1300300E+00
          1   -1    0    0  502    0 -0.00000000000E+00  0.00000000000E+00  0.51454533197E+03  0.51454533197E+03  0.00000000000E+00 0. -1.
         21   -1    0    0  501  502  0.00000000000E+00 -0.00000000000E+00 -0.45649276109E+02  0.45649276109E+02  0.00000000000E+00 0. -1.
        -24    2    1    2    0    0 -0.30492443949E+02  0.10768441388E+01  0.20259535765E+03  0.22027115285E+03  0.80892231417E+02 0.  0.
         23    2    1    2    0    0 -0.18731813870E+02 -0.14966615279E+02  0.31493967139E+02  0.99610837469E+02  0.91408799092E+02 0.  0.
         11    1    3    3    0    0 -0.25365872788E+02  0.37677376387E+02  0.14400722179E+03  0.15100030503E+03  0.00000000000E+00 0. -1.
        -12    1    3    3    0    0 -0.51265711609E+01 -0.36600532248E+02  0.58588135867E+02  0.69270847816E+02  0.00000000000E+00 0.  1.
        -11    1    4    4    0    0  0.30592810516E+02  0.16948515610E+02  0.17989435925E+02  0.39329277156E+02  0.00000000000E+00 0.  1.
         11    1    4    4    0    0 -0.49324624386E+02 -0.31915130889E+02  0.13504531214E+02  0.60281560314E+02  0.00000000000E+00 0. -1.
          2    1    1    2  501    0  0.49224257819E+02  0.13889771140E+02  0.23480673107E+03  0.24031261776E+03  0.00000000000E+00 0. -1.
<scales pt_clust_5="13000.00000" pt_clust_6="13000.00000" pt_clust_7="13000.00000" pt_clust_8="13000.00000" pt_clust_9="51.14642"></scales>
<clustering>
<clus scale="   51.146">  2  9  1 -1</clus>
<clus scale="   80.892">  5  6 -1 -1</clus>
<clus scale="   83.506">  1  5  2 -1</clus>
<clus scale="   91.409">  7  8 -1 -1</clus>
<clus scale="   51.146">  2  5  1 -1</clus>
</clustering>
</event>
<event>
 9    1  0.6014990E-005  0.2087141E+03  0.7546771E-02  0.1145658E+00
          1   -1    0    0  502    0 -0.00000000000E+00  0.00000000000E+00  0.14928290066E+04  0.14928290066E+04  0.00000000000E+00 0. -1.
         21   -1    0    0  501  502  0.00000000000E+00 -0.00000000000E+00 -0.12908702928E+03  0.12908702928E+03  0.00000000000E+00 0. -1.
         23    2    1    2    0    0 -0.20095357708E+03  0.56436179548E+02  0.10165686635E+04  0.10437107904E+04  0.11114397860E+03 0.  0.
        -24    2    1    2    0    0  0.13331315317E+03 -0.49246219033E+02  0.43647551749E+03  0.46594747936E+03  0.79991182348E+02 0.  0.
         11    1    4    4    0    0  0.71383092130E+02 -0.58733864543E+02  0.18532783343E+03  0.20710291772E+03  0.00000000000E+00 0. -1.
        -12    1    4    4    0    0  0.61930061036E+02  0.94876455093E+01  0.25114768406E+03  0.25884456163E+03  0.00000000000E+00 0.  1.
        -13    1    3    3    0    0 -0.98437647067E+02 -0.29381564946E+02  0.45253224198E+03  0.46404598560E+03  0.00000000000E+00 0.  1.
         13    1    3    3    0    0 -0.10251593001E+03  0.85817744494E+02  0.56403642149E+03  0.57966480481E+03  0.00000000000E+00 0. -1.
          2    1    1    2  501    0  0.67640423911E+02 -0.71899605149E+01 -0.89302203630E+02  0.11225776611E+03  0.00000000000E+00 0. -1.
<scales pt_clust_5="13000.00000" pt_clust_6="13000.00000" pt_clust_7="13000.00000" pt_clust_8="13000.00000" pt_clust_9="68.02149"></scales>
<clustering>
<clus scale="   68.021">  2  9  1 -1</clus>
<clus scale="   79.991">  5  6 -1 -1</clus>
<clus scale="  111.144">  7  8 -1 -1</clus>
<clus scale="  193.926">  2  5  1 -1</clus>
<clus scale="   68.021">  2  5  1 -1</clus>
</clustering>
</event>
<event>
 9    1  0.6014990E-005  0.1423559E+03  0.7546771E-02  0.1210961E+00
         21   -1    0    0  501  502  0.00000000000E+00  0.00000000000E+00  0.35328866327E+03  0.35328866327E+03  0.00000000000E+00 0. -1.
          1   -1    0    0  502    0 -0.00000000000E+00 -0.00000000000E+00 -0.38333455735E+03  0.38333455735E+03  0.00000000000E+00 0. -1.
         23    2    1    2    0    0 -0.10217274650E+03  0.45597963927E+02 -0.27488179726E+03  0.30964999762E+03  0.88344066673E+02 0.  0.
        -24    2    1    2    0    0  0.15024104551E+03  0.85937578377E+02  0.20830194929E+03  0.28224281829E+03  0.79458588371E+02 0.  0.
         13    1    4    4    0    0  0.14629479411E+03  0.56229772252E+02  0.15130136007E+03  0.21784410855E+03  0.00000000000E+00 0. -1.
        -14    1    4    4    0    0  0.39462513995E+01  0.29707806124E+02  0.57000589217E+02  0.64398709738E+02  0.00000000000E+00 0.  1.
        -11    1    3    3    0    0 -0.95733072247E+01  0.26882251621E+02 -0.13207298045E+02  0.31444178875E+02  0.00000000000E+00 0.  1.
         11    1    3    3    0    0 -0.92599439272E+02  0.18715712306E+02 -0.26167449922E+03  0.27820581874E+03  0.00000000000E+00 0. -1.
          2    1    1    2  501    0 -0.48068299015E+02 -0.13153554230E+03  0.36533953894E+02  0.14473040471E+03  0.00000000000E+00 0. -1.
<scales pt_clust_5="13000.00000" pt_clust_6="13000.00000" pt_clust_7="13000.00000" pt_clust_8="13000.00000" pt_clust_9="140.04342"></scales>
<clustering>
<clus scale="   79.459">  5  6 -1 -1</clus>
<clus scale="   88.344">  7  8 -1 -1</clus>
<clus scale="  140.043">  1  9  2 -1</clus>
<clus scale="  140.043">  1  5  2 -1</clus>
<clus scale="  140.043">  1  5  2 -1</clus>
</clustering>
</event>
<event>
 9    1  0.6014990E-005  0.1637066E+03  0.7546771E-02  0.1187408E+00
          1   -1    0    0  502    0 -0.00000000000E+00  0.00000000000E+00  0.75294416331E+03  0.75294416331E+03  0.00000000000E+00 0. -1.
         21   -1    0    0  501  502  0.00000000000E+00 -0.00000000000E+00 -0.53152178026E+02  0.53152178026E+02  0.00000000000E+00 0. -1.
         23    2    1    2    0    0 -0.32086412664E+02  0.12532247347E+03  0.36293530320E+03  0.39857023608E+03  0.10198499175E+03 0.  0.
        -24    2    1    2    0    0 -0.25421819209E+02 -0.13088463585E+03  0.29963083733E+03  0.33879548689E+03  0.85009919811E+02 0.  0.
         13    1    4    4    0    0 -0.46469872696E+02 -0.11103797932E+03  0.27714188211E+03  0.30215311472E+03  0.00000000000E+00 0. -1.
        -14    1    4    4    0    0  0.21048053487E+02 -0.19846656531E+02  0.22488955219E+02  0.36642372166E+02  0.00000000000E+00 0.  1.
        -11    1    3    3    0    0  0.14130536560E+02  0.83119964687E+02  0.11341682417E+03  0.14132224381E+03  0.00000000000E+00 0. -1.
         11    1    3    3    0    0 -0.46216949224E+02  0.42202508788E+02  0.24951847904E+03  0.25724799227E+03  0.00000000000E+00 0.  1.
          2    1    1    2  501    0  0.57508231872E+02  0.55621623761E+01  0.37225844756E+02  0.68730618367E+02  0.00000000000E+00 0. -1.
<scales pt_clust_5="13000.00000" pt_clust_6="13000.00000" pt_clust_7="13000.00000" pt_clust_8="13000.00000" pt_clust_9="57.77659"></scales>
<clustering>
<clus scale="   57.777">  2  9  1 -1</clus>
<clus scale="   85.010">  5  6 -1 -1</clus>
<clus scale="  101.985">  7  8 -1 -1</clus>
<clus scale="  153.706">  2  5  1 -1</clus>
<clus scale="   57.777">  2  5  1 -1</clus>
</clustering>
</event>
<event>
 9    1  0.6014990E-005  0.1064915E+03  0.7546771E-02  0.1270021E+00
         21   -1    0    0  501  502  0.00000000000E+00  0.00000000000E+00  0.47521938284E+02  0.47521938284E+02  0.00000000000E+00 0.  1.
         -4   -1    0    0    0  501 -0.00000000000E+00 -0.00000000000E+00 -0.58806925748E+03  0.58806925748E+03  0.00000000000E+00 0.  1.
         23    2    1    2    0    0  0.14831521885E+02  0.61065644424E+02 -0.39324814701E+03  0.40866603433E+03  0.91732412546E+02 0.  0.
        -24    2    1    2    0    0  0.69341931738E+01 -0.16104281297E+02 -0.18588539243E+02  0.88861054741E+02  0.85107710271E+02 0.  0.
         11    1    4    4    0    0 -0.25605050910E+02 -0.25990890954E+02 -0.35477639603E+02  0.50890155792E+02  0.00000000000E+00 0. -1.
        -12    1    4    4    0    0  0.32539244084E+02  0.98866096571E+01  0.16889100360E+02  0.37970898950E+02  0.00000000000E+00 0.  1.
        -13    1    3    3    0    0 -0.38039727885E+02  0.26697542162E+02 -0.13295474746E+03  0.14084297827E+03  0.00000000000E+00 0.  1.
         13    1    3    3    0    0  0.52871249770E+02  0.34368102262E+02 -0.26029339955E+03  0.26782305606E+03  0.00000000000E+00 0. -1.
         -3    1    1    2    0  502 -0.21765715059E+02 -0.44961363127E+02 -0.12871063294E+03  0.13806410669E+03  0.00000000000E+00 0.  1.
<scales pt_clust_5="13000.00000" pt_clust_6="13000.00000" pt_clust_7="13000.00000" pt_clust_8="13000.00000" pt_clust_9="49.95271"></scales>
<clustering>
<clus scale="   49.953">  1  9  2 -1</clus>
<clus scale="   85.108">  5  6 -1 -1</clus>
<clus scale="   91.732">  7  8 -1 -1</clus>
<clus scale="  100.841">  1  5  2 -1</clus>
<clus scale="   49.953">  1  5  2 -1</clus>
</clustering>
</event>
<event>
 9    1  0.6014990E-005  0.8733041E+02  0.7546771E-02  0.1312545E+00
          1   -1    0    0  502    0 -0.00000000000E+00  0.00000000000E+00  0.27557878615E+03  0.27557878615E+03  0.00000000000E+00 0. -1.
         21   -1    0    0  501  502  0.00000000000E+00 -0.00000000000E+00 -0.52480774519E+02  0.52480774519E+02  0.00000000000E+00 0. -1.
        -24    2    1    2    0    0 -0.95526032167E+01  0.69320246361E+01  0.14211011624E+03  0.16413503812E+03  0.81275583092E+02 0.  0.
         23    2    1    2    0    0  0.24241038151E+02  0.36474293812E+02  0.52239518507E+02  0.10982897952E+03  0.86112922431E+02 0.  0.
         11    1    3    3    0    0 -0.39458353506E+02 -0.92075932782E+01  0.11061184649E+03  0.11779949923E+03  0.00000000000E+00 0. -1.
        -12    1    3    3    0    0  0.29905750290E+02  0.16139617914E+02  0.31498269752E+02  0.46335538889E+02  0.00000000000E+00 0.  1.
        -13    1    4    4    0    0  0.15859298485E+02  0.64175438784E+02  0.26926386962E+02  0.71379511111E+02  0.00000000000E+00 0. -1.
         13    1    4    4    0    0  0.83817396657E+01 -0.27701144972E+02  0.25313131545E+02  0.38449468413E+02  0.00000000000E+00 0.  1.
          2    1    1    2  501    0 -0.14688434934E+02 -0.43406318448E+02  0.28748376887E+02  0.54095543029E+02  0.00000000000E+00 0. -1.
<scales pt_clust_5="13000.00000" pt_clust_6="13000.00000" pt_clust_7="13000.00000" pt_clust_8="13000.00000" pt_clust_9="45.82421"></scales>
<clustering>
<clus scale="   45.824">  2  9  1 -1</clus>
<clus scale="   81.276">  5  6 -1 -1</clus>
<clus scale="   82.564">  1  5  2 -1</clus>
<clus scale="   86.113">  7  8 -1 -1</clus>
<clus scale="   45.824">  2  5  1 -1</clus>
</clustering>
</event>
<event>
 9    1  0.6014990E-005  0.2123903E+03  0.7546771E-02  0.1140635E+00
         -4   -1    0    0    0  501 -0.00000000000E+00  0.00000000000E+00  0.27458409517E+03  0.27458409517E+03  0.00000000000E+00 0.  1.
         21   -1    0    0  501  502  0.00000000000E+00 -0.00000000000E+00 -0.48561440851E+03  0.48561440851E+03  0.00000000000E+00 0.  1.
         23    2    1    2    0    0  0.73994402442E+02 -0.12480032618E+03  0.26466018744E+01  0.17154448362E+03  0.91488864632E+02 0.  0.
        -24    2    1    2    0    0 -0.30169615947E+02  0.26062715276E+03  0.59365348402E+02  0.28056050107E+03  0.79707162086E+02 0.  0.
         11    1    4    4    0    0 -0.38820950086E+02  0.15361306460E+03  0.68899175001E+02  0.17277481326E+03  0.00000000000E+00 0. -1.
        -12    1    4    4    0    0  0.86513341394E+01  0.10701408815E+03 -0.95338265999E+01  0.10778568780E+03  0.00000000000E+00 0.  1.
        -13    1    3    3    0    0  0.47904033536E+02 -0.12475938280E+03  0.26443854357E+02  0.13623133803E+03  0.00000000000E+00 0.  1.
         13    1    3    3    0    0  0.26090368906E+02 -0.40943373457E-01 -0.23797252482E+02  0.35313145594E+02  0.00000000000E+00 0. -1.
         -3    1    1    2    0  502 -0.43824786496E+02 -0.13582682658E+03 -0.27304226362E+03  0.30809351900E+03  0.00000000000E+00 0.  1.
<scales pt_clust_5="13000.00000" pt_clust_6="13000.00000" pt_clust_7="13000.00000" pt_clust_8="13000.00000" pt_clust_9="142.72189"></scales>
<clustering>
<clus scale="   79.707">  5  6 -1 -1</clus>
<clus scale="   91.489">  7  8 -1 -1</clus>
<clus scale="  142.722">  2  9  1 -1</clus>
<clus scale="  207.588">  2  5  1 -1</clus>
<clus scale="  142.722">  2  5  1 -1</clus>
</clustering>
</event>
<event>
 9    1  0.6014990E-005  0.1238693E+03  0.7546771E-02  0.1241424E+00
          1   -1    0    0  502    0 -0.00000000000E+00  0.00000000000E+00  0.29908553033E+03  0.29908553033E+03  0.00000000000E+00 0. -1.
         21   -1    0    0  501  502  0.00000000000E+00 -0.00000000000E+00 -0.12752567795E+03  0.12752567795E+03  0.00000000000E+00 0.  1.
        -24    2    1    2    0    0  0.52548756479E+02  0.59563799815E+02  0.12574712445E+03  0.17087401406E+03  0.84121170446E+02 0.  0.
         23    2    1    2    0    0 -0.10408319383E+03  0.30920882363E+02  0.37610043664E+02  0.15128356829E+03  0.98401170964E+02 0.  0.
         11    1    3    3    0    0  0.75772191303E+02  0.47546933576E+02  0.10011812205E+03  0.13426009917E+03  0.00000000000E+00 0. -1.
        -12    1    3    3    0    0 -0.23223434823E+02  0.12016866239E+02  0.25629002400E+02  0.36613914885E+02  0.00000000000E+00 0.  1.
        -11    1    4    4    0    0 -0.53984879283E+02  0.30484456964E+02  0.68528342933E+02  0.92411055035E+02  0.00000000000E+00 0. -1.
         11    1    4    4    0    0 -0.50098314546E+02  0.43642539918E+00 -0.30918299269E+02  0.58872513257E+02  0.00000000000E+00 0.  1.
          2    1    1    2  501    0  0.51534437350E+02 -0.90484682178E+02  0.82026842727E+01  0.10445362594E+03  0.00000000000E+00 0. -1.
<scales pt_clust_5="13000.00000" pt_clust_6="13000.00000" pt_clust_7="13000.00000" pt_clust_8="13000.00000" pt_clust_9="104.13105"></scales>
<clustering>
<clus scale="   84.121">  5  6 -1 -1</clus>
<clus scale="   98.401">  7  8 -1 -1</clus>
<clus scale="  104.131">  2  9  1 -1</clus>
<clus scale="  112.859">  1  5  2 -1</clus>
<clus scale="  104.131">  2  5  1 -1</clus>
</clustering>
</event>
<event>
 9    1  0.6014990E-005  0.9376829E+02  0.7546771E-02  0.1299815E+00
         -2   -1    0    0    0  501 -0.00000000000E+00  0.00000000000E+00  0.34970311358E+03  0.34970311358E+03  0.00000000000E+00 0.  1.
         21   -1    0    0  501  502  0.00000000000E+00 -0.00000000000E+00 -0.79722292485E+02  0.79722292485E+02  0.00000000000E+00 0. -1.
        -24    2    1    2    0    0  0.25179783932E+02 -0.11372870620E+02  0.29092322047E+03  0.30307143077E+03  0.80328128560E+02 0.  0.
         23    2    1    2    0    0  0.23094323445E+01  0.15274840498E+01 -0.30858287034E+02  0.95517090295E+02  0.90352719795E+02 0.  0.
         11    1    3    3    0    0 -0.47597828933E+01  0.31413592537E+02  0.13281283626E+03  0.13656031197E+03  0.00000000000E+00 0. -1.
        -12    1    3    3    0    0  0.29939566825E+02 -0.42786463157E+02  0.15811038420E+03  0.16651111880E+03  0.00000000000E+00 0.  1.
        -11    1    4    4    0    0  0.42461392590E+02 -0.12851301063E+02 -0.28651131717E+02  0.52811108191E+02  0.00000000000E+00 0. -1.
         11    1    4    4    0    0 -0.40151960245E+02  0.14378785113E+02 -0.22071553174E+01  0.42705982104E+02  0.00000000000E+00 0.  1.
         -1    1    1    2    0  502 -0.27489216276E+02  0.98453865703E+01  0.99158876596E+01  0.30836884996E+02  0.00000000000E+00 0.  1.
<scales pt_clust_5="13000.00000" pt_clust_6="13000.00000" pt_clust_7="13000.00000" pt_clust_8="13000.00000" pt_clust_9="29.19912"></scales>
<clustering>
<clus scale="   29.199">  2  9  1 -1</clus>
<clus scale="   80.328">  5  6 -1 -1</clus>
<clus scale="   84.152">  1  5  2 -1</clus>
<clus scale="   90.353">  7  8 -1 -1</clus>
<clus scale="   29.199">  2  5  1 -1</clus>
</clustering>
</event>
<event>
 9    1  0.6014990E-005  0.9828354E+02  0.7546771E-02  0.1289942E+00
          1   -1    0    0  502    0 -0.00000000000E+00  0.00000000000E+00  0.13221241023E+03  0.13221241023E+03  0.00000000000E+00 0. -1.
         21   -1    0    0  501  502  0.00000000000E+00 -0.00000000000E+00 -0.10563943159E+03  0.10563943159E+03  0.00000000000E+00 0. -1.
         23    2    1    2    0    0  0.19570319029E+01  0.13322532341E+02  0.13844298653E+02  0.94305639665E+02  0.92306929456E+02 0.  0.
        -24    2    1    2    0    0  0.15269528987E+02 -0.52362832561E+02  0.21376447102E+02  0.10000675661E+03  0.81051675668E+02 0.  0.
         11    1    4    4    0    0  0.45596326268E+02 -0.30769934072E+02  0.28730929292E+02  0.62058682793E+02  0.00000000000E+00 0. -1.
        -12    1    4    4    0    0 -0.30326797281E+02 -0.21592898489E+02 -0.73544821909E+01  0.37948073822E+02  0.00000000000E+00 0.  1.
        -11    1    3    3    0    0 -0.10307507330E+01 -0.31791413543E+02 -0.20225090136E+02  0.37693642609E+02  0.00000000000E+00 0. -1.
         11    1    3    3    0    0  0.29877826359E+01  0.45113945883E+02  0.34069388789E+02  0.56611997056E+02  0.00000000000E+00 0.  1.
          2    1    1    2  501    0 -0.17226560890E+02  0.39040300221E+02 -0.86477671140E+01  0.43539445535E+02  0.00000000000E+00 0. -1.
<scales pt_clust_5="13000.00000" pt_clust_6="13000.00000" pt_clust_7="13000.00000" pt_clust_8="13000.00000" pt_clust_9="42.67200"></scales>
<clustering>
<clus scale="   42.672">  2  9  1 -1</clus>
<clus scale="   81.052">  5  6 -1 -1</clus>
<clus scale="   87.798">  2  5  1 -1</clus>
<clus scale="   92.307">  7  8 -1 -1</clus>
<clus scale="   42.672">  2  5  1 -1</clus>
</clustering>
</event>
<event>
 9    1  0.6014990E-005  0.1057785E+03  0.7546771E-02  0.1273495E+00
         21   -1    0    0  501  502  0.00000000000E+00  0.00000000000E+00  0.46291158057E+02  0.46291158057E+02  0.00000000000E+00 0.  1.
         -2   -1    0    0    0  501 -0.00000000000E+00 -0.00000000000E+00 -0.35089148638E+03  0.35089148638E+03  0.00000000000E+00 0.  1.
        -24    2    1    2    0    0 -0.34706451388E+02  0.36267061658E+02 -0.16981338244E+03  0.19446079254E+03  0.80365275155E+02 0.  0.
         23    2    1    2    0    0  0.54394607028E+02 -0.29919397007E+02 -0.61532205239E+02  0.12660238431E+03  0.91586067934E+02 0.  0.
         11    1    3    3    0    0 -0.75374378090E+01 -0.20934222504E+02 -0.14044127814E+02  0.26311445545E+02  0.00000000000E+00 0. -1.
        -12    1    3    3    0    0 -0.27169013579E+02  0.57201284162E+02 -0.15576925463E+03  0.16814934700E+03  0.00000000000E+00 0.  1.
        -13    1    4    4    0    0  0.11657448325E+02 -0.32174202581E+02 -0.74416969190E+02  0.81908245718E+02  0.00000000000E+00 0. -1.
         13    1    4    4    0    0  0.42737158703E+02  0.22548055733E+01  0.12884763951E+02  0.44694138590E+02  0.00000000000E+00 0.  1.
         -1    1    1    2    0  502 -0.19688155640E+02 -0.63476646504E+01 -0.73254740640E+02  0.76119467584E+02  0.00000000000E+00 0.  1.
<scales pt_clust_5="13000.00000" pt_clust_6="13000.00000" pt_clust_7="13000.00000" pt_clust_8="13000.00000" pt_clust_9="20.68615"></scales>
<clustering>
<clus scale="   20.686">  1  9  2 -1</clus>
<clus scale="   80.365">  5  6 -1 -1</clus>
<clus scale="   91.586">  7  8 -1 -1</clus>
<clus scale="   96.227">  2  5  1 -1</clus>
<clus scale="   20.686">  1  5  2 -1</clus>
</clustering>
</event>
<event>
 9    1  0.6014990E-005  0.1448930E+03  0.7546771E-02  0.1232653E+00
         -2   -1    0    0    0  501 -0.00000000000E+00  0.00000000000E+00  0.39427334863E+03  0.39427334863E+03  0.00000000000E+00 0.  1.
         21   -1    0    0  501  502  0.00000000000E+00 -0.00000000000E+00 -0.75601331198E+03  0.75601331198E+03  0.00000000000E+00 0.  1.
        -24    2    1    2    0    0 -0.32066315918E+02 -0.40965002684E-01  0.36327402232E+03  0.37293560677E+03  0.78004494797E+02 0.  0.
         23    2    1    2    0    0  0.79903082762E+02  0.93260956892E+02 -0.28338163799E+03  0.32345959802E+03  0.96118937190E+02 0.  0.
         11    1    3    3    0    0  0.11546896464E+02  0.24108543113E+02  0.61309828717E+02  0.66883837856E+02  0.00000000000E+00 0. -1.
        -12    1    3    3    0    0 -0.43613212382E+02 -0.24149508116E+02  0.30196419360E+03  0.30605176891E+03  0.00000000000E+00 0.  1.
        -11    1    4    4    0    0  0.24648352876E+02  0.84345817917E+02 -0.10726500430E+03  0.13866340342E+03  0.00000000000E+00 0.  1.
         11    1    4    4    0    0  0.55254729886E+02  0.89151389750E+01 -0.17611663369E+03  0.18479619461E+03  0.00000000000E+00 0. -1.
         -1    1    1    2    0  502 -0.47836766843E+02 -0.93219991890E+02 -0.44163234768E+03  0.45389145582E+03  0.00000000000E+00 0.  1.
<scales pt_clust_5="13000.00000" pt_clust_6="13000.00000" pt_clust_7="13000.00000" pt_clust_8="13000.00000" pt_clust_9="108.42109"></scales>
<clustering>
<clus scale="   78.004">  5  6 -1 -1</clus>
<clus scale="   84.338">  1  5  2 -1</clus>
<clus scale="   96.119">  7  8 -1 -1</clus>
<clus scale="  108.421">  2  9  1 -1</clus>
<clus scale="  108.421">  2  5  1 -1</clus>
</clustering>
</event>
<event>
 9    1  0.6014990E-005  0.9165184E+02  0.7546771E-02  0.1306892E+00
         -2   -1    0    0    0  501 -0.00000000000E+00  0.00000000000E+00  0.33088050695E+03  0.33088050695E+03  0.00000000000E+00 0.  1.
         21   -1    0    0  501  502  0.00000000000E+00 -0.00000000000E+00 -0.85577478608E+02  0.85577478608E+02  0.00000000000E+00 0.  1.
         23    2    1    2    0    0  0.81459806425E+01  0.11007412608E+02  0.26205884071E+03  0.27775048681E+03  0.91010860860E+02 0.  0.
        -24    2    1    2    0    0  0.15279473307E+02 -0.82695940227E+01  0.30491244738E+02  0.85900946612E+02  0.78405408827E+02 0.  0.
         13    1    4    4    0    0  0.44849595662E+02 -0.16433503414E+02  0.94219134785E+01  0.48685919105E+02  0.00000000000E+00 0. -1.
        -14    1    4    4    0    0 -0.29570122355E+02  0.81639093912E+01  0.21069331259E+02  0.37215027507E+02  0.00000000000E+00 0.  1.
        -13    1    3    3    0    0 -0.24160726111E+02  0.41034711092E+02  0.12463626268E+03  0.13342333445E+03  0.00000000000E+00 0.  1.
         13    1    3    3    0    0  0.32306706754E+02 -0.30027298484E+02  0.13742257803E+03  0.14432715236E+03  0.00000000000E+00 0. -1.
         -1    1    1    2    0  502 -0.23425453949E+02 -0.27378185853E+01 -0.47247057107E+02  0.52806552137E+02  0.00000000000E+00 0.  1.
<scales pt_clust_5="13000.00000" pt_clust_6="13000.00000" pt_clust_7="13000.00000" pt_clust_8="13000.00000" pt_clust_9="23.58490"></scales>
<clustering>
<clus scale="   23.585">  2  9  1 -1</clus>
<clus scale="   78.405">  5  6 -1 -1</clus>
<clus scale="   79.149">  2  5  1 -1</clus>
<clus scale="   91.011">  7  8 -1 -1</clus>
<clus scale="   23.585">  2  5  1 -1</clus>
</clustering>
</event>
<event>
 9    1  0.6014990E-005  0.9035887E+02  0.7546771E-02  0.1310847E+00
         -2   -1    0    0    0  501 -0.00000000000E+00  0.00000000000E+00  0.13374031941E+03  0.13374031941E+03  0.00000000000E+00 0.  1.
         21   -1    0    0  501  502  0.00000000000E+00 -0.00000000000E+00 -0.11626960527E+03  0.11626960527E+03  0.00000000000E+00 0.  1.
         23    2    1    2    0    0 -0.33396745420E+01 -0.42897545730E+02  0.15801129328E+02  0.99221280401E+02  0.87999056476E+02 0.  0.
        -24    2    1    2    0    0 -0.30883365003E+02 -0.14375494022E+02 -0.12761647893E+02  0.82526810168E+02  0.74076836307E+02 0.  0.
         11    1    4    4    0    0 -0.38399945681E+02  0.12161871943E+02 -0.29801929758E+02  0.50106107161E+02  0.00000000000E+00 0. -1.
        -12    1    4    4    0    0  0.75165806781E+01 -0.26537365965E+02  0.17040281864E+02  0.32420703007E+02  0.00000000000E+00 0.  1.
        -11    1    3    3    0    0 -0.26716997203E+02 -0.51663377288E+01 -0.26444396058E+02  0.37944631609E+02  0.00000000000E+00 0.  1.
         11    1    3    3    0    0  0.23377322661E+02 -0.37731208001E+02  0.42245525386E+02  0.61276648792E+02  0.00000000000E+00 0. -1.
         -1    1    1    2    0  502  0.34223039545E+02  0.57273039752E+02  0.14431232707E+02  0.68261834107E+02  0.00000000000E+00 0.  1.
<scales pt_clust_5="13000.00000" pt_clust_6="13000.00000" pt_clust_7="13000.00000" pt_clust_8="13000.00000" pt_clust_9="66.71898"></scales>
<clustering>
<clus scale="   66.719">  2  9  1 -1</clus>
<clus scale="   74.077">  5  6 -1 -1</clus>
<clus scale="   76.865">  2  5  1 -1</clus>
<clus scale="   87.999">  7  8 -1 -1</clus>
<clus scale="   66.719">  2  5  1 -1</clus>
</clustering>
</event>
<event>
 9    1  0.6014990E-005  0.1140943E+03  0.7546771E-02  0.1270278E+00
         -4   -1    0    0    0  501 -0.00000000000E+00  0.00000000000E+00  0.91260128444E+02  0.91260128444E+02  0.00000000000E+00 0.  1.
         21   -1    0    0  501  502  0.00000000000E+00 -0.00000000000E+00 -0.19869318448E+03  0.19869318448E+03  0.00000000000E+00 0.  1.
         23    2    1    2    0    0 -0.32225541987E+01  0.70248929055E+00 -0.17971229166E+02  0.11395826469E+03  0.11248396627E+03 0.  0.
        -24    2    1    2    0    0 -0.27114899276E+02  0.43104601182E+02 -0.75871741095E+02  0.12100311527E+03  0.79322181031E+02 0.  0.
         11    1    4    4    0    0  0.13108398364E+01  0.47549485699E+02 -0.78840963206E+02  0.92079147317E+02  0.00000000000E+00 0. -1.
        -12    1    4    4    0    0 -0.28425739113E+02 -0.44448845172E+01  0.29692221107E+01  0.28923967958E+02  0.00000000000E+00 0.  1.
        -13    1    3    3    0    0 -0.12831358163E+01 -0.30213879114E+02 -0.56762745874E+02  0.64315894208E+02  0.00000000000E+00 0.  1.
         13    1    3    3    0    0 -0.19394183824E+01  0.30916368405E+02  0.38791516708E+02  0.49642370486E+02  0.00000000000E+00 0. -1.
         -3    1    1    2    0  502  0.30337453475E+02 -0.43807090473E+02 -0.13590085779E+02  0.54991932958E+02  0.00000000000E+00 0.  1.
<scales pt_clust_5="13000.00000" pt_clust_6="13000.00000" pt_clust_7="13000.00000" pt_clust_8="13000.00000" pt_clust_9="53.28626"></scales>
<clustering>
<clus scale="   53.286">  2  9  1 -1</clus>
<clus scale="   79.322">  5  6 -1 -1</clus>
<clus scale="   81.590">  2  5  1 -1</clus>
<clus scale="  112.484">  7  8 -1 -1</clus>
<clus scale="   53.286">  2  5  1 -1</clus>
</clustering>
</event>
<event>
 9    1  0.6014990E-005  0.1186565E+03  0.7546771E-02  0.1247891E+00
         21   -1    0    0  501  502  0.00000000000E+00  0.00000000000E+00  0.32091085383E+03  0.32091085383E+03  0.00000000000E+00 0. -1.
          1   -1    0    0  502    0 -0.00000000000E+00 -0.00000000000E+00 -0.77181734551E+02  0.77181734551E+02  0.00000000000E+00 0. -1.
         23    2    1    2    0    0  0.36088482076E+02  0.81032013002E+02  0.29217729691E+02  0.12903111136E+03  0.89032501378E+02 0.  0.
        -24    2    1    2    0    0 -0.10321630833E+02 -0.50135349682E+02  0.20708064101E+03  0.22814998167E+03  0.80931655779E+02 0.  0.
         13    1    4    4    0    0  0.28411909634E+02 -0.21223110252E+02  0.14607132705E+03  0.15031463536E+03  0.00000000000E+00 0. -1.
        -14    1    4    4    0    0 -0.38733540467E+02 -0.28912239430E+02  0.61009313954E+02  0.77835346309E+02  0.00000000000E+00 0.  1.
        -13    1    3    3    0    0  0.33554506290E+02 -0.96269394492E+01  0.10151633960E+02  0.36354346749E+02  0.00000000000E+00 0.  1.
         13    1    3    3    0    0  0.25339757861E+01  0.90658952451E+02  0.19066095731E+02  0.92676764613E+02  0.00000000000E+00 0. -1.
          2    1    1    2  501    0 -0.25766851243E+02 -0.30896663320E+02  0.74307485867E+01  0.40911495351E+02  0.00000000000E+00 0. -1.
<scales pt_clust_5="13000.00000" pt_clust_6="13000.00000" pt_clust_7="13000.00000" pt_clust_8="13000.00000" pt_clust_9="40.23103"></scales>
<clustering>
<clus scale="   40.231">  1  9  2 -1</clus>
<clus scale="   80.932">  5  6 -1 -1</clus>
<clus scale="   89.033">  7  8 -1 -1</clus>
<clus scale="  112.705">  1  5  2 -1</clus>
<clus scale="   40.231">  1  5  2 -1</clus>
</clustering>
</event>
<event>
 9    1  0.6014990E-005  0.1235849E+03  0.7546771E-02  0.1259107E+00
         21   -1    0    0  501  502  0.00000000000E+00  0.00000000000E+00  0.31792999879E+03  0.31792999879E+03  0.00000000000E+00 0. -1.
         -2   -1    0    0    0  501 -0.00000000000E+00 -0.00000000000E+00 -0.67096364912E+02  0.67096364912E+02  0.00000000000E+00 0.  1.
        -24    2    1    2    0    0  0.56152889519E+01 -0.15735162323E+02  0.84466417695E+02  0.11622130545E+03  0.78062086313E+02 0.  0.
         23    2    1    2    0    0 -0.14166682538E+02 -0.76434111430E+02  0.10023043515E+03  0.15504049803E+03  0.89154627556E+02 0.  0.
         11    1    3    3    0    0 -0.26363700345E+02 -0.29286189307E+01  0.17092874266E+01  0.26580879749E+02  0.00000000000E+00 0. -1.
        -12    1    3    3    0    0  0.31978989297E+02 -0.12806543393E+02  0.82757130268E+02  0.89640425704E+02  0.00000000000E+00 0.  1.
        -11    1    4    4    0    0  0.54603000974E+00  0.20349743857E+02  0.15900493931E+02  0.25830910380E+02  0.00000000000E+00 0.  1.
         11    1    4    4    0    0 -0.14712712548E+02 -0.96783855287E+02  0.84329941221E+02  0.12920958765E+03  0.00000000000E+00 0. -1.
         -1    1    1    2    0  502  0.85513935864E+01  0.92169273753E+02  0.66136781030E+02  0.11376456022E+03  0.00000000000E+00 0.  1.
<scales pt_clust_5="13000.00000" pt_clust_6="13000.00000" pt_clust_7="13000.00000" pt_clust_8="13000.00000" pt_clust_9="85.58439"></scales>
<clustering>
<clus scale="   78.062">  5  6 -1 -1</clus>
<clus scale="   79.830">  2  5  1 -1</clus>
<clus scale="   85.584">  1  9  2 -1</clus>
<clus scale="   89.155">  7  8 -1 -1</clus>
<clus scale="   85.584">  1  5  2 -1</clus>
</clustering>
</event>
<event>
 9    1  0.6014990E-005  0.1137602E+03  0.7546771E-02  0.1256879E+00
         21   -1    0    0  501  502  0.00000000000E+00  0.00000000000E+00  0.11880202277E+03  0.11880202277E+03  0.00000000000E+00 0. -1.
         -2   -1    0    0    0  501 -0.00000000000E+00 -0.00000000000E+00 -0.57905633600E+03  0.57905633600E+03  0.00000000000E+00 0.  1.
        -24    2    1    2    0    0  0.72775096696E+02  0.13653513730E+02 -0.51451255129E+03  0.52554989578E+03  0.77439617665E+02 0.  0.
         23    2    1    2    0    0 -0.74778831486E+02  0.28101582995E+02  0.56031630724E+02  0.13046771757E+03  0.86606634158E+02 0.  0.
         11    1    3    3    0    0  0.36769911468E+02  0.23951521613E+02 -0.98231525088E+02  0.10758779809E+03  0.00000000000E+00 0. -1.
        -12    1    3    3    0    0  0.36005185228E+02 -0.10298007883E+02 -0.41628102620E+03  0.41796209769E+03  0.00000000000E+00 0.  1.
        -13    1    4    4    0    0 -0.62419913972E+02  0.54314579044E+02  0.21701892664E+02  0.85541167295E+02  0.00000000000E+00 0. -1.
         13    1    4    4    0    0 -0.12358917514E+02 -0.26212996049E+02  0.34329738061E+02  0.44926550272E+02  0.00000000000E+00 0.  1.
         -1    1    1    2    0  502  0.20037347897E+01 -0.41755096725E+02 -0.17733926686E+01  0.41840745419E+02  0.00000000000E+00 0.  1.
<scales pt_clust_5="13000.00000" pt_clust_6="13000.00000" pt_clust_7="13000.00000" pt_clust_8="13000.00000" pt_clust_9="41.80315"></scales>
<clustering>
<clus scale="   41.803">  1  9  2 -1</clus>
<clus scale="   77.440">  5  6 -1 -1</clus>
<clus scale="   86.607">  7  8 -1 -1</clus>
<clus scale="  106.947">  2  5  1 -1</clus>
<clus scale="   41.803">  1  5  2 -1</clus>
</clustering>
</event>
<event>
 9    1  0.6014990E-005  0.1002769E+03  0.7546771E-02  0.1290473E+00
         21   -1    0    0  501  502  0.00000000000E+00  0.00000000000E+00  0.37129847932E+02  0.37129847932E+02  0.00000000000E+00 0. -1.
         -2   -1    0    0    0  501 -0.00000000000E+00 -0.00000000000E+00 -0.42820282950E+03  0.42820282950E+03  0.00000000000E+00 0.  1.
        -24    2    1    2    0    0 -0.21618607826E+01 -0.15197423499E+02 -0.15925442971E+03  0.17913499464E+03  0.80571319958E+02 0.  0.
         23    2    1    2    0    0  0.23508833449E+02  0.33721293559E+01 -0.72875096497E+02  0.12539173506E+03  0.99238455377E+02 0.  0.
         13    1    3    3    0    0  0.20113518220E+02  0.26866261269E+02 -0.53385464022E+02  0.63058364858E+02  0.00000000000E+00 0. -1.
        -14    1    3    3    0    0 -0.22275379003E+02 -0.42063684768E+02 -0.10586896569E+03  0.11607662978E+03  0.00000000000E+00 0.  1.
        -11    1    4    4    0    0 -0.82200380108E+01  0.42248619436E+02 -0.86738836501E+01  0.43906162742E+02  0.00000000000E+00 0. -1.
         11    1    4    4    0    0  0.31728871459E+02 -0.38876490080E+02 -0.64201212847E+02  0.81485572318E+02  0.00000000000E+00 0.  1.
         -1    1    1    2    0  502 -0.21346972666E+02  0.11825294143E+02 -0.15894345536E+03  0.16080594773E+03  0.00000000000E+00 0.  1.
<scales pt_clust_5="13000.00000" pt_clust_6="13000.00000" pt_clust_7="13000.00000" pt_clust_8="13000.00000" pt_clust_9="24.40351"></scales>
<clustering>
<clus scale="   24.404">  1  9  2 -1</clus>
<clus scale="   80.571">  5  6 -1 -1</clus>
<clus scale="   81.847">  2  5  1 -1</clus>
<clus scale="   99.238">  7  8 -1 -1</clus>
<clus scale="   24.404">  1  5  2 -1</clus>
</clustering>
</event>
<event>
 9    1  0.6014990E-005  0.2403400E+03  0.7546771E-02  0.1119567E+00
         21   -1    0    0  501  502  0.00000000000E+00  0.00000000000E+00  0.43135692510E+02  0.43135692510E+02  0.00000000000E+00 0. -1.
          1   -1    0    0  502    0 -0.00000000000E+00 -0.00000000000E+00 -0.10722546017E+04  0.10722546017E+04  0.00000000000E+00 0. -1.
        -24    2    1    2    0    0 -0.54607137187E+02  0.18021965406E+02 -0.44593695033E+03  0.45937169412E+03  0.94105573822E+02 0.  0.
         23    2    1    2    0    0 -0.68884681316E+02  0.57453038697E+02 -0.41329629251E+03  0.43284188733E+03  0.92153801084E+02 0.  0.
         11    1    3    3    0    0 -0.69991430528E+02  0.39168780576E+02 -0.38131519042E+03  0.38965916923E+03  0.00000000000E+00 0. -1.
        -12    1    3    3    0    0  0.15384293341E+02 -0.21146815170E+02 -0.64621759907E+02  0.69712524892E+02  0.00000000000E+00 0.  1.
        -13    1    4    4    0    0  0.25187668457E+01  0.57081025657E+02 -0.19031418952E+03  0.19870600999E+03  0.00000000000E+00 0.  1.
         13    1    4    4    0    0 -0.71403448162E+02  0.37201304059E+00 -0.22298210299E+03  0.23413587734E+03  0.00000000000E+00 0. -1.
          2    1    1    2  501    0  0.12349181850E+03 -0.75475004103E+02 -0.16988566634E+03  0.22317671274E+03  0.00000000000E+00 0. -1.
<scales pt_clust_5="13000.00000" pt_clust_6="13000.00000" pt_clust_7="13000.00000" pt_clust_8="13000.00000" pt_clust_9="144.72977"></scales>
<clustering>
<clus scale="   92.154">  7  8 -1 -1</clus>
<clus scale="   94.106">  5  6 -1 -1</clus>
<clus scale="  100.578">  5  7 -1 -1</clus>
<clus scale="  144.730">  1  9  2 -1</clus>
<clus scale="  144.730">  1  5  2 -1</clus>
</clustering>
</event>
<event>
 9    1  0.6014990E-005  0.2108624E+03  0.7546771E-02  0.1141543E+00
         21   -1    0    0  501  502  0.00000000000E+00  0.00000000000E+00  0.23732908827E+03  0.23732908827E+03  0.00000000000E+00 0. -1.
          3   -1    0    0  502    0 -0.00000000000E+00 -0.00000000000E+00 -0.56919927087E+03  0.56919927087E+03  0.00000000000E+00 0. -1.
        -24    2    1    2    0    0 -0.20684707642E+03 -0.17322630488E+02 -0.44253417399E+03  0.49537258602E+03  0.80446984260E+02 0.  0.
         23    2    1    2    0    0  0.14275325152E+03 -0.27232510908E+02 -0.65210307733E+01  0.17035268922E+03  0.88642057814E+02 0.  0.
         13    1    3    3    0    0 -0.19162059281E+03 -0.35070047243E+02 -0.41962027306E+03  0.46263326011E+03  0.00000000000E+00 0. -1.
        -14    1    3    3    0    0 -0.15226483608E+02  0.17747416755E+02 -0.22913900933E+02  0.32739325902E+02  0.00000000000E+00 0.  1.
        -13    1    4    4    0    0  0.76869545061E+01  0.20213992831E+02 -0.15969894387E+02  0.26883680969E+02  0.00000000000E+00 0.  1.
         13    1    4    4    0    0  0.13506629701E+03 -0.47446503739E+02  0.94488636133E+01  0.14346900825E+03  0.00000000000E+00 0. -1.
          4    1    1    2  501    0  0.64093824900E+02  0.44555141396E+02  0.11718502217E+03  0.14080308390E+03  0.00000000000E+00 0. -1.
<scales pt_clust_5="13000.00000" pt_clust_6="13000.00000" pt_clust_7="13000.00000" pt_clust_8="13000.00000" pt_clust_9="78.05882"></scales>
<clustering>
<clus scale="   78.059">  1  9  2 -1</clus>
<clus scale="   80.447">  5  6 -1 -1</clus>
<clus scale="   88.642">  7  8 -1 -1</clus>
<clus scale="  207.551">  2  5  1 -1</clus>
<clus scale="   78.059">  1  5  2 -1</clus>
</clustering>
</event>
<event>
 9    1  0.6839995E-005  0.1033757E+03  0.7546771E-02  0.1276725E+00
          1   -1    0    0  502    0 -0.00000000000E+00  0.00000000000E+00  0.31053565684E+03  0.31053565684E+03  0.00000000000E+00 0. -1.
         21   -1    0    0  501  502  0.00000000000E+00 -0.00000000000E+00 -0.25860682916E+03  0.25860682916E+03  0.00000000000E+00 0. -1.
         23    2    1    2    0    0  0.81367788265E+01 -0.52982289256E+02  0.26576098864E+03  0.28523877398E+03  0.88650577858E+02 0.  0.
        -24    2    1    2    0    0 -0.34139389125E+02  0.37592888926E+02 -0.23039631392E+03  0.24944590380E+03  0.81006630997E+02 0.  0.
         13    1    4    4    0    0  0.23148496058E+02  0.22708634888E+02 -0.11852850929E+03  0.12288426459E+03  0.00000000000E+00 0. -1.
        -14    1    4    4    0    0 -0.57287885183E+02  0.14884254038E+02 -0.11186780463E+03  0.12656163921E+03  0.00000000000E+00 0.  1.
        -11    1    3    3    0    0  0.41652591048E+02 -0.31208095099E+02  0.21172181750E+03  0.21802525438E+03  0.00000000000E+00 0. -1.
         11    1    3    3    0    0 -0.33515812221E+02 -0.21774194157E+02  0.54039171143E+02  0.67213519606E+02  0.00000000000E+00 0.  1.
          2    1    1    2  501    0  0.26002610298E+02  0.15389400329E+02  0.16564152950E+02  0.34457808226E+02  0.00000000000E+00 0. -1.
<scales pt_clust_5="13000.00000" pt_clust_6="13000.00000" pt_clust_7="13000.00000" pt_clust_8="13000.00000" pt_clust_9="30.21540"></scales>
<clustering>
<clus scale="   30.215">  2  9  1 -1</clus>
<clus scale="   81.007">  5  6 -1 -1</clus>
<clus scale="   88.651">  7  8 -1 -1</clus>
<clus scale="   96.900">  2  5  1 -1</clus>
<clus scale="   30.215">  2  5  1 -1</clus>
</clustering>
</event>
<event>
 9    1  0.6014990E-005  0.9857834E+02  0.7546771E-02  0.1288802E+00
         21   -1    0    0  501  502  0.00000000000E+00  0.00000000000E+00  0.18685432921E+03  0.18685432921E+03  0.00000000000E+00 0. -1.
          3   -1    0    0  502    0 -0.00000000000E+00 -0.00000000000E+00 -0.98148173196E+02  0.98148173196E+02  0.00000000000E+00 0. -1.
        -24    2    1    2    0    0 -0.53086653515E+02  0.42432390306E+02  0.28774572724E+02  0.10877958701E+03  0.79914466694E+02 0.  0.
         23    2    1    2    0    0  0.64883400958E+01  0.44780630516E+01  0.62051932244E+02  0.11006787532E+03  0.90566789036E+02 0.  0.
         11    1    3    3    0    0 -0.72989272506E+02  0.38236159256E+02  0.13856146430E+02  0.83554955385E+02  0.00000000000E+00 0. -1.
        -12    1    3    3    0    0  0.19902618991E+02  0.41962310507E+01  0.14918426293E+02  0.25224631628E+02  0.00000000000E+00 0.  1.
        -11    1    4    4    0    0 -0.25283360110E+02 -0.32636057790E+02  0.35584016756E+02  0.54503053264E+02  0.00000000000E+00 0. -1.
         11    1    4    4    0    0  0.31771700206E+02  0.37114120842E+02  0.26467915487E+02  0.55564822056E+02  0.00000000000E+00 0.  1.
          4    1    1    2  501    0  0.46598313419E+02 -0.46910453358E+02 -0.21203489509E+01  0.66155040076E+02  0.00000000000E+00 0. -1.
<scales pt_clust_5="13000.00000" pt_clust_6="13000.00000" pt_clust_7="13000.00000" pt_clust_8="13000.00000" pt_clust_9="66.12108"></scales>
<clustering>
<clus scale="   66.121">  1  9  2 -1</clus>
<clus scale="   79.914">  5  6 -1 -1</clus>
<clus scale="   88.891">  2  5  1 -1</clus>
<clus scale="   90.567">  7  8 -1 -1</clus>
<clus scale="   66.121">  1  5  2 -1</clus>
</clustering>
</event>
<event>
 9    1  0.6014990E-005  0.9946559E+02  0.7546771E-02  0.1284861E+00
         21   -1    0    0  501  502  0.00000000000E+00  0.00000000000E+00  0.10653636416E+03  0.10653636416E+03  0.00000000000E+00 0. -1.
          1   -1    0    0  502    0 -0.00000000000E+00 -0.00000000000E+00 -0.19791473385E+03  0.19791473385E+03  0.00000000000E+00 0. -1.
         23    2    1    2    0    0 -0.11851347322E+02 -0.58266792952E+02 -0.83526340606E+02  0.13695385583E+03  0.90797772321E+02 0.  0.
        -24    2    1    2    0    0 -0.26407254088E+02  0.18850339006E+01  0.25570190918E+02  0.91604764777E+02  0.83885051380E+02 0.  0.
         11    1    4    4    0    0 -0.56750515788E+02  0.13870491532E+01  0.10533611117E+02  0.57736486824E+02  0.00000000000E+00 0. -1.
        -12    1    4    4    0    0  0.30343261700E+02  0.49798474741E+00  0.15036579802E+02  0.33868277953E+02  0.00000000000E+00 0.  1.
        -13    1    3    3    0    0  0.25163165834E+02 -0.42880837940E+02 -0.83134019720E+02  0.96867003732E+02  0.00000000000E+00 0. -1.
         13    1    3    3    0    0 -0.37014513155E+02 -0.15385955012E+02 -0.39232088625E+00  0.40086852102E+02  0.00000000000E+00 0.  1.
          2    1    1    2  501    0  0.38258601410E+02  0.56381759051E+02 -0.33422220009E+02  0.75892477400E+02  0.00000000000E+00 0. -1.
<scales pt_clust_5="13000.00000" pt_clust_6="13000.00000" pt_clust_7="13000.00000" pt_clust_8="13000.00000" pt_clust_9="68.13683"></scales>
<clustering>
<clus scale="   68.137">  1  9  2 -1</clus>
<clus scale="   83.885">  5  6 -1 -1</clus>
<clus scale="   90.798">  7  8 -1 -1</clus>
<clus scale="   93.198">  1  5  2 -1</clus>
<clus scale="   68.137">  1  5  2 -1</clus>
</clustering>
</event>
<event>
 9    1  0.6014990E-005  0.1312968E+03  0.7546771E-02  0.1245635E+00
         21   -1    0    0  501  502  0.00000000000E+00  0.00000000000E+00  0.22374007630E+03  0.22374007630E+03  0.00000000000E+00 0.  1.
         -4   -1    0    0    0  501 -0.00000000000E+00 -0.00000000000E+00 -0.19788277340E+03  0.19788277340E+03  0.00000000000E+00 0.  1.
        -24    2    1    2    0    0 -0.39443342290E+02 -0.21232499406E+02  0.12439133548E+02  0.87927772184E+02  0.74632196777E+02 0.  0.
         23    2    1    2    0    0 -0.73019902677E+02 -0.48132614454E+02  0.11236592051E+03  0.16861885891E+03  0.90319237854E+02 0.  0.
         13    1    3    3    0    0 -0.36217628164E+02  0.52508004311E+01  0.36728177933E+02  0.51848303244E+02  0.00000000000E+00 0. -1.
        -14    1    3    3    0    0 -0.32257141262E+01 -0.26483299837E+02 -0.24289044385E+02  0.36079468940E+02  0.00000000000E+00 0.  1.
        -11    1    4    4    0    0 -0.50193800615E+02 -0.73980748506E+02  0.93284558356E+02  0.12920749822E+03  0.00000000000E+00 0.  1.
         11    1    4    4    0    0 -0.22826102062E+02  0.25848134052E+02  0.19081362151E+02  0.39411360682E+02  0.00000000000E+00 0. -1.
         -3    1    1    2    0  502  0.11246324497E+03  0.69365113860E+02 -0.98947751159E+02  0.16507621860E+03  0.00000000000E+00 0.  1.
<scales pt_clust_5="13000.00000" pt_clust_6="13000.00000" pt_clust_7="13000.00000" pt_clust_8="13000.00000" pt_clust_9="95.29581"></scales>
<clustering>
<clus scale="   74.632">  5  6 -1 -1</clus>
<clus scale="   87.043">  2  5  1 -1</clus>
<clus scale="   90.319">  7  8 -1 -1</clus>
<clus scale="   95.296">  1  9  2 -1</clus>
<clus scale="   95.296">  1  5  2 -1</clus>
</clustering>
</event>
<event>
 9    1  0.6014990E-005  0.9319382E+02  0.7546771E-02  0.1300681E+00
          3   -1    0    0  502    0 -0.00000000000E+00  0.00000000000E+00  0.22966565202E+03  0.22966565202E+03  0.00000000000E+00 0. -1.
         21   -1    0    0  501  502  0.00000000000E+00 -0.00000000000E+00 -0.78208238247E+02  0.78208238247E+02  0.00000000000E+00 0. -1.
        -24    2    1    2    0    0  0.71649605207E+01  0.35158320400E+02  0.12539521751E+03  0.15362649280E+03  0.81176933694E+02 0.  0.
         23    2    1    2    0    0 -0.41293292056E+01  0.90708766917E+00  0.56785193954E+02  0.10677286425E+03  0.90321714553E+02 0.  0.
         13    1    3    3    0    0  0.18002178841E+02  0.45647068448E+02  0.12908785571E+03  0.13809926789E+03  0.00000000000E+00 0. -1.
        -14    1    3    3    0    0 -0.10837218320E+02 -0.10488748048E+02 -0.36926381996E+01  0.15527224910E+02  0.00000000000E+00 0.  1.
        -13    1    4    4    0    0  0.12307546574E+02 -0.24691614645E+02  0.68753081753E+02  0.74081966678E+02  0.00000000000E+00 0.  1.
         13    1    4    4    0    0 -0.16436875780E+02  0.25598702314E+02 -0.11967887799E+02  0.32690897570E+02  0.00000000000E+00 0. -1.
          4    1    1    2  501    0 -0.30356313151E+01 -0.36065408069E+02 -0.30722997692E+02  0.47474533214E+02  0.00000000000E+00 0. -1.
<scales pt_clust_5="13000.00000" pt_clust_6="13000.00000" pt_clust_7="13000.00000" pt_clust_8="13000.00000" pt_clust_9="36.19294"></scales>
<clustering>
<clus scale="   36.193">  2  9  1 -1</clus>
<clus scale="   81.177">  5  6 -1 -1</clus>
<clus scale="   84.361">  1  5  2 -1</clus>
<clus scale="   90.322">  7  8 -1 -1</clus>
<clus scale="   36.193">  2  5  1 -1</clus>
</clustering>
</event>
<event>
 9    1  0.6014990E-005  0.1527491E+03  0.7546771E-02  0.1203918E+00
         -2   -1    0    0    0  501 -0.00000000000E+00  0.00000000000E+00  0.96829124861E+02  0.96829124861E+02  0.00000000000E+00 0.  1.
         21   -1    0    0  501  502  0.00000000000E+00 -0.00000000000E+00 -0.76261994003E+03  0.76261994003E+03  0.00000000000E+00 0.  1.
        -24    2    1    2    0    0 -0.12002633086E+03 -0.70155545285E+02 -0.73503671728E+02  0.17892857344E+03  0.85349422960E+02 0.  0.
         23    2    1    2    0    0  0.69886912329E+02 -0.72245433062E+02 -0.15382513367E+03  0.21679542858E+03  0.11504130993E+03 0.  0.
         13    1    3    3    0    0 -0.79795035717E+02 -0.86340205863E+02 -0.66291149644E+02  0.13496812733E+03  0.00000000000E+00 0. -1.
        -14    1    3    3    0    0 -0.40231295146E+02  0.16184660577E+02 -0.72125220838E+01  0.43960446107E+02  0.00000000000E+00 0.  1.
        -13    1    4    4    0    0 -0.16707693773E+02 -0.49422400429E+02 -0.98692620358E+02  0.11163312236E+03  0.00000000000E+00 0.  1.
         13    1    4    4    0    0  0.86594606102E+02 -0.22823032632E+02 -0.55132513309E+02  0.10516230621E+03  0.00000000000E+00 0. -1.
         -1    1    1    2    0  502  0.50139418535E+02  0.14240097835E+03 -0.43846200978E+03  0.46372506288E+03  0.00000000000E+00 0.  1.
<scales pt_clust_5="13000.00000" pt_clust_6="13000.00000" pt_clust_7="13000.00000" pt_clust_8="13000.00000" pt_clust_9="150.97020"></scales>
<clustering>
<clus scale="   85.349">  5  6 -1 -1</clus>
<clus scale="  115.041">  7  8 -1 -1</clus>
<clus scale="  150.970">  2  9  1 -1</clus>
<clus scale="  131.842">  1  5  2 -1</clus>
<clus scale="  150.970">  2  5  1 -1</clus>
</clustering>
</event>
<event>
 9    1  0.6014990E-005  0.9371830E+02  0.7546771E-02  0.1301610E+00
         21   -1    0    0  501  502  0.00000000000E+00  0.00000000000E+00  0.24100125986E+03  0.24100125986E+03  0.00000000000E+00 0. -1.
          1   -1    0    0  502    0 -0.00000000000E+00 -0.00000000000E+00 -0.23371854357E+03  0.23371854357E+03  0.00000000000E+00 0. -1.
        -24    2    1    2    0    0 -0.21410543979E+02 -0.66253434402E+01 -0.19957260400E+03  0.21560424172E+03  0.78445256139E+02 0.  0.
         23    2    1    2    0    0  0.87510663033E+01  0.35649583991E+02  0.75048742584E+02  0.12355877346E+03  0.91032866240E+02 0.  0.
         13    1    3    3    0    0 -0.26698165224E+02  0.22833619819E+02 -0.16977102515E+03  0.17336772249E+03  0.00000000000E+00 0. -1.
        -14    1    3    3    0    0  0.52876212454E+01 -0.29458963259E+02 -0.29801578849E+02  0.42236519229E+02  0.00000000000E+00 0.  1.
        -13    1    4    4    0    0  0.43166156263E+02  0.25882367034E+02  0.71736052544E+02  0.87631473823E+02  0.00000000000E+00 0.  1.
         13    1    4    4    0    0 -0.34415089960E+02  0.97672169570E+01  0.33126900400E+01  0.35927299639E+02  0.00000000000E+00 0. -1.
          2    1    1    2  501    0  0.12659477675E+02 -0.29024240550E+02  0.13180657771E+03  0.13555678825E+03  0.00000000000E+00 0. -1.
<scales pt_clust_5="13000.00000" pt_clust_6="13000.00000" pt_clust_7="13000.00000" pt_clust_8="13000.00000" pt_clust_9="31.66495"></scales>
<clustering>
<clus scale="   31.665">  1  9  2 -1</clus>
<clus scale="   78.445">  5  6 -1 -1</clus>
<clus scale="   81.546">  2  5  1 -1</clus>
<clus scale="   91.033">  7  8 -1 -1</clus>
<clus scale="   31.665">  1  5  2 -1</clus>
</clustering>
</event>
<event>
 9    1  0.6014990E-005  0.1330872E+03  0.7546771E-02  0.1225554E+00
          1   -1    0    0  502    0 -0.00000000000E+00  0.00000000000E+00  0.13147123654E+03  0.13147123654E+03  0.00000000000E+00 0. -1.
         21   -1    0    0  501  502  0.00000000000E+00 -0.00000000000E+00 -0.26670205545E+03  0.26670205545E+03  0.00000000000E+00 0.  1.
        -24    2    1    2    0    0  0.75719715697E+02  0.68291532161E+02  0.69490153844E+02  0.14613442712E+03  0.78289083522E+02 0.  0.
         23    2    1    2    0    0 -0.54444887716E+02 -0.61285821345E+02 -0.18966530280E+03  0.22505050651E+03  0.89188596218E+02 0.  0.
         11    1    3    3    0    0  0.46260238244E+02  0.75382080436E+02  0.74228081836E+02  0.11546547461E+03  0.00000000000E+00 0. -1.
        -12    1    3    3    0    0  0.29459477453E+02 -0.70905482744E+01 -0.47379279926E+01  0.30668952514E+02  0.00000000000E+00 0.  1.
        -11    1    4    4    0    0 -0.29368544435E+02 -0.63970825776E+02 -0.58626867838E+02  0.91607246358E+02  0.00000000000E+00 0. -1.
         11    1    4    4    0    0 -0.25076343281E+02  0.26850044316E+01 -0.13103843497E+03  0.13344326015E+03  0.00000000000E+00 0.  1.
          2    1    1    2  501    0 -0.21274827981E+02 -0.70057108166E+01 -0.15055669944E+02  0.26988358363E+02  0.00000000000E+00 0. -1.
<scales pt_clust_5="13000.00000" pt_clust_6="13000.00000" pt_clust_7="13000.00000" pt_clust_8="13000.00000" pt_clust_9="22.39862"></scales>
<clustering>
<clus scale="   22.399">  2  9  1 -1</clus>
<clus scale="   78.289">  5  6 -1 -1</clus>
<clus scale="   89.189">  7  8 -1 -1</clus>
<clus scale="  126.043">  1  5  2 -1</clus>
<clus scale="   22.399">  2  5  1 -1</clus>
</clustering>
</event>
<event>
 9    1  0.6014990E-005  0.9828739E+02  0.7546771E-02  0.1295806E+00
         21   -1    0    0  501  502  0.00000000000E+00  0.00000000000E+00  0.10448857623E+03  0.10448857623E+03  0.00000000000E+00 0.  1.
         -2   -1    0    0    0  501 -0.00000000000E+00 -0.00000000000E+00 -0.11847028771E+03  0.11847028771E+03  0.00000000000E+00 0.  1.
        -24    2    1    2    0    0 -0.13434876069E+01 -0.43982073546E+01 -0.51101268995E+02  0.93411677370E+02  0.78059288937E+02 0.  0.
         23    2    1    2    0    0  0.12134297730E+02  0.23668584485E+02  0.25066855905E+02  0.10438656985E+03  0.97779167654E+02 0.  0.
         11    1    3    3    0    0  0.39193998397E+00 -0.38291376543E+02 -0.90030638824E+01  0.39337492215E+02  0.00000000000E+00 0. -1.
        -12    1    3    3    0    0 -0.17354275909E+01  0.33893169188E+02 -0.42098205112E+02  0.54074185155E+02  0.00000000000E+00 0.  1.
        -13    1    4    4    0    0 -0.25537599682E+02  0.25420041530E+02 -0.23408869683E+02  0.42968857196E+02  0.00000000000E+00 0.  1.
         13    1    4    4    0    0  0.37671897412E+02 -0.17514570446E+01  0.48475725587E+02  0.61417712654E+02  0.00000000000E+00 0. -1.
         -1    1    1    2    0  502 -0.10790810123E+02 -0.19270377131E+02  0.12052701610E+02  0.25160616725E+02  0.00000000000E+00 0.  1.
<scales pt_clust_5="13000.00000" pt_clust_6="13000.00000" pt_clust_7="13000.00000" pt_clust_8="13000.00000" pt_clust_9="22.08595"></scales>
<clustering>
<clus scale="   22.086">  1  9  2 -1</clus>
<clus scale="   78.059">  5  6 -1 -1</clus>
<clus scale="   78.695">  2  5  1 -1</clus>
<clus scale="   97.779">  7  8 -1 -1</clus>
<clus scale="   22.086">  1  5  2 -1</clus>
</clustering>
</event>
<event>
 9    1  0.6014990E-005  0.9607097E+02  0.7546771E-02  0.1294486E+00
         21   -1    0    0  501  502  0.00000000000E+00  0.00000000000E+00  0.54230269300E+03  0.54230269300E+03  0.00000000000E+00 0. -1.
          3   -1    0    0  502    0 -0.00000000000E+00 -0.00000000000E+00 -0.36106918958E+02  0.36106918958E+02  0.00000000000E+00 0. -1.
         23    2    1    2    0    0 -0.12728355823E+02  0.37822779142E+02  0.17221765390E+03  0.19888531783E+03  0.91125603806E+02 0.  0.
        -24    2    1    2    0    0  0.50042982875E+02  0.26759678786E+02  0.24014513637E+03  0.25965810161E+03  0.80822414397E+02 0.  0.
         13    1    4    4    0    0  0.39452809760E+02 -0.17316210587E+02  0.17544783130E+03  0.18066077841E+03  0.00000000000E+00 0. -1.
        -14    1    4    4    0    0  0.10590173115E+02  0.44075889374E+02  0.64697305066E+02  0.78997323205E+02  0.00000000000E+00 0.  1.
        -13    1    3    3    0    0 -0.12965792088E+02 -0.29322198489E+02  0.48915329463E+02  0.58486002985E+02  0.00000000000E+00 0.  1.
         13    1    3    3    0    0  0.23743626559E+00  0.67144977631E+02  0.12330232443E+03  0.14039931484E+03  0.00000000000E+00 0. -1.
          4    1    1    2  501    0 -0.37314627052E+02 -0.64582457928E+02  0.93832983775E+02  0.11986619252E+03  0.00000000000E+00 0. -1.
<scales pt_clust_5="13000.00000" pt_clust_6="13000.00000" pt_clust_7="13000.00000" pt_clust_8="13000.00000" pt_clust_9="74.58740"></scales>
<clustering>
<clus scale="   74.587">  1  9  2 -1</clus>
<clus scale="   80.822">  5  6 -1 -1</clus>
<clus scale="   86.360">  1  5  2 -1</clus>
<clus scale="   91.126">  7  8 -1 -1</clus>
<clus scale="   74.587">  1  5  2 -1</clus>
</clustering>
</event>
<event>
 9    1  0.6014990E-005  0.1078637E+03  0.7546771E-02  0.1269342E+00
         21   -1    0    0  501  502  0.00000000000E+00  0.00000000000E+00  0.11125572330E+03  0.11125572330E+03  0.00000000000E+00 0.  1.
          3   -1    0    0  502    0 -0.00000000000E+00 -0.00000000000E+00 -0.16129137030E+03  0.16129137030E+03  0.00000000000E+00 0. -1.
        -24    2    1    2    0    0 -0.46570425316E+02  0.44780284245E+02 -0.42901099841E+02  0.11231740130E+03  0.81244174536E+02 0.  0.
         23    2    1    2    0    0  0.19570934434E+02 -0.31604270708E+02  0.37385385734E+02  0.10652118026E+03  0.92559404584E+02 0.  0.
         11    1    3    3    0    0 -0.66722601968E+02  0.18469744253E+02 -0.20101948452E+02  0.72091090973E+02  0.00000000000E+00 0. -1.
        -12    1    3    3    0    0  0.20152176651E+02  0.26310539992E+02 -0.22799151389E+02  0.40226310327E+02  0.00000000000E+00 0.  1.
        -13    1    4    4    0    0  0.13397536591E+02  0.30419135887E+02 -0.11183436447E+01  0.33257608262E+02  0.00000000000E+00 0. -1.
         13    1    4    4    0    0  0.61733978428E+01 -0.62023406594E+02  0.38503729379E+02  0.73263572002E+02  0.00000000000E+00 0.  1.
          4    1    1    2  501    0  0.26999490883E+02 -0.13176013538E+02 -0.44519932886E+02  0.53708512033E+02  0.00000000000E+00 0. -1.
<scales pt_clust_5="13000.00000" pt_clust_6="13000.00000" pt_clust_7="13000.00000" pt_clust_8="13000.00000" pt_clust_9="30.04298"></scales>
<clustering>
<clus scale="   30.043">  1  9  2 -1</clus>
<clus scale="   81.244">  5  6 -1 -1</clus>
<clus scale="   92.559">  7  8 -1 -1</clus>
<clus scale="   98.326">  2  5  1 -1</clus>
<clus scale="   30.043">  1  5  2 -1</clus>
</clustering>
</event>
<event>
 9    1  0.9596228E-005  0.1188434E+03  0.7546771E-02  0.1250409E+00
          1   -1    0    0  502    0 -0.00000000000E+00  0.00000000000E+00  0.19861091219E+03  0.19861091219E+03  0.00000000000E+00 0. -1.
         21   -1    0    0  501  502  0.00000000000E+00 -0.00000000000E+00 -0.34517596049E+03  0.34517596049E+03  0.00000000000E+00 0. -1.
         23    2    1    2    0    0 -0.14776316179E+02 -0.49446624719E+02 -0.79504709810E+02  0.13553182372E+03  0.96873980735E+02 0.  0.
        -24    2    1    2    0    0 -0.77697025104E+02  0.10260795635E+03 -0.19144377502E+03  0.24439936456E+03  0.80716231233E+02 0.  0.
         11    1    4    4    0    0 -0.74925143642E+02  0.10481183097E+03 -0.13060753963E+03  0.18346014953E+03  0.00000000000E+00 0. -1.
        -12    1    4    4    0    0 -0.27718814614E+01 -0.22038746158E+01 -0.60836235399E+02  0.60939215024E+02  0.00000000000E+00 0.  1.
        -11    1    3    3    0    0 -0.55138684837E+02 -0.40078309487E+02 -0.52987585097E+02  0.86337880628E+02  0.00000000000E+00 0.  1.
         11    1    3    3    0    0  0.40362368659E+02 -0.93683152315E+01 -0.26517124713E+02  0.49193943093E+02  0.00000000000E+00 0. -1.
          2    1    1    2  501    0  0.92473341282E+02 -0.53161331631E+02  0.12438343653E+03  0.16385568441E+03  0.00000000000E+00 0. -1.
<scales pt_clust_5="13000.00000" pt_clust_6="13000.00000" pt_clust_7="13000.00000" pt_clust_8="13000.00000" pt_clust_9="106.66516"></scales>
<clustering>
<clus scale="   80.716">  5  6 -1 -1</clus>
<clus scale="   96.874">  7  8 -1 -1</clus>
<clus scale="  106.665">  2  9  1 -1</clus>
<clus scale="  106.665">  2  5  1 -1</clus>
<clus scale="  106.665">  2  5  1 -1</clus>
</clustering>
</event>
<event>
 9    1  0.6014990E-005  0.9751014E+02  0.7546771E-02  0.1305579E+00
         21   -1    0    0  501  502  0.00000000000E+00  0.00000000000E+00  0.43387611093E+03  0.43387611093E+03  0.00000000000E+00 0. -1.
         -4   -1    0    0    0  501 -0.00000000000E+00 -0.00000000000E+00 -0.42409241558E+02  0.42409241558E+02  0.00000000000E+00 0.  1.
        -24    2    1    2    0    0  0.15021447746E+02 -0.44267257155E+02  0.36612301142E+02  0.83648747107E+02  0.58918743615E+02 0.  0.
         23    2    1    2    0    0 -0.14792427757E+02 -0.49088163670E+01  0.11623158670E+03  0.14899903445E+03  0.91913100926E+02 0.  0.
         11    1    3    3    0    0  0.64380266783E+00 -0.50892051493E+02  0.88065124710E+01  0.51652396352E+02  0.00000000000E+00 0. -1.
        -12    1    3    3    0    0  0.14377645078E+02  0.66247943375E+01  0.27805788671E+02  0.31996350754E+02  0.00000000000E+00 0.  1.
        -13    1    4    4    0    0  0.33711895165E+02  0.17463487067E+02  0.34138063198E+02  0.51057542196E+02  0.00000000000E+00 0.  1.
         13    1    4    4    0    0 -0.48504322922E+02 -0.22372303434E+02  0.82093523506E+02  0.97941492253E+02  0.00000000000E+00 0. -1.
         -3    1    1    2    0  502 -0.22901998866E+00  0.49176073522E+02  0.23862298153E+03  0.24363757094E+03  0.00000000000E+00 0.  1.
<scales pt_clust_5="13000.00000" pt_clust_6="13000.00000" pt_clust_7="13000.00000" pt_clust_8="13000.00000" pt_clust_9="49.17661"></scales>
<clustering>
<clus scale="   49.177">  1  9  2 -1</clus>
<clus scale="   58.919">  5  6 -1 -1</clus>
<clus scale="   67.317">  2  5  1 -1</clus>
<clus scale="   91.913">  7  8 -1 -1</clus>
<clus scale="   49.177">  1  5  2 -1</clus>
</clustering>
</event>
<event>
 9    1  0.6014990E-005  0.1202970E+03  0.7546771E-02  0.1245277E+00
          1   -1    0    0  502    0 -0.00000000000E+00  0.00000000000E+00  0.57742701365E+03  0.57742701365E+03  0.00000000000E+00 0. -1.
         21   -1    0    0  501  502  0.00000000000E+00 -0.00000000000E+00 -0.17897806839E+03  0.17897806839E+03  0.00000000000E+00 0. -1.
         23    2    1    2    0    0  0.44490020327E+02 -0.47200436032E+02  0.33995595884E+02  0.11557642951E+03  0.89414581856E+02 0.  0.
        -24    2    1    2    0    0 -0.11402182908E+03  0.71995979911E+02 -0.89532719668E+02  0.18087991374E+03  0.80728165308E+02 0.  0.
         11    1    4    4    0    0 -0.14855531302E+02  0.45670929413E+02 -0.54079111464E+02  0.72326142579E+02  0.00000000000E+00 0. -1.
        -12    1    4    4    0    0 -0.99166297781E+02  0.26325050498E+02 -0.35453608204E+02  0.10855377116E+03  0.00000000000E+00 0.  1.
        -13    1    3    3    0    0  0.20072164434E+02 -0.30921133639E+02 -0.28458183598E+02  0.46571198227E+02  0.00000000000E+00 0. -1.
         13    1    3    3    0    0  0.24417855893E+02 -0.16279302393E+02  0.62453779483E+02  0.69005231283E+02  0.00000000000E+00 0.  1.
          2    1    1    2  501    0  0.69531808756E+02 -0.24795543879E+02  0.45398606904E+03  0.45994873879E+03  0.00000000000E+00 0. -1.
<scales pt_clust_5="13000.00000" pt_clust_6="13000.00000" pt_clust_7="13000.00000" pt_clust_8="13000.00000" pt_clust_9="73.82071"></scales>
<clustering>
<clus scale="   73.821">  2  9  1 -1</clus>
<clus scale="   80.728">  5  6 -1 -1</clus>
<clus scale="   89.415">  7  8 -1 -1</clus>
<clus scale="  113.989">  2  5  1 -1</clus>
<clus scale="   73.821">  2  5  1 -1</clus>
</clustering>
</event>
<event>
 9    1  0.6014990E-005  0.9576432E+02  0.7546771E-02  0.1296243E+00
         21   -1    0    0  501  502  0.00000000000E+00  0.00000000000E+00  0.14021094412E+03  0.14021094412E+03  0.00000000000E+00 0. -1.
          1   -1    0    0  502    0 -0.00000000000E+00 -0.00000000000E+00 -0.37666839480E+03  0.37666839480E+03  0.00000000000E+00 0. -1.
        -24    2    1    2    0    0 -0.25447279223E+02 -0.21686141059E+02 -0.34517828089E+03  0.35546940157E+03  0.78055090314E+02 0.  0.
         23    2    1    2    0    0  0.81308340693E+01  0.38158944505E+01  0.66662742107E+02  0.11254187250E+03  0.90227935625E+02 0.  0.
         13    1    3    3    0    0  0.18964927690E+01 -0.47252499978E+02 -0.18078683398E+03  0.18686967325E+03  0.00000000000E+00 0. -1.
        -14    1    3    3    0    0 -0.27343771992E+02  0.25566358918E+02 -0.16439144691E+03  0.16859972832E+03  0.00000000000E+00 0.  1.
        -11    1    4    4    0    0  0.25030662253E+02  0.39663254398E+02  0.19123607369E+02  0.50649976911E+02  0.00000000000E+00 0.  1.
         11    1    4    4    0    0 -0.16899828183E+02 -0.35847359948E+02  0.47539134737E+02  0.61891895588E+02  0.00000000000E+00 0. -1.
          2    1    1    2  501    0  0.17316445153E+02  0.17870246609E+02  0.42058088106E+02  0.48868064845E+02  0.00000000000E+00 0. -1.
<scales pt_clust_5="13000.00000" pt_clust_6="13000.00000" pt_clust_7="13000.00000" pt_clust_8="13000.00000" pt_clust_9="24.88383"></scales>
<clustering>
<clus scale="   24.884">  1  9  2 -1</clus>
<clus scale="   78.055">  5  6 -1 -1</clus>
<clus scale="   84.394">  2  5  1 -1</clus>
<clus scale="   90.228">  7  8 -1 -1</clus>
<clus scale="   24.884">  1  5  2 -1</clus>
</clustering>
</event>
<event>
 9    1  0.6014990E-005  0.2119393E+03  0.7546771E-02  0.1179928E+00
         21   -1    0    0  501  502  0.00000000000E+00  0.00000000000E+00  0.10059523526E+03  0.10059523526E+03  0.00000000000E+00 0. -1.
          1   -1    0    0  502    0 -0.00000000000E+00 -0.00000000000E+00 -0.70424451462E+03  0.70424451462E+03  0.00000000000E+00 0. -1.
        -24    2    1    2    0    0  0.18151274624E+02 -0.83767019151E+01 -0.22906491459E+03  0.24388386358E+03  0.81295546707E+02 0.  0.
         23    2    1    2    0    0 -0.61804468014E+02 -0.18005281794E+03 -0.26604766209E+03  0.33916431506E+03  0.89511254001E+02 0.  0.
         13    1    3    3    0    0  0.39319964570E+02 -0.31642503009E+02 -0.16442806228E+03  0.17199969557E+03  0.00000000000E+00 0. -1.
        -14    1    3    3    0    0 -0.21168689946E+02  0.23265801094E+02 -0.64636852309E+02  0.71884168013E+02  0.00000000000E+00 0.  1.
        -11    1    4    4    0    0 -0.52544071468E+02 -0.12104872717E+03 -0.10904701485E+03  0.17118681387E+03  0.00000000000E+00 0. -1.
         11    1    4    4    0    0 -0.92603965462E+01 -0.59004090767E+02 -0.15700064724E+03  0.16797750119E+03  0.00000000000E+00 0.  1.
          2    1    1    2  501    0  0.43653193390E+02  0.18842951985E+03 -0.10853670268E+03  0.22179157124E+03  0.00000000000E+00 0. -1.
<scales pt_clust_5="13000.00000" pt_clust_6="13000.00000" pt_clust_7="13000.00000" pt_clust_8="13000.00000" pt_clust_9="192.10938"></scales>
<clustering>
<clus scale="   81.296">  5  6 -1 -1</clus>
<clus scale="   83.717">  2  5  1 -1</clus>
<clus scale="   89.511">  7  8 -1 -1</clus>
<clus scale="  192.109">  1  9  2 -1</clus>
<clus scale="  192.109">  1  5  2 -1</clus>
</clustering>
</event>
<event>
 9    1  0.6014990E-005  0.9423949E+02  0.7546771E-02  0.1298794E+00
          1   -1    0    0  502    0 -0.00000000000E+00  0.00000000000E+00  0.23844099667E+03  0.23844099667E+03  0.00000000000E+00 0. -1.
         21   -1    0    0  501  502  0.00000000000E+00 -0.00000000000E+00 -0.17810438370E+03  0.17810438370E+03  0.00000000000E+00 0. -1.
        -24    2    1    2    0    0 -0.31052220749E+02  0.81804637463E+01  0.18236347691E+03  0.20173637467E+03  0.80062267974E+02 0.  0.
         23    2    1    2    0    0 -0.19048965528E+02 -0.33898169898E+02 -0.23137425110E+02  0.10100808133E+03  0.90306937962E+02 0.  0.
         11    1    3    3    0    0 -0.41026773078E+02  0.19066169090E+00  0.18429923535E+03  0.18881059454E+03  0.00000000000E+00 0. -1.
        -12    1    3    3    0    0  0.99745523288E+01  0.79898020554E+01 -0.19357584426E+01  0.12925780123E+02  0.00000000000E+00 0.  1.
        -11    1    4    4    0    0 -0.51987127140E+02 -0.20851642141E+01 -0.72192955402E+01  0.52527397862E+02  0.00000000000E+00 0. -1.
         11    1    4    4    0    0  0.32938161612E+02 -0.31813005684E+02 -0.15918129570E+02  0.48480683473E+02  0.00000000000E+00 0.  1.
          2    1    1    2  501    0  0.50101186277E+02  0.25717706152E+02 -0.98889438827E+02  0.11380092437E+03  0.00000000000E+00 0. -1.
<scales pt_clust_5="13000.00000" pt_clust_6="13000.00000" pt_clust_7="13000.00000" pt_clust_8="13000.00000" pt_clust_9="56.31633"></scales>
<clustering>
<clus scale="   56.316">  2  9  1 -1</clus>
<clus scale="   80.062">  5  6 -1 -1</clus>
<clus scale="   84.473">  1  5  2 -1</clus>
<clus scale="   90.307">  7  8 -1 -1</clus>
<clus scale="   56.316">  2  5  1 -1</clus>
</clustering>
</event>
<event>
 9    1  0.6014990E-005  0.1075494E+03  0.7546771E-02  0.1268187E+00
          1   -1    0    0  502    0 -0.00000000000E+00  0.00000000000E+00  0.44249746529E+03  0.44249746529E+03  0.00000000000E+00 0. -1.
         21   -1    0    0  501  502  0.00000000000E+00 -0.00000000000E+00 -0.46653729538E+02  0.46653729538E+02  0.00000000000E+00 0. -1.
         23    2    1    2    0    0 -0.56388573085E+02 -0.43078981708E+02  0.19358755202E+03  0.22394281231E+03  0.87400074645E+02 0.  0.
        -24    2    1    2    0    0  0.66678397209E+02 -0.21492499117E+02  0.12430104265E+03  0.16346183153E+03  0.79756410350E+02 0.  0.
         11    1    4    4    0    0  0.83825069306E+02 -0.11582212688E+02  0.11111686300E+03  0.13967013689E+03  0.00000000000E+00 0. -1.
        -12    1    4    4    0    0 -0.17146672097E+02 -0.99102864292E+01  0.13184179643E+02  0.23791694642E+02  0.00000000000E+00 0.  1.
        -11    1    3    3    0    0 -0.26141323169E+02 -0.35851314339E+02  0.18695054452E+03  0.19214367440E+03  0.00000000000E+00 0. -1.
         11    1    3    3    0    0 -0.30247249916E+02 -0.72276673684E+01  0.66370075028E+01  0.31799137907E+02  0.00000000000E+00 0.  1.
          2    1    1    2  501    0 -0.10289824124E+02  0.64571480825E+02  0.77955141086E+02  0.10174655099E+03  0.00000000000E+00 0. -1.
<scales pt_clust_5="13000.00000" pt_clust_6="13000.00000" pt_clust_7="13000.00000" pt_clust_8="13000.00000" pt_clust_9="65.38621"></scales>
<clustering>
<clus scale="   65.386">  2  9  1 -1</clus>
<clus scale="   79.756">  5  6 -1 -1</clus>
<clus scale="   87.400">  7  8 -1 -1</clus>
<clus scale="  101.436">  2  5  1 -1</clus>
<clus scale="   65.386">  2  5  1 -1</clus>
</clustering>
</event>
<event>
 9    1  0.6014990E-005  0.1873270E+03  0.7546771E-02  0.1194012E+00
         -2   -1    0    0    0  501 -0.00000000000E+00  0.00000000000E+00  0.64147979132E+03  0.64147979132E+03  0.00000000000E+00 0.  1.
         21   -1    0    0  501  502  0.00000000000E+00 -0.00000000000E+00 -0.10085576899E+03  0.10085576899E+03  0.00000000000E+00 0. -1.
        -24    2    1    2    0    0  0.31158745151E+02 -0.69118778106E+01  0.30739040653E+03  0.31992497537E+03  0.82731411122E+02 0.  0.
         23    2    1    2    0    0  0.14483543553E+03  0.30050894530E+02  0.11893809151E+03  0.21128779461E+03  0.92821887995E+02 0.  0.
         11    1    3    3    0    0  0.57541717675E+02 -0.11574553041E+02  0.16734103548E+03  0.17733595718E+03  0.00000000000E+00 0. -1.
        -12    1    3    3    0    0 -0.26382972524E+02  0.46626752304E+01  0.14004937105E+03  0.14258901820E+03  0.00000000000E+00 0.  1.
        -13    1    4    4    0    0  0.85523060504E+02 -0.12367334659E+02  0.20548195100E+02  0.88822143447E+02  0.00000000000E+00 0. -1.
         13    1    4    4    0    0  0.59312375023E+02  0.42418229189E+02  0.98389896409E+02  0.12246565116E+03  0.00000000000E+00 0.  1.
         -1    1    1    2    0  502 -0.17599418068E+03 -0.23139016719E+02  0.11429552429E+03  0.21112279034E+03  0.00000000000E+00 0.  1.
<scales pt_clust_5="13000.00000" pt_clust_6="13000.00000" pt_clust_7="13000.00000" pt_clust_8="13000.00000" pt_clust_9="162.71308"></scales>
<clustering>
<clus scale="   82.731">  5  6 -1 -1</clus>
<clus scale="   88.674">  1  5  2 -1</clus>
<clus scale="   92.822">  7  8 -1 -1</clus>
<clus scale="  162.713">  2  9  1 -1</clus>
<clus scale="  162.713">  2  5  1 -1</clus>
</clustering>
</event>
<event>
 9    1  0.6014990E-005  0.1510076E+03  0.7546771E-02  0.1202321E+00
         21   -1    0    0  501  502  0.00000000000E+00  0.00000000000E+00  0.68078679386E+03  0.68078679386E+03  0.00000000000E+00 0.  1.
         -4   -1    0    0    0  501 -0.00000000000E+00 -0.00000000000E+00 -0.61182561557E+02  0.61182561557E+02  0.00000000000E+00 0.  1.
         23    2    1    2    0    0 -0.44255618684E+02 -0.97927205187E+02  0.10054818907E+03  0.17327710508E+03  0.91469773808E+02 0.  0.
        -24    2    1    2    0    0  0.68865615291E+02  0.86923011916E+02  0.51956972428E+03  0.54172916314E+03  0.10592310813E+03 0.  0.
         11    1    4    4    0    0  0.12235532712E+02  0.16862544653E+02  0.80463909635E+01  0.22333787867E+02  0.00000000000E+00 0. -1.
        -12    1    4    4    0    0  0.56630082578E+02  0.70060467263E+02  0.51152333332E+03  0.51939537527E+03  0.00000000000E+00 0.  1.
        -11    1    3    3    0    0 -0.42121181175E+02 -0.47918220186E+02  0.10517128361E+03  0.12300954688E+03  0.00000000000E+00 0. -1.
         11    1    3    3    0    0 -0.21344375089E+01 -0.50008985001E+02 -0.46230945365E+01  0.50267558200E+02  0.00000000000E+00 0.  1.
         -3    1    1    2    0  502 -0.24609996607E+02  0.11004193271E+02 -0.51368105098E+00  0.26963087190E+02  0.00000000000E+00 0.  1.
<scales pt_clust_5="13000.00000" pt_clust_6="13000.00000" pt_clust_7="13000.00000" pt_clust_8="13000.00000" pt_clust_9="26.95821"></scales>
<clustering>
<clus scale="   26.958">  1  9  2 -1</clus>
<clus scale="   91.470">  7  8 -1 -1</clus>
<clus scale="  105.923">  5  6 -1 -1</clus>
<clus scale="  141.246">  2  7  1 -1</clus>
<clus scale="   26.958">  1  5  2 -1</clus>
</clustering>
</event>
<event>
 9    1  0.6014990E-005  0.1441096E+03  0.7546771E-02  0.1232839E+00
         -2   -1    0    0    0  501 -0.00000000000E+00  0.00000000000E+00  0.12521830445E+03  0.12521830445E+03  0.00000000000E+00 0.  1.
         21   -1    0    0  501  502  0.00000000000E+00 -0.00000000000E+00 -0.28256067520E+03  0.28256067520E+03  0.00000000000E+00 0. -1.
        -24    2    1    2    0    0 -0.17269867033E+02  0.18652419293E+02  0.28808929815E+02  0.90123349241E+02  0.81523632086E+02 0.  0.
         23    2    1    2    0    0 -0.88040363547E+02  0.42118703924E+02 -0.76162612638E+02  0.15370171751E+03  0.91095464039E+02 0.  0.
         13    1    3    3    0    0  0.26743416101E+02  0.19267715203E+02 -0.66190707990E+01  0.33619447529E+02  0.00000000000E+00 0. -1.
        -14    1    3    3    0    0 -0.44013283133E+02 -0.61529591063E+00  0.35428000614E+02  0.56503901712E+02  0.00000000000E+00 0.  1.
        -13    1    4    4    0    0  0.17205931260E+02  0.18417408069E+02 -0.19345776685E+02  0.31772693717E+02  0.00000000000E+00 0.  1.
         13    1    4    4    0    0 -0.10524629481E+03  0.23701295855E+02 -0.56816835954E+02  0.12192902379E+03  0.00000000000E+00 0. -1.
         -1    1    1    2    0  502  0.10531023058E+03 -0.60771123216E+02 -0.10998868792E+03  0.16395391289E+03  0.00000000000E+00 0.  1.
<scales pt_clust_5="13000.00000" pt_clust_6="13000.00000" pt_clust_7="13000.00000" pt_clust_8="13000.00000" pt_clust_9="111.66553"></scales>
<clustering>
<clus scale="   81.524">  5  6 -1 -1</clus>
<clus scale="   85.395">  1  5  2 -1</clus>
<clus scale="   91.095">  7  8 -1 -1</clus>
<clus scale="  111.666">  2  9  1 -1</clus>
<clus scale="  111.666">  2  5  1 -1</clus>
</clustering>
</event>
<event>
 9    1  0.6014990E-005  0.1447716E+03  0.7546771E-02  0.1207640E+00
          1   -1    0    0  502    0 -0.00000000000E+00  0.00000000000E+00  0.33116303186E+03  0.33116303186E+03  0.00000000000E+00 0. -1.
         21   -1    0    0  501  502  0.00000000000E+00 -0.00000000000E+00 -0.11867576581E+03  0.11867576581E+03  0.00000000000E+00 0. -1.
         23    2    1    2    0    0  0.88824275249E+02 -0.72549078349E+02  0.20718297272E+03  0.25366614543E+03  0.90931889387E+02 0.  0.
        -24    2    1    2    0    0 -0.10891074931E+03  0.32754011822E+02  0.27451826161E+02  0.14639688534E+03  0.88000390182E+02 0.  0.
         11    1    4    4    0    0 -0.23160770939E+02 -0.21087855320E+02 -0.17201831522E+02  0.35735444033E+02  0.00000000000E+00 0. -1.
        -12    1    4    4    0    0 -0.85749978369E+02  0.53841867141E+02  0.44653657684E+02  0.11066144131E+03  0.00000000000E+00 0.  1.
        -11    1    3    3    0    0  0.21866412809E+02  0.97611866249E+01  0.37680536755E+01  0.24240853986E+02  0.00000000000E+00 0.  1.
         11    1    3    3    0    0  0.66957862440E+02 -0.82310264974E+02  0.20341491905E+03  0.22942529144E+03  0.00000000000E+00 0. -1.
          2    1    1    2  501    0  0.20086474059E+02  0.39795066528E+02 -0.22147532834E+02  0.49775766902E+02  0.00000000000E+00 0. -1.
<scales pt_clust_5="13000.00000" pt_clust_6="13000.00000" pt_clust_7="13000.00000" pt_clust_8="13000.00000" pt_clust_9="44.57705"></scales>
<clustering>
<clus scale="   44.577">  2  9  1 -1</clus>
<clus scale="   88.000">  5  6 -1 -1</clus>
<clus scale="   90.932">  7  8 -1 -1</clus>
<clus scale="  142.948">  2  5  1 -1</clus>
<clus scale="   44.577">  2  5  1 -1</clus>
</clustering>
</event>
<event>
 9    1  0.6014990E-005  0.8928725E+02  0.7546771E-02  0.1304976E+00
          1   -1    0    0  502    0 -0.00000000000E+00  0.00000000000E+00  0.13853597379E+03  0.13853597379E+03  0.00000000000E+00 0. -1.
         21   -1    0    0  501  502  0.00000000000E+00 -0.00000000000E+00 -0.10632013724E+03  0.10632013724E+03  0.00000000000E+00 0.  1.
        -24    2    1    2    0    0  0.16031651265E+02  0.71205481769E+00  0.64191635042E+00  0.84090868714E+02  0.82542966267E+02 0.  0.
         23    2    1    2    0    0 -0.33230260013E+02 -0.50867260152E+02  0.66008699642E+01  0.10215645456E+03  0.81857445529E+02 0.  0.
         11    1    3    3    0    0 -0.20428712595E+02  0.28573594020E+02  0.11456999541E+02  0.36946520973E+02  0.00000000000E+00 0. -1.
        -12    1    3    3    0    0  0.36460363860E+02 -0.27861539202E+02 -0.10815083191E+02  0.47144347741E+02  0.00000000000E+00 0.  1.
        -11    1    4    4    0    0 -0.45641840204E+02 -0.41223307203E+01 -0.16305051019E+02  0.48641812019E+02  0.00000000000E+00 0.  1.
         11    1    4    4    0    0  0.12411580192E+02 -0.46744929432E+02  0.22905920983E+02  0.53514642543E+02  0.00000000000E+00 0. -1.
          2    1    1    2  501    0  0.17198608748E+02  0.50155205334E+02  0.24973050236E+02  0.58608787763E+02  0.00000000000E+00 0. -1.
<scales pt_clust_5="13000.00000" pt_clust_6="13000.00000" pt_clust_7="13000.00000" pt_clust_8="13000.00000" pt_clust_9="53.02207"></scales>
<clustering>
<clus scale="   53.022">  2  9  1 -1</clus>
<clus scale="   81.857">  7  8 -1 -1</clus>
<clus scale="   82.543">  5  6 -1 -1</clus>
<clus scale="   88.654">  2  7  1 -1</clus>
<clus scale="   53.022">  2  5  1 -1</clus>
</clustering>
</event>
<event>
 9    1  0.6014990E-005  0.1426733E+03  0.7546771E-02  0.1212827E+00
         21   -1    0    0  501  502  0.00000000000E+00  0.00000000000E+00  0.56172252714E+02  0.56172252714E+02  0.00000000000E+00 0.  1.
         -2   -1    0    0    0  501 -0.00000000000E+00 -0.00000000000E+00 -0.10049295049E+04  0.10049295049E+04  0.00000000000E+00 0.  1.
        -24    2    1    2    0    0  0.10690614246E+02 -0.10078443233E+03 -0.71066110830E+03  0.72198855127E+03  0.77178146395E+02 0.  0.
         23    2    1    2    0    0 -0.13204059840E+02  0.15026910043E+03 -0.22823990766E+03  0.28859395080E+03  0.91857842617E+02 0.  0.
         13    1    3    3    0    0  0.28440705663E+02 -0.24845179609E+02 -0.11035065157E+03  0.11663371292E+03  0.00000000000E+00 0. -1.
        -14    1    3    3    0    0 -0.17750091417E+02 -0.75939252722E+02 -0.60031045674E+03  0.60535483835E+03  0.00000000000E+00 0.  1.
        -11    1    4    4    0    0  0.32641017454E+02  0.63734223683E+02 -0.13778845962E+03  0.15528408448E+03  0.00000000000E+00 0.  1.
         11    1    4    4    0    0 -0.45845077294E+02  0.86534876750E+02 -0.90451448042E+02  0.13330986632E+03  0.00000000000E+00 0. -1.
         -1    1    1    2    0  502  0.25134455943E+01 -0.49484668103E+02 -0.98562362049E+01  0.50519255519E+02  0.00000000000E+00 0.  1.
<scales pt_clust_5="13000.00000" pt_clust_6="13000.00000" pt_clust_7="13000.00000" pt_clust_8="13000.00000" pt_clust_9="49.54846"></scales>
<clustering>
<clus scale="   49.548">  1  9  2 -1</clus>
<clus scale="   77.178">  5  6 -1 -1</clus>
<clus scale="   91.858">  7  8 -1 -1</clus>
<clus scale="  133.695">  2  5  1 -1</clus>
<clus scale="   49.548">  1  5  2 -1</clus>
</clustering>
</event>
<event>
 9    1  0.6014990E-005  0.9736158E+02  0.7546771E-02  0.1291821E+00
          1   -1    0    0  502    0 -0.00000000000E+00  0.00000000000E+00  0.19625890986E+03  0.19625890986E+03  0.00000000000E+00 0. -1.
         21   -1    0    0  501  502  0.00000000000E+00 -0.00000000000E+00 -0.70653683995E+02  0.70653683995E+02  0.00000000000E+00 0. -1.
        -24    2    1    2    0    0 -0.11812948986E+02  0.39767210940E+02  0.53727117679E+02  0.10581396292E+03  0.81172746322E+02 0.  0.
         23    2    1    2    0    0  0.37584767590E+01 -0.15823904463E+02  0.96398813446E+01  0.93929044600E+02  0.92006608497E+02 0.  0.
         13    1    3    3    0    0  0.13970611646E+02  0.45458237985E+02  0.18367366893E+01  0.47592047573E+02  0.00000000000E+00 0. -1.
        -14    1    3    3    0    0 -0.25783560632E+02 -0.56910270449E+01  0.51890380990E+02  0.58221915349E+02  0.00000000000E+00 0.  1.
        -11    1    4    4    0    0  0.18598003053E+02 -0.32793001482E+02 -0.30099261818E+02  0.48241395355E+02  0.00000000000E+00 0. -1.
         11    1    4    4    0    0 -0.14839526294E+02  0.16969097020E+02  0.39739143162E+02  0.45687649245E+02  0.00000000000E+00 0.  1.
          2    1    1    2  501    0  0.80544722266E+01 -0.23943306478E+02  0.62238226844E+02  0.67169586336E+02  0.00000000000E+00 0. -1.
<scales pt_clust_5="13000.00000" pt_clust_6="13000.00000" pt_clust_7="13000.00000" pt_clust_8="13000.00000" pt_clust_9="25.26177"></scales>
<clustering>
<clus scale="   25.262">  2  9  1 -1</clus>
<clus scale="   81.173">  5  6 -1 -1</clus>
<clus scale="   87.196">  1  5  2 -1</clus>
<clus scale="   92.007">  7  8 -1 -1</clus>
<clus scale="   25.262">  2  5  1 -1</clus>
</clustering>
</event>
<event>
 9    1  0.6014990E-005  0.3452955E+03  0.7546771E-02  0.1096823E+00
         21   -1    0    0  501  502  0.00000000000E+00  0.00000000000E+00  0.26757417663E+03  0.26757417663E+03  0.00000000000E+00 0. -1.
          1   -1    0    0  502    0 -0.00000000000E+00 -0.00000000000E+00 -0.19216472026E+04  0.19216472026E+04  0.00000000000E+00 0. -1.
        -24    2    1    2    0    0 -0.88886196374E+02 -0.80511015692E+02 -0.14054652699E+03  0.20189395721E+03  0.81394497075E+02 0.  0.
         23    2    1    2    0    0 -0.11910901540E+03 -0.30228611731E+03  0.70528854543E+02  0.34445584573E+03  0.90064732659E+02 0.  0.
         13    1    3    3    0    0 -0.46719380466E+02  0.72658798649E+01 -0.40144826920E+02  0.62025000200E+02  0.00000000000E+00 0. -1.
        -14    1    3    3    0    0 -0.42166815908E+02 -0.87776895557E+02 -0.10040170007E+03  0.13986895701E+03  0.00000000000E+00 0.  1.
        -13    1    4    4    0    0 -0.92333788881E+02 -0.25373462479E+03  0.22233769660E+02  0.27092642710E+03  0.00000000000E+00 0. -1.
         13    1    4    4    0    0 -0.26775226516E+02 -0.48551492519E+02  0.48295084883E+02  0.73529418634E+02  0.00000000000E+00 0.  1.
          2    1    1    2  501    0  0.20799521177E+03  0.38279713300E+03 -0.15840553535E+04  0.16428715763E+04  0.00000000000E+00 0. -1.
<scales pt_clust_5="13000.00000" pt_clust_6="13000.00000" pt_clust_7="13000.00000" pt_clust_8="13000.00000" pt_clust_9="333.34279"></scales>
<clustering>
<clus scale="   81.394">  5  6 -1 -1</clus>
<clus scale="   90.065">  7  8 -1 -1</clus>
<clus scale="  144.941">  2  5  1 -1</clus>
<clus scale="  333.343">  1  9  2 -1</clus>
<clus scale="  333.343">  1  5  2 -1</clus>
</clustering>
</event>
<event>
 9    1  0.6014990E-005  0.9953188E+02  0.7546771E-02  0.1286763E+00
         21   -1    0    0  501  502  0.00000000000E+00  0.00000000000E+00  0.35771171507E+02  0.35771171507E+02  0.00000000000E+00 0.  1.
         -4   -1    0    0    0  501 -0.00000000000E+00 -0.00000000000E+00 -0.57143632072E+03  0.57143632072E+03  0.00000000000E+00 0.  1.
        -24    2    1    2    0    0 -0.51916610126E+02  0.30902789036E+02 -0.29710700292E+03  0.31360330425E+03  0.80150760913E+02 0.  0.
         23    2    1    2    0    0 -0.19142928274E+02 -0.18054620403E+02 -0.10242750703E+03  0.13950654237E+03  0.90984944619E+02 0.  0.
         11    1    3    3    0    0 -0.62690939410E+01  0.47880801103E+02 -0.10761702117E+03  0.11795463492E+03  0.00000000000E+00 0. -1.
        -12    1    3    3    0    0 -0.45647516185E+02 -0.16978012067E+02 -0.18948998175E+03  0.19564866933E+03  0.00000000000E+00 0.  1.
        -13    1    4    4    0    0 -0.48408116466E+02 -0.68834396940E+01 -0.95700185815E+02  0.10746745110E+03  0.00000000000E+00 0.  1.
         13    1    4    4    0    0  0.29265188192E+02 -0.11171180709E+02 -0.67273212099E+01  0.32039091264E+02  0.00000000000E+00 0. -1.
         -3    1    1    2    0  502  0.71059538400E+02 -0.12848168633E+02 -0.13613063926E+03  0.15409764561E+03  0.00000000000E+00 0.  1.
<scales pt_clust_5="13000.00000" pt_clust_6="13000.00000" pt_clust_7="13000.00000" pt_clust_8="13000.00000" pt_clust_9="72.21176"></scales>
<clustering>
<clus scale="   72.212">  1  9  2 -1</clus>
<clus scale="   80.151">  5  6 -1 -1</clus>
<clus scale="   89.736">  2  5  1 -1</clus>
<clus scale="   90.985">  7  8 -1 -1</clus>
<clus scale="   72.212">  1  5  2 -1</clus>
</clustering>
</event>
<event>
 9    1  0.6014990E-005  0.3499806E+03  0.7546771E-02  0.1112015E+00
         21   -1    0    0  501  502  0.00000000000E+00  0.00000000000E+00  0.57890957837E+03  0.57890957837E+03  0.00000000000E+00 0. -1.
          1   -1    0    0  502    0 -0.00000000000E+00 -0.00000000000E+00 -0.27015149917E+03  0.27015149917E+03  0.00000000000E+00 0. -1.
        -24    2    1    2    0    0 -0.34829981714E+02 -0.15512538432E+02  0.14423622690E+01  0.94162076221E+02  0.86085130624E+02 0.  0.
         23    2    1    2    0    0  0.27776780599E+03 -0.20845319482E+03  0.15422053023E+03  0.39073204466E+03  0.90993792662E+02 0.  0.
         13    1    3    3    0    0  0.89202394356E+01 -0.28478692711E+02 -0.27123283765E+02  0.40327151304E+02  0.00000000000E+00 0. -1.
        -14    1    3    3    0    0 -0.43750221150E+02  0.12966154279E+02  0.28565646034E+02  0.53834924917E+02  0.00000000000E+00 0.  1.
        -11    1    4    4    0    0  0.14695702125E+03 -0.15218015771E+03  0.12380758639E+03  0.24511932797E+03  0.00000000000E+00 0. -1.
         11    1    4    4    0    0  0.13081078474E+03 -0.56273037112E+02  0.30412943846E+02  0.14561271669E+03  0.00000000000E+00 0.  1.
          2    1    1    2  501    0 -0.24293782428E+03  0.22396573326E+03  0.15309518670E+03  0.36416695666E+03  0.00000000000E+00 0. -1.
<scales pt_clust_5="13000.00000" pt_clust_6="13000.00000" pt_clust_7="13000.00000" pt_clust_8="13000.00000" pt_clust_9="337.94454"></scales>
<clustering>
<clus scale="   86.085">  5  6 -1 -1</clus>
<clus scale="   90.994">  7  8 -1 -1</clus>
<clus scale="   94.151">  2  5  1 -1</clus>
<clus scale="  337.945">  1  9  2 -1</clus>
<clus scale="  337.945">  1  5  2 -1</clus>
</clustering>
</event>
<event>
 9    1  0.6014990E-005  0.1011151E+03  0.7546771E-02  0.1282740E+00
         21   -1    0    0  501  502  0.00000000000E+00  0.00000000000E+00  0.67027515013E+03  0.67027515013E+03  0.00000000000E+00 0.  1.
          3   -1    0    0  502    0 -0.00000000000E+00 -0.00000000000E+00 -0.31214466734E+02  0.31214466734E+02  0.00000000000E+00 0. -1.
        -24    2    1    2    0    0  0.45605904661E+02 -0.86389263294E+00  0.71157190668E+02  0.11702650388E+03  0.80939557551E+02 0.  0.
         23    2    1    2    0    0 -0.36533372886E+02  0.33452172803E+02  0.39802442955E+03  0.41124878638E+03  0.90820606550E+02 0.  0.
         11    1    3    3    0    0  0.40331779153E+02 -0.37164207421E+02  0.52293353812E+02  0.75778793708E+02  0.00000000000E+00 0. -1.
        -12    1    3    3    0    0  0.52741255080E+01  0.36300314789E+02  0.18863836855E+02  0.41247710173E+02  0.00000000000E+00 0.  1.
        -13    1    4    4    0    0  0.26136111435E+02  0.29149271984E+02  0.18791303330E+03  0.19194812961E+03  0.00000000000E+00 0.  1.
         13    1    4    4    0    0 -0.62669484321E+02  0.43029008191E+01  0.21011139626E+03  0.21930065676E+03  0.00000000000E+00 0. -1.
          4    1    1    2  501    0 -0.90725317749E+01 -0.32588280170E+02  0.16987906318E+03  0.17321432661E+03  0.00000000000E+00 0. -1.
<scales pt_clust_5="13000.00000" pt_clust_6="13000.00000" pt_clust_7="13000.00000" pt_clust_8="13000.00000" pt_clust_9="33.82760"></scales>
<clustering>
<clus scale="   33.828">  1  9  2 -1</clus>
<clus scale="   80.940">  5  6 -1 -1</clus>
<clus scale="   90.821">  7  8 -1 -1</clus>
<clus scale="   92.342">  2  5  1 -1</clus>
<clus scale="   33.828">  1  5  2 -1</clus>
</clustering>
</event>
<event>
 9    1  0.6014990E-005  0.1026072E+03  0.7546771E-02  0.1280228E+00
         21   -1    0    0  501  502  0.00000000000E+00  0.00000000000E+00  0.17530829450E+03  0.17530829450E+03  0.00000000000E+00 0.  1.
          1   -1    0    0  502    0 -0.00000000000E+00 -0.00000000000E+00 -0.24240286501E+03  0.24240286501E+03  0.00000000000E+00 0. -1.
         23    2    1    2    0    0  0.15031188260E+02  0.52355241592E+02 -0.19289005252E+03  0.22011397821E+03  0.90975728083E+02 0.  0.
        -24    2    1    2    0    0 -0.23779896938E+02 -0.12080273034E+02  0.23327407687E+02  0.87151179783E+02  0.79622507454E+02 0.  0.
         11    1    4    4    0    0  0.19437221871E+02 -0.50422444877E+01 -0.17981000115E+02  0.26954520747E+02  0.00000000000E+00 0. -1.
        -12    1    4    4    0    0 -0.43217118810E+02 -0.70380285458E+01  0.41308407801E+02  0.60196659036E+02  0.00000000000E+00 0.  1.
        -11    1    3    3    0    0  0.49576279646E+02  0.14566157450E+02 -0.12354853268E+03  0.13391870808E+03  0.00000000000E+00 0.  1.
         11    1    3    3    0    0 -0.34545091386E+02  0.37789084142E+02 -0.69341519832E+02  0.86195270124E+02  0.00000000000E+00 0. -1.
          2    1    1    2  501    0  0.87487086783E+01 -0.40274968558E+02  0.10246807432E+03  0.11044600152E+03  0.00000000000E+00 0. -1.
<scales pt_clust_5="13000.00000" pt_clust_6="13000.00000" pt_clust_7="13000.00000" pt_clust_8="13000.00000" pt_clust_9="41.21423"></scales>
<clustering>
<clus scale="   41.214">  1  9  2 -1</clus>
<clus scale="   79.623">  5  6 -1 -1</clus>
<clus scale="   90.976">  7  8 -1 -1</clus>
<clus scale="   92.690">  1  5  2 -1</clus>
<clus scale="   41.214">  1  5  2 -1</clus>
</clustering>
</event>
<event>
 9    1  0.6014990E-005  0.9348699E+02  0.7546771E-02  0.1300000E+00
          3   -1    0    0  502    0 -0.00000000000E+00  0.00000000000E+00  0.24870696070E+03  0.24870696070E+03  0.00000000000E+00 0. -1.
         21   -1    0    0  501  502  0.00000000000E+00 -0.00000000000E+00 -0.52140000702E+02  0.52140000702E+02  0.00000000000E+00 0. -1.
         23    2    1    2    0    0  0.26703954779E+02  0.31214483793E+02  0.12060930005E+03  0.15633778574E+03  0.90595004231E+02 0.  0.
        -24    2    1    2    0    0 -0.22750537524E+01  0.22513346776E+01  0.49056592153E+02  0.95108774251E+02  0.81417966865E+02 0.  0.
         11    1    4    4    0    0  0.32867427794E+02  0.21480494036E+01  0.50092182765E+02  0.59950885733E+02  0.00000000000E+00 0. -1.
        -12    1    4    4    0    0 -0.35142481547E+02  0.10328527398E+00 -0.10355906120E+01  0.35157888518E+02  0.00000000000E+00 0.  1.
        -13    1    3    3    0    0 -0.10981963788E+02  0.31280740806E+02  0.35267152194E+01  0.33339556000E+02  0.00000000000E+00 0.  1.
         13    1    3    3    0    0  0.37685918567E+02 -0.66257012998E-01  0.11708258483E+03  0.12299822974E+03  0.00000000000E+00 0. -1.
          4    1    1    2  501    0 -0.24428901027E+02 -0.33465818471E+02  0.26901067796E+02  0.49400401414E+02  0.00000000000E+00 0. -1.
<scales pt_clust_5="13000.00000" pt_clust_6="13000.00000" pt_clust_7="13000.00000" pt_clust_8="13000.00000" pt_clust_9="41.43347"></scales>
<clustering>
<clus scale="   41.433">  2  9  1 -1</clus>
<clus scale="   81.418">  5  6 -1 -1</clus>
<clus scale="   84.624">  2  5  1 -1</clus>
<clus scale="   90.595">  7  8 -1 -1</clus>
<clus scale="   41.433">  2  5  1 -1</clus>
</clustering>
</event>
<event>
 9    1  0.6014990E-005  0.1064502E+03  0.7546771E-02  0.1273289E+00
          1   -1    0    0  502    0 -0.00000000000E+00  0.00000000000E+00  0.23559543836E+03  0.23559543836E+03  0.00000000000E+00 0. -1.
         21   -1    0    0  501  502  0.00000000000E+00 -0.00000000000E+00 -0.10915999457E+03  0.10915999457E+03  0.00000000000E+00 0. -1.
         23    2    1    2    0    0 -0.27275685016E+02 -0.47159543431E+02  0.17513375728E+03  0.20551824820E+03  0.92725033687E+02 0.  0.
        -24    2    1    2    0    0  0.43395326102E+02  0.20465667824E+02 -0.54742446502E+02  0.10747341028E+03  0.79068328563E+02 0.  0.
         13    1    4    4    0    0  0.31340876239E+02 -0.24580016621E+02 -0.44517708077E+02  0.59734864803E+02  0.00000000000E+00 0. -1.
        -14    1    4    4    0    0  0.12054449862E+02  0.45045684445E+02 -0.10224738424E+02  0.47738545479E+02  0.00000000000E+00 0.  1.
        -11    1    3    3    0    0 -0.29678426059E+02 -0.70171085607E+02  0.16173483742E+03  0.17878184434E+03  0.00000000000E+00 0. -1.
         11    1    3    3    0    0  0.24027410430E+01  0.23011542176E+02  0.13398919857E+02  0.26736403856E+02  0.00000000000E+00 0.  1.
          2    1    1    2  501    0 -0.16119641086E+02  0.26693875607E+02  0.60441330023E+01  0.31763774452E+02  0.00000000000E+00 0. -1.
<scales pt_clust_5="13000.00000" pt_clust_6="13000.00000" pt_clust_7="13000.00000" pt_clust_8="13000.00000" pt_clust_9="31.18342"></scales>
<clustering>
<clus scale="   31.183">  2  9  1 -1</clus>
<clus scale="   79.068">  5  6 -1 -1</clus>
<clus scale="   92.725">  7  8 -1 -1</clus>
<clus scale="   94.792">  2  5  1 -1</clus>
<clus scale="   31.183">  2  5  1 -1</clus>
</clustering>
</event>
<event>
 9    1  0.6014990E-005  0.1086847E+03  0.7546771E-02  0.1264316E+00
          3   -1    0    0  502    0 -0.00000000000E+00  0.00000000000E+00  0.28733057940E+02  0.28733057940E+02  0.00000000000E+00 0. -1.
         21   -1    0    0  501  502  0.00000000000E+00 -0.00000000000E+00 -0.64963121816E+03  0.64963121816E+03  0.00000000000E+00 0. -1.
        -24    2    1    2    0    0  0.54818172447E+01  0.80540158564E+02 -0.21530468411E+03  0.24525146264E+03  0.85295987390E+02 0.  0.
         23    2    1    2    0    0  0.24416200964E+02 -0.42587234718E+02 -0.23742858190E+03  0.25814496623E+03  0.88637851141E+02 0.  0.
         11    1    3    3    0    0 -0.40893742607E+00  0.36695567072E+02 -0.14217616672E+02  0.39355717455E+02  0.00000000000E+00 0. -1.
        -12    1    3    3    0    0  0.58907546708E+01  0.43844591492E+02 -0.20108706744E+03  0.20589574519E+03  0.00000000000E+00 0.  1.
        -11    1    4    4    0    0 -0.39316333289E+01 -0.57335408227E+02 -0.20383091045E+03  0.21177782422E+03  0.00000000000E+00 0. -1.
         11    1    4    4    0    0  0.28347834293E+02  0.14748173509E+02 -0.33597671452E+02  0.46367142007E+02  0.00000000000E+00 0.  1.
          4    1    1    2  501    0 -0.29898018208E+02 -0.37952923846E+02 -0.16816489421E+03  0.17496784723E+03  0.00000000000E+00 0. -1.
<scales pt_clust_5="13000.00000" pt_clust_6="13000.00000" pt_clust_7="13000.00000" pt_clust_8="13000.00000" pt_clust_9="48.31476"></scales>
<clustering>
<clus scale="   48.315">  2  9  1 -1</clus>
<clus scale="   85.296">  5  6 -1 -1</clus>
<clus scale="   88.638">  7  8 -1 -1</clus>
<clus scale="  105.977">  1  5  2 -1</clus>
<clus scale="   48.315">  2  5  1 -1</clus>
</clustering>
</event>
<event>
 9    1  0.6014990E-005  0.1839030E+03  0.7546771E-02  0.1165001E+00
          1   -1    0    0  502    0 -0.00000000000E+00  0.00000000000E+00  0.13499878864E+03  0.13499878864E+03  0.00000000000E+00 0. -1.
         21   -1    0    0  501  502  0.00000000000E+00 -0.00000000000E+00 -0.43926896187E+03  0.43926896187E+03  0.00000000000E+00 0.  1.
         23    2    1    2    0    0 -0.15507303601E+03  0.82321412839E+02 -0.80790985703E+02  0.21250685209E+03  0.88360156764E+02 0.  0.
        -24    2    1    2    0    0  0.16006121825E+03  0.16421183701E+02 -0.10760308677E+03  0.20943804046E+03  0.79978870002E+02 0.  0.
         11    1    4    4    0    0  0.13190663838E+03  0.53007650018E+01 -0.44262861540E+02  0.13923598769E+03  0.00000000000E+00 0. -1.
        -12    1    4    4    0    0  0.28154579870E+02  0.11120418699E+02 -0.63340225232E+02  0.70202052763E+02  0.00000000000E+00 0.  1.
        -13    1    3    3    0    0 -0.73553356103E+02  0.55208548773E+02  0.36576387986E+01  0.92040525711E+02  0.00000000000E+00 0.  1.
         13    1    3    3    0    0 -0.81519679910E+02  0.27112864067E+02 -0.84448624501E+02  0.12046632638E+03  0.00000000000E+00 0. -1.
          2    1    1    2  501    0 -0.49881822323E+01 -0.98742596540E+02 -0.11587610075E+03  0.15232285797E+03  0.00000000000E+00 0. -1.
<scales pt_clust_5="13000.00000" pt_clust_6="13000.00000" pt_clust_7="13000.00000" pt_clust_8="13000.00000" pt_clust_9="98.86851"></scales>
<clustering>
<clus scale="   79.979">  5  6 -1 -1</clus>
<clus scale="   88.360">  7  8 -1 -1</clus>
<clus scale="   98.869">  2  9  1 -1</clus>
<clus scale="  180.026">  2  5  1 -1</clus>
<clus scale="   98.869">  2  5  1 -1</clus>
</clustering>
</event>
<event>
 9    1  0.6014990E-005  0.1444081E+03  0.7546771E-02  0.1228110E+00
          1   -1    0    0  502    0 -0.00000000000E+00  0.00000000000E+00  0.52566749234E+03  0.52566749234E+03  0.00000000000E+00 0. -1.
         21   -1    0    0  501  502  0.00000000000E+00 -0.00000000000E+00 -0.70359009546E+02  0.70359009546E+02  0.00000000000E+00 0. -1.
        -24    2    1    2    0    0  0.45390361144E+02  0.12802154734E+02  0.44689398045E+02  0.10368938273E+03  0.80809440929E+02 0.  0.
         23    2    1    2    0    0 -0.13119204735E+03  0.42509093211E+02  0.29437397839E+03  0.33763033760E+03  0.91213098953E+02 0.  0.
         13    1    3    3    0    0  0.66408880695E+02  0.32141662280E+01  0.19017234279E+02  0.69152913889E+02  0.00000000000E+00 0. -1.
        -14    1    3    3    0    0 -0.21018519552E+02  0.95879885061E+01  0.25672163766E+02  0.34536468844E+02  0.00000000000E+00 0.  1.
        -13    1    4    4    0    0 -0.59030403318E+02  0.20869831679E+02  0.44945310651E+02  0.77072818424E+02  0.00000000000E+00 0. -1.
         13    1    4    4    0    0 -0.72161644035E+02  0.21639261532E+02  0.24942866774E+03  0.26055751918E+03  0.00000000000E+00 0.  1.
          2    1    1    2  501    0  0.85801686210E+02 -0.55311247945E+02  0.11624510635E+03  0.15470678155E+03  0.00000000000E+00 0. -1.
<scales pt_clust_5="13000.00000" pt_clust_6="13000.00000" pt_clust_7="13000.00000" pt_clust_8="13000.00000" pt_clust_9="111.95479"></scales>
<clustering>
<clus scale="   80.809">  5  6 -1 -1</clus>
<clus scale="   91.213">  7  8 -1 -1</clus>
<clus scale="   93.565">  1  5  2 -1</clus>
<clus scale="  111.955">  2  9  1 -1</clus>
<clus scale="  111.955">  2  5  1 -1</clus>
</clustering>
</event>
<event>
 9    1  0.6014990E-005  0.1540623E+03  0.7546771E-02  0.1219668E+00
          3   -1    0    0  502    0 -0.00000000000E+00  0.00000000000E+00  0.12121237602E+03  0.12121237602E+03  0.00000000000E+00 0. -1.
         21   -1    0    0  501  502  0.00000000000E+00 -0.00000000000E+00 -0.30901722087E+03  0.30901722087E+03  0.00000000000E+00 0. -1.
         23    2    1    2    0    0  0.13528943305E+02 -0.13601727622E+02 -0.86054284837E+02  0.12589520031E+03  0.89867804140E+02 0.  0.
        -24    2    1    2    0    0 -0.55490615106E+02 -0.11282469197E+03 -0.72954630370E+02  0.16804930189E+03  0.84318267829E+02 0.  0.
         11    1    4    4    0    0 -0.36010612204E+02 -0.92465107788E+02 -0.10812553247E+02  0.99817191191E+02  0.00000000000E+00 0. -1.
        -12    1    4    4    0    0 -0.19480002902E+02 -0.20359584184E+02 -0.62142077123E+02  0.68232110698E+02  0.00000000000E+00 0.  1.
        -11    1    3    3    0    0 -0.38671971278E+02 -0.63003601100E+01 -0.36307197659E+02  0.53417492471E+02  0.00000000000E+00 0.  1.
         11    1    3    3    0    0  0.52200914583E+02 -0.73013675119E+01 -0.49747087178E+02  0.72477707839E+02  0.00000000000E+00 0. -1.
          4    1    1    2  501    0  0.41961671801E+02  0.12642641959E+03 -0.28795929639E+02  0.13628509469E+03  0.00000000000E+00 0. -1.
<scales pt_clust_5="13000.00000" pt_clust_6="13000.00000" pt_clust_7="13000.00000" pt_clust_8="13000.00000" pt_clust_9="128.94050"></scales>
<clustering>
<clus scale="   84.318">  5  6 -1 -1</clus>
<clus scale="   89.868">  7  8 -1 -1</clus>
<clus scale="   91.893">  1  7  2 -1</clus>
<clus scale="  128.941">  2  9  1 -1</clus>
<clus scale="  128.941">  2  5  1 -1</clus>
</clustering>
</event>
<event>
 9    1  0.6014990E-005  0.9999575E+02  0.7546771E-02  0.1288589E+00
         21   -1    0    0  501  502  0.00000000000E+00  0.00000000000E+00  0.63444907051E+02  0.63444907051E+02  0.00000000000E+00 0. -1.
          1   -1    0    0  502    0 -0.00000000000E+00 -0.00000000000E+00 -0.21378460698E+03  0.21378460698E+03  0.00000000000E+00 0. -1.
         23    2    1    2    0    0 -0.28298087270E+02 -0.15670946559E+02 -0.13689915364E+03  0.17074350580E+03  0.96776062104E+02 0.  0.
        -24    2    1    2    0    0  0.11485353927E+02  0.13849994234E+01 -0.16637735229E+02  0.84192997998E+02  0.81717899509E+02 0.  0.
         11    1    4    4    0    0 -0.29592988112E+02 -0.82777899061E+01  0.12220401562E+02  0.33069698600E+02  0.00000000000E+00 0. -1.
        -12    1    4    4    0    0  0.41078342039E+02  0.96627893296E+01 -0.28858136791E+02  0.51123299399E+02  0.00000000000E+00 0.  1.
        -13    1    3    3    0    0  0.29990431062E+01  0.24376562342E+02 -0.11102730008E+03  0.11371135570E+03  0.00000000000E+00 0.  1.
         13    1    3    3    0    0 -0.31297130376E+02 -0.40047508900E+02 -0.25871853562E+02  0.57032150105E+02  0.00000000000E+00 0. -1.
          2    1    1    2  501    0  0.16812733342E+02  0.14285947135E+02  0.31971889437E+01  0.22293010230E+02  0.00000000000E+00 0. -1.
<scales pt_clust_5="13000.00000" pt_clust_6="13000.00000" pt_clust_7="13000.00000" pt_clust_8="13000.00000" pt_clust_9="22.06255"></scales>
<clustering>
<clus scale="   22.063">  1  9  2 -1</clus>
<clus scale="   81.718">  5  6 -1 -1</clus>
<clus scale="   85.506">  1  5  2 -1</clus>
<clus scale="   96.776">  7  8 -1 -1</clus>
<clus scale="   22.063">  1  5  2 -1</clus>
</clustering>
</event>
<event>
 9    1  0.6014990E-005  0.1132397E+03  0.7546771E-02  0.1258961E+00
         -4   -1    0    0    0  501 -0.00000000000E+00  0.00000000000E+00  0.33779757545E+03  0.33779757545E+03  0.00000000000E+00 0.  1.
         21   -1    0    0  501  502  0.00000000000E+00 -0.00000000000E+00 -0.31871622297E+03  0.31871622297E+03  0.00000000000E+00 0. -1.
        -24    2    1    2    0    0  0.66013501931E+02  0.58929410427E+01  0.31513904175E+03  0.33204775723E+03  0.80935704455E+02 0.  0.
         23    2    1    2    0    0 -0.41657741769E+02 -0.18503719387E+02 -0.20629110366E+03  0.23060297775E+03  0.92433537298E+02 0.  0.
         11    1    3    3    0    0  0.11914318274E+02  0.32472247364E+02  0.54653061761E+02  0.64678860446E+02  0.00000000000E+00 0. -1.
        -12    1    3    3    0    0  0.54099183657E+02 -0.26579306321E+02  0.26048597999E+03  0.26736889679E+03  0.00000000000E+00 0.  1.
        -11    1    4    4    0    0  0.22569118680E+02 -0.13923747606E+02 -0.19194350882E+02  0.32736202760E+02  0.00000000000E+00 0.  1.
         11    1    4    4    0    0 -0.64226860449E+02 -0.45799717806E+01 -0.18709675278E+03  0.19786677499E+03  0.00000000000E+00 0. -1.
         -3    1    1    2    0  502 -0.24355760162E+02  0.12610778344E+02 -0.89766585617E+02  0.93863063432E+02  0.00000000000E+00 0.  1.
<scales pt_clust_5="13000.00000" pt_clust_6="13000.00000" pt_clust_7="13000.00000" pt_clust_8="13000.00000" pt_clust_9="27.42690"></scales>
<clustering>
<clus scale="   27.427">  2  9  1 -1</clus>
<clus scale="   80.936">  5  6 -1 -1</clus>
<clus scale="   92.434">  7  8 -1 -1</clus>
<clus scale="  104.067">  1  5  2 -1</clus>
<clus scale="   27.427">  2  5  1 -1</clus>
</clustering>
</event>
<event>
 9    1  0.6014990E-005  0.1099019E+03  0.7546771E-02  0.1261628E+00
         -2   -1    0    0    0  501 -0.00000000000E+00  0.00000000000E+00  0.59518523588E+03  0.59518523588E+03  0.00000000000E+00 0.  1.
         21   -1    0    0  501  502  0.00000000000E+00 -0.00000000000E+00 -0.51728177382E+02  0.51728177382E+02  0.00000000000E+00 0.  1.
         23    2    1    2    0    0  0.42593817698E+02 -0.33762841797E+02  0.13916643396E+03  0.17561448104E+03  0.92298357606E+02 0.  0.
        -24    2    1    2    0    0 -0.82598759927E+02 -0.14845853467E+02  0.94535420398E+02  0.15521114829E+03  0.90058871512E+02 0.  0.
         13    1    4    4    0    0  0.36877041843E+01 -0.21976936462E+02 -0.54580405785E+01  0.22942866111E+02  0.00000000000E+00 0. -1.
        -14    1    4    4    0    0 -0.86286464111E+02  0.71310829954E+01  0.99993460977E+02  0.13226828218E+03  0.00000000000E+00 0.  1.
        -13    1    3    3    0    0  0.48999668726E+02 -0.60506063400E+02  0.11573111236E+03  0.13948348150E+03  0.00000000000E+00 0.  1.
         13    1    3    3    0    0 -0.64058510283E+01  0.26743221603E+02  0.23435321601E+02  0.36130999538E+02  0.00000000000E+00 0. -1.
         -1    1    1    2    0  502  0.40004942229E+02  0.48608695264E+02  0.30975520414E+03  0.31608778393E+03  0.00000000000E+00 0.  1.
<scales pt_clust_5="13000.00000" pt_clust_6="13000.00000" pt_clust_7="13000.00000" pt_clust_8="13000.00000" pt_clust_9="62.95399"></scales>
<clustering>
<clus scale="   62.954">  2  9  1 -1</clus>
<clus scale="   90.059">  5  6 -1 -1</clus>
<clus scale="   92.298">  7  8 -1 -1</clus>
<clus scale="  108.028">  2  5  1 -1</clus>
<clus scale="   62.954">  2  5  1 -1</clus>
</clustering>
</event>
<event>
 9    1  0.6014990E-005  0.9907262E+02  0.7546771E-02  0.1288522E+00
         21   -1    0    0  501  502  0.00000000000E+00  0.00000000000E+00  0.31076441906E+02  0.31076441906E+02  0.00000000000E+00 0. -1.
         -2   -1    0    0    0  501 -0.00000000000E+00 -0.00000000000E+00 -0.55272575613E+03  0.55272575613E+03  0.00000000000E+00 0.  1.
        -24    2    1    2    0    0 -0.23123321225E+02 -0.25831931811E+02 -0.29238616337E+03  0.30510113202E+03  0.79969091171E+02 0.  0.
         23    2    1    2    0    0 -0.14534049039E+02  0.57080149971E+02 -0.16620390908E+03  0.19888254282E+03  0.91984478801E+02 0.  0.
         13    1    3    3    0    0 -0.46633972625E+02  0.29199519784E+00 -0.11196660264E+03  0.12129028309E+03  0.00000000000E+00 0. -1.
        -14    1    3    3    0    0  0.23510651400E+02 -0.26123927009E+02 -0.18041956073E+03  0.18381084893E+03  0.00000000000E+00 0.  1.
        -13    1    4    4    0    0 -0.27743749574E+02  0.74927125934E+02 -0.94138390245E+02  0.12347399062E+03  0.00000000000E+00 0. -1.
         13    1    4    4    0    0  0.13209700535E+02 -0.17846975963E+02 -0.72065518838E+02  0.75408552198E+02  0.00000000000E+00 0.  1.
         -1    1    1    2    0  502  0.37657370264E+02 -0.31248218159E+02 -0.63059241769E+02  0.79818523200E+02  0.00000000000E+00 0.  1.
<scales pt_clust_5="13000.00000" pt_clust_6="13000.00000" pt_clust_7="13000.00000" pt_clust_8="13000.00000" pt_clust_9="48.93392"></scales>
<clustering>
<clus scale="   48.934">  1  9  2 -1</clus>
<clus scale="   79.969">  5  6 -1 -1</clus>
<clus scale="   88.030">  2  5  1 -1</clus>
<clus scale="   91.984">  7  8 -1 -1</clus>
<clus scale="   48.934">  1  5  2 -1</clus>
</clustering>
</event>
<event>
 9    1  0.6014990E-005  0.9419642E+02  0.7546771E-02  0.1299521E+00
         21   -1    0    0  501  502  0.00000000000E+00  0.00000000000E+00  0.84044574887E+02  0.84044574887E+02  0.00000000000E+00 0. -1.
         -2   -1    0    0    0  501 -0.00000000000E+00 -0.00000000000E+00 -0.41831276454E+03  0.41831276454E+03  0.00000000000E+00 0.  1.
        -24    2    1    2    0    0 -0.86120158857E+00  0.23582582859E+02 -0.35246605889E+03  0.36204368463E+03  0.79286991538E+02 0.  0.
         23    2    1    2    0    0  0.87254225830E+01 -0.53040814266E+02  0.94483471128E+00  0.10528080493E+03  0.90519026715E+02 0.  0.
         11    1    3    3    0    0  0.21202398264E+02 -0.19904347843E+02 -0.77285229615E+02  0.82575610636E+02  0.00000000000E+00 0. -1.
        -12    1    3    3    0    0 -0.22063599853E+02  0.43486930703E+02 -0.27518082928E+03  0.27946807399E+03  0.00000000000E+00 0.  1.
        -13    1    4    4    0    0  0.22550237892E+02  0.31330250033E+00 -0.33428448324E+02  0.40324589828E+02  0.00000000000E+00 0.  1.
         13    1    4    4    0    0 -0.13824815309E+02 -0.53354116766E+02  0.34373283035E+02  0.64956215105E+02  0.00000000000E+00 0. -1.
         -1    1    1    2    0  502 -0.78642209945E+01  0.29458231406E+02  0.17253034525E+02  0.35032849866E+02  0.00000000000E+00 0.  1.
<scales pt_clust_5="13000.00000" pt_clust_6="13000.00000" pt_clust_7="13000.00000" pt_clust_8="13000.00000" pt_clust_9="30.48989"></scales>
<clustering>
<clus scale="   30.490">  1  9  2 -1</clus>
<clus scale="   79.287">  5  6 -1 -1</clus>
<clus scale="   83.461">  2  5  1 -1</clus>
<clus scale="   90.519">  7  8 -1 -1</clus>
<clus scale="   30.490">  1  5  2 -1</clus>
</clustering>
</event>
<event>
 9    1  0.6014990E-005  0.1192373E+03  0.7546771E-02  0.1247112E+00
         21   -1    0    0  501  502  0.00000000000E+00  0.00000000000E+00  0.66578038546E+02  0.66578038546E+02  0.00000000000E+00 0. -1.
         -4   -1    0    0    0  501 -0.00000000000E+00 -0.00000000000E+00 -0.59561222633E+03  0.59561222633E+03  0.00000000000E+00 0.  1.
        -24    2    1    2    0    0 -0.11140896770E+02 -0.70661914335E+02 -0.43821895306E+03  0.45162676446E+03  0.82544883766E+02 0.  0.
         23    2    1    2    0    0  0.10086255654E+01  0.10693602184E+03 -0.99185194941E+02  0.17198202781E+03  0.91125105780E+02 0.  0.
         13    1    3    3    0    0 -0.12655231124E+02 -0.17385379968E+02 -0.18004692497E+02  0.28045949143E+02  0.00000000000E+00 0. -1.
        -14    1    3    3    0    0  0.15143343539E+01 -0.53276534367E+02 -0.42021426056E+03  0.42358081531E+03  0.00000000000E+00 0.  1.
        -11    1    4    4    0    0  0.45637490034E+02  0.54596444739E+02 -0.58078686693E+02  0.91851435060E+02  0.00000000000E+00 0. -1.
         11    1    4    4    0    0 -0.44628864469E+02  0.52339577097E+02 -0.41106508248E+02  0.80130592752E+02  0.00000000000E+00 0.  1.
         -3    1    1    2    0  502  0.10132271205E+02 -0.36274107501E+02  0.83699602128E+01  0.38581472609E+02  0.00000000000E+00 0.  1.
<scales pt_clust_5="13000.00000" pt_clust_6="13000.00000" pt_clust_7="13000.00000" pt_clust_8="13000.00000" pt_clust_9="37.66263"></scales>
<clustering>
<clus scale="   37.663">  1  9  2 -1</clus>
<clus scale="   82.545">  5  6 -1 -1</clus>
<clus scale="   91.125">  7  8 -1 -1</clus>
<clus scale="  112.816">  2  5  1 -1</clus>
<clus scale="   37.663">  1  5  2 -1</clus>
</clustering>
</event>
<event>
 9    1  0.6014990E-005  0.2291431E+03  0.7546771E-02  0.1149604E+00
         21   -1    0    0  501  502  0.00000000000E+00  0.00000000000E+00  0.76699708014E+03  0.76699708014E+03  0.00000000000E+00 0. -1.
          3   -1    0    0  502    0 -0.00000000000E+00 -0.00000000000E+00 -0.11949447733E+03  0.11949447733E+03  0.00000000000E+00 0. -1.
        -24    2    1    2    0    0 -0.10417520967E+03 -0.14125045406E+02  0.14180238676E+03  0.19469621579E+03  0.82138348752E+02 0.  0.
         23    2    1    2    0    0  0.97199981362E+02 -0.19830345412E+03  0.36972473479E+03  0.43947837291E+03  0.87594317480E+02 0.  0.
         11    1    3    3    0    0 -0.89923467271E+02 -0.35909228643E+02  0.73389115664E+02  0.12149759243E+03  0.00000000000E+00 0. -1.
        -12    1    3    3    0    0 -0.14251742401E+02  0.21784183237E+02  0.68413271094E+02  0.73198623365E+02  0.00000000000E+00 0.  1.
        -11    1    4    4    0    0  0.10198083087E+03 -0.16823012199E+03  0.35451326659E+03  0.40543941594E+03  0.00000000000E+00 0. -1.
         11    1    4    4    0    0 -0.47808495057E+01 -0.30073332123E+02  0.15211468192E+02  0.34038956969E+02  0.00000000000E+00 0.  1.
          4    1    1    2  501    0  0.69752283093E+01  0.21242849952E+03  0.13597548127E+03  0.25231696876E+03  0.00000000000E+00 0. -1.
<scales pt_clust_5="13000.00000" pt_clust_6="13000.00000" pt_clust_7="13000.00000" pt_clust_8="13000.00000" pt_clust_9="211.74002"></scales>
<clustering>
<clus scale="   82.138">  5  6 -1 -1</clus>
<clus scale="   87.594">  7  8 -1 -1</clus>
<clus scale="  133.412">  2  5  1 -1</clus>
<clus scale="  211.740">  1  9  2 -1</clus>
<clus scale="  211.740">  1  5  2 -1</clus>
</clustering>
</event>
<event>
 9    1  0.6014990E-005  0.9540692E+02  0.7546771E-02  0.1294894E+00
         21   -1    0    0  501  502  0.00000000000E+00  0.00000000000E+00  0.65472774016E+02  0.65472774016E+02  0.00000000000E+00 0.  1.
         -2   -1    0    0    0  501 -0.00000000000E+00 -0.00000000000E+00 -0.48060866601E+03  0.48060866601E+03  0.00000000000E+00 0.  1.
        -24    2    1    2    0    0  0.24711852363E+02 -0.88623350916E+01 -0.36805695662E+03  0.37864388925E+03  0.84947365583E+02 0.  0.
         23    2    1    2    0    0  0.17371416980E+02  0.24711746126E+02 -0.66659006780E+02  0.11839079160E+03  0.93061913938E+02 0.  0.
         11    1    3    3    0    0 -0.27783384021E+01 -0.38123887899E+02 -0.91138199661E+02  0.98829759841E+02  0.00000000000E+00 0. -1.
        -12    1    3    3    0    0  0.27490190765E+02  0.29261552808E+02 -0.27691875696E+03  0.27981412941E+03  0.00000000000E+00 0.  1.
        -11    1    4    4    0    0  0.54826698453E+02  0.16899427981E+02 -0.51956695434E+02  0.77401910375E+02  0.00000000000E+00 0.  1.
         11    1    4    4    0    0 -0.37455281472E+02  0.78123181441E+01 -0.14702311346E+02  0.40988881223E+02  0.00000000000E+00 0. -1.
         -1    1    1    2    0  502 -0.42083269343E+02 -0.15849411034E+02  0.19580071412E+02  0.49046759172E+02  0.00000000000E+00 0.  1.
<scales pt_clust_5="13000.00000" pt_clust_6="13000.00000" pt_clust_7="13000.00000" pt_clust_8="13000.00000" pt_clust_9="44.96894"></scales>
<clustering>
<clus scale="   44.969">  1  9  2 -1</clus>
<clus scale="   84.947">  5  6 -1 -1</clus>
<clus scale="   87.510">  2  5  1 -1</clus>
<clus scale="   93.062">  7  8 -1 -1</clus>
<clus scale="   44.969">  1  5  2 -1</clus>
</clustering>
</event>
<event>
 9    1  0.6014990E-005  0.9282049E+02  0.7546771E-02  0.1307980E+00
         -2   -1    0    0    0  501 -0.00000000000E+00  0.00000000000E+00  0.22007052030E+03  0.22007052030E+03  0.00000000000E+00 0.  1.
         21   -1    0    0  501  502  0.00000000000E+00 -0.00000000000E+00 -0.10596275683E+03  0.10596275683E+03  0.00000000000E+00 0.  1.
        -24    2    1    2    0    0 -0.21685158474E+02  0.64899107393E+01  0.16394099584E+03  0.18059068669E+03  0.72277112286E+02 0.  0.
         23    2    1    2    0    0 -0.63035153554E+01  0.25034895859E+02 -0.35091349358E+02  0.10078273813E+03  0.90880565515E+02 0.  0.
         13    1    3    3    0    0  0.25974990342E+02  0.40037292562E+01  0.77707803054E+02  0.82031900056E+02  0.00000000000E+00 0. -1.
        -14    1    3    3    0    0 -0.47660148816E+02  0.24861814831E+01  0.86233192789E+02  0.98558786631E+02  0.00000000000E+00 0.  1.
        -11    1    4    4    0    0 -0.47862899262E+02  0.12541031130E+02 -0.27873975467E+02  0.56789903116E+02  0.00000000000E+00 0.  1.
         11    1    4    4    0    0  0.41559383907E+02  0.12493864729E+02 -0.72173738914E+01  0.43992835013E+02  0.00000000000E+00 0. -1.
         -1    1    1    2    0  502  0.27988673829E+02 -0.31524806598E+02 -0.14741883017E+02  0.44659852313E+02  0.00000000000E+00 0.  1.
<scales pt_clust_5="13000.00000" pt_clust_6="13000.00000" pt_clust_7="13000.00000" pt_clust_8="13000.00000" pt_clust_9="42.15660"></scales>
<clustering>
<clus scale="   42.157">  2  9  1 -1</clus>
<clus scale="   72.277">  5  6 -1 -1</clus>
<clus scale="   74.702">  1  5  2 -1</clus>
<clus scale="   90.881">  7  8 -1 -1</clus>
<clus scale="   42.157">  2  5  1 -1</clus>
</clustering>
</event>
<event>
 9    1  0.6014990E-005  0.1320108E+03  0.7546771E-02  0.1240016E+00
         21   -1    0    0  501  502  0.00000000000E+00  0.00000000000E+00  0.46677837990E+03  0.46677837990E+03  0.00000000000E+00 0. -1.
          1   -1    0    0  502    0 -0.00000000000E+00 -0.00000000000E+00 -0.75159140254E+02  0.75159140254E+02  0.00000000000E+00 0. -1.
         23    2    1    2    0    0  0.18394188431E+02 -0.14011028745E+02  0.21169227134E+02  0.98248415957E+02  0.93112619800E+02 0.  0.
        -24    2    1    2    0    0  0.32032905314E+02  0.10386264378E+03  0.25938116232E+03  0.29218829895E+03  0.79258178624E+02 0.  0.
         11    1    4    4    0    0 -0.48383080246E+01  0.76356036952E+02  0.21524374068E+03  0.22843712812E+03  0.00000000000E+00 0. -1.
        -12    1    4    4    0    0  0.36871213339E+02  0.27506606830E+02  0.44137421643E+02  0.63751170826E+02  0.00000000000E+00 0.  1.
        -13    1    3    3    0    0  0.47421518051E+02 -0.33021319655E+02  0.25722978986E+02  0.63252506463E+02  0.00000000000E+00 0.  1.
         13    1    3    3    0    0 -0.29027329620E+02  0.19010290910E+02 -0.45537518518E+01  0.34995909493E+02  0.00000000000E+00 0. -1.
          2    1    1    2  501    0 -0.50427093745E+02 -0.89851615037E+02  0.11106885019E+03  0.15150080525E+03  0.00000000000E+00 0. -1.
<scales pt_clust_5="13000.00000" pt_clust_6="13000.00000" pt_clust_7="13000.00000" pt_clust_8="13000.00000" pt_clust_9="105.56990"></scales>
<clustering>
<clus scale="   79.258">  5  6 -1 -1</clus>
<clus scale="   93.113">  7  8 -1 -1</clus>
<clus scale="   95.941">  2  7  1 -1</clus>
<clus scale="  105.570">  1  9  2 -1</clus>
<clus scale="  105.570">  1  5  2 -1</clus>
</clustering>
</event>
<event>
 9    1  0.6014990E-005  0.9263476E+02  0.7546771E-02  0.1304125E+00
          3   -1    0    0  502    0 -0.00000000000E+00  0.00000000000E+00  0.35097825756E+02  0.35097825756E+02  0.00000000000E+00 0. -1.
         21   -1    0    0  501  502  0.00000000000E+00 -0.00000000000E+00 -0.78057763602E+03  0.78057763602E+03  0.00000000000E+00 0. -1.
        -24    2    1    2    0    0  0.34245384992E+01  0.14109823479E+02 -0.55803437528E+02  0.99097606322E+02  0.80594648434E+02 0.  0.
         23    2    1    2    0    0  0.17902234639E+01  0.63507170246E+02 -0.32999437699E+03  0.34857958165E+03  0.92601675617E+02 0.  0.
         13    1    3    3    0    0  0.32952550201E+02  0.26826325132E+02 -0.51333973209E+02  0.66638570590E+02  0.00000000000E+00 0. -1.
        -14    1    3    3    0    0 -0.29528011702E+02 -0.12716501653E+02 -0.44694643195E+01  0.32459035732E+02  0.00000000000E+00 0.  1.
        -13    1    4    4    0    0 -0.75559213588E+01 -0.23552042696E+02 -0.74287015226E+02  0.78296559911E+02  0.00000000000E+00 0.  1.
         13    1    4    4    0    0  0.93461448227E+01  0.87059212942E+02 -0.25570736176E+03  0.27028302174E+03  0.00000000000E+00 0. -1.
          4    1    1    2  501    0 -0.52147619632E+01 -0.77616993725E+02 -0.35968199575E+03  0.36799827380E+03  0.00000000000E+00 0. -1.
<scales pt_clust_5="13000.00000" pt_clust_6="13000.00000" pt_clust_7="13000.00000" pt_clust_8="13000.00000" pt_clust_9="77.79198"></scales>
<clustering>
<clus scale="   77.792">  2  9  1 -1</clus>
<clus scale="   80.595">  5  6 -1 -1</clus>
<clus scale="   80.633">  1  5  2 -1</clus>
<clus scale="   92.602">  7  8 -1 -1</clus>
<clus scale="   77.792">  2  5  1 -1</clus>
</clustering>
</event>
<event>
 9    1  0.6014990E-005  0.1100865E+03  0.7546771E-02  0.1263071E+00
         21   -1    0    0  501  502  0.00000000000E+00  0.00000000000E+00  0.25462513707E+02  0.25462513707E+02  0.00000000000E+00 0. -1.
          1   -1    0    0  502    0 -0.00000000000E+00 -0.00000000000E+00 -0.10763543922E+04  0.10763543922E+04  0.00000000000E+00 0. -1.
        -24    2    1    2    0    0  0.33028192872E+02  0.73338257375E+02 -0.57477341070E+03  0.58610533608E+03  0.81765700692E+02 0.  0.
         23    2    1    2    0    0  0.28642418133E+02 -0.33548399469E+02 -0.13928436742E+03  0.17097441166E+03  0.88804454899E+02 0.  0.
         13    1    3    3    0    0  0.58919618578E+02  0.49561586734E+02 -0.44711022174E+03  0.45369088896E+03  0.00000000000E+00 0. -1.
        -14    1    3    3    0    0 -0.25891425706E+02  0.23776670641E+02 -0.12766318896E+03  0.13241444712E+03  0.00000000000E+00 0.  1.
        -13    1    4    4    0    0  0.13812844831E+02  0.30319062495E+02 -0.53051682238E+02  0.62645999243E+02  0.00000000000E+00 0.  1.
         13    1    4    4    0    0  0.14829573302E+02 -0.63867461964E+02 -0.86232685182E+02  0.10832841241E+03  0.00000000000E+00 0. -1.
          2    1    1    2  501    0 -0.61670611005E+02 -0.39789857906E+02 -0.33683410041E+03  0.34473715822E+03  0.00000000000E+00 0. -1.
<scales pt_clust_5="13000.00000" pt_clust_6="13000.00000" pt_clust_7="13000.00000" pt_clust_8="13000.00000" pt_clust_9="73.39280"></scales>
<clustering>
<clus scale="   73.393">  1  9  2 -1</clus>
<clus scale="   81.766">  5  6 -1 -1</clus>
<clus scale="   88.804">  7  8 -1 -1</clus>
<clus scale="  104.491">  2  5  1 -1</clus>
<clus scale="   73.393">  1  5  2 -1</clus>
</clustering>
</event>
<event>
 9    1  0.6014990E-005  0.9829147E+02  0.7546771E-02  0.1291020E+00
          1   -1    0    0  502    0 -0.00000000000E+00  0.00000000000E+00  0.30949245854E+03  0.30949245854E+03  0.00000000000E+00 0. -1.
         21   -1    0    0  501  502  0.00000000000E+00 -0.00000000000E+00 -0.15344892795E+03  0.15344892795E+03  0.00000000000E+00 0. -1.
         23    2    1    2    0    0  0.19690628331E+02 -0.25184823314E+02  0.13260119098E+03  0.16595815223E+03  0.94535899380E+02 0.  0.
        -24    2    1    2    0    0 -0.30504086973E+02 -0.46419776575E+02 -0.10833414670E+03  0.14661970159E+03  0.81705290970E+02 0.  0.
         11    1    4    4    0    0 -0.52681395000E+02 -0.50924298092E+02 -0.65985503871E+02  0.98603753663E+02  0.00000000000E+00 0. -1.
        -12    1    4    4    0    0  0.22177308027E+02  0.45045215172E+01 -0.42348642829E+02  0.48015947922E+02  0.00000000000E+00 0.  1.
        -13    1    3    3    0    0 -0.91300982480E+01 -0.22698595073E+02  0.13474773440E+03  0.13695085556E+03  0.00000000000E+00 0. -1.
         13    1    3    3    0    0  0.28820726579E+02 -0.24862282402E+01 -0.21465434174E+01  0.29007296669E+02  0.00000000000E+00 0.  1.
          2    1    1    2  501    0  0.10813458642E+02  0.71604599888E+02  0.13177648631E+03  0.15036353267E+03  0.00000000000E+00 0. -1.
<scales pt_clust_5="13000.00000" pt_clust_6="13000.00000" pt_clust_7="13000.00000" pt_clust_8="13000.00000" pt_clust_9="72.41654"></scales>
<clustering>
<clus scale="   72.417">  2  9  1 -1</clus>
<clus scale="   81.705">  5  6 -1 -1</clus>
<clus scale="   86.023">  2  5  1 -1</clus>
<clus scale="   94.536">  7  8 -1 -1</clus>
<clus scale="   72.417">  2  5  1 -1</clus>
</clustering>
</event>
<event>
 9    1  0.6014990E-005  0.1475705E+03  0.7546771E-02  0.1207470E+00
          3   -1    0    0  502    0 -0.00000000000E+00  0.00000000000E+00  0.23406541247E+03  0.23406541247E+03  0.00000000000E+00 0. -1.
         21   -1    0    0  501  502  0.00000000000E+00 -0.00000000000E+00 -0.25157644024E+03  0.25157644024E+03  0.00000000000E+00 0.  1.
        -24    2    1    2    0    0 -0.16212652911E+02 -0.10704170408E+03  0.93714946336E+02  0.16230358271E+03  0.76414561877E+02 0.  0.
         23    2    1    2    0    0 -0.18386492096E+02  0.13717536187E+03 -0.17615858738E+03  0.24383114810E+03  0.96263377661E+02 0.  0.
         13    1    3    3    0    0 -0.39616037013E+02 -0.98969880700E+02  0.67144768740E+02  0.12598764877E+03  0.00000000000E+00 0. -1.
        -14    1    3    3    0    0  0.23403384102E+02 -0.80718233787E+01  0.26570177596E+02  0.36315933935E+02  0.00000000000E+00 0.  1.
        -13    1    4    4    0    0 -0.42353315920E+00  0.11809505697E+03 -0.18202354580E+03  0.21697740225E+03  0.00000000000E+00 0.  1.
         13    1    4    4    0    0 -0.17962958937E+02  0.19080304906E+02  0.58649584185E+01  0.26853745852E+02  0.00000000000E+00 0. -1.
          4    1    1    2  501    0  0.34599145007E+02 -0.30133657795E+02  0.64932613274E+02  0.79507121907E+02  0.00000000000E+00 0. -1.
<scales pt_clust_5="13000.00000" pt_clust_6="13000.00000" pt_clust_7="13000.00000" pt_clust_8="13000.00000" pt_clust_9="45.88181"></scales>
<clustering>
<clus scale="   45.882">  2  9  1 -1</clus>
<clus scale="   76.415">  5  6 -1 -1</clus>
<clus scale="   96.263">  7  8 -1 -1</clus>
<clus scale="  135.461">  1  5  2 -1</clus>
<clus scale="   45.882">  2  5  1 -1</clus>
</clustering>
</event>
<event>
 9    1  0.6014990E-005  0.1678907E+03  0.7546771E-02  0.1181963E+00
         21   -1    0    0  501  502  0.00000000000E+00  0.00000000000E+00  0.14599246075E+03  0.14599246075E+03  0.00000000000E+00 0.  1.
          3   -1    0    0  502    0 -0.00000000000E+00 -0.00000000000E+00 -0.30171166411E+03  0.30171166411E+03  0.00000000000E+00 0. -1.
         23    2    1    2    0    0 -0.90740958820E+02 -0.10658089193E+03 -0.18588988568E+03  0.25029085787E+03  0.92179476032E+02 0.  0.
        -24    2    1    2    0    0  0.10821499626E+03  0.92680890884E+02  0.37498692405E+01  0.16282119597E+03  0.78717516394E+02 0.  0.
         13    1    4    4    0    0  0.10442007977E+03  0.52787694027E+02 -0.16089556424E+02  0.11810574722E+03  0.00000000000E+00 0. -1.
        -14    1    4    4    0    0  0.37949164924E+01  0.39893196857E+02  0.19839425664E+02  0.44715448755E+02  0.00000000000E+00 0.  1.
        -11    1    3    3    0    0  0.18018049170E+02 -0.17254762076E+02 -0.15827581472E+02  0.29544699109E+02  0.00000000000E+00 0.  1.
         11    1    3    3    0    0 -0.10875900799E+03 -0.89326129859E+02 -0.17006230421E+03  0.22074615876E+03  0.00000000000E+00 0. -1.
          4    1    1    2  501    0 -0.17474037440E+02  0.13900001051E+02  0.26420813082E+02  0.34592071022E+02  0.00000000000E+00 0. -1.
<scales pt_clust_5="13000.00000" pt_clust_6="13000.00000" pt_clust_7="13000.00000" pt_clust_8="13000.00000" pt_clust_9="22.32828"></scales>
<clustering>
<clus scale="   22.328">  1  9  2 -1</clus>
<clus scale="   78.718">  5  6 -1 -1</clus>
<clus scale="   92.179">  7  8 -1 -1</clus>
<clus scale="  160.893">  1  5  2 -1</clus>
<clus scale="   22.328">  1  5  2 -1</clus>
</clustering>
</event>
<event>
 9    1  0.6014990E-005  0.1926997E+03  0.7546771E-02  0.1157576E+00
          1   -1    0    0  502    0 -0.00000000000E+00  0.00000000000E+00  0.36764327891E+03  0.36764327891E+03  0.00000000000E+00 0. -1.
         21   -1    0    0  501  502  0.00000000000E+00 -0.00000000000E+00 -0.13488108079E+03  0.13488108079E+03  0.00000000000E+00 0.  1.
         23    2    1    2    0    0  0.15046051048E+03 -0.78261194792E+02  0.20656948122E+03  0.28238072008E+03  0.91130349920E+02 0.  0.
        -24    2    1    2    0    0 -0.13828189149E+03  0.10175804649E+03  0.76343622394E+01  0.18781975792E+03  0.75772003014E+02 0.  0.
         13    1    4    4    0    0 -0.65039733410E+02  0.39502918483E+01 -0.25095294412E+01  0.65207894198E+02  0.00000000000E+00 0. -1.
        -14    1    4    4    0    0 -0.73242158078E+02  0.97807754640E+02  0.10143891681E+02  0.12261186372E+03  0.00000000000E+00 0.  1.
        -11    1    3    3    0    0  0.12901373616E+03 -0.60523732071E+02  0.21057499604E+03  0.25426265006E+03  0.00000000000E+00 0. -1.
         11    1    3    3    0    0  0.21446774320E+02 -0.17737462721E+02 -0.40055148144E+01  0.28118070016E+02  0.00000000000E+00 0.  1.
          2    1    1    2  501    0 -0.12178618987E+02 -0.23496851696E+02  0.18558354665E+02  0.32323881697E+02  0.00000000000E+00 0. -1.
<scales pt_clust_5="13000.00000" pt_clust_6="13000.00000" pt_clust_7="13000.00000" pt_clust_8="13000.00000" pt_clust_9="26.46548"></scales>
<clustering>
<clus scale="   26.465">  2  9  1 -1</clus>
<clus scale="   75.772">  5  6 -1 -1</clus>
<clus scale="   91.130">  7  8 -1 -1</clus>
<clus scale="  185.930">  2  5  1 -1</clus>
<clus scale="   26.465">  2  5  1 -1</clus>
</clustering>
</event>
<event>
 9    1  0.6014990E-005  0.1831670E+03  0.7546771E-02  0.1165299E+00
          1   -1    0    0  502    0 -0.00000000000E+00  0.00000000000E+00  0.84996610630E+03  0.84996610630E+03  0.00000000000E+00 0. -1.
         21   -1    0    0  501  502  0.00000000000E+00 -0.00000000000E+00 -0.90419801509E+02  0.90419801509E+02  0.00000000000E+00 0. -1.
        -24    2    1    2    0    0  0.16052972352E+03 -0.21375521942E+02  0.69185409838E+03  0.71518030123E+03  0.81203846859E+02 0.  0.
         23    2    1    2    0    0 -0.17434176630E+03  0.37160609364E+02  0.61189430989E+02  0.20324592537E+03  0.76084146518E+02 0.  0.
         11    1    3    3    0    0  0.12160386040E+03 -0.12774473292E+02  0.62882401307E+03  0.64060153406E+03  0.00000000000E+00 0. -1.
        -12    1    3    3    0    0  0.38925863115E+02 -0.86010486498E+01  0.63030085316E+02  0.74578767167E+02  0.00000000000E+00 0.  1.
        -13    1    4    4    0    0 -0.23196783817E+02 -0.21550706620E+02  0.10594432648E+02  0.33388107740E+02  0.00000000000E+00 0.  1.
         13    1    4    4    0    0 -0.15114498248E+03  0.58711315984E+02  0.50594998341E+02  0.16985781763E+03  0.00000000000E+00 0. -1.
          2    1    1    2  501    0  0.13812042780E+02 -0.15785087423E+02  0.65027754208E+01  0.21959681211E+02  0.00000000000E+00 0. -1.
<scales pt_clust_5="13000.00000" pt_clust_6="13000.00000" pt_clust_7="13000.00000" pt_clust_8="13000.00000" pt_clust_9="20.97478"></scales>
<clustering>
<clus scale="   20.975">  2  9  1 -1</clus>
<clus scale="   76.084">  7  8 -1 -1</clus>
<clus scale="   81.204">  5  6 -1 -1</clus>
<clus scale="  180.955">  2  7  1 -1</clus>
<clus scale="   20.975">  2  5  1 -1</clus>
</clustering>
</event>
<event>
 9    1  0.6014990E-005  0.1088573E+03  0.7546771E-02  0.1267111E+00
         -2   -1    0    0    0  501 -0.00000000000E+00  0.00000000000E+00  0.14946588267E+03  0.14946588267E+03  0.00000000000E+00 0.  1.
         21   -1    0    0  501  502  0.00000000000E+00 -0.00000000000E+00 -0.25803675444E+03  0.25803675444E+03  0.00000000000E+00 0.  1.
        -24    2    1    2    0    0  0.49773628982E+02 -0.20653237768E+02  0.20857873294E+02  0.99964002590E+02  0.81570708977E+02 0.  0.
         23    2    1    2    0    0 -0.73654195630E+02  0.26602549688E+02 -0.19944808671E+03  0.23332014638E+03  0.92336965669E+02 0.  0.
         11    1    3    3    0    0 -0.20826244774E+02 -0.69420922368E+01 -0.66900501003E+01  0.22949550897E+02  0.00000000000E+00 0. -1.
        -12    1    3    3    0    0  0.70599873756E+02 -0.13711145531E+02  0.27547923395E+02  0.77014451693E+02  0.00000000000E+00 0.  1.
        -11    1    4    4    0    0  0.84818783700E+01  0.37289820081E+02 -0.63709662071E+02  0.74306083086E+02  0.00000000000E+00 0. -1.
         11    1    4    4    0    0 -0.82136074000E+02 -0.10687270393E+02 -0.13573842464E+03  0.15901406329E+03  0.00000000000E+00 0.  1.
         -1    1    1    2    0  502  0.23880566648E+02 -0.59493119197E+01  0.70019341653E+02  0.74218488136E+02  0.00000000000E+00 0.  1.
<scales pt_clust_5="13000.00000" pt_clust_6="13000.00000" pt_clust_7="13000.00000" pt_clust_8="13000.00000" pt_clust_9="24.61049"></scales>
<clustering>
<clus scale="   24.610">  2  9  1 -1</clus>
<clus scale="   81.571">  5  6 -1 -1</clus>
<clus scale="   92.337">  7  8 -1 -1</clus>
<clus scale="   99.888">  1  5  2 -1</clus>
<clus scale="   24.610">  2  5  1 -1</clus>
</clustering>
</event>
<event>
 9    1  0.6014990E-005  0.9400006E+02  0.7546771E-02  0.1300522E+00
          1   -1    0    0  502    0 -0.00000000000E+00  0.00000000000E+00  0.46770601663E+03  0.46770601663E+03  0.00000000000E+00 0. -1.
         21   -1    0    0  501  502  0.00000000000E+00 -0.00000000000E+00 -0.28287354226E+02  0.28287354226E+02  0.00000000000E+00 0. -1.
         23    2    1    2    0    0  0.16273931457E+02  0.23393492793E+02  0.29459111692E+03  0.30977363200E+03  0.91453160509E+02 0.  0.
        -24    2    1    2    0    0 -0.20678727780E+02  0.98112752950E+01  0.92810061883E+02  0.12435070415E+03  0.79533132284E+02 0.  0.
         13    1    4    4    0    0 -0.12582094555E+02  0.34438239282E+02  0.10623818006E+02  0.38172856027E+02  0.00000000000E+00 0. -1.
        -14    1    4    4    0    0 -0.80966332247E+01 -0.24626963987E+02  0.82186243876E+02  0.86177848124E+02  0.00000000000E+00 0.  1.
        -11    1    3    3    0    0 -0.19942291321E+02 -0.26665253018E+02  0.85881654462E+02  0.92110744622E+02  0.00000000000E+00 0.  1.
         11    1    3    3    0    0  0.36216222777E+02  0.50058745811E+02  0.20870946246E+03  0.21766288738E+03  0.00000000000E+00 0. -1.
          2    1    1    2  501    0  0.44047963234E+01 -0.33204768088E+02  0.52017483606E+02  0.61869034704E+02  0.00000000000E+00 0. -1.
<scales pt_clust_5="13000.00000" pt_clust_6="13000.00000" pt_clust_7="13000.00000" pt_clust_8="13000.00000" pt_clust_9="33.49565"></scales>
<clustering>
<clus scale="   33.496">  2  9  1 -1</clus>
<clus scale="   79.533">  5  6 -1 -1</clus>
<clus scale="   82.449">  2  5  1 -1</clus>
<clus scale="   91.453">  7  8 -1 -1</clus>
<clus scale="   33.496">  2  5  1 -1</clus>
</clustering>
</event>
<event>
 9    1  0.6014990E-005  0.1693192E+03  0.7546771E-02  0.1179621E+00
         21   -1    0    0  501  502  0.00000000000E+00  0.00000000000E+00  0.12421592309E+03  0.12421592309E+03  0.00000000000E+00 0. -1.
         -2   -1    0    0    0  501 -0.00000000000E+00 -0.00000000000E+00 -0.51869676134E+03  0.51869676134E+03  0.00000000000E+00 0.  1.
        -24    2    1    2    0    0  0.11824899418E+03  0.87427039119E+02 -0.42125419400E+03  0.45343196305E+03  0.80741175086E+02 0.  0.
         23    2    1    2    0    0 -0.96141940671E+02 -0.82591113918E+02  0.44269466679E+02  0.16087614334E+03  0.88638495926E+02 0.  0.
         11    1    3    3    0    0  0.66812480305E+02  0.43676256652E+01 -0.13000162554E+03  0.14623066136E+03  0.00000000000E+00 0. -1.
        -12    1    3    3    0    0  0.51436513879E+02  0.83059413454E+02 -0.29125256846E+03  0.30720130169E+03  0.00000000000E+00 0.  1.
        -13    1    4    4    0    0 -0.39734834333E+02  0.60185485727E+01 -0.11698042899E+02  0.41855993526E+02  0.00000000000E+00 0.  1.
         13    1    4    4    0    0 -0.56407106338E+02 -0.88609662491E+02  0.55967509578E+02  0.11902014981E+03  0.00000000000E+00 0. -1.
         -1    1    1    2    0  502 -0.22107053513E+02 -0.48359252007E+01 -0.17496110926E+02  0.28604578044E+02  0.00000000000E+00 0.  1.
<scales pt_clust_5="13000.00000" pt_clust_6="13000.00000" pt_clust_7="13000.00000" pt_clust_8="13000.00000" pt_clust_9="22.62980"></scales>
<clustering>
<clus scale="   22.630">  1  9  2 -1</clus>
<clus scale="   80.741">  5  6 -1 -1</clus>
<clus scale="   88.638">  7  8 -1 -1</clus>
<clus scale="  165.322">  2  5  1 -1</clus>
<clus scale="   22.630">  1  5  2 -1</clus>
</clustering>
</event>
<event>
 9    1  0.6014990E-005  0.1286959E+03  0.7546771E-02  0.1232526E+00
         21   -1    0    0  501  502  0.00000000000E+00  0.00000000000E+00  0.48840818304E+03  0.48840818304E+03  0.00000000000E+00 0.  1.
          3   -1    0    0  502    0 -0.00000000000E+00 -0.00000000000E+00 -0.90732632312E+02  0.90732632312E+02  0.00000000000E+00 0. -1.
         23    2    1    2    0    0  0.62101364054E+02  0.69331122203E+02 -0.23975083061E+02  0.13310697092E+03  0.92082990701E+02 0.  0.
        -24    2    1    2    0    0 -0.64018924477E+02 -0.34801367866E+02  0.35037290842E+03  0.36680951038E+03  0.80489030633E+02 0.  0.
         13    1    4    4    0    0 -0.29301590163E+02  0.22497077708E+02  0.77818044052E+02  0.86141451529E+02  0.00000000000E+00 0. -1.
        -14    1    4    4    0    0 -0.34717334313E+02 -0.57298445574E+02  0.27255486437E+03  0.28066805885E+03  0.00000000000E+00 0.  1.
        -11    1    3    3    0    0  0.68718195048E+01  0.73874187109E+02 -0.23021334660E+02  0.77682683231E+02  0.00000000000E+00 0.  1.
         11    1    3    3    0    0  0.55229544549E+02 -0.45430649064E+01 -0.95374840133E+00  0.55424287689E+02  0.00000000000E+00 0. -1.
          4    1    1    2  501    0  0.19175604227E+01 -0.34529754337E+02  0.71277725377E+02  0.79224334061E+02  0.00000000000E+00 0. -1.
<scales pt_clust_5="13000.00000" pt_clust_6="13000.00000" pt_clust_7="13000.00000" pt_clust_8="13000.00000" pt_clust_9="34.58296"></scales>
<clustering>
<clus scale="   34.583">  1  9  2 -1</clus>
<clus scale="   80.489">  5  6 -1 -1</clus>
<clus scale="   92.083">  7  8 -1 -1</clus>
<clus scale="  120.672">  1  5  2 -1</clus>
<clus scale="   34.583">  1  5  2 -1</clus>
</clustering>
</event>
<event>
 9    1  0.6014990E-005  0.1009822E+03  0.7546771E-02  0.1284589E+00
          1   -1    0    0  502    0 -0.00000000000E+00  0.00000000000E+00  0.84649840466E+03  0.84649840466E+03  0.00000000000E+00 0. -1.
         21   -1    0    0  501  502  0.00000000000E+00 -0.00000000000E+00 -0.18326146240E+02  0.18326146240E+02  0.00000000000E+00 0. -1.
        -24    2    1    2    0    0 -0.46597716646E+02 -0.37630616752E+02  0.42339066780E+03  0.43482576687E+03  0.78907410554E+02 0.  0.
         23    2    1    2    0    0  0.26599190822E+02 -0.35033498858E+01  0.31597979493E+03  0.33011033042E+03  0.91705010958E+02 0.  0.
         11    1    3    3    0    0 -0.49006474943E+02 -0.59268165995E+02  0.31306804977E+03  0.32237548585E+03  0.00000000000E+00 0. -1.
        -12    1    3    3    0    0  0.24087582975E+01  0.21637549242E+02  0.11032261803E+03  0.11245028102E+03  0.00000000000E+00 0.  1.
        -11    1    4    4    0    0 -0.11076428478E+02  0.26591037683E+02  0.36481196898E+02  0.46482774014E+02  0.00000000000E+00 0. -1.
         11    1    4    4    0    0  0.37675619300E+02 -0.30094387568E+02  0.27949859803E+03  0.28362755641E+03  0.00000000000E+00 0.  1.
          2    1    1    2  501    0  0.19998525823E+02  0.41133966638E+02  0.88801795691E+02  0.99888453609E+02  0.00000000000E+00 0. -1.
<scales pt_clust_5="13000.00000" pt_clust_6="13000.00000" pt_clust_7="13000.00000" pt_clust_8="13000.00000" pt_clust_9="45.73778"></scales>
<clustering>
<clus scale="   45.738">  2  9  1 -1</clus>
<clus scale="   78.907">  5  6 -1 -1</clus>
<clus scale="   89.521">  1  5  2 -1</clus>
<clus scale="   91.705">  7  8 -1 -1</clus>
<clus scale="   45.738">  2  5  1 -1</clus>
</clustering>
</event>
<event>
 9    1  0.6014990E-005  0.6268722E+03  0.7546771E-02  0.9851172E-01
         21   -1    0    0  501  502  0.00000000000E+00  0.00000000000E+00  0.16743697456E+04  0.16743697456E+04  0.00000000000E+00 0.  1.
         -2   -1    0    0    0  501 -0.00000000000E+00 -0.00000000000E+00 -0.24065669524E+03  0.24065669524E+03  0.00000000000E+00 0.  1.
        -24    2    1    2    0    0 -0.18925870578E+03  0.12352104025E+03  0.18342748049E+03  0.30181035746E+03  0.79796905784E+02 0.  0.
         23    2    1    2    0    0 -0.34729848568E+03  0.14576602630E+03  0.30271165391E+03  0.49147392489E+03  0.89712322754E+02 0.  0.
         11    1    3    3    0    0 -0.22881140520E+02  0.13354949516E+02  0.63976327404E+02  0.69245012356E+02  0.00000000000E+00 0. -1.
        -12    1    3    3    0    0 -0.16637756526E+03  0.11016609073E+03  0.11945115309E+03  0.23256534511E+03  0.00000000000E+00 0.  1.
        -13    1    4    4    0    0 -0.13128840612E+03  0.10004386113E+03  0.14976087207E+03  0.22287606092E+03  0.00000000000E+00 0. -1.
         13    1    4    4    0    0 -0.21601007956E+03  0.45722165175E+02  0.15295078184E+03  0.26859786396E+03  0.00000000000E+00 0.  1.
         -1    1    1    2    0  502  0.53655719146E+03 -0.26928706655E+03  0.94757391600E+03  0.11217421585E+04  0.00000000000E+00 0.  1.
<scales pt_clust_5="13000.00000" pt_clust_6="13000.00000" pt_clust_7="13000.00000" pt_clust_8="13000.00000" pt_clust_9="600.34086"></scales>
<clustering>
<clus scale="   79.797">  5  6 -1 -1</clus>
<clus scale="   89.712">  7  8 -1 -1</clus>
<clus scale="   98.685">  5  7 -1 -1</clus>
<clus scale="  600.341">  1  9  2 -1</clus>
<clus scale="  600.341">  1  5  2 -1</clus>
</clustering>
</event>
<event>
 9    1  0.6014990E-005  0.9975019E+02  0.7546771E-02  0.1285410E+00
         21   -1    0    0  501  502  0.00000000000E+00  0.00000000000E+00  0.38510864331E+02  0.38510864331E+02  0.00000000000E+00 0. -1.
         -2   -1    0    0    0  501 -0.00000000000E+00 -0.00000000000E+00 -0.42716781511E+03  0.42716781511E+03  0.00000000000E+00 0.  1.
        -24    2    1    2    0    0  0.45335558300E+02 -0.17181771415E+02 -0.29211861217E+03  0.30698288555E+03  0.80960992636E+02 0.  0.
         23    2    1    2    0    0 -0.28806833621E+02 -0.74311974742E+01 -0.82769531263E+02  0.12600669735E+03  0.90232123506E+02 0.  0.
         13    1    3    3    0    0  0.49460789589E+02 -0.39577929026E+02 -0.26002901096E+03  0.26763383328E+03  0.00000000000E+00 0. -1.
        -14    1    3    3    0    0 -0.41252312893E+01  0.22396157612E+02 -0.32089601203E+02  0.39349052267E+02  0.00000000000E+00 0.  1.
        -11    1    4    4    0    0 -0.26847314423E+02  0.31615312975E+02 -0.88872177217E+01  0.42418026180E+02  0.00000000000E+00 0. -1.
         11    1    4    4    0    0 -0.19595191981E+01 -0.39046510449E+02 -0.73882313541E+02  0.83588671170E+02  0.00000000000E+00 0.  1.
         -1    1    1    2    0  502 -0.16528724679E+02  0.24612968889E+02 -0.13768807348E+02  0.32689096543E+02  0.00000000000E+00 0.  1.
<scales pt_clust_5="13000.00000" pt_clust_6="13000.00000" pt_clust_7="13000.00000" pt_clust_8="13000.00000" pt_clust_9="29.64788"></scales>
<clustering>
<clus scale="   29.648">  1  9  2 -1</clus>
<clus scale="   80.961">  5  6 -1 -1</clus>
<clus scale="   90.232">  7  8 -1 -1</clus>
<clus scale="   91.449">  2  5  1 -1</clus>
<clus scale="   29.648">  1  5  2 -1</clus>
</clustering>
</event>
<event>
 9    1  0.6014990E-005  0.9801975E+02  0.7546771E-02  0.1289351E+00
         21   -1    0    0  501  502  0.00000000000E+00  0.00000000000E+00  0.14648664448E+03  0.14648664448E+03  0.00000000000E+00 0. -1.
          3   -1    0    0  502    0 -0.00000000000E+00 -0.00000000000E+00 -0.11547945648E+03  0.11547945648E+03  0.00000000000E+00 0. -1.
         23    2    1    2    0    0 -0.46484737455E+02  0.66775151466E+01  0.21348217469E+02  0.10507581481E+03  0.91541031477E+02 0.  0.
        -24    2    1    2    0    0  0.19279093143E+02  0.27077455229E+02  0.46280317156E+02  0.10013935544E+03  0.82347742763E+02 0.  0.
         11    1    4    4    0    0  0.17290543121E+02  0.56361195575E+02  0.25816698718E+02  0.64358753723E+02  0.00000000000E+00 0. -1.
        -12    1    4    4    0    0  0.19885500224E+01 -0.29283740346E+02  0.20463618437E+02  0.35780601719E+02  0.00000000000E+00 0.  1.
        -11    1    3    3    0    0  0.28071193525E+02  0.25947633543E+01  0.69032282143E+01  0.29023770647E+02  0.00000000000E+00 0. -1.
         11    1    3    3    0    0 -0.74555930981E+02  0.40827517923E+01  0.14444989255E+02  0.76052044162E+02  0.00000000000E+00 0.  1.
          4    1    1    2  501    0  0.27205644312E+02 -0.33754970375E+02 -0.36621346632E+02  0.56750930711E+02  0.00000000000E+00 0. -1.
<scales pt_clust_5="13000.00000" pt_clust_6="13000.00000" pt_clust_7="13000.00000" pt_clust_8="13000.00000" pt_clust_9="43.35374"></scales>
<clustering>
<clus scale="   43.354">  1  9  2 -1</clus>
<clus scale="   82.348">  5  6 -1 -1</clus>
<clus scale="   89.494">  1  5  2 -1</clus>
<clus scale="   91.541">  7  8 -1 -1</clus>
<clus scale="   43.354">  1  5  2 -1</clus>
</clustering>
</event>
<event>
 9    1  0.6014990E-005  0.2485173E+03  0.7546771E-02  0.1114245E+00
          3   -1    0    0  502    0 -0.00000000000E+00  0.00000000000E+00  0.30333423197E+03  0.30333423197E+03  0.00000000000E+00 0. -1.
         21   -1    0    0  501  502  0.00000000000E+00 -0.00000000000E+00 -0.15552975541E+03  0.15552975541E+03  0.00000000000E+00 0. -1.
        -24    2    1    2    0    0 -0.11691529474E+03  0.21665891958E+02  0.99905580988E+02  0.17393276023E+03  0.78312725336E+02 0.  0.
         23    2    1    2    0    0 -0.50315005498E+02 -0.16924488907E+02  0.52455814265E+02  0.11757167491E+03  0.90848490287E+02 0.  0.
         13    1    3    3    0    0 -0.11974094799E+03  0.62696142917E+01  0.10288855195E+03  0.15799764812E+03  0.00000000000E+00 0. -1.
        -14    1    3    3    0    0  0.28256532504E+01  0.15396277666E+02 -0.29829709576E+01  0.15935112111E+02  0.00000000000E+00 0.  1.
        -13    1    4    4    0    0 -0.14728495780E+01  0.24614284164E+02  0.47183132353E+02  0.53237958727E+02  0.00000000000E+00 0. -1.
         13    1    4    4    0    0 -0.48842155919E+02 -0.41538773070E+02  0.52726819118E+01  0.64333716181E+02  0.00000000000E+00 0.  1.
          4    1    1    2  501    0  0.16723030024E+03 -0.47414030515E+01 -0.45569186866E+01  0.16735955225E+03  0.00000000000E+00 0. -1.
<scales pt_clust_5="13000.00000" pt_clust_6="13000.00000" pt_clust_7="13000.00000" pt_clust_8="13000.00000" pt_clust_9="167.29750"></scales>
<clustering>
<clus scale="   78.313">  5  6 -1 -1</clus>
<clus scale="   90.848">  7  8 -1 -1</clus>
<clus scale="   94.813">  5  7 -1 -1</clus>
<clus scale="  167.298">  2  9  1 -1</clus>
<clus scale="  167.298">  2  5  1 -1</clus>
</clustering>
</event>
<event>
 9    1  0.6014990E-005  0.1705536E+03  0.7546771E-02  0.1178557E+00
         21   -1    0    0  501  502  0.00000000000E+00  0.00000000000E+00  0.10859689068E+03  0.10859689068E+03  0.00000000000E+00 0. -1.
          1   -1    0    0  502    0 -0.00000000000E+00 -0.00000000000E+00 -0.59602013957E+03  0.59602013957E+03  0.00000000000E+00 0. -1.
        -24    2    1    2    0    0 -0.14124190792E+03  0.35599383398E+02 -0.38283796283E+03  0.41770849170E+03  0.81846720193E+02 0.  0.
         23    2    1    2    0    0  0.14937387496E+03  0.47513048750E+02 -0.88590493823E+02  0.20188125678E+03  0.91311127028E+02 0.  0.
         11    1    3    3    0    0 -0.13224454838E+03  0.56257256858E+02 -0.34390729614E+03  0.37272741764E+03  0.00000000000E+00 0. -1.
        -12    1    3    3    0    0 -0.89973595365E+01 -0.20657873460E+02 -0.38930666691E+02  0.44981074059E+02  0.00000000000E+00 0.  1.
        -11    1    4    4    0    0  0.10640923694E+03  0.56163171673E+02 -0.10015868792E+03  0.15655347433E+03  0.00000000000E+00 0. -1.
         11    1    4    4    0    0  0.42964638020E+02 -0.86501229225E+01  0.11568194098E+02  0.45327782445E+02  0.00000000000E+00 0.  1.
          2    1    1    2  501    0 -0.81319670441E+01 -0.83112432148E+02 -0.15994792240E+02  0.85027281766E+02  0.00000000000E+00 0. -1.
<scales pt_clust_5="13000.00000" pt_clust_6="13000.00000" pt_clust_7="13000.00000" pt_clust_8="13000.00000" pt_clust_9="83.50931"></scales>
<clustering>
<clus scale="   81.847">  5  6 -1 -1</clus>
<clus scale="   83.509">  1  9  2 -1</clus>
<clus scale="   91.311">  7  8 -1 -1</clus>
<clus scale="  165.680">  2  5  1 -1</clus>
<clus scale="   83.509">  1  5  2 -1</clus>
</clustering>
</event>
<event>
 9    1  0.6014990E-005  0.1762455E+03  0.7546771E-02  0.1172414E+00
          1   -1    0    0  502    0 -0.00000000000E+00  0.00000000000E+00  0.10830724999E+04  0.10830724999E+04  0.00000000000E+00 0. -1.
         21   -1    0    0  501  502  0.00000000000E+00 -0.00000000000E+00 -0.39952252405E+02  0.39952252405E+02  0.00000000000E+00 0.  1.
        -24    2    1    2    0    0  0.16071240894E+03 -0.34715954739E+02  0.71998377716E+03  0.74299571588E+03  0.81439048031E+02 0.  0.
         23    2    1    2    0    0 -0.12829181361E+03  0.27465012879E+02  0.30074028210E+03  0.33996333531E+03  0.88978849768E+02 0.  0.
         13    1    3    3    0    0  0.13163056295E+03  0.76667998301E+01  0.53429756857E+03  0.55032651826E+03  0.00000000000E+00 0. -1.
        -14    1    3    3    0    0  0.29081845992E+02 -0.42382754569E+02  0.18568620859E+03  0.19266919762E+03  0.00000000000E+00 0.  1.
        -11    1    4    4    0    0 -0.10085007309E+03 -0.13136991455E+02  0.14816753714E+03  0.17971348544E+03  0.00000000000E+00 0.  1.
         11    1    4    4    0    0 -0.27441740517E+02  0.40602004335E+02  0.15257274496E+03  0.16024984987E+03  0.00000000000E+00 0. -1.
          2    1    1    2  501    0 -0.32420595336E+02  0.72509418600E+01  0.22396188278E+02  0.40065701157E+02  0.00000000000E+00 0. -1.
<scales pt_clust_5="13000.00000" pt_clust_6="13000.00000" pt_clust_7="13000.00000" pt_clust_8="13000.00000" pt_clust_9="33.22155"></scales>
<clustering>
<clus scale="   33.222">  2  9  1 -1</clus>
<clus scale="   81.439">  5  6 -1 -1</clus>
<clus scale="   88.979">  7  8 -1 -1</clus>
<clus scale="  172.562">  1  5  2 -1</clus>
<clus scale="   33.222">  2  5  1 -1</clus>
</clustering>
</event>
<event>
 9    1  0.6014990E-005  0.9272923E+02  0.7546771E-02  0.1299418E+00
         21   -1    0    0  501  502  0.00000000000E+00  0.00000000000E+00  0.24518640283E+02  0.24518640283E+02  0.00000000000E+00 0. -1.
          1   -1    0    0  502    0 -0.00000000000E+00 -0.00000000000E+00 -0.49099033212E+03  0.49099033212E+03  0.00000000000E+00 0. -1.
        -24    2    1    2    0    0 -0.42167316939E+02  0.24247680770E+02 -0.23279071555E+03  0.25108893228E+03  0.80548755581E+02 0.  0.
         23    2    1    2    0    0  0.91796300671E+01 -0.15112782246E+02 -0.14730536102E+03  0.17150943379E+03  0.86046235823E+02 0.  0.
         11    1    3    3    0    0 -0.56667871850E+02  0.42239944938E+02 -0.18382592337E+03  0.19694524810E+03  0.00000000000E+00 0. -1.
        -12    1    3    3    0    0  0.14500554910E+02 -0.17992264168E+02 -0.48964792181E+02  0.54143684174E+02  0.00000000000E+00 0.  1.
        -11    1    4    4    0    0 -0.18843902379E+02 -0.31126845880E+02 -0.22917382508E+02  0.43002088465E+02  0.00000000000E+00 0. -1.
         11    1    4    4    0    0  0.28023532447E+02  0.16014063634E+02 -0.12438797851E+03  0.12850734533E+03  0.00000000000E+00 0.  1.
          2    1    1    2  501    0  0.32987686872E+02 -0.91348985237E+01 -0.86375615268E+02  0.92910606333E+02  0.00000000000E+00 0. -1.
<scales pt_clust_5="13000.00000" pt_clust_6="13000.00000" pt_clust_7="13000.00000" pt_clust_8="13000.00000" pt_clust_9="34.22915"></scales>
<clustering>
<clus scale="   34.229">  1  9  2 -1</clus>
<clus scale="   80.549">  5  6 -1 -1</clus>
<clus scale="   86.046">  7  8 -1 -1</clus>
<clus scale="   87.652">  2  5  1 -1</clus>
<clus scale="   34.229">  1  5  2 -1</clus>
</clustering>
</event>
<event>
 9    1  0.6014990E-005  0.9489494E+02  0.7546771E-02  0.1298272E+00
          1   -1    0    0  502    0 -0.00000000000E+00  0.00000000000E+00  0.19178545515E+03  0.19178545515E+03  0.00000000000E+00 0. -1.
         21   -1    0    0  501  502  0.00000000000E+00 -0.00000000000E+00 -0.75782499729E+02  0.75782499729E+02  0.00000000000E+00 0.  1.
        -24    2    1    2    0    0  0.20579892951E+02 -0.30927946734E+01  0.19867965109E+02  0.84191527271E+02  0.79122562230E+02 0.  0.
         23    2    1    2    0    0 -0.27895147748E+02  0.24573883922E+02  0.15422081553E+02  0.99534172222E+02  0.91034036501E+02 0.  0.
         11    1    3    3    0    0  0.31146660692E+02 -0.35305117575E+02  0.56077287107E+01  0.47413209346E+02  0.00000000000E+00 0. -1.
        -12    1    3    3    0    0 -0.10566767741E+02  0.32212322901E+02  0.14260236399E+02  0.36778317924E+02  0.00000000000E+00 0.  1.
        -11    1    4    4    0    0  0.15427300722E+02  0.22531388259E+02 -0.27330416771E+02  0.38634398472E+02  0.00000000000E+00 0.  1.
         11    1    4    4    0    0 -0.43322448469E+02  0.20424956638E+01  0.42752498324E+02  0.60899773750E+02  0.00000000000E+00 0. -1.
          2    1    1    2  501    0  0.73152547964E+01 -0.21481089249E+02  0.80712908760E+02  0.83842255388E+02  0.00000000000E+00 0. -1.
<scales pt_clust_5="13000.00000" pt_clust_6="13000.00000" pt_clust_7="13000.00000" pt_clust_8="13000.00000" pt_clust_9="22.69252"></scales>
<clustering>
<clus scale="   22.693">  2  9  1 -1</clus>
<clus scale="   79.123">  5  6 -1 -1</clus>
<clus scale="   83.536">  1  5  2 -1</clus>
<clus scale="   91.034">  7  8 -1 -1</clus>
<clus scale="   22.693">  2  5  1 -1</clus>
</clustering>
</event>
<event>
 9    1  0.6014990E-005  0.1729526E+03  0.7546771E-02  0.1180048E+00
         21   -1    0    0  501  502  0.00000000000E+00  0.00000000000E+00  0.60431116022E+03  0.60431116022E+03  0.00000000000E+00 0. -1.
          1   -1    0    0  502    0 -0.00000000000E+00 -0.00000000000E+00 -0.11359828661E+03  0.11359828661E+03  0.00000000000E+00 0. -1.
        -24    2    1    2    0    0  0.58473630176E+02  0.11730744048E+03  0.64962631319E+02  0.16680617932E+03  0.80149591212E+02 0.  0.
         23    2    1    2    0    0 -0.13673397738E+03  0.45337219147E+02  0.16910792363E+03  0.23734659909E+03  0.83571970535E+02 0.  0.
         11    1    3    3    0    0  0.66277498043E+02  0.11256744247E+03  0.34648442715E+02  0.13514677367E+03  0.00000000000E+00 0. -1.
        -12    1    3    3    0    0 -0.78038678669E+01  0.47399980076E+01  0.30314188604E+02  0.31659405641E+02  0.00000000000E+00 0.  1.
        -13    1    4    4    0    0 -0.93198348421E+02  0.61864416781E+02  0.82433452028E+02  0.13895471286E+03  0.00000000000E+00 0.  1.
         13    1    4    4    0    0 -0.43535628954E+02 -0.16527197634E+02  0.86674471600E+02  0.98391886237E+02  0.00000000000E+00 0. -1.
          2    1    1    2  501    0  0.78260347199E+02 -0.16264465963E+03  0.25664231867E+03  0.31375666842E+03  0.00000000000E+00 0. -1.
<scales pt_clust_5="13000.00000" pt_clust_6="13000.00000" pt_clust_7="13000.00000" pt_clust_8="13000.00000" pt_clust_9="151.42106"></scales>
<clustering>
<clus scale="   80.150">  5  6 -1 -1</clus>
<clus scale="   83.572">  7  8 -1 -1</clus>
<clus scale="  153.636">  2  5  1 -1</clus>
<clus scale="  151.421">  1  9  2 -1</clus>
<clus scale="  151.421">  1  5  2 -1</clus>
</clustering>
</event>
<event>
 9    1  0.6014990E-005  0.1729895E+03  0.7546771E-02  0.1181313E+00
          1   -1    0    0  502    0 -0.00000000000E+00  0.00000000000E+00  0.10168874767E+03  0.10168874767E+03  0.00000000000E+00 0. -1.
         21   -1    0    0  501  502  0.00000000000E+00 -0.00000000000E+00 -0.51980688351E+03  0.51980688351E+03  0.00000000000E+00 0. -1.
         23    2    1    2    0    0  0.68375261829E+02 -0.11201911414E+03 -0.66588514090E+02  0.18859911965E+03  0.11794973235E+03 0.  0.
        -24    2    1    2    0    0 -0.12336975420E+03  0.51067395589E+02 -0.29464106576E+03  0.33301751480E+03  0.79115942690E+02 0.  0.
         13    1    4    4    0    0 -0.10173250382E+03  0.67029667991E+02 -0.27134958764E+03  0.29744424257E+03  0.00000000000E+00 0. -1.
        -14    1    4    4    0    0 -0.21637250378E+02 -0.15962272402E+02 -0.23291478117E+02  0.35573272228E+02  0.00000000000E+00 0.  1.
        -13    1    3    3    0    0  0.32915828183E+02 -0.76077856436E+02  0.22769705387E+02  0.85963663651E+02  0.00000000000E+00 0.  1.
         13    1    3    3    0    0  0.35459433646E+02 -0.35941257709E+02 -0.89358219478E+02  0.10263545600E+03  0.00000000000E+00 0. -1.
          2    1    1    2  501    0  0.54994492373E+02  0.60951718555E+02 -0.56888555989E+02  0.99878996735E+02  0.00000000000E+00 0. -1.
<scales pt_clust_5="13000.00000" pt_clust_6="13000.00000" pt_clust_7="13000.00000" pt_clust_8="13000.00000" pt_clust_9="82.09454"></scales>
<clustering>
<clus scale="   79.116">  5  6 -1 -1</clus>
<clus scale="   82.095">  2  9  1 -1</clus>
<clus scale="  117.950">  7  8 -1 -1</clus>
<clus scale="  149.240">  2  5  1 -1</clus>
<clus scale="   82.095">  2  5  1 -1</clus>
</clustering>
</event>
<event>
 9    1  0.6014990E-005  0.2966616E+03  0.7546771E-02  0.1087280E+00
          1   -1    0    0  502    0 -0.00000000000E+00  0.00000000000E+00  0.48507341715E+03  0.48507341715E+03  0.00000000000E+00 0. -1.
         21   -1    0    0  501  502  0.00000000000E+00 -0.00000000000E+00 -0.71033619125E+03  0.71033619125E+03  0.00000000000E+00 0.  1.
         23    2    1    2    0    0 -0.24935548462E+03 -0.61045404241E+02  0.14527777406E+03  0.30865260170E+03  0.90863071771E+02 0.  0.
        -24    2    1    2    0    0  0.39211386904E+03  0.26002100655E+03 -0.42119477411E+03  0.63668282322E+03  0.81214342962E+02 0.  0.
         11    1    4    4    0    0  0.62414461237E+02  0.29383997394E+02 -0.29105394887E+02  0.74873949314E+02  0.00000000000E+00 0. -1.
        -12    1    4    4    0    0  0.32969940781E+03  0.23063700915E+03 -0.39208937922E+03  0.56180887391E+03  0.00000000000E+00 0.  1.
        -11    1    3    3    0    0 -0.93188606353E+02 -0.68638559587E+02  0.68154479568E+02  0.13431456102E+03  0.00000000000E+00 0.  1.
         11    1    3    3    0    0 -0.15616687827E+03  0.75931553463E+01  0.77123294488E+02  0.17433804068E+03  0.00000000000E+00 0. -1.
          2    1    1    2  501    0 -0.14275838442E+03 -0.19897560230E+03  0.50654225953E+02  0.25007418348E+03  0.00000000000E+00 0. -1.
<scales pt_clust_5="13000.00000" pt_clust_6="13000.00000" pt_clust_7="13000.00000" pt_clust_8="13000.00000" pt_clust_9="244.89040"></scales>
<clustering>
<clus scale="   81.214">  5  6 -1 -1</clus>
<clus scale="   90.863">  7  8 -1 -1</clus>
<clus scale="  244.890">  2  9  1 -1</clus>
<clus scale="  293.850">  2  5  1 -1</clus>
<clus scale="  244.890">  2  5  1 -1</clus>
</clustering>
</event>
<event>
 9    1  0.6014990E-005  0.8524964E+02  0.7546771E-02  0.1322557E+00
         21   -1    0    0  501  502  0.00000000000E+00  0.00000000000E+00  0.68056983879E+02  0.68056983879E+02  0.00000000000E+00 0.  1.
         -2   -1    0    0    0  501 -0.00000000000E+00 -0.00000000000E+00 -0.29015560060E+03  0.29015560060E+03  0.00000000000E+00 0.  1.
         23    2    1    2    0    0 -0.32058698044E+02 -0.22753392295E+00 -0.17151520351E+03  0.18733088500E+03  0.68173187893E+02 0.  0.
        -24    2    1    2    0    0  0.80940958427E+01 -0.15695371414E+02  0.28424950736E+02  0.86797440271E+02  0.80087194619E+02 0.  0.
         13    1    4    4    0    0  0.22198447243E+02  0.25158728293E+02  0.27800090394E+02  0.43572671426E+02  0.00000000000E+00 0. -1.
        -14    1    4    4    0    0 -0.14104351400E+02 -0.40854099707E+02  0.62486034261E+00  0.43224768845E+02  0.00000000000E+00 0.  1.
        -13    1    3    3    0    0 -0.50527856740E+02  0.12335178937E+02 -0.13298386302E+03  0.14279330786E+03  0.00000000000E+00 0.  1.
         13    1    3    3    0    0  0.18469158696E+02 -0.12562712860E+02 -0.38531340487E+02  0.44537577136E+02  0.00000000000E+00 0. -1.
         -1    1    1    2    0  502  0.23964602201E+02  0.15922905337E+02 -0.79008363947E+02  0.84084259208E+02  0.00000000000E+00 0.  1.
<scales pt_clust_5="13000.00000" pt_clust_6="13000.00000" pt_clust_7="13000.00000" pt_clust_8="13000.00000" pt_clust_9="28.77224"></scales>
<clustering>
<clus scale="   28.772">  1  9  2 -1</clus>
<clus scale="   68.173">  7  8 -1 -1</clus>
<clus scale="   74.170">  2  7  1 -1</clus>
<clus scale="   80.087">  5  6 -1 -1</clus>
<clus scale="   28.772">  1  5  2 -1</clus>
</clustering>
</event>
<event>
 9    1  0.6014990E-005  0.1183110E+03  0.7546771E-02  0.1247905E+00
         -2   -1    0    0    0  501 -0.00000000000E+00  0.00000000000E+00  0.11520722288E+03  0.11520722288E+03  0.00000000000E+00 0.  1.
         21   -1    0    0  501  502  0.00000000000E+00 -0.00000000000E+00 -0.21759764287E+03  0.21759764287E+03  0.00000000000E+00 0. -1.
         23    2    1    2    0    0 -0.68310472409E+01 -0.84920229369E+02  0.37634225309E+02  0.13007602368E+03  0.90803791003E+02 0.  0.
        -24    2    1    2    0    0  0.29845961818E+01  0.46050325197E+02 -0.13096652042E+03  0.16263252973E+03  0.84661502408E+02 0.  0.
         13    1    4    4    0    0 -0.35760806943E+02  0.39946078982E+02 -0.53176571268E+02  0.75513391336E+02  0.00000000000E+00 0. -1.
        -14    1    4    4    0    0  0.38745403125E+02  0.61042462154E+01 -0.77789949155E+02  0.87119138396E+02  0.00000000000E+00 0.  1.
        -11    1    3    3    0    0 -0.28674159832E+02  0.36404060843E+01 -0.50937491132E+01  0.29349723654E+02  0.00000000000E+00 0.  1.
         11    1    3    3    0    0  0.21843112591E+02 -0.88560635453E+02  0.42727974423E+02  0.10072630003E+03  0.00000000000E+00 0. -1.
         -1    1    1    2    0  502  0.38464510592E+01  0.38869904172E+02 -0.90581248765E+01  0.40096312329E+02  0.00000000000E+00 0.  1.
<scales pt_clust_5="13000.00000" pt_clust_6="13000.00000" pt_clust_7="13000.00000" pt_clust_8="13000.00000" pt_clust_9="39.05978"></scales>
<clustering>
<clus scale="   39.060">  2  9  1 -1</clus>
<clus scale="   84.662">  5  6 -1 -1</clus>
<clus scale="   90.804">  7  8 -1 -1</clus>
<clus scale="  113.665">  2  5  1 -1</clus>
<clus scale="   39.060">  2  5  1 -1</clus>
</clustering>
</event>
<event>
 9    1  0.6014990E-005  0.8717512E+02  0.7546771E-02  0.1312722E+00
          1   -1    0    0  502    0 -0.00000000000E+00  0.00000000000E+00  0.13321569364E+03  0.13321569364E+03  0.00000000000E+00 0. -1.
         21   -1    0    0  501  502  0.00000000000E+00 -0.00000000000E+00 -0.11373408780E+03  0.11373408780E+03  0.00000000000E+00 0.  1.
         23    2    1    2    0    0  0.21462408837E+02  0.12111174658E+02  0.24164934282E+02  0.92363624003E+02  0.85672512776E+02 0.  0.
        -24    2    1    2    0    0  0.54629932414E+01 -0.32714679386E+01 -0.54012986959E+02  0.97695623064E+02  0.81157163627E+02 0.  0.
         11    1    4    4    0    0  0.34252474687E+02  0.58595037109E+01  0.11900251948E+01  0.34770417971E+02  0.00000000000E+00 0. -1.
        -12    1    4    4    0    0 -0.28789481445E+02 -0.91309716495E+01 -0.55203012154E+02  0.62925205093E+02  0.00000000000E+00 0.  1.
        -11    1    3    3    0    0  0.33708479895E+02 -0.26651897875E+02 -0.36197523087E+01  0.43124098645E+02  0.00000000000E+00 0.  1.
         11    1    3    3    0    0 -0.12246071058E+02  0.38763072533E+02  0.27784686591E+02  0.49239525358E+02  0.00000000000E+00 0. -1.
          2    1    1    2  501    0 -0.26925402079E+02 -0.88397067191E+01  0.49329658512E+02  0.56890534370E+02  0.00000000000E+00 0. -1.
<scales pt_clust_5="13000.00000" pt_clust_6="13000.00000" pt_clust_7="13000.00000" pt_clust_8="13000.00000" pt_clust_9="28.33935"></scales>
<clustering>
<clus scale="   28.339">  2  9  1 -1</clus>
<clus scale="   81.157">  5  6 -1 -1</clus>
<clus scale="   82.742">  2  5  1 -1</clus>
<clus scale="   85.673">  7  8 -1 -1</clus>
<clus scale="   28.339">  2  5  1 -1</clus>
</clustering>
</event>
<event>
 9    1  0.6014990E-005  0.9168430E+02  0.7546771E-02  0.1305387E+00
          3   -1    0    0  502    0 -0.00000000000E+00  0.00000000000E+00  0.18004489747E+03  0.18004489747E+03  0.00000000000E+00 0. -1.
         21   -1    0    0  501  502  0.00000000000E+00 -0.00000000000E+00 -0.10268956536E+03  0.10268956536E+03  0.00000000000E+00 0. -1.
         23    2    1    2    0    0 -0.25458374428E+02  0.26970887132E+02  0.79271793304E+02  0.12615120526E+03  0.90854563966E+02 0.  0.
        -24    2    1    2    0    0 -0.28861887736E+02  0.14610339088E+02  0.98962750325E+01  0.87162583465E+02  0.80330001399E+02 0.  0.
         11    1    4    4    0    0 -0.44233703147E+02  0.36723300411E+02 -0.24352747471E+01  0.57542608998E+02  0.00000000000E+00 0. -1.
        -12    1    4    4    0    0  0.15371815411E+02 -0.22112961323E+02  0.12331549780E+02  0.29619974467E+02  0.00000000000E+00 0.  1.
        -11    1    3    3    0    0  0.13419848804E+02 -0.14905026105E+02 -0.82014399999E+01  0.21668312421E+02  0.00000000000E+00 0.  1.
         11    1    3    3    0    0 -0.38878223232E+02  0.41875913237E+02  0.87473233303E+02  0.10448289284E+03  0.00000000000E+00 0. -1.
          4    1    1    2  501    0  0.54320262165E+02 -0.41581226220E+02 -0.11812736233E+02  0.69420674103E+02  0.00000000000E+00 0. -1.
<scales pt_clust_5="13000.00000" pt_clust_6="13000.00000" pt_clust_7="13000.00000" pt_clust_8="13000.00000" pt_clust_9="68.40825"></scales>
<clustering>
<clus scale="   68.408">  2  9  1 -1</clus>
<clus scale="   80.330">  5  6 -1 -1</clus>
<clus scale="   81.267">  2  5  1 -1</clus>
<clus scale="   90.855">  7  8 -1 -1</clus>
<clus scale="   68.408">  2  5  1 -1</clus>
</clustering>
</event>
<event>
 9    1  0.6014990E-005  0.1281818E+03  0.7546771E-02  0.1232836E+00
         21   -1    0    0  501  502  0.00000000000E+00  0.00000000000E+00  0.11780878482E+03  0.11780878482E+03  0.00000000000E+00 0. -1.
          1   -1    0    0  502    0 -0.00000000000E+00 -0.00000000000E+00 -0.29251306943E+03  0.29251306943E+03  0.00000000000E+00 0. -1.
         23    2    1    2    0    0 -0.34960002383E+02  0.89537293692E+02 -0.16476008850E+03  0.21190934953E+03  0.92306862840E+02 0.  0.
        -24    2    1    2    0    0  0.44322620381E+02 -0.66793998988E+02 -0.69181320255E+02  0.13427240068E+03  0.82565668002E+02 0.  0.
         13    1    4    4    0    0  0.63395886247E+02 -0.55729160559E+02 -0.30504315540E+02  0.89751272950E+02  0.00000000000E+00 0. -1.
        -14    1    4    4    0    0 -0.19073265865E+02 -0.11064838430E+02 -0.38677004715E+02  0.44521127726E+02  0.00000000000E+00 0.  1.
        -13    1    3    3    0    0 -0.67096213920E+01  0.54354670560E+02 -0.16896229775E+02  0.57314324663E+02  0.00000000000E+00 0.  1.
         13    1    3    3    0    0 -0.28250380991E+02  0.35182623132E+02 -0.14786385873E+03  0.15459502487E+03  0.00000000000E+00 0. -1.
          2    1    1    2  501    0 -0.93626179980E+01 -0.22743294704E+02  0.59237124144E+02  0.64140104043E+02  0.00000000000E+00 0. -1.
<scales pt_clust_5="13000.00000" pt_clust_6="13000.00000" pt_clust_7="13000.00000" pt_clust_8="13000.00000" pt_clust_9="24.59504"></scales>
<clustering>
<clus scale="   24.595">  1  9  2 -1</clus>
<clus scale="   82.566">  5  6 -1 -1</clus>
<clus scale="   92.307">  7  8 -1 -1</clus>
<clus scale="  121.355">  1  5  2 -1</clus>
<clus scale="   24.595">  1  5  2 -1</clus>
</clustering>
</event>
<event>
 9    1  0.6014990E-005  0.2383862E+03  0.7546771E-02  0.1159932E+00
          1   -1    0    0  502    0 -0.00000000000E+00  0.00000000000E+00  0.13795659920E+04  0.13795659920E+04  0.00000000000E+00 0. -1.
         21   -1    0    0  501  502  0.00000000000E+00 -0.00000000000E+00 -0.57713661815E+02  0.57713661815E+02  0.00000000000E+00 0. -1.
        -24    2    1    2    0    0  0.84427296259E+01 -0.52430698346E+02  0.14390617232E+03  0.17131855179E+03  0.76294180281E+02 0.  0.
         23    2    1    2    0    0  0.17612339013E+02 -0.18798005800E+03  0.68939786735E+03  0.72084127067E+03  0.93252460073E+02 0.  0.
         13    1    3    3    0    0  0.39846610953E+02 -0.13521666036E+02  0.77579575314E+02  0.88256321943E+02  0.00000000000E+00 0. -1.
        -14    1    3    3    0    0 -0.31403881327E+02 -0.38909032310E+02  0.66326597005E+02  0.83062229852E+02  0.00000000000E+00 0.  1.
        -11    1    4    4    0    0 -0.35719962762E+02 -0.11169339998E+03  0.36749836427E+03  0.38575429885E+03  0.00000000000E+00 0. -1.
         11    1    4    4    0    0  0.53332301775E+02 -0.76286658019E+02  0.32189950307E+03  0.33508697182E+03  0.00000000000E+00 0.  1.
          2    1    1    2  501    0 -0.26055068639E+02  0.24041075634E+03  0.48854829056E+03  0.54511983139E+03  0.00000000000E+00 0. -1.
<scales pt_clust_5="13000.00000" pt_clust_6="13000.00000" pt_clust_7="13000.00000" pt_clust_8="13000.00000" pt_clust_9="219.39000"></scales>
<clustering>
<clus scale="   76.294">  5  6 -1 -1</clus>
<clus scale="   92.957">  1  5  2 -1</clus>
<clus scale="   93.252">  7  8 -1 -1</clus>
<clus scale="  219.390">  2  9  1 -1</clus>
<clus scale="  219.390">  2  5  1 -1</clus>
</clustering>
</event>
<event>
 9    1  0.6014990E-005  0.1113965E+03  0.7546771E-02  0.1261844E+00
         21   -1    0    0  501  502  0.00000000000E+00  0.00000000000E+00  0.16781855688E+03  0.16781855688E+03  0.00000000000E+00 0. -1.
          1   -1    0    0  502    0 -0.00000000000E+00 -0.00000000000E+00 -0.18417928051E+03  0.18417928051E+03  0.00000000000E+00 0. -1.
         23    2    1    2    0    0  0.18687111099E+02  0.91031314738E+02  0.14173667492E+02  0.13089236348E+03  0.91082432896E+02 0.  0.
        -24    2    1    2    0    0 -0.42138530723E+02 -0.18715871137E+02  0.53769085649E+02  0.10758645058E+03  0.80980183827E+02 0.  0.
         11    1    4    4    0    0 -0.48226052157E+02  0.18127650867E+02  0.46790763416E+02  0.69596978194E+02  0.00000000000E+00 0. -1.
        -12    1    4    4    0    0  0.60875214333E+01 -0.36843522004E+02  0.69783222322E+01  0.37989472385E+02  0.00000000000E+00 0.  1.
        -13    1    3    3    0    0  0.27593142719E+02  0.64791652685E+02  0.49438203798E+02  0.86043452846E+02  0.00000000000E+00 0. -1.
         13    1    3    3    0    0 -0.89060316199E+01  0.26239662053E+02 -0.35264536307E+02  0.44848910631E+02  0.00000000000E+00 0.  1.
          2    1    1    2  501    0  0.23451419624E+02 -0.72315443601E+02 -0.84303476769E+02  0.11351902334E+03  0.00000000000E+00 0. -1.
<scales pt_clust_5="13000.00000" pt_clust_6="13000.00000" pt_clust_7="13000.00000" pt_clust_8="13000.00000" pt_clust_9="76.02301"></scales>
<clustering>
<clus scale="   76.023">  1  9  2 -1</clus>
<clus scale="   80.980">  5  6 -1 -1</clus>
<clus scale="   91.082">  7  8 -1 -1</clus>
<clus scale="  103.300">  1  5  2 -1</clus>
<clus scale="   76.023">  1  5  2 -1</clus>
</clustering>
</event>
<event>
 9    1  0.6014990E-005  0.1226224E+03  0.7546771E-02  0.1253518E+00
          1   -1    0    0  502    0 -0.00000000000E+00  0.00000000000E+00  0.40898538141E+03  0.40898538141E+03  0.00000000000E+00 0. -1.
         21   -1    0    0  501  502  0.00000000000E+00 -0.00000000000E+00 -0.10097724064E+03  0.10097724064E+03  0.00000000000E+00 0. -1.
        -24    2    1    2    0    0  0.29721568284E+02  0.29350837670E+02 -0.41979205289E+02  0.10046471440E+03  0.81154555448E+02 0.  0.
         23    2    1    2    0    0  0.49781066937E+02  0.18989905809E+02  0.25611993887E+03  0.27732912685E+03  0.92061122978E+02 0.  0.
         11    1    3    3    0    0 -0.14337833448E+02  0.33072745595E+02 -0.43159356434E+02  0.56232641917E+02  0.00000000000E+00 0. -1.
        -12    1    3    3    0    0  0.44059401732E+02 -0.37219079254E+01  0.11801511450E+01  0.44232072485E+02  0.00000000000E+00 0.  1.
        -13    1    4    4    0    0  0.30988943928E+02 -0.24464090983E+02  0.20021626695E+03  0.20407194797E+03  0.00000000000E+00 0. -1.
         13    1    4    4    0    0  0.18792123009E+02  0.43453996792E+02  0.55903671919E+02  0.73257178887E+02  0.00000000000E+00 0.  1.
          2    1    1    2  501    0 -0.79502635221E+02 -0.48340743479E+02  0.93867407185E+02  0.13216878080E+03  0.00000000000E+00 0. -1.
<scales pt_clust_5="13000.00000" pt_clust_6="13000.00000" pt_clust_7="13000.00000" pt_clust_8="13000.00000" pt_clust_9="80.99998"></scales>
<clustering>
<clus scale="   81.155">  5  6 -1 -1</clus>
<clus scale="   91.274">  1  5  2 -1</clus>
<clus scale="   81.000">  2  9  1 -1</clus>
<clus scale="   92.061">  7  8 -1 -1</clus>
<clus scale="   81.000">  2  5  1 -1</clus>
</clustering>
</event>
<event>
 9    1  0.6014990E-005  0.1024168E+03  0.7546771E-02  0.1280720E+00
          1   -1    0    0  502    0 -0.00000000000E+00  0.00000000000E+00  0.64081409846E+03  0.64081409846E+03  0.00000000000E+00 0. -1.
         21   -1    0    0  501  502  0.00000000000E+00 -0.00000000000E+00 -0.43861581616E+02  0.43861581616E+02  0.00000000000E+00 0.  1.
         23    2    1    2    0    0 -0.34745007594E+02 -0.46848644797E+01  0.41074436501E+03  0.42234843071E+03  0.91859131439E+02 0.  0.
        -24    2    1    2    0    0  0.93970647917E+02  0.87801168505E+01  0.11044617329E+03  0.16607588596E+03  0.80469059780E+02 0.  0.
         13    1    4    4    0    0  0.43820535682E+02 -0.14211015446E+02  0.99757921798E+02  0.10988100504E+03  0.00000000000E+00 0. -1.
        -14    1    4    4    0    0  0.50150112235E+02  0.22991132296E+02  0.10688251487E+02  0.56194880917E+02  0.00000000000E+00 0.  1.
        -11    1    3    3    0    0 -0.58535112401E+02  0.21654534458E+02  0.24266781582E+03  0.25056525514E+03  0.00000000000E+00 0. -1.
         11    1    3    3    0    0  0.23790104807E+02 -0.26339398938E+02  0.16807654919E+03  0.17178317557E+03  0.00000000000E+00 0.  1.
          2    1    1    2  501    0 -0.59225640323E+02 -0.40952523708E+01  0.75761978547E+02  0.96251363403E+02  0.00000000000E+00 0. -1.
<scales pt_clust_5="13000.00000" pt_clust_6="13000.00000" pt_clust_7="13000.00000" pt_clust_8="13000.00000" pt_clust_9="59.36706"></scales>
<clustering>
<clus scale="   59.367">  2  9  1 -1</clus>
<clus scale="   80.469">  5  6 -1 -1</clus>
<clus scale="   91.859">  7  8 -1 -1</clus>
<clus scale="   92.338">  2  5  1 -1</clus>
<clus scale="   59.367">  2  5  1 -1</clus>
</clustering>
</event>
<event>
 9    1  0.6014990E-005  0.1993857E+03  0.7546771E-02  0.1171411E+00
          1   -1    0    0  502    0 -0.00000000000E+00  0.00000000000E+00  0.10974255855E+04  0.10974255855E+04  0.00000000000E+00 0. -1.
         21   -1    0    0  501  502  0.00000000000E+00 -0.00000000000E+00 -0.10314034686E+03  0.10314034686E+03  0.00000000000E+00 0.  1.
        -24    2    1    2    0    0  0.59425500469E+02 -0.70595918444E+02  0.49165115660E+03  0.50654705422E+03  0.79711257334E+02 0.  0.
         23    2    1    2    0    0 -0.18580952118E+03  0.49515628831E+02  0.44681623907E+02  0.21847944421E+03  0.93594040240E+02 0.  0.
         13    1    3    3    0    0  0.30638269253E+02  0.11256717282E+02  0.92974054165E+02  0.98537261859E+02  0.00000000000E+00 0. -1.
        -14    1    3    3    0    0  0.28787231216E+02 -0.81852635726E+02  0.39867710244E+03  0.40800979236E+03  0.00000000000E+00 0.  1.
        -11    1    4    4    0    0 -0.37307381029E+02  0.36693254293E+02 -0.19967680798E+02  0.56008426743E+02  0.00000000000E+00 0.  1.
         11    1    4    4    0    0 -0.14850214015E+03  0.12822374539E+02  0.64649304705E+02  0.16247101747E+03  0.00000000000E+00 0. -1.
          2    1    1    2  501    0  0.12638402071E+03  0.21080289612E+02  0.45795245812E+03  0.47553943391E+03  0.00000000000E+00 0. -1.
<scales pt_clust_5="13000.00000" pt_clust_6="13000.00000" pt_clust_7="13000.00000" pt_clust_8="13000.00000" pt_clust_9="176.05353"></scales>
<clustering>
<clus scale="   79.711">  5  6 -1 -1</clus>
<clus scale="   93.594">  7  8 -1 -1</clus>
<clus scale="  121.939">  1  5  2 -1</clus>
<clus scale="  176.054">  2  9  1 -1</clus>
<clus scale="  176.054">  2  5  1 -1</clus>
</clustering>
</event>
<event>
 9    1  0.6014990E-005  0.1215634E+03  0.7546771E-02  0.1246346E+00
         21   -1    0    0  501  502  0.00000000000E+00  0.00000000000E+00  0.53977506877E+03  0.53977506877E+03  0.00000000000E+00 0. -1.
         -4   -1    0    0    0  501 -0.00000000000E+00 -0.00000000000E+00 -0.55445890202E+02  0.55445890202E+02  0.00000000000E+00 0.  1.
         23    2    1    2    0    0 -0.71466490787E+02 -0.38896730194E+01  0.39454765348E+02  0.12951852888E+03  0.10047776845E+03 0.  0.
        -24    2    1    2    0    0  0.51471788078E+02  0.22344149541E+02  0.40554765426E+03  0.41788036604E+03  0.83704805477E+02 0.  0.
         11    1    4    4    0    0  0.51694987462E+02 -0.18988860220E+02  0.16894916921E+03  0.17769853775E+03  0.00000000000E+00 0. -1.
        -12    1    4    4    0    0 -0.22319938430E+00  0.41333009762E+02  0.23659848505E+03  0.24018182829E+03  0.00000000000E+00 0.  1.
        -11    1    3    3    0    0 -0.58151281439E+01  0.38691956537E+02  0.32671421175E+02  0.50973571364E+02  0.00000000000E+00 0. -1.
         11    1    3    3    0    0 -0.65651362643E+02 -0.42581629556E+02  0.67833441725E+01  0.78544957513E+02  0.00000000000E+00 0.  1.
         -3    1    1    2    0  502  0.19994702709E+02 -0.18454476522E+02  0.39326758953E+02  0.47822064048E+02  0.00000000000E+00 0.  1.
<scales pt_clust_5="13000.00000" pt_clust_6="13000.00000" pt_clust_7="13000.00000" pt_clust_8="13000.00000" pt_clust_9="27.20948"></scales>
<clustering>
<clus scale="   27.209">  1  9  2 -1</clus>
<clus scale="   83.705">  5  6 -1 -1</clus>
<clus scale="  100.478">  7  8 -1 -1</clus>
<clus scale="  108.113">  1  5  2 -1</clus>
<clus scale="   27.209">  1  5  2 -1</clus>
</clustering>
</event>
<event>
 9    1  0.6014990E-005  0.9566727E+02  0.7546771E-02  0.1293495E+00
         -2   -1    0    0    0  501 -0.00000000000E+00  0.00000000000E+00  0.12474779480E+04  0.12474779480E+04  0.00000000000E+00 0.  1.
         21   -1    0    0  501  502  0.00000000000E+00 -0.00000000000E+00 -0.37283637544E+02  0.37283637544E+02  0.00000000000E+00 0.  1.
        -24    2    1    2    0    0  0.27514359380E+02 -0.35351326054E+01  0.63143678896E+03  0.63775775885E+03  0.85164566536E+02 0.  0.
         23    2    1    2    0    0  0.73924284549E+01  0.69730664789E+02  0.75363528914E+02  0.13807765907E+03  0.92025892192E+02 0.  0.
         13    1    3    3    0    0 -0.17953664077E+02  0.27082700703E+02  0.17009194084E+03  0.17316776568E+03  0.00000000000E+00 0. -1.
        -14    1    3    3    0    0  0.45468023458E+02 -0.30617833308E+02  0.46134484812E+03  0.46458999318E+03  0.00000000000E+00 0.  1.
        -11    1    4    4    0    0 -0.55542490036E+01 -0.20581855636E+02  0.27944894791E+01  0.21500503130E+02  0.00000000000E+00 0.  1.
         11    1    4    4    0    0  0.12946677459E+02  0.90312520425E+02  0.72569039435E+02  0.11657715594E+03  0.00000000000E+00 0. -1.
         -1    1    1    2    0  502 -0.34906787835E+02 -0.66195532183E+02  0.50339399261E+03  0.50892616764E+03  0.00000000000E+00 0.  1.
<scales pt_clust_5="13000.00000" pt_clust_6="13000.00000" pt_clust_7="13000.00000" pt_clust_8="13000.00000" pt_clust_9="74.83541"></scales>
<clustering>
<clus scale="   74.835">  2  9  1 -1</clus>
<clus scale="   85.165">  5  6 -1 -1</clus>
<clus scale="   89.087">  1  5  2 -1</clus>
<clus scale="   92.026">  7  8 -1 -1</clus>
<clus scale="   74.835">  2  5  1 -1</clus>
</clustering>
</event>
<event>
 9    1  0.6014990E-005  0.1318437E+03  0.7546771E-02  0.1242849E+00
         -4   -1    0    0    0  501 -0.00000000000E+00  0.00000000000E+00  0.60631748709E+02  0.60631748709E+02  0.00000000000E+00 0.  1.
         21   -1    0    0  501  502  0.00000000000E+00 -0.00000000000E+00 -0.51254635592E+03  0.51254635592E+03  0.00000000000E+00 0.  1.
        -24    2    1    2    0    0 -0.26607219060E+02  0.32718808333E+02 -0.13580862833E+03  0.16344071262E+03  0.80563133554E+02 0.  0.
         23    2    1    2    0    0  0.71303989581E+01  0.65426731623E+02 -0.48840610899E+02  0.12435576952E+03  0.93527815855E+02 0.  0.
         11    1    3    3    0    0  0.21452021658E+02  0.36904335511E+02 -0.62823164016E+02  0.75953072023E+02  0.00000000000E+00 0. -1.
        -12    1    3    3    0    0 -0.48059240718E+02 -0.41855271781E+01 -0.72985464315E+02  0.87487640598E+02  0.00000000000E+00 0.  1.
        -13    1    4    4    0    0 -0.37314109071E+02  0.23416753874E+02 -0.45160294898E+02  0.63088345461E+02  0.00000000000E+00 0. -1.
         13    1    4    4    0    0  0.44444508029E+02  0.42009977749E+02 -0.36803160010E+01  0.61267424055E+02  0.00000000000E+00 0.  1.
         -3    1    1    2    0  502  0.19476820102E+02 -0.98145539956E+02 -0.26726536798E+03  0.28538162249E+03  0.00000000000E+00 0.  1.
<scales pt_clust_5="13000.00000" pt_clust_6="13000.00000" pt_clust_7="13000.00000" pt_clust_8="13000.00000" pt_clust_9="92.92630"></scales>
<clustering>
<clus scale="   80.563">  5  6 -1 -1</clus>
<clus scale="   90.933">  1  5  2 -1</clus>
<clus scale="   92.926">  2  9  1 -1</clus>
<clus scale="   93.528">  7  8 -1 -1</clus>
<clus scale="   92.926">  2  5  1 -1</clus>
</clustering>
</event>
<event>
 9    1  0.6014990E-005  0.2302387E+03  0.7546771E-02  0.1164131E+00
          3   -1    0    0  502    0 -0.00000000000E+00  0.00000000000E+00  0.97016846427E+03  0.97016846427E+03  0.00000000000E+00 0. -1.
         21   -1    0    0  501  502  0.00000000000E+00 -0.00000000000E+00 -0.77220518395E+02  0.77220518395E+02  0.00000000000E+00 0. -1.
        -24    2    1    2    0    0  0.37752722933E+02  0.15539263423E+02  0.22458864718E+03  0.24331407556E+03  0.84231479446E+02 0.  0.
         23    2    1    2    0    0  0.13286374517E+03  0.13480449466E+03  0.40398675360E+03  0.45535429202E+03  0.91198725957E+02 0.  0.
         13    1    3    3    0    0 -0.17974012235E+02 -0.92322228835E+01  0.15367659706E+02  0.25386295910E+02  0.00000000000E+00 0. -1.
        -14    1    3    3    0    0  0.55726735167E+02  0.24771486306E+02  0.20922098747E+03  0.21792777965E+03  0.00000000000E+00 0.  1.
        -13    1    4    4    0    0 -0.13540505264E+02  0.19413027943E+02  0.43564905623E+02  0.49579349922E+02  0.00000000000E+00 0.  1.
         13    1    4    4    0    0  0.14640425043E+03  0.11539146671E+03  0.36042184798E+03  0.40577494210E+03  0.00000000000E+00 0. -1.
          4    1    1    2  501    0 -0.17061646810E+03 -0.15034375808E+03  0.26437254510E+03  0.34872061508E+03  0.00000000000E+00 0. -1.
<scales pt_clust_5="13000.00000" pt_clust_6="13000.00000" pt_clust_7="13000.00000" pt_clust_8="13000.00000" pt_clust_9="211.40638"></scales>
<clustering>
<clus scale="   84.231">  5  6 -1 -1</clus>
<clus scale="   91.199">  7  8 -1 -1</clus>
<clus scale="   93.604">  1  5  2 -1</clus>
<clus scale="  211.406">  2  9  1 -1</clus>
<clus scale="  211.406">  2  5  1 -1</clus>
</clustering>
</event>
<event>
 9    1  0.6014990E-005  0.9985670E+02  0.7546771E-02  0.1285097E+00
          1   -1    0    0  502    0 -0.00000000000E+00  0.00000000000E+00  0.17570054599E+03  0.17570054599E+03  0.00000000000E+00 0. -1.
         21   -1    0    0  501  502  0.00000000000E+00 -0.00000000000E+00 -0.26420331568E+03  0.26420331568E+03  0.00000000000E+00 0. -1.
        -24    2    1    2    0    0 -0.66189646174E+01  0.46988658204E+02  0.10456438021E+03  0.14024342667E+03  0.80515616024E+02 0.  0.
         23    2    1    2    0    0 -0.37838346523E+02 -0.32360389792E+01 -0.21296837005E+03  0.23418675504E+03  0.89697810334E+02 0.  0.
         13    1    3    3    0    0  0.22136203335E+02  0.57688521892E+02  0.59914259199E+02  0.86067970300E+02  0.00000000000E+00 0. -1.
        -14    1    3    3    0    0 -0.28755167953E+02 -0.10699863687E+02  0.44650121011E+02  0.54175456373E+02  0.00000000000E+00 0.  1.
        -13    1    4    4    0    0  0.55177297361E+01 -0.38916428237E+02 -0.65476615497E+02  0.76368323964E+02  0.00000000000E+00 0.  1.
         13    1    4    4    0    0 -0.43356076259E+02  0.35680389258E+02 -0.14749175456E+03  0.15781843108E+03  0.00000000000E+00 0. -1.
          2    1    1    2  501    0  0.44457311140E+02 -0.43752619225E+02  0.19901220151E+02  0.65473679951E+02  0.00000000000E+00 0. -1.
<scales pt_clust_5="13000.00000" pt_clust_6="13000.00000" pt_clust_7="13000.00000" pt_clust_8="13000.00000" pt_clust_9="62.37586"></scales>
<clustering>
<clus scale="   62.376">  2  9  1 -1</clus>
<clus scale="   80.516">  5  6 -1 -1</clus>
<clus scale="   89.698">  7  8 -1 -1</clus>
<clus scale="   91.697">  1  5  2 -1</clus>
<clus scale="   62.376">  2  5  1 -1</clus>
</clustering>
</event>
<event>
 9    1  0.6014990E-005  0.1400240E+03  0.7546771E-02  0.1233092E+00
         21   -1    0    0  501  502  0.00000000000E+00  0.00000000000E+00  0.13227557066E+03  0.13227557066E+03  0.00000000000E+00 0.  1.
         -2   -1    0    0    0  501 -0.00000000000E+00 -0.00000000000E+00 -0.50730155695E+03  0.50730155695E+03  0.00000000000E+00 0.  1.
         23    2    1    2    0    0 -0.13865037749E+02  0.11619889343E+01  0.48895159704E+02  0.10472191781E+03  0.91555196119E+02 0.  0.
        -24    2    1    2    0    0  0.12392881693E+03 -0.27051667166E+02 -0.38854314793E+03  0.41638194838E+03  0.79485877805E+02 0.  0.
         13    1    4    4    0    0  0.13583695530E+02  0.15839112661E+02 -0.18583541217E+02  0.27941765841E+02  0.00000000000E+00 0. -1.
        -14    1    4    4    0    0  0.11034512140E+03 -0.42890779827E+02 -0.36995960671E+03  0.38844018254E+03  0.00000000000E+00 0.  1.
        -11    1    3    3    0    0 -0.48948304839E+02 -0.17720148746E+02  0.34051205722E+02  0.62204701023E+02  0.00000000000E+00 0. -1.
         11    1    3    3    0    0  0.35083267090E+02  0.18882137680E+02  0.14843953982E+02  0.42517216782E+02  0.00000000000E+00 0.  1.
         -1    1    1    2    0  502 -0.11006377918E+03  0.25889678231E+02 -0.35377998065E+02  0.11847326142E+03  0.00000000000E+00 0.  1.
<scales pt_clust_5="13000.00000" pt_clust_6="13000.00000" pt_clust_7="13000.00000" pt_clust_8="13000.00000" pt_clust_9="115.27665"></scales>
<clustering>
<clus scale="   79.486">  5  6 -1 -1</clus>
<clus scale="   91.555">  7  8 -1 -1</clus>
<clus scale="   92.606">  2  7  1 -1</clus>
<clus scale="  115.277">  1  9  2 -1</clus>
<clus scale="  115.277">  1  5  2 -1</clus>
</clustering>
</event>
<event>
 9    1  0.6014990E-005  0.1174863E+03  0.7546771E-02  0.1250482E+00
          1   -1    0    0  502    0 -0.00000000000E+00  0.00000000000E+00  0.66600972038E+03  0.66600972038E+03  0.00000000000E+00 0. -1.
         21   -1    0    0  501  502  0.00000000000E+00 -0.00000000000E+00 -0.93978729720E+02  0.93978729720E+02  0.00000000000E+00 0. -1.
         23    2    1    2    0    0  0.66664818371E+02 -0.28415147712E+02  0.46232772836E+03  0.47695445283E+03  0.92124931642E+02 0.  0.
        -24    2    1    2    0    0 -0.43715111312E+02  0.73710102003E+02  0.16787150015E+03  0.20582087771E+03  0.82687381418E+02 0.  0.
         13    1    4    4    0    0  0.16378103223E+02  0.50203773781E+02  0.93293459772E+02  0.10720228917E+03  0.00000000000E+00 0. -1.
        -14    1    4    4    0    0 -0.60093214535E+02  0.23506328222E+02  0.74578040374E+02  0.98618588540E+02  0.00000000000E+00 0.  1.
        -11    1    3    3    0    0  0.21400674736E+02  0.32042700810E+02  0.21232023115E+03  0.21578833173E+03  0.00000000000E+00 0.  1.
         11    1    3    3    0    0  0.45264143635E+02 -0.60457848522E+02  0.25000749721E+03  0.26116612109E+03  0.00000000000E+00 0. -1.
          2    1    1    2  501    0 -0.22949707059E+02 -0.45294954291E+02 -0.58168237849E+02  0.77213119564E+02  0.00000000000E+00 0. -1.
<scales pt_clust_5="13000.00000" pt_clust_6="13000.00000" pt_clust_7="13000.00000" pt_clust_8="13000.00000" pt_clust_9="50.77718"></scales>
<clustering>
<clus scale="   50.777">  2  9  1 -1</clus>
<clus scale="   82.687">  5  6 -1 -1</clus>
<clus scale="   92.125">  7  8 -1 -1</clus>
<clus scale="  110.242">  2  5  1 -1</clus>
<clus scale="   50.777">  2  5  1 -1</clus>
</clustering>
</event>
<event>
 9    1  0.6014990E-005  0.9474849E+02  0.7546771E-02  0.1297221E+00
         21   -1    0    0  501  502  0.00000000000E+00  0.00000000000E+00  0.25736704686E+03  0.25736704686E+03  0.00000000000E+00 0. -1.
          1   -1    0    0  502    0 -0.00000000000E+00 -0.00000000000E+00 -0.76484733879E+02  0.76484733879E+02  0.00000000000E+00 0. -1.
         23    2    1    2    0    0 -0.35218645936E+02 -0.22193979291E+02  0.35882181777E+01  0.10063480063E+03  0.91550871378E+02 0.  0.
        -24    2    1    2    0    0  0.60088584473E+01 -0.23271818935E+02  0.61068171846E+02  0.10504203848E+03  0.82017219531E+02 0.  0.
         13    1    4    4    0    0  0.12530702999E+02 -0.42652069350E+02  0.69843109949E+02  0.82790564347E+02  0.00000000000E+00 0. -1.
        -14    1    4    4    0    0 -0.65218445514E+01  0.19380250415E+02 -0.87749381034E+01  0.22251474135E+02  0.00000000000E+00 0.  1.
        -13    1    3    3    0    0 -0.48103311077E+02  0.15608138996E+02 -0.19849088807E+02  0.54327974985E+02  0.00000000000E+00 0. -1.
         13    1    3    3    0    0  0.12884665141E+02 -0.37802118287E+02  0.23437306985E+02  0.46306825646E+02  0.00000000000E+00 0.  1.
          2    1    1    2  501    0  0.29209787489E+02  0.45465798226E+02  0.11622592295E+03  0.12817494162E+03  0.00000000000E+00 0. -1.
<scales pt_clust_5="13000.00000" pt_clust_6="13000.00000" pt_clust_7="13000.00000" pt_clust_8="13000.00000" pt_clust_9="54.04027"></scales>
<clustering>
<clus scale="   54.040">  1  9  2 -1</clus>
<clus scale="   82.017">  5  6 -1 -1</clus>
<clus scale="   85.572">  1  5  2 -1</clus>
<clus scale="   91.551">  7  8 -1 -1</clus>
<clus scale="   54.040">  1  5  2 -1</clus>
</clustering>
</event>
<event>
 9    1  0.6014990E-005  0.2978993E+03  0.7546771E-02  0.1086295E+00
         -2   -1    0    0    0  501 -0.00000000000E+00  0.00000000000E+00  0.48784979806E+03  0.48784979806E+03  0.00000000000E+00 0.  1.
         21   -1    0    0  501  502  0.00000000000E+00 -0.00000000000E+00 -0.17089849365E+03  0.17089849365E+03  0.00000000000E+00 0.  1.
        -24    2    1    2    0    0  0.15601802911E+03 -0.26103967311E+02  0.14463611855E+03  0.22915561443E+03  0.81053354779E+02 0.  0.
         23    2    1    2    0    0  0.57185954002E+02 -0.28973022755E+02  0.17712737179E+03  0.20933698409E+03  0.91313732198E+02 0.  0.
         13    1    3    3    0    0  0.40624976586E+02  0.27004609239E+02  0.55963364786E+02  0.74239718756E+02  0.00000000000E+00 0. -1.
        -14    1    3    3    0    0  0.11539305252E+03 -0.53108576550E+02  0.88672753765E+02  0.15491589568E+03  0.00000000000E+00 0.  1.
        -13    1    4    4    0    0  0.53192200944E+02  0.13712553095E+02  0.14702685789E+03  0.15695330929E+03  0.00000000000E+00 0.  1.
         13    1    4    4    0    0  0.39937530581E+01 -0.42685575850E+02  0.30100513895E+02  0.52383674803E+02  0.00000000000E+00 0. -1.
         -1    1    1    2    0  502 -0.21320398311E+03  0.55076990066E+02 -0.48121859303E+01  0.22025569319E+03  0.00000000000E+00 0.  1.
<scales pt_clust_5="13000.00000" pt_clust_6="13000.00000" pt_clust_7="13000.00000" pt_clust_8="13000.00000" pt_clust_9="220.20312"></scales>
<clustering>
<clus scale="   81.053">  5  6 -1 -1</clus>
<clus scale="   91.314">  7  8 -1 -1</clus>
<clus scale="  109.614">  5  7 -1 -1</clus>
<clus scale="  220.203">  2  9  1 -1</clus>
<clus scale="  220.203">  2  5  1 -1</clus>
</clustering>
</event>
<event>
 9    1  0.6014990E-005  0.1211748E+03  0.7546771E-02  0.1245830E+00
          1   -1    0    0  502    0 -0.00000000000E+00  0.00000000000E+00  0.25822223984E+03  0.25822223984E+03  0.00000000000E+00 0. -1.
         21   -1    0    0  501  502  0.00000000000E+00 -0.00000000000E+00 -0.15002964485E+03  0.15002964485E+03  0.00000000000E+00 0.  1.
        -24    2    1    2    0    0 -0.36895206925E+02  0.64368486521E+02  0.32570095166E+02  0.11500443801E+03  0.81612813410E+02 0.  0.
         23    2    1    2    0    0 -0.72674475214E+02 -0.22659718467E+01 -0.40262181834E+02  0.12209985827E+03  0.89446174468E+02 0.  0.
         13    1    3    3    0    0 -0.52598385436E+02  0.26013677308E+02  0.42417832574E+02  0.72405621866E+02  0.00000000000E+00 0. -1.
        -14    1    3    3    0    0  0.15703178511E+02  0.38354809214E+02 -0.98477374082E+01  0.42598816148E+02  0.00000000000E+00 0.  1.
        -11    1    4    4    0    0 -0.48461247344E+02  0.40524016022E+02 -0.89319304762E+01  0.63800217481E+02  0.00000000000E+00 0. -1.
         11    1    4    4    0    0 -0.24213227871E+02 -0.42789987869E+02 -0.31330251358E+02  0.58299640787E+02  0.00000000000E+00 0.  1.
          2    1    1    2  501    0  0.10956968214E+03 -0.62102514675E+02  0.11588468166E+03  0.17114758840E+03  0.00000000000E+00 0. -1.
<scales pt_clust_5="13000.00000" pt_clust_6="13000.00000" pt_clust_7="13000.00000" pt_clust_8="13000.00000" pt_clust_9="81.74787"></scales>
<clustering>
<clus scale="   81.613">  5  6 -1 -1</clus>
<clus scale="   89.446">  7  8 -1 -1</clus>
<clus scale="  110.296">  1  5  2 -1</clus>
<clus scale="   81.748">  2  9  1 -1</clus>
<clus scale="   81.748">  2  5  1 -1</clus>
</clustering>
</event>
<event>
 9    1  0.6014990E-005  0.8635572E+02  0.7546771E-02  0.1315378E+00
          1   -1    0    0  502    0 -0.00000000000E+00  0.00000000000E+00  0.54497610003E+03  0.54497610003E+03  0.00000000000E+00 0. -1.
         21   -1    0    0  501  502  0.00000000000E+00 -0.00000000000E+00 -0.18296897820E+02  0.18296897820E+02  0.00000000000E+00 0. -1.
        -24    2    1    2    0    0 -0.13872417961E+02  0.19644114185E+02  0.24905683808E+03  0.26250089093E+03  0.79366705477E+02 0.  0.
         23    2    1    2    0    0  0.13219111569E+02  0.47525651480E+01  0.17036673772E+03  0.19077486075E+03  0.84692918145E+02 0.  0.
         13    1    3    3    0    0 -0.43397588964E+02 -0.41718481549E+01  0.10893846780E+03  0.11733859046E+03  0.00000000000E+00 0. -1.
        -14    1    3    3    0    0  0.29525171003E+02  0.23815962340E+02  0.14011837029E+03  0.14516230047E+03  0.00000000000E+00 0.  1.
        -11    1    4    4    0    0 -0.14109972555E+02 -0.34911263348E+02  0.77162790700E+02  0.85860257993E+02  0.00000000000E+00 0.  1.
         11    1    4    4    0    0  0.27329084124E+02  0.39663828496E+02  0.93203947025E+02  0.10491460275E+03  0.00000000000E+00 0. -1.
          2    1    1    2  501    0  0.65330639197E+00 -0.24396679333E+02  0.10725562640E+03  0.10999724618E+03  0.00000000000E+00 0. -1.
<scales pt_clust_5="13000.00000" pt_clust_6="13000.00000" pt_clust_7="13000.00000" pt_clust_8="13000.00000" pt_clust_9="24.40544"></scales>
<clustering>
<clus scale="   24.405">  2  9  1 -1</clus>
<clus scale="   79.367">  5  6 -1 -1</clus>
<clus scale="   81.139">  1  5  2 -1</clus>
<clus scale="   84.693">  7  8 -1 -1</clus>
<clus scale="   24.405">  2  5  1 -1</clus>
</clustering>
</event>
<event>
 9    1  0.6014990E-005  0.2126548E+03  0.7546771E-02  0.1173821E+00
         21   -1    0    0  501  502  0.00000000000E+00  0.00000000000E+00  0.47531243914E+02  0.47531243914E+02  0.00000000000E+00 0. -1.
          1   -1    0    0  502    0 -0.00000000000E+00 -0.00000000000E+00 -0.14846098076E+04  0.14846098076E+04  0.00000000000E+00 0. -1.
         23    2    1    2    0    0  0.28977582220E+02  0.14509043692E+02 -0.13550022083E+03  0.16556547334E+03  0.89450564528E+02 0.  0.
        -24    2    1    2    0    0 -0.11883364845E+03 -0.17740184310E+03 -0.78609154981E+03  0.81854746710E+03  0.80543039871E+02 0.  0.
         11    1    4    4    0    0 -0.60675779485E+02 -0.88788578497E+02 -0.53993727783E+03  0.55054266491E+03  0.00000000000E+00 0. -1.
        -12    1    4    4    0    0 -0.58157868965E+02 -0.88613264599E+02 -0.24615427197E+03  0.26800480219E+03  0.00000000000E+00 0.  1.
        -11    1    3    3    0    0 -0.17617797471E+02  0.35922188932E+02 -0.36902236571E+02  0.54429454428E+02  0.00000000000E+00 0. -1.
         11    1    3    3    0    0  0.46595379691E+02 -0.21413145240E+02 -0.98597984263E+02  0.11113601891E+03  0.00000000000E+00 0.  1.
          2    1    1    2  501    0  0.89856066229E+02  0.16289279940E+03 -0.51548679304E+03  0.54802811108E+03  0.00000000000E+00 0. -1.
<scales pt_clust_5="13000.00000" pt_clust_6="13000.00000" pt_clust_7="13000.00000" pt_clust_8="13000.00000" pt_clust_9="196.81176"></scales>
<clustering>
<clus scale="   80.543">  5  6 -1 -1</clus>
<clus scale="   89.451">  7  8 -1 -1</clus>
<clus scale="   95.140">  2  7  1 -1</clus>
<clus scale="  196.812">  1  9  2 -1</clus>
<clus scale="  196.812">  1  5  2 -1</clus>
</clustering>
</event>
<event>
 9    1  0.6014990E-005  0.1056698E+03  0.7546771E-02  0.1276053E+00
         21   -1    0    0  501  502  0.00000000000E+00  0.00000000000E+00  0.18143214786E+03  0.18143214786E+03  0.00000000000E+00 0.  1.
          1   -1    0    0  502    0 -0.00000000000E+00 -0.00000000000E+00 -0.84265763698E+02  0.84265763698E+02  0.00000000000E+00 0. -1.
        -24    2    1    2    0    0  0.51836082579E+02  0.23350005005E+02 -0.35619337341E+01  0.93465159763E+02  0.74100246469E+02 0.  0.
         23    2    1    2    0    0 -0.50724809298E+02 -0.34807191014E-01  0.10590446711E+03  0.14832405258E+03  0.90616008133E+02 0.  0.
         11    1    3    3    0    0  0.61654153972E+02  0.26795355302E+02 -0.23303234439E+02  0.71149606486E+02  0.00000000000E+00 0. -1.
        -12    1    3    3    0    0 -0.98180713931E+01 -0.34453502974E+01  0.19741300705E+02  0.22315553277E+02  0.00000000000E+00 0.  1.
        -11    1    4    4    0    0 -0.34939683500E+02  0.41533079225E+02  0.80579370604E+02  0.97153554335E+02  0.00000000000E+00 0.  1.
         11    1    4    4    0    0 -0.15785125798E+02 -0.41567886417E+02  0.25325096507E+02  0.51170498245E+02  0.00000000000E+00 0. -1.
          2    1    1    2  501    0 -0.11112732811E+01 -0.23315197814E+02 -0.51761492154E+01  0.23908699214E+02  0.00000000000E+00 0. -1.
<scales pt_clust_5="13000.00000" pt_clust_6="13000.00000" pt_clust_7="13000.00000" pt_clust_8="13000.00000" pt_clust_9="23.34168"></scales>
<clustering>
<clus scale="   23.342">  1  9  2 -1</clus>
<clus scale="   74.100">  5  6 -1 -1</clus>
<clus scale="   90.616">  7  8 -1 -1</clus>
<clus scale="   91.900">  2  5  1 -1</clus>
<clus scale="   23.342">  1  5  2 -1</clus>
</clustering>
</event>
<event>
 9    1  0.6014990E-005  0.1319553E+03  0.7546771E-02  0.1225004E+00
          1   -1    0    0  502    0 -0.00000000000E+00  0.00000000000E+00  0.15746849616E+04  0.15746849616E+04  0.00000000000E+00 0. -1.
         21   -1    0    0  501  502  0.00000000000E+00 -0.00000000000E+00 -0.23159228521E+02  0.23159228521E+02  0.00000000000E+00 0. -1.
        -24    2    1    2    0    0  0.47710565190E+02 -0.64104535160E+02  0.67798643890E+03  0.68920075274E+03  0.94585288449E+02 0.  0.
         23    2    1    2    0    0  0.66046583586E+01  0.13291939688E+03  0.58027468803E+03  0.60255561024E+03  0.92969684762E+02 0.  0.
         13    1    3    3    0    0  0.76520110118E+02 -0.44365528415E+02  0.45858705185E+03  0.46703930400E+03  0.00000000000E+00 0. -1.
        -14    1    3    3    0    0 -0.28809544928E+02 -0.19739006745E+02  0.21939938705E+03  0.22216144874E+03  0.00000000000E+00 0.  1.
        -13    1    4    4    0    0  0.35583957474E+02  0.59551525348E+02  0.39714845693E+03  0.40316187697E+03  0.00000000000E+00 0.  1.
         13    1    4    4    0    0 -0.28979299115E+02  0.73367871530E+02  0.18312623110E+03  0.19939373327E+03  0.00000000000E+00 0. -1.
          2    1    1    2  501    0 -0.54315223549E+02 -0.68814861718E+02  0.29326460617E+03  0.30608782716E+03  0.00000000000E+00 0. -1.
<scales pt_clust_5="13000.00000" pt_clust_6="13000.00000" pt_clust_7="13000.00000" pt_clust_8="13000.00000" pt_clust_9="87.66772"></scales>
<clustering>
<clus scale="   87.668">  2  9  1 -1</clus>
<clus scale="   92.970">  7  8 -1 -1</clus>
<clus scale="   94.585">  5  6 -1 -1</clus>
<clus scale="  130.802">  2  7  1 -1</clus>
<clus scale="   87.668">  2  5  1 -1</clus>
</clustering>
</event>
<event>
 9    1  0.6014990E-005  0.1049240E+03  0.7546771E-02  0.1280465E+00
         -2   -1    0    0    0  501 -0.00000000000E+00  0.00000000000E+00  0.27835390619E+02  0.27835390619E+02  0.00000000000E+00 0.  1.
         21   -1    0    0  501  502  0.00000000000E+00 -0.00000000000E+00 -0.49172699444E+03  0.49172699444E+03  0.00000000000E+00 0.  1.
        -24    2    1    2    0    0  0.13711610213E+02  0.54496256202E+02 -0.15256206104E+03  0.17854511869E+03  0.73792457223E+02 0.  0.
         23    2    1    2    0    0 -0.20974341977E+02 -0.20279452273E+02 -0.26481868903E+03  0.28282107697E+03  0.94908610337E+02 0.  0.
         11    1    3    3    0    0 -0.29115344839E+02  0.19123622340E+02 -0.79240960478E+02  0.86559494303E+02  0.00000000000E+00 0. -1.
        -12    1    3    3    0    0  0.42826955053E+02  0.35372633862E+02 -0.73321100567E+02  0.91985624386E+02  0.00000000000E+00 0.  1.
        -11    1    4    4    0    0 -0.23906573374E+01 -0.50151595934E+02 -0.22097619869E+03  0.22660842483E+03  0.00000000000E+00 0. -1.
         11    1    4    4    0    0 -0.18583684639E+02  0.29872143661E+02 -0.43842490333E+02  0.56212652137E+02  0.00000000000E+00 0.  1.
         -1    1    1    2    0  502  0.72627317631E+01 -0.34216803929E+02 -0.46510853746E+02  0.58196189394E+02  0.00000000000E+00 0.  1.
<scales pt_clust_5="13000.00000" pt_clust_6="13000.00000" pt_clust_7="13000.00000" pt_clust_8="13000.00000" pt_clust_9="34.97911"></scales>
<clustering>
<clus scale="   34.979">  2  9  1 -1</clus>
<clus scale="   73.792">  5  6 -1 -1</clus>
<clus scale="   86.294">  1  5  2 -1</clus>
<clus scale="   94.909">  7  8 -1 -1</clus>
<clus scale="   34.979">  2  5  1 -1</clus>
</clustering>
</event>
<event>
 9    1  0.6014990E-005  0.9454229E+02  0.7546771E-02  0.1297030E+00
          1   -1    0    0  502    0 -0.00000000000E+00  0.00000000000E+00  0.21438512008E+03  0.21438512008E+03  0.00000000000E+00 0. -1.
         21   -1    0    0  501  502  0.00000000000E+00 -0.00000000000E+00 -0.15798550075E+03  0.15798550075E+03  0.00000000000E+00 0. -1.
        -24    2    1    2    0    0 -0.40408663692E+02 -0.72177256753E+01 -0.34759201380E+02  0.98045943584E+02  0.81974686991E+02 0.  0.
         23    2    1    2    0    0 -0.37100475687E+02  0.50222607596E+02 -0.39175051444E+02  0.11670486635E+03  0.90479752238E+02 0.  0.
         11    1    3    3    0    0 -0.34762910699E+02 -0.40206830403E+02 -0.52215147739E+01  0.53407053727E+02  0.00000000000E+00 0. -1.
        -12    1    3    3    0    0 -0.56457529929E+01  0.32989104727E+02 -0.29537686606E+02  0.44638889856E+02  0.00000000000E+00 0.  1.
        -11    1    4    4    0    0 -0.25483841729E+02  0.66775026351E+01  0.26295620189E+02  0.37221967598E+02  0.00000000000E+00 0.  1.
         11    1    4    4    0    0 -0.11616633958E+02  0.43545104961E+02 -0.65470671634E+02  0.79482898756E+02  0.00000000000E+00 0. -1.
          2    1    1    2  501    0  0.77509139378E+02 -0.43004881921E+02  0.13033387215E+03  0.15761981090E+03  0.00000000000E+00 0. -1.
<scales pt_clust_5="13000.00000" pt_clust_6="13000.00000" pt_clust_7="13000.00000" pt_clust_8="13000.00000" pt_clust_9="88.64025"></scales>
<clustering>
<clus scale="   81.975">  5  6 -1 -1</clus>
<clus scale="   88.640">  2  9  1 -1</clus>
<clus scale="   86.438">  1  5  2 -1</clus>
<clus scale="   90.480">  7  8 -1 -1</clus>
<clus scale="   88.640">  2  5  1 -1</clus>
</clustering>
</event>
<event>
 9    1  0.6014990E-005  0.9348120E+02  0.7546771E-02  0.1298992E+00
         21   -1    0    0  501  502  0.00000000000E+00  0.00000000000E+00  0.38839950690E+03  0.38839950690E+03  0.00000000000E+00 0.  1.
          3   -1    0    0  502    0 -0.00000000000E+00 -0.00000000000E+00 -0.76258824616E+02  0.76258824616E+02  0.00000000000E+00 0. -1.
         23    2    1    2    0    0 -0.15935289445E+02  0.12771332375E+02 -0.17270246053E+02  0.94016840024E+02  0.90132482652E+02 0.  0.
        -24    2    1    2    0    0  0.55758369509E+02 -0.26517045441E+02  0.30498242867E+03  0.32194268319E+03  0.82587287131E+02 0.  0.
         13    1    4    4    0    0 -0.18396767255E+02 -0.12564876555E+02  0.33983502111E+02  0.40634905980E+02  0.00000000000E+00 0. -1.
        -14    1    4    4    0    0  0.74155136764E+02 -0.13952168886E+02  0.27099892656E+03  0.28130777721E+03  0.00000000000E+00 0.  1.
        -11    1    3    3    0    0  0.28217464633E+02  0.30556702983E+02 -0.20375875289E+02  0.46315372192E+02  0.00000000000E+00 0.  1.
         11    1    3    3    0    0 -0.44152754078E+02 -0.17785370608E+02  0.31056292358E+01  0.47701467832E+02  0.00000000000E+00 0. -1.
          4    1    1    2  501    0 -0.39823080064E+02  0.13745713066E+02  0.24428499665E+02  0.48698808295E+02  0.00000000000E+00 0. -1.
<scales pt_clust_5="13000.00000" pt_clust_6="13000.00000" pt_clust_7="13000.00000" pt_clust_8="13000.00000" pt_clust_9="42.12866"></scales>
<clustering>
<clus scale="   42.129">  1  9  2 -1</clus>
<clus scale="   82.587">  5  6 -1 -1</clus>
<clus scale="   86.230">  1  5  2 -1</clus>
<clus scale="   90.132">  7  8 -1 -1</clus>
<clus scale="   42.129">  1  5  2 -1</clus>
</clustering>
</event>
<event>
 9    1  0.6014990E-005  0.9684880E+02  0.7546771E-02  0.1288907E+00
         21   -1    0    0  501  502  0.00000000000E+00  0.00000000000E+00  0.25253235241E+03  0.25253235241E+03  0.00000000000E+00 0. -1.
          1   -1    0    0  502    0 -0.00000000000E+00 -0.00000000000E+00 -0.10103163467E+03  0.10103163467E+03  0.00000000000E+00 0. -1.
         23    2    1    2    0    0  0.43721414513E+02 -0.41155052927E+01  0.48390386187E+01  0.10055416048E+03  0.90328419801E+02 0.  0.
        -24    2    1    2    0    0  0.72178381959E+01 -0.74355407250E+02  0.63820868052E+02  0.12804946664E+03  0.82114182287E+02 0.  0.
         13    1    4    4    0    0 -0.32146570420E+02 -0.49894653346E+02  0.54904880090E+02  0.80854339896E+02  0.00000000000E+00 0. -1.
        -14    1    4    4    0    0  0.39364408616E+02 -0.24460753904E+02  0.89159879616E+01  0.47195126745E+02  0.00000000000E+00 0.  1.
        -11    1    3    3    0    0  0.39783446021E+02 -0.37261923401E+02  0.26656050598E+02  0.60677166598E+02  0.00000000000E+00 0. -1.
         11    1    3    3    0    0  0.39379684923E+01  0.33146418108E+02 -0.21817011979E+02  0.39876993880E+02  0.00000000000E+00 0.  1.
          2    1    1    2  501    0 -0.50939252709E+02  0.78470912542E+02  0.82840811068E+02  0.12496035996E+03  0.00000000000E+00 0. -1.
<scales pt_clust_5="13000.00000" pt_clust_6="13000.00000" pt_clust_7="13000.00000" pt_clust_8="13000.00000" pt_clust_9="93.55475"></scales>
<clustering>
<clus scale="   82.114">  5  6 -1 -1</clus>
<clus scale="   90.328">  7  8 -1 -1</clus>
<clus scale="   93.555">  1  9  2 -1</clus>
<clus scale="   93.555">  1  5  2 -1</clus>
<clus scale="   93.555">  1  5  2 -1</clus>
</clustering>
</event>
<event>
 9    1  0.6014990E-005  0.1100801E+03  0.7546771E-02  0.1264483E+00
          1   -1    0    0  502    0 -0.00000000000E+00  0.00000000000E+00  0.66348287563E+03  0.66348287563E+03  0.00000000000E+00 0. -1.
         21   -1    0    0  501  502  0.00000000000E+00 -0.00000000000E+00 -0.41535177640E+02  0.41535177640E+02  0.00000000000E+00 0.  1.
        -24    2    1    2    0    0 -0.41914481633E+02 -0.31036451647E+02  0.34698349886E+03  0.36010937668E+03  0.81000799940E+02 0.  0.
         23    2    1    2    0    0  0.97073457102E+02  0.40942115890E+02  0.13473665628E+03  0.19389742359E+03  0.91338553756E+02 0.  0.
         13    1    3    3    0    0 -0.64841396415E+02 -0.23670911830E+02  0.21081803878E+03  0.22183093614E+03  0.00000000000E+00 0. -1.
        -14    1    3    3    0    0  0.22926914782E+02 -0.73655398176E+01  0.13616546009E+03  0.13827844054E+03  0.00000000000E+00 0.  1.
        -13    1    4    4    0    0  0.23778404178E+02  0.43857211982E+02  0.10204914072E+03  0.11359090927E+03  0.00000000000E+00 0. -1.
         13    1    4    4    0    0  0.73295052924E+02 -0.29150960928E+01  0.32687515565E+02  0.80306514319E+02  0.00000000000E+00 0.  1.
          2    1    1    2  501    0 -0.55158975469E+02 -0.99056642424E+01  0.14022754285E+03  0.15101125300E+03  0.00000000000E+00 0. -1.
<scales pt_clust_5="13000.00000" pt_clust_6="13000.00000" pt_clust_7="13000.00000" pt_clust_8="13000.00000" pt_clust_9="56.04139"></scales>
<clustering>
<clus scale="   56.041">  2  9  1 -1</clus>
<clus scale="   81.001">  5  6 -1 -1</clus>
<clus scale="   91.339">  7  8 -1 -1</clus>
<clus scale="  101.666">  1  5  2 -1</clus>
<clus scale="   56.041">  2  5  1 -1</clus>
</clustering>
</event>
<event>
 9    1  0.6014990E-005  0.1238771E+03  0.7546771E-02  0.1241573E+00
         21   -1    0    0  501  502  0.00000000000E+00  0.00000000000E+00  0.12909117100E+03  0.12909117100E+03  0.00000000000E+00 0. -1.
          1   -1    0    0  502    0 -0.00000000000E+00 -0.00000000000E+00 -0.30737414385E+03  0.30737414385E+03  0.00000000000E+00 0. -1.
         23    2    1    2    0    0 -0.56233562283E+02  0.38593467863E+02  0.30612532194E+02  0.11658790734E+03  0.89464762465E+02 0.  0.
        -24    2    1    2    0    0 -0.61507298193E+02 -0.61789286247E+02 -0.71368353635E+02  0.13735433063E+03  0.78560210128E+02 0.  0.
         11    1    4    4    0    0 -0.21517062519E+02 -0.63340802431E+02 -0.70694872620E+02  0.97328342464E+02  0.00000000000E+00 0. -1.
        -12    1    4    4    0    0 -0.39990235674E+02  0.15515161838E+01 -0.67348101534E+00  0.40025988163E+02  0.00000000000E+00 0.  1.
        -11    1    3    3    0    0 -0.41400966947E+02  0.63335873809E+02  0.40835135936E+02  0.85982447640E+02  0.00000000000E+00 0. -1.
         11    1    3    3    0    0 -0.14832595336E+02 -0.24742405946E+02 -0.10222603742E+02  0.30605459704E+02  0.00000000000E+00 0.  1.
          2    1    1    2  501    0  0.11774086048E+03  0.23195818384E+02 -0.13752715141E+03  0.18252307687E+03  0.00000000000E+00 0. -1.
<scales pt_clust_5="13000.00000" pt_clust_6="13000.00000" pt_clust_7="13000.00000" pt_clust_8="13000.00000" pt_clust_9="95.78010"></scales>
<clustering>
<clus scale="   78.560">  5  6 -1 -1</clus>
<clus scale="   89.465">  7  8 -1 -1</clus>
<clus scale="  112.497">  2  7  1 -1</clus>
<clus scale="   95.780">  1  9  2 -1</clus>
<clus scale="   95.780">  1  5  2 -1</clus>
</clustering>
</event>
<event>
 9    1  0.6014990E-005  0.1234858E+03  0.7546771E-02  0.1240883E+00
         21   -1    0    0  501  502  0.00000000000E+00  0.00000000000E+00  0.13415169293E+03  0.13415169293E+03  0.00000000000E+00 0.  1.
         -2   -1    0    0    0  501 -0.00000000000E+00 -0.00000000000E+00 -0.16263043976E+03  0.16263043976E+03  0.00000000000E+00 0.  1.
        -24    2    1    2    0    0  0.10298543911E+02 -0.84391779770E+02 -0.66444086143E+02  0.13464035127E+03  0.80530584913E+02 0.  0.
         23    2    1    2    0    0 -0.38430371100E+02  0.71003909750E+02  0.14801322236E+02  0.12331902455E+03  0.92032896582E+02 0.  0.
         13    1    3    3    0    0  0.33356442399E+02 -0.40429307305E+02 -0.66911141640E+02  0.84995776450E+02  0.00000000000E+00 0. -1.
        -14    1    3    3    0    0 -0.23057898488E+02 -0.43962472465E+02  0.46705549736E+00  0.49644574817E+02  0.00000000000E+00 0.  1.
        -13    1    4    4    0    0 -0.66934165848E+02  0.53096211351E+02  0.23385962957E+02  0.88579306167E+02  0.00000000000E+00 0.  1.
         13    1    4    4    0    0  0.28503794748E+02  0.17907698399E+02 -0.85846407207E+01  0.34739718382E+02  0.00000000000E+00 0. -1.
         -1    1    1    2    0  502  0.28131827189E+02  0.13387870021E+02  0.23164017073E+02  0.38822756879E+02  0.00000000000E+00 0.  1.
<scales pt_clust_5="13000.00000" pt_clust_6="13000.00000" pt_clust_7="13000.00000" pt_clust_8="13000.00000" pt_clust_9="31.15501"></scales>
<clustering>
<clus scale="   31.155">  1  9  2 -1</clus>
<clus scale="   80.531">  5  6 -1 -1</clus>
<clus scale="   92.033">  7  8 -1 -1</clus>
<clus scale="  115.169">  2  5  1 -1</clus>
<clus scale="   31.155">  1  5  2 -1</clus>
</clustering>
</event>
<event>
 9    1  0.6014990E-005  0.1610597E+03  0.7546771E-02  0.1200361E+00
         21   -1    0    0  501  502  0.00000000000E+00  0.00000000000E+00  0.34335542492E+03  0.34335542492E+03  0.00000000000E+00 0. -1.
          1   -1    0    0  502    0 -0.00000000000E+00 -0.00000000000E+00 -0.14357731251E+03  0.14357731251E+03  0.00000000000E+00 0. -1.
         23    2    1    2    0    0 -0.26480361798E+02 -0.71526103959E+02  0.11307024830E+03  0.16594959799E+03  0.94536738443E+02 0.  0.
        -24    2    1    2    0    0 -0.10347361283E+03  0.11139482370E+03  0.54514483808E+02  0.18129074855E+03  0.82334143975E+02 0.  0.
         13    1    4    4    0    0 -0.80688827030E+02  0.84033998593E+02  0.76566948737E+02  0.13940910073E+03  0.00000000000E+00 0. -1.
        -14    1    4    4    0    0 -0.22784785801E+02  0.27360825111E+02 -0.22052464928E+02  0.41881647821E+02  0.00000000000E+00 0.  1.
        -11    1    3    3    0    0 -0.27205743895E+02  0.16684703537E+02  0.41509001093E+02  0.52359612343E+02  0.00000000000E+00 0. -1.
         11    1    3    3    0    0  0.72538209693E+00 -0.88210807497E+02  0.71561247205E+02  0.11358998565E+03  0.00000000000E+00 0.  1.
          2    1    1    2  501    0  0.12995397463E+03 -0.39868719745E+02  0.32193380310E+02  0.13969239089E+03  0.00000000000E+00 0. -1.
<scales pt_clust_5="13000.00000" pt_clust_6="13000.00000" pt_clust_7="13000.00000" pt_clust_8="13000.00000" pt_clust_9="138.42435"></scales>
<clustering>
<clus scale="   82.334">  5  6 -1 -1</clus>
<clus scale="   94.537">  7  8 -1 -1</clus>
<clus scale="  121.468">  2  7  1 -1</clus>
<clus scale="  138.424">  1  9  2 -1</clus>
<clus scale="  138.424">  1  5  2 -1</clus>
</clustering>
</event>
<event>
 9    1  0.6014990E-005  0.9715799E+02  0.7546771E-02  0.1293736E+00
          1   -1    0    0  502    0 -0.00000000000E+00  0.00000000000E+00  0.83575713148E+03  0.83575713148E+03  0.00000000000E+00 0. -1.
         21   -1    0    0  501  502  0.00000000000E+00 -0.00000000000E+00 -0.19263353999E+02  0.19263353999E+02  0.00000000000E+00 0. -1.
        -24    2    1    2    0    0 -0.16331652899E+02  0.27428931111E+01  0.29273457520E+03  0.30375576035E+03  0.79371179150E+02 0.  0.
         23    2    1    2    0    0  0.56426226960E+02 -0.14693958385E+02  0.23180663635E+03  0.25632964145E+03  0.92578274602E+02 0.  0.
         11    1    3    3    0    0  0.15437515445E+02  0.31225843977E+02  0.88432006685E+02  0.95045199887E+02  0.00000000000E+00 0. -1.
        -12    1    3    3    0    0 -0.31769168344E+02 -0.28482950866E+02  0.20430256851E+03  0.20871056046E+03  0.00000000000E+00 0.  1.
        -13    1    4    4    0    0 -0.18552016743E+02 -0.26685845265E+02  0.86000146657E+02  0.91936591669E+02  0.00000000000E+00 0.  1.
         13    1    4    4    0    0  0.74978243703E+02  0.11991886880E+02  0.14580648969E+03  0.16439304978E+03  0.00000000000E+00 0. -1.
          2    1    1    2  501    0 -0.40094574061E+02  0.11951065274E+02  0.29195256593E+03  0.29493508368E+03  0.00000000000E+00 0. -1.
<scales pt_clust_5="13000.00000" pt_clust_6="13000.00000" pt_clust_7="13000.00000" pt_clust_8="13000.00000" pt_clust_9="41.83784"></scales>
<clustering>
<clus scale="   41.838">  2  9  1 -1</clus>
<clus scale="   79.371">  5  6 -1 -1</clus>
<clus scale="   84.668">  1  5  2 -1</clus>
<clus scale="   92.578">  7  8 -1 -1</clus>
<clus scale="   41.838">  2  5  1 -1</clus>
</clustering>
</event>
<event>
 9    1  0.6014990E-005  0.1236988E+03  0.7546771E-02  0.1241202E+00
         21   -1    0    0  501  502  0.00000000000E+00  0.00000000000E+00  0.72765467768E+03  0.72765467768E+03  0.00000000000E+00 0. -1.
          3   -1    0    0  502    0 -0.00000000000E+00 -0.00000000000E+00 -0.37234601236E+02  0.37234601236E+02  0.00000000000E+00 0. -1.
        -24    2    1    2    0    0 -0.57030475883E+02 -0.22837785088E+01  0.17237720576E+03  0.19904412406E+03  0.81528960701E+02 0.  0.
         23    2    1    2    0    0  0.12268641964E+03 -0.23733803346E+02  0.34788001112E+03  0.38160884929E+03  0.94813294049E+02 0.  0.
         13    1    3    3    0    0 -0.12228452290E+01  0.33284454062E+02  0.55177827583E+02  0.64451089125E+02  0.00000000000E+00 0. -1.
        -14    1    3    3    0    0 -0.55807630654E+02 -0.35568232571E+02  0.11719937818E+03  0.13459303493E+03  0.00000000000E+00 0.  1.
        -11    1    4    4    0    0  0.64975329008E+02 -0.23969886870E+02  0.72563243662E+02  0.10030839041E+03  0.00000000000E+00 0.  1.
         11    1    4    4    0    0  0.57711090634E+02  0.23608352379E+00  0.27531676746E+03  0.28130045887E+03  0.00000000000E+00 0. -1.
          4    1    1    2  501    0 -0.65655943760E+02  0.26017581855E+02  0.17016285956E+03  0.18423630557E+03  0.00000000000E+00 0. -1.
<scales pt_clust_5="13000.00000" pt_clust_6="13000.00000" pt_clust_7="13000.00000" pt_clust_8="13000.00000" pt_clust_9="70.62307"></scales>
<clustering>
<clus scale="   70.623">  1  9  2 -1</clus>
<clus scale="   81.529">  5  6 -1 -1</clus>
<clus scale="   94.813">  7  8 -1 -1</clus>
<clus scale="  113.837">  2  5  1 -1</clus>
<clus scale="   70.623">  1  5  2 -1</clus>
</clustering>
</event>
<event>
 9    1  0.6014990E-005  0.2026054E+03  0.7546771E-02  0.1147665E+00
         21   -1    0    0  501  502  0.00000000000E+00  0.00000000000E+00  0.27163066812E+03  0.27163066812E+03  0.00000000000E+00 0. -1.
         -2   -1    0    0    0  501 -0.00000000000E+00 -0.00000000000E+00 -0.37779703756E+03  0.37779703756E+03  0.00000000000E+00 0.  1.
        -24    2    1    2    0    0  0.56498779543E+02  0.17786802527E+03 -0.14345663786E+03  0.25242265564E+03  0.91149567350E+02 0.  0.
         23    2    1    2    0    0 -0.21812542134E+02 -0.17537400609E+03 -0.12274188946E+03  0.23323799978E+03  0.90014243924E+02 0.  0.
         13    1    3    3    0    0  0.29295978256E+02  0.19416929785E+01 -0.15591222740E+02  0.33243205924E+02  0.00000000000E+00 0. -1.
        -14    1    3    3    0    0  0.27202801288E+02  0.17592633229E+03 -0.12786541512E+03  0.21917944971E+03  0.00000000000E+00 0.  1.
        -13    1    4    4    0    0 -0.30076704957E+02 -0.11657730874E+03 -0.12535399354E+03  0.17380592853E+03  0.00000000000E+00 0.  1.
         13    1    4    4    0    0  0.82641628234E+01 -0.58796697345E+02  0.26121040822E+01  0.59432071254E+02  0.00000000000E+00 0. -1.
         -1    1    1    2    0  502 -0.34686237409E+02 -0.24940191840E+01  0.16003215788E+03  0.16376705026E+03  0.00000000000E+00 0.  1.
<scales pt_clust_5="13000.00000" pt_clust_6="13000.00000" pt_clust_7="13000.00000" pt_clust_8="13000.00000" pt_clust_9="34.77578"></scales>
<clustering>
<clus scale="   34.776">  1  9  2 -1</clus>
<clus scale="   90.014">  7  8 -1 -1</clus>
<clus scale="   91.150">  5  6 -1 -1</clus>
<clus scale="  202.097">  1  7  2 -1</clus>
<clus scale="   34.776">  1  5  2 -1</clus>
</clustering>
</event>
<event>
 9    1  0.6014990E-005  0.9544916E+02  0.7546771E-02  0.1294258E+00
          1   -1    0    0  502    0 -0.00000000000E+00  0.00000000000E+00  0.31930745519E+03  0.31930745519E+03  0.00000000000E+00 0. -1.
         21   -1    0    0  501  502  0.00000000000E+00 -0.00000000000E+00 -0.13858781252E+03  0.13858781252E+03  0.00000000000E+00 0. -1.
        -24    2    1    2    0    0  0.24207836657E+02  0.15633494489E+02  0.23788628661E+03  0.25397034734E+03  0.84146458422E+02 0.  0.
         23    2    1    2    0    0  0.37171012634E+00 -0.35986517076E+01 -0.11078534247E+03  0.14372561479E+03  0.91490828935E+02 0.  0.
         13    1    3    3    0    0  0.46214381150E+02  0.25253006886E+02  0.21288412846E+03  0.21930147179E+03  0.00000000000E+00 0. -1.
        -14    1    3    3    0    0 -0.22006544494E+02 -0.96195123978E+01  0.25002158156E+02  0.34668875548E+02  0.00000000000E+00 0.  1.
        -13    1    4    4    0    0  0.12477426244E+02 -0.30884837205E+02 -0.10882667697E+03  0.11381039037E+03  0.00000000000E+00 0. -1.
         13    1    4    4    0    0 -0.12105716118E+02  0.27286185497E+02 -0.19586654923E+01  0.29915224422E+02  0.00000000000E+00 0.  1.
          2    1    1    2  501    0 -0.24579546783E+02 -0.12034842781E+02  0.53618698523E+02  0.60199305578E+02  0.00000000000E+00 0. -1.
<scales pt_clust_5="13000.00000" pt_clust_6="13000.00000" pt_clust_7="13000.00000" pt_clust_8="13000.00000" pt_clust_9="27.36772"></scales>
<clustering>
<clus scale="   27.368">  2  9  1 -1</clus>
<clus scale="   84.146">  5  6 -1 -1</clus>
<clus scale="   88.434">  1  5  2 -1</clus>
<clus scale="   91.491">  7  8 -1 -1</clus>
<clus scale="   27.368">  2  5  1 -1</clus>
</clustering>
</event>
<event>
 9    1  0.6014990E-005  0.1018604E+03  0.7546771E-02  0.1284118E+00
          1   -1    0    0  502    0 -0.00000000000E+00  0.00000000000E+00  0.43848399504E+02  0.43848399504E+02  0.00000000000E+00 0. -1.
         21   -1    0    0  501  502  0.00000000000E+00 -0.00000000000E+00 -0.33060386624E+03  0.33060386624E+03  0.00000000000E+00 0. -1.
         23    2    1    2    0    0  0.53267273273E+02 -0.15884256851E+01 -0.70236942684E+02  0.12724376240E+03  0.91748686389E+02 0.  0.
        -24    2    1    2    0    0 -0.26602732165E+02 -0.20466989004E+02 -0.16984833157E+03  0.18910905468E+03  0.76073489627E+02 0.  0.
         13    1    4    4    0    0  0.21420505349E+02 -0.49467008658E+01 -0.10315863646E+03  0.10547517327E+03  0.00000000000E+00 0. -1.
        -14    1    4    4    0    0 -0.48023237514E+02 -0.15520288138E+02 -0.66689695110E+02  0.83633881406E+02  0.00000000000E+00 0.  1.
        -11    1    3    3    0    0  0.36438935104E+02  0.15720928600E+02 -0.88488036215E+02  0.96979771812E+02  0.00000000000E+00 0.  1.
         11    1    3    3    0    0  0.16828338169E+02 -0.17309354285E+02  0.18251093530E+02  0.30263990589E+02  0.00000000000E+00 0. -1.
          2    1    1    2  501    0 -0.26664541108E+02  0.22055414689E+02 -0.46670192474E+02  0.58099448665E+02  0.00000000000E+00 0. -1.
<scales pt_clust_5="13000.00000" pt_clust_6="13000.00000" pt_clust_7="13000.00000" pt_clust_8="13000.00000" pt_clust_9="34.60403"></scales>
<clustering>
<clus scale="   34.604">  2  9  1 -1</clus>
<clus scale="   76.073">  5  6 -1 -1</clus>
<clus scale="   88.005">  2  5  1 -1</clus>
<clus scale="   91.749">  7  8 -1 -1</clus>
<clus scale="   34.604">  2  5  1 -1</clus>
</clustering>
</event>
<event>
 9    1  0.6014990E-005  0.1068762E+03  0.7546771E-02  0.1271381E+00
         -4   -1    0    0    0  501 -0.00000000000E+00  0.00000000000E+00  0.96309463522E+03  0.96309463522E+03  0.00000000000E+00 0.  1.
         21   -1    0    0  501  502  0.00000000000E+00 -0.00000000000E+00 -0.22676765865E+02  0.22676765865E+02  0.00000000000E+00 0. -1.
        -24    2    1    2    0    0  0.59024988243E+02  0.34551874366E+02  0.56329974542E+03  0.57305720727E+03  0.80063589447E+02 0.  0.
         23    2    1    2    0    0  0.13398690135E+01 -0.48134100656E+02  0.26780663680E+03  0.28710609662E+03  0.91601468893E+02 0.  0.
         13    1    3    3    0    0  0.66225191686E+02 -0.37007163227E+01  0.34669261260E+03  0.35298050788E+03  0.00000000000E+00 0. -1.
        -14    1    3    3    0    0 -0.72002034433E+01  0.38252590688E+02  0.21660713282E+03  0.22007669939E+03  0.00000000000E+00 0.  1.
        -11    1    4    4    0    0 -0.34953310970E+02 -0.55568988534E+02  0.15359168972E+03  0.16703309129E+03  0.00000000000E+00 0. -1.
         11    1    4    4    0    0  0.36293179984E+02  0.74348878779E+01  0.11421494709E+03  0.12007300533E+03  0.00000000000E+00 0.  1.
         -3    1    1    2    0  502 -0.60364857256E+02  0.13582226290E+02  0.10931148713E+03  0.12560809719E+03  0.00000000000E+00 0.  1.
<scales pt_clust_5="13000.00000" pt_clust_6="13000.00000" pt_clust_7="13000.00000" pt_clust_8="13000.00000" pt_clust_9="61.87401"></scales>
<clustering>
<clus scale="   61.874">  2  9  1 -1</clus>
<clus scale="   80.064">  5  6 -1 -1</clus>
<clus scale="   91.601">  7  8 -1 -1</clus>
<clus scale="   97.169">  1  5  2 -1</clus>
<clus scale="   61.874">  2  5  1 -1</clus>
</clustering>
</event>
<event>
 9    1  0.6014990E-005  0.1123465E+03  0.7546771E-02  0.1259391E+00
          1   -1    0    0  502    0 -0.00000000000E+00  0.00000000000E+00  0.67163217227E+03  0.67163217227E+03  0.00000000000E+00 0. -1.
         21   -1    0    0  501  502  0.00000000000E+00 -0.00000000000E+00 -0.30655279220E+02  0.30655279220E+02  0.00000000000E+00 0. -1.
         23    2    1    2    0    0  0.29177166068E+02 -0.35313027803E+02  0.22780046386E+03  0.24911150010E+03  0.89806298176E+02 0.  0.
        -24    2    1    2    0    0 -0.21397549641E+02  0.91968341517E+02  0.32512153783E+03  0.34818066152E+03  0.81300231996E+02 0.  0.
         13    1    4    4    0    0 -0.14034542956E+02  0.90336865097E+02  0.32769788926E+03  0.34021114652E+03  0.00000000000E+00 0. -1.
        -14    1    4    4    0    0 -0.73630066841E+01  0.16314764204E+01 -0.25763514237E+01  0.79695150040E+01  0.00000000000E+00 0.  1.
        -13    1    3    3    0    0  0.45749854433E+02 -0.53769447687E+00  0.18891029909E+03  0.19437191000E+03  0.00000000000E+00 0.  1.
         13    1    3    3    0    0 -0.16572688365E+02 -0.34775333327E+02  0.38890164774E+02  0.54739590094E+02  0.00000000000E+00 0. -1.
          2    1    1    2  501    0 -0.77796164277E+01 -0.56655313714E+02  0.88054891350E+02  0.10499528987E+03  0.00000000000E+00 0. -1.
<scales pt_clust_5="13000.00000" pt_clust_6="13000.00000" pt_clust_7="13000.00000" pt_clust_8="13000.00000" pt_clust_9="57.18695"></scales>
<clustering>
<clus scale="   57.187">  2  9  1 -1</clus>
<clus scale="   81.300">  5  6 -1 -1</clus>
<clus scale="   89.806">  7  8 -1 -1</clus>
<clus scale="  105.671">  2  5  1 -1</clus>
<clus scale="   57.187">  2  5  1 -1</clus>
</clustering>
</event>
<event>
 9    1  0.7915049E-005  0.1080333E+03  0.7546771E-02  0.1268050E+00
         -2   -1    0    0    0  501 -0.00000000000E+00  0.00000000000E+00  0.32804324149E+03  0.32804324149E+03  0.00000000000E+00 0.  1.
         21   -1    0    0  501  502  0.00000000000E+00 -0.00000000000E+00 -0.34722899075E+03  0.34722899075E+03  0.00000000000E+00 0.  1.
         23    2    1    2    0    0 -0.12790220209E+02 -0.59565484659E+02  0.25798668761E+03  0.28050257873E+03  0.91722020207E+02 0.  0.
        -24    2    1    2    0    0  0.72807470139E+02  0.15886499319E+02 -0.35416108040E+01  0.11124936672E+03  0.82526177787E+02 0.  0.
         11    1    4    4    0    0  0.50723552288E+02  0.47984926499E+02 -0.13310662097E+02  0.71081682966E+02  0.00000000000E+00 0. -1.
        -12    1    4    4    0    0  0.22083917852E+02 -0.32098427180E+02  0.97690512932E+01  0.40167683756E+02  0.00000000000E+00 0.  1.
        -13    1    3    3    0    0  0.67889704585E+01 -0.76810655692E+02  0.14167308635E+03  0.16129857514E+03  0.00000000000E+00 0.  1.
         13    1    3    3    0    0 -0.19579190668E+02  0.17245171032E+02  0.11631360126E+03  0.11920400358E+03  0.00000000000E+00 0. -1.
         -1    1    1    2    0  502 -0.60017249930E+02  0.43678985341E+02 -0.27363082606E+03  0.28352028679E+03  0.00000000000E+00 0.  1.
<scales pt_clust_5="13000.00000" pt_clust_6="13000.00000" pt_clust_7="13000.00000" pt_clust_8="13000.00000" pt_clust_9="74.22886"></scales>
<clustering>
<clus scale="   74.229">  2  9  1 -1</clus>
<clus scale="   82.526">  5  6 -1 -1</clus>
<clus scale="   91.722">  7  8 -1 -1</clus>
<clus scale="  100.344">  2  5  1 -1</clus>
<clus scale="   74.229">  2  5  1 -1</clus>
</clustering>
</event>
<event>
 9    1  0.6014990E-005  0.9877750E+02  0.7546771E-02  0.1286584E+00
         -4   -1    0    0    0  501 -0.00000000000E+00  0.00000000000E+00  0.59252094032E+02  0.59252094032E+02  0.00000000000E+00 0.  1.
         21   -1    0    0  501  502  0.00000000000E+00 -0.00000000000E+00 -0.30330712714E+03  0.30330712714E+03  0.00000000000E+00 0.  1.
        -24    2    1    2    0    0 -0.39112072734E+02 -0.12172370202E+02 -0.12199040607E+02  0.89796233115E+02  0.78972311984E+02 0.  0.
         23    2    1    2    0    0  0.67360260299E+02  0.16035596045E+02 -0.15349533461E+03  0.18937667431E+03  0.86649651000E+02 0.  0.
         13    1    3    3    0    0 -0.27606641726E+02 -0.26719570295E+02  0.26642658521E+02  0.46753538446E+02  0.00000000000E+00 0. -1.
        -14    1    3    3    0    0 -0.11505431008E+02  0.14547200093E+02 -0.38841699128E+02  0.43042694669E+02  0.00000000000E+00 0.  1.
        -11    1    4    4    0    0  0.12696644881E+02  0.25727980296E+02 -0.12245691015E+03  0.12577292477E+03  0.00000000000E+00 0. -1.
         11    1    4    4    0    0  0.54663615418E+02 -0.96923842514E+01 -0.31038424459E+02  0.63603749543E+02  0.00000000000E+00 0.  1.
         -3    1    1    2    0  502 -0.28248187565E+02 -0.38632258431E+01 -0.78360657890E+02  0.83386313742E+02  0.00000000000E+00 0.  1.
<scales pt_clust_5="13000.00000" pt_clust_6="13000.00000" pt_clust_7="13000.00000" pt_clust_8="13000.00000" pt_clust_9="28.51113"></scales>
<clustering>
<clus scale="   28.511">  2  9  1 -1</clus>
<clus scale="   78.972">  5  6 -1 -1</clus>
<clus scale="   86.650">  7  8 -1 -1</clus>
<clus scale="   92.117">  1  5  2 -1</clus>
<clus scale="   28.511">  2  5  1 -1</clus>
</clustering>
</event>
<event>
 9    1  0.6014990E-005  0.1335118E+03  0.7546771E-02  0.1236817E+00
          1   -1    0    0  502    0 -0.00000000000E+00  0.00000000000E+00  0.79649737264E+03  0.79649737264E+03  0.00000000000E+00 0. -1.
         21   -1    0    0  501  502  0.00000000000E+00 -0.00000000000E+00 -0.37839574266E+02  0.37839574266E+02  0.00000000000E+00 0.  1.
         23    2    1    2    0    0  0.39171410407E+02 -0.92684764890E+01  0.28471806990E+03  0.30143365979E+03  0.90429905874E+02 0.  0.
        -24    2    1    2    0    0 -0.64613614125E+02 -0.92675509586E+02  0.26290642470E+03  0.29715991536E+03  0.80128384109E+02 0.  0.
         11    1    4    4    0    0  0.47300431911E+01 -0.27048329909E+02  0.13378638751E+03  0.13657519153E+03  0.00000000000E+00 0. -1.
        -12    1    4    4    0    0 -0.69343657316E+02 -0.65627179677E+02  0.12912003720E+03  0.16058472383E+03  0.00000000000E+00 0.  1.
        -13    1    3    3    0    0  0.46140328828E+02 -0.41621802529E+02  0.22182820121E+03  0.23036721824E+03  0.00000000000E+00 0. -1.
         13    1    3    3    0    0 -0.69689184212E+01  0.32353326040E+02  0.62889868690E+02  0.71066441543E+02  0.00000000000E+00 0.  1.
          2    1    1    2  501    0  0.25442203718E+02  0.10194398607E+03  0.21103330377E+03  0.23574337176E+03  0.00000000000E+00 0. -1.
<scales pt_clust_5="13000.00000" pt_clust_6="13000.00000" pt_clust_7="13000.00000" pt_clust_8="13000.00000" pt_clust_9="106.79348"></scales>
<clustering>
<clus scale="   80.128">  5  6 -1 -1</clus>
<clus scale="   90.430">  7  8 -1 -1</clus>
<clus scale="   98.984">  1  7  2 -1</clus>
<clus scale="  106.793">  2  9  1 -1</clus>
<clus scale="  106.793">  2  5  1 -1</clus>
</clustering>
</event>
<event>
 9    1  0.6014990E-005  0.2014832E+03  0.7546771E-02  0.1149662E+00
         21   -1    0    0  501  502  0.00000000000E+00  0.00000000000E+00  0.16508157503E+03  0.16508157503E+03  0.00000000000E+00 0. -1.
          1   -1    0    0  502    0 -0.00000000000E+00 -0.00000000000E+00 -0.53112230692E+03  0.53112230692E+03  0.00000000000E+00 0. -1.
         23    2    1    2    0    0  0.11848295693E+03  0.14055025653E+03 -0.26953916572E+03  0.33928314745E+03  0.93108037205E+02 0.  0.
        -24    2    1    2    0    0 -0.18652003011E+03 -0.47831943258E+02 -0.11825978915E+03  0.23987736985E+03  0.80487007701E+02 0.  0.
         13    1    4    4    0    0 -0.17138698555E+03 -0.45718889960E+02 -0.13057050642E+03  0.22025524480E+03  0.00000000000E+00 0. -1.
        -14    1    4    4    0    0 -0.15133044555E+02 -0.21130532983E+01  0.12310717268E+02  0.19622125048E+02  0.00000000000E+00 0.  1.
        -13    1    3    3    0    0  0.77867986485E+02  0.91704145379E+02 -0.24157829595E+03  0.26987616915E+03  0.00000000000E+00 0.  1.
         13    1    3    3    0    0  0.40614970444E+02  0.48846111154E+02 -0.27960869772E+02  0.69406978305E+02  0.00000000000E+00 0. -1.
          2    1    1    2  501    0  0.68037073177E+02 -0.92718313274E+02  0.21758222983E+02  0.11704336466E+03  0.00000000000E+00 0. -1.
<scales pt_clust_5="13000.00000" pt_clust_6="13000.00000" pt_clust_7="13000.00000" pt_clust_8="13000.00000" pt_clust_9="115.00317"></scales>
<clustering>
<clus scale="   80.487">  5  6 -1 -1</clus>
<clus scale="   93.108">  7  8 -1 -1</clus>
<clus scale="  115.003">  1  9  2 -1</clus>
<clus scale="  195.971">  1  5  2 -1</clus>
<clus scale="  115.003">  1  5  2 -1</clus>
</clustering>
</event>
<event>
 9    1  0.6014990E-005  0.9938064E+02  0.7546771E-02  0.1283317E+00
          3   -1    0    0  502    0 -0.00000000000E+00  0.00000000000E+00  0.46685651265E+03  0.46685651265E+03  0.00000000000E+00 0. -1.
         21   -1    0    0  501  502  0.00000000000E+00 -0.00000000000E+00 -0.10419240479E+03  0.10419240479E+03  0.00000000000E+00 0. -1.
         23    2    1    2    0    0  0.24784777320E+02  0.10306492307E+02  0.25462467057E+03  0.27241530403E+03  0.93036906841E+02 0.  0.
        -24    2    1    2    0    0 -0.69629306106E+02 -0.95421136751E+02 -0.13699826814E+02  0.14346923965E+03  0.80263963668E+02 0.  0.
         13    1    4    4    0    0 -0.31153338020E+01 -0.68344438437E+02 -0.20270661381E+02  0.71355219030E+02  0.00000000000E+00 0. -1.
        -14    1    4    4    0    0 -0.66513972304E+02 -0.27076698314E+02  0.65708345673E+01  0.72114020621E+02  0.00000000000E+00 0.  1.
        -13    1    3    3    0    0  0.26092539104E+02 -0.26178966925E+02  0.21648709843E+03  0.21961972292E+03  0.00000000000E+00 0. -1.
         13    1    3    3    0    0 -0.13077617835E+01  0.36485459232E+02  0.38137572141E+02  0.52795581113E+02  0.00000000000E+00 0.  1.
          4    1    1    2  501    0  0.44844528786E+02  0.85114644443E+02  0.12173926409E+03  0.15516437376E+03  0.00000000000E+00 0. -1.
<scales pt_clust_5="13000.00000" pt_clust_6="13000.00000" pt_clust_7="13000.00000" pt_clust_8="13000.00000" pt_clust_9="96.20574"></scales>
<clustering>
<clus scale="   80.264">  5  6 -1 -1</clus>
<clus scale="   93.037">  7  8 -1 -1</clus>
<clus scale="   96.206">  2  9  1 -1</clus>
<clus scale="   96.206">  2  5  1 -1</clus>
<clus scale="   96.206">  2  5  1 -1</clus>
</clustering>
</event>
<event>
 9    1  0.6014990E-005  0.9916304E+02  0.7546771E-02  0.1287360E+00
          3   -1    0    0  502    0 -0.00000000000E+00  0.00000000000E+00  0.30166117499E+03  0.30166117499E+03  0.00000000000E+00 0. -1.
         21   -1    0    0  501  502  0.00000000000E+00 -0.00000000000E+00 -0.73342112388E+02  0.73342112388E+02  0.00000000000E+00 0.  1.
        -24    2    1    2    0    0  0.11453231699E+02  0.21572909542E+02  0.15150582644E+03  0.17521652240E+03  0.84559135118E+02 0.  0.
         23    2    1    2    0    0 -0.46469524420E+01 -0.59996988461E+02 -0.17596688364E+01  0.11205742737E+03  0.94512104004E+02 0.  0.
         13    1    3    3    0    0  0.45789015626E+02  0.22339918198E+02  0.11083811564E+03  0.12198685903E+03  0.00000000000E+00 0. -1.
        -14    1    3    3    0    0 -0.34335783927E+02 -0.76700865598E+00  0.40667710802E+02  0.53229663366E+02  0.00000000000E+00 0.  1.
        -13    1    4    4    0    0 -0.40680223096E+02 -0.58881655943E+02 -0.15934798915E+02  0.73320173037E+02  0.00000000000E+00 0.  1.
         13    1    4    4    0    0  0.36033270654E+02 -0.11153325180E+01  0.14175130079E+02  0.38737254335E+02  0.00000000000E+00 0. -1.
          4    1    1    2  501    0 -0.68062792573E+01  0.38424078919E+02  0.78572904991E+02  0.87729337606E+02  0.00000000000E+00 0. -1.
<scales pt_clust_5="13000.00000" pt_clust_6="13000.00000" pt_clust_7="13000.00000" pt_clust_8="13000.00000" pt_clust_9="39.02226"></scales>
<clustering>
<clus scale="   39.022">  2  9  1 -1</clus>
<clus scale="   84.559">  5  6 -1 -1</clus>
<clus scale="   89.727">  1  5  2 -1</clus>
<clus scale="   94.512">  7  8 -1 -1</clus>
<clus scale="   39.022">  2  5  1 -1</clus>
</clustering>
</event>
<event>
 9    1  0.6014990E-005  0.1989733E+03  0.7546771E-02  0.1150608E+00
         -2   -1    0    0    0  501 -0.00000000000E+00  0.00000000000E+00  0.60506123737E+03  0.60506123737E+03  0.00000000000E+00 0.  1.
         21   -1    0    0  501  502  0.00000000000E+00 -0.00000000000E+00 -0.38611022027E+02  0.38611022027E+02  0.00000000000E+00 0.  1.
        -24    2    1    2    0    0 -0.53228111694E+02  0.14299116359E+02  0.20650576401E+03  0.22864704397E+03  0.81222801866E+02 0.  0.
         23    2    1    2    0    0 -0.40099833191E+02  0.23905008358E+01  0.25310692230E+03  0.27218647338E+03  0.91698697163E+02 0.  0.
         11    1    3    3    0    0 -0.28369879888E+00  0.26906329037E+02  0.17831402204E+02  0.32279868832E+02  0.00000000000E+00 0. -1.
        -12    1    3    3    0    0 -0.52944412895E+02 -0.12607212678E+02  0.18867436181E+03  0.19636717514E+03  0.00000000000E+00 0.  1.
        -11    1    4    4    0    0 -0.55762613565E+02 -0.29986629409E+02  0.17767052885E+03  0.18861464375E+03  0.00000000000E+00 0. -1.
         11    1    4    4    0    0  0.15662780374E+02  0.32377130245E+02  0.75436393451E+02  0.83571829637E+02  0.00000000000E+00 0.  1.
         -1    1    1    2    0  502  0.93327944885E+02 -0.16689617195E+02  0.10683752903E+03  0.14283874204E+03  0.00000000000E+00 0.  1.
<scales pt_clust_5="13000.00000" pt_clust_6="13000.00000" pt_clust_7="13000.00000" pt_clust_8="13000.00000" pt_clust_9="94.80848"></scales>
<clustering>
<clus scale="   81.223">  5  6 -1 -1</clus>
<clus scale="   91.699">  7  8 -1 -1</clus>
<clus scale="   93.939">  5  7 -1 -1</clus>
<clus scale="   94.808">  2  9  1 -1</clus>
<clus scale="   94.808">  2  5  1 -1</clus>
</clustering>
</event>
<event>
 9    1  0.6014990E-005  0.2777686E+03  0.7546771E-02  0.1096914E+00
          1   -1    0    0  502    0 -0.00000000000E+00  0.00000000000E+00  0.79294704792E+02  0.79294704792E+02  0.00000000000E+00 0. -1.
         21   -1    0    0  501  502  0.00000000000E+00 -0.00000000000E+00 -0.80127956716E+03  0.80127956716E+03  0.00000000000E+00 0.  1.
        -24    2    1    2    0    0  0.70966826972E+02  0.26905072432E+02 -0.13064309690E+03  0.17084569924E+03  0.79752496693E+02 0.  0.
         23    2    1    2    0    0  0.11260658440E+03  0.87228234401E+02 -0.18610386512E+03  0.25044286101E+03  0.88306116952E+02 0.  0.
         11    1    3    3    0    0  0.68295502301E+00  0.35432877153E+02 -0.66295967753E+02  0.75173868806E+02  0.00000000000E+00 0. -1.
        -12    1    3    3    0    0  0.70283871949E+02 -0.85278047219E+01 -0.64347129151E+02  0.95671830439E+02  0.00000000000E+00 0.  1.
        -11    1    4    4    0    0  0.50420321954E+02  0.62777306367E+02 -0.40265052116E+02  0.90024849250E+02  0.00000000000E+00 0. -1.
         11    1    4    4    0    0  0.62186262450E+02  0.24450928035E+02 -0.14583881300E+03  0.16041801176E+03  0.00000000000E+00 0.  1.
          2    1    1    2  501    0 -0.18357341138E+03 -0.11413330683E+03 -0.40523790035E+03  0.45928571170E+03  0.00000000000E+00 0. -1.
<scales pt_clust_5="13000.00000" pt_clust_6="13000.00000" pt_clust_7="13000.00000" pt_clust_8="13000.00000" pt_clust_9="216.16107"></scales>
<clustering>
<clus scale="   79.752">  5  6 -1 -1</clus>
<clus scale="   88.306">  7  8 -1 -1</clus>
<clus scale="   91.122">  5  7 -1 -1</clus>
<clus scale="  216.161">  2  9  1 -1</clus>
<clus scale="  216.161">  2  5  1 -1</clus>
</clustering>
</event>
<event>
 9    1  0.6014990E-005  0.9712765E+02  0.7546771E-02  0.1291850E+00
         21   -1    0    0  501  502  0.00000000000E+00  0.00000000000E+00  0.99605708507E+02  0.99605708507E+02  0.00000000000E+00 0. -1.
          1   -1    0    0  502    0 -0.00000000000E+00 -0.00000000000E+00 -0.24729416934E+03  0.24729416934E+03  0.00000000000E+00 0. -1.
        -24    2    1    2    0    0  0.29464779751E+02 -0.82032605687E+01 -0.17354728083E+03  0.19483683419E+03  0.83109966580E+02 0.  0.
         23    2    1    2    0    0 -0.12466679499E+02  0.23600425723E+02 -0.21854159124E+02  0.99124055340E+02  0.92927799307E+02 0.  0.
         11    1    3    3    0    0  0.39582159967E+02 -0.17129968883E+01 -0.17774326788E+03  0.18210532947E+03  0.00000000000E+00 0. -1.
        -12    1    3    3    0    0 -0.10117380216E+02 -0.64902636803E+01  0.41959870503E+01  0.12731504719E+02  0.00000000000E+00 0.  1.
        -11    1    4    4    0    0 -0.51792929713E+02  0.23942881755E+02 -0.91036228789E+01  0.57781009896E+02  0.00000000000E+00 0.  1.
         11    1    4    4    0    0  0.39326250215E+02 -0.34245603281E+00 -0.12750536245E+02  0.41343045444E+02  0.00000000000E+00 0. -1.
          2    1    1    2  501    0 -0.16998100252E+02 -0.15397165154E+02  0.47712979122E+02  0.52938988314E+02  0.00000000000E+00 0. -1.
<scales pt_clust_5="13000.00000" pt_clust_6="13000.00000" pt_clust_7="13000.00000" pt_clust_8="13000.00000" pt_clust_9="22.93487"></scales>
<clustering>
<clus scale="   22.935">  1  9  2 -1</clus>
<clus scale="   83.110">  5  6 -1 -1</clus>
<clus scale="   87.781">  2  5  1 -1</clus>
<clus scale="   92.928">  7  8 -1 -1</clus>
<clus scale="   22.935">  1  5  2 -1</clus>
</clustering>
</event>
<event>
 9    1  0.6014990E-005  0.1348319E+03  0.7546771E-02  0.1236512E+00
         21   -1    0    0  501  502  0.00000000000E+00  0.00000000000E+00  0.75147892162E+02  0.75147892162E+02  0.00000000000E+00 0. -1.
          1   -1    0    0  502    0 -0.00000000000E+00 -0.00000000000E+00 -0.45802599379E+03  0.45802599379E+03  0.00000000000E+00 0. -1.
         23    2    1    2    0    0  0.22411650850E+02 -0.18268536971E+02 -0.11708691682E+03  0.15185920522E+03  0.92281366393E+02 0.  0.
        -24    2    1    2    0    0 -0.11925800222E+03 -0.23268442745E+02 -0.22593407254E+03  0.26865090724E+03  0.79769751833E+02 0.  0.
         11    1    4    4    0    0 -0.95003156911E+02  0.18691087515E+02 -0.15423052502E+03  0.18210439704E+03  0.00000000000E+00 0. -1.
        -12    1    4    4    0    0 -0.24254845308E+02 -0.41959530260E+02 -0.71703547523E+02  0.86546510201E+02  0.00000000000E+00 0.  1.
        -11    1    3    3    0    0 -0.21919918934E+02  0.32691083089E+01 -0.95525697263E+02  0.98062881626E+02  0.00000000000E+00 0.  1.
         11    1    3    3    0    0  0.44331569783E+02 -0.21537645280E+02 -0.21561219556E+02  0.53796323595E+02  0.00000000000E+00 0. -1.
          2    1    1    2  501    0  0.96846351370E+02  0.41536979716E+02 -0.39857112266E+02  0.11266377348E+03  0.00000000000E+00 0. -1.
<scales pt_clust_5="13000.00000" pt_clust_6="13000.00000" pt_clust_7="13000.00000" pt_clust_8="13000.00000" pt_clust_9="108.70341"></scales>
<clustering>
<clus scale="   79.770">  5  6 -1 -1</clus>
<clus scale="   92.281">  7  8 -1 -1</clus>
<clus scale="   96.705">  2  7  1 -1</clus>
<clus scale="  108.703">  1  9  2 -1</clus>
<clus scale="  108.703">  1  5  2 -1</clus>
</clustering>
</event>
<event>
 9    1  0.6014990E-005  0.1074832E+03  0.7546771E-02  0.1269782E+00
         21   -1    0    0  501  502  0.00000000000E+00  0.00000000000E+00  0.49733005546E+02  0.49733005546E+02  0.00000000000E+00 0. -1.
          1   -1    0    0  502    0 -0.00000000000E+00 -0.00000000000E+00 -0.63038517626E+03  0.63038517626E+03  0.00000000000E+00 0. -1.
        -24    2    1    2    0    0 -0.55796342892E+02  0.91069727572E+01 -0.45025713928E+03  0.46099093729E+03  0.81147914051E+02 0.  0.
         23    2    1    2    0    0  0.39933639231E+02 -0.57066818393E+02 -0.53332573375E+02  0.12698390725E+03  0.91810849109E+02 0.  0.
         11    1    3    3    0    0 -0.64386823897E+02 -0.20880612055E+02 -0.30410473653E+03  0.31154671212E+03  0.00000000000E+00 0. -1.
        -12    1    3    3    0    0  0.85904810047E+01  0.29987584812E+02 -0.14615240276E+03  0.14944422517E+03  0.00000000000E+00 0.  1.
        -11    1    4    4    0    0  0.62272506901E+02 -0.21338163983E+02 -0.53531905074E+02  0.84846020642E+02  0.00000000000E+00 0.  1.
         11    1    4    4    0    0 -0.22338867670E+02 -0.35728654410E+02  0.19933169930E+00  0.42137886609E+02  0.00000000000E+00 0. -1.
          2    1    1    2  501    0  0.15862703661E+02  0.47959845636E+02 -0.77062458058E+02  0.92143337268E+02  0.00000000000E+00 0. -1.
<scales pt_clust_5="13000.00000" pt_clust_6="13000.00000" pt_clust_7="13000.00000" pt_clust_8="13000.00000" pt_clust_9="50.51507"></scales>
<clustering>
<clus scale="   50.515">  1  9  2 -1</clus>
<clus scale="   81.148">  5  6 -1 -1</clus>
<clus scale="   91.811">  7  8 -1 -1</clus>
<clus scale="   98.531">  2  5  1 -1</clus>
<clus scale="   50.515">  1  5  2 -1</clus>
</clustering>
</event>
<event>
 9    1  0.6014990E-005  0.1379212E+03  0.7546771E-02  0.1219887E+00
         21   -1    0    0  501  502  0.00000000000E+00  0.00000000000E+00  0.22508430367E+03  0.22508430367E+03  0.00000000000E+00 0. -1.
          3   -1    0    0  502    0 -0.00000000000E+00 -0.00000000000E+00 -0.19742056981E+03  0.19742056981E+03  0.00000000000E+00 0. -1.
        -24    2    1    2    0    0 -0.15370428149E+02 -0.98846913713E+02 -0.11471615347E+03  0.17000786284E+03  0.75735824748E+02 0.  0.
         23    2    1    2    0    0 -0.11928985798E+02  0.11430570076E+03  0.51074020279E+02  0.15595171838E+03  0.92218701954E+02 0.  0.
         11    1    3    3    0    0 -0.34871556715E+02 -0.18453267554E+02 -0.56254117313E+02  0.68710073976E+02  0.00000000000E+00 0. -1.
        -12    1    3    3    0    0  0.19501128567E+02 -0.80393646158E+02 -0.58462036153E+02  0.10129778887E+03  0.00000000000E+00 0.  1.
        -13    1    4    4    0    0  0.25259644076E+02 -0.30437625836E+00  0.47451166663E+00  0.25265934082E+02  0.00000000000E+00 0.  1.
         13    1    4    4    0    0 -0.37188629874E+02  0.11461007701E+03  0.50599508612E+02  0.13068578430E+03  0.00000000000E+00 0. -1.
          4    1    1    2  501    0  0.27299413947E+02 -0.15458787044E+02  0.91305867053E+02  0.96545292257E+02  0.00000000000E+00 0. -1.
<scales pt_clust_5="13000.00000" pt_clust_6="13000.00000" pt_clust_7="13000.00000" pt_clust_8="13000.00000" pt_clust_9="31.37247"></scales>
<clustering>
<clus scale="   31.372">  1  9  2 -1</clus>
<clus scale="   75.736">  5  6 -1 -1</clus>
<clus scale="   92.219">  7  8 -1 -1</clus>
<clus scale="  127.491">  2  5  1 -1</clus>
<clus scale="   31.372">  1  5  2 -1</clus>
</clustering>
</event>
<event>
 9    1  0.6014990E-005  0.1195367E+03  0.7546771E-02  0.1248054E+00
          3   -1    0    0  502    0 -0.00000000000E+00  0.00000000000E+00  0.25933319935E+03  0.25933319935E+03  0.00000000000E+00 0. -1.
         21   -1    0    0  501  502  0.00000000000E+00 -0.00000000000E+00 -0.83904902525E+02  0.83904902525E+02  0.00000000000E+00 0.  1.
         23    2    1    2    0    0  0.38833319738E+02 -0.72018968101E+02  0.17877282223E+03  0.21760847043E+03  0.93268247262E+02 0.  0.
        -24    2    1    2    0    0 -0.29385678019E+02  0.46900077426E+02 -0.92879199841E+01  0.98142533708E+02  0.80514322513E+02 0.  0.
         11    1    4    4    0    0 -0.37355807572E+02  0.19116008669E+02  0.28382847939E+02  0.50660282312E+02  0.00000000000E+00 0. -1.
        -12    1    4    4    0    0  0.79701295527E+01  0.27784068756E+02 -0.37670767923E+02  0.47482251396E+02  0.00000000000E+00 0.  1.
        -11    1    3    3    0    0  0.63766861698E+02 -0.59517215081E+02  0.16468832746E+03  0.18636189724E+03  0.00000000000E+00 0. -1.
         11    1    3    3    0    0 -0.24933541960E+02 -0.12501753020E+02  0.14084494771E+02  0.31246573192E+02  0.00000000000E+00 0.  1.
          4    1    1    2  501    0 -0.94476417189E+01  0.25118890676E+02  0.59433945804E+01  0.27487097736E+02  0.00000000000E+00 0. -1.
<scales pt_clust_5="13000.00000" pt_clust_6="13000.00000" pt_clust_7="13000.00000" pt_clust_8="13000.00000" pt_clust_9="26.83685"></scales>
<clustering>
<clus scale="   26.837">  2  9  1 -1</clus>
<clus scale="   80.514">  5  6 -1 -1</clus>
<clus scale="   93.268">  7  8 -1 -1</clus>
<clus scale="  109.875">  2  5  1 -1</clus>
<clus scale="   26.837">  2  5  1 -1</clus>
</clustering>
</event>
<event>
 9    1  0.6014990E-005  0.9680863E+02  0.7546771E-02  0.1295873E+00
         21   -1    0    0  501  502  0.00000000000E+00  0.00000000000E+00  0.26638071814E+03  0.26638071814E+03  0.00000000000E+00 0. -1.
         -2   -1    0    0    0  501 -0.00000000000E+00 -0.00000000000E+00 -0.59857338511E+02  0.59857338511E+02  0.00000000000E+00 0.  1.
        -24    2    1    2    0    0 -0.82611933824E+01  0.25733047143E+02 -0.16469395322E+01  0.83444089342E+02  0.78928870541E+02 0.  0.
         23    2    1    2    0    0  0.16047048059E+01 -0.34375572271E+01  0.19385152631E+03  0.21547317780E+03  0.93999384151E+02 0.  0.
         13    1    3    3    0    0 -0.41294719596E+01 -0.27333331190E+02  0.91784184232E+01  0.29127425176E+02  0.00000000000E+00 0. -1.
        -14    1    3    3    0    0 -0.41317214228E+01  0.53066378333E+02 -0.10825357955E+02  0.54316664166E+02  0.00000000000E+00 0.  1.
        -13    1    4    4    0    0 -0.32062203261E+02  0.30910813762E+02  0.74527572944E+02  0.86820633574E+02  0.00000000000E+00 0.  1.
         13    1    4    4    0    0  0.33666908067E+02 -0.34348370989E+02  0.11932395337E+03  0.12865254423E+03  0.00000000000E+00 0. -1.
         -1    1    1    2    0  502  0.66564885765E+01 -0.22295489916E+02  0.14318792853E+02  0.27320789511E+02  0.00000000000E+00 0.  1.
<scales pt_clust_5="13000.00000" pt_clust_6="13000.00000" pt_clust_7="13000.00000" pt_clust_8="13000.00000" pt_clust_9="23.26797"></scales>
<clustering>
<clus scale="   23.268">  1  9  2 -1</clus>
<clus scale="   78.929">  5  6 -1 -1</clus>
<clus scale="   82.254">  2  5  1 -1</clus>
<clus scale="   93.999">  7  8 -1 -1</clus>
<clus scale="   23.268">  1  5  2 -1</clus>
</clustering>
</event>
<event>
 9    1  0.6014990E-005  0.1065267E+03  0.7546771E-02  0.1271912E+00
         -2   -1    0    0    0  501 -0.00000000000E+00  0.00000000000E+00  0.40061651514E+03  0.40061651514E+03  0.00000000000E+00 0.  1.
         21   -1    0    0  501  502  0.00000000000E+00 -0.00000000000E+00 -0.60305898052E+02  0.60305898052E+02  0.00000000000E+00 0.  1.
        -24    2    1    2    0    0 -0.78198964210E+01  0.44059413744E+02  0.16402165373E+03  0.18813432576E+03  0.80554571066E+02 0.  0.
         23    2    1    2    0    0  0.14984643965E+02 -0.63924484357E+02  0.20688230111E+03  0.23561407833E+03  0.91666941377E+02 0.  0.
         13    1    3    3    0    0 -0.22226888526E+02 -0.24542823010E+01  0.65434841800E+01  0.23299683697E+02  0.00000000000E+00 0. -1.
        -14    1    3    3    0    0  0.14406992105E+02  0.46513696045E+02  0.15747816955E+03  0.16483464207E+03  0.00000000000E+00 0.  1.
        -13    1    4    4    0    0 -0.37952811649E+02 -0.36788817931E+02  0.87345796021E+02  0.10209368795E+03  0.00000000000E+00 0. -1.
         13    1    4    4    0    0  0.52937455613E+02 -0.27135666425E+02  0.11953650509E+03  0.13352039038E+03  0.00000000000E+00 0.  1.
         -1    1    1    2    0  502 -0.71647475435E+01  0.19865070612E+02 -0.30593337747E+02  0.37174009097E+02  0.00000000000E+00 0.  1.
<scales pt_clust_5="13000.00000" pt_clust_6="13000.00000" pt_clust_7="13000.00000" pt_clust_8="13000.00000" pt_clust_9="21.11764"></scales>
<clustering>
<clus scale="   21.118">  2  9  1 -1</clus>
<clus scale="   80.555">  5  6 -1 -1</clus>
<clus scale="   91.667">  7  8 -1 -1</clus>
<clus scale="   97.130">  1  5  2 -1</clus>
<clus scale="   21.118">  2  5  1 -1</clus>
</clustering>
</event>
<event>
 9    1  0.6014990E-005  0.2067233E+03  0.7546771E-02  0.1174158E+00
         21   -1    0    0  501  502  0.00000000000E+00  0.00000000000E+00  0.12142103970E+03  0.12142103970E+03  0.00000000000E+00 0.  1.
         -2   -1    0    0    0  501 -0.00000000000E+00 -0.00000000000E+00 -0.67059076813E+03  0.67059076813E+03  0.00000000000E+00 0.  1.
        -24    2    1    2    0    0 -0.54689159008E+02 -0.17881736032E+02 -0.12724017821E+03  0.16356471144E+03  0.85162734116E+02 0.  0.
         23    2    1    2    0    0  0.19697484421E+03  0.35785624355E+02 -0.44023386236E+02  0.22424561914E+03  0.90930407480E+02 0.  0.
         13    1    3    3    0    0 -0.43332348780E+02 -0.51451251911E+02 -0.80396697731E+02  0.10482629813E+03  0.00000000000E+00 0. -1.
        -14    1    3    3    0    0 -0.11356810227E+02  0.33569515879E+02 -0.46843480478E+02  0.58738413311E+02  0.00000000000E+00 0.  1.
        -13    1    4    4    0    0  0.17122457966E+02 -0.11939333210E+02 -0.31446948343E+02  0.37744361226E+02  0.00000000000E+00 0. -1.
         13    1    4    4    0    0  0.17985238625E+03  0.47724957565E+02 -0.12576437893E+02  0.18650125791E+03  0.00000000000E+00 0.  1.
         -1    1    1    2    0  502 -0.14228568521E+03 -0.17903888324E+02 -0.37790616398E+03  0.40420147724E+03  0.00000000000E+00 0.  1.
<scales pt_clust_5="13000.00000" pt_clust_6="13000.00000" pt_clust_7="13000.00000" pt_clust_8="13000.00000" pt_clust_9="185.65082"></scales>
<clustering>
<clus scale="   85.163">  5  6 -1 -1</clus>
<clus scale="   90.930">  7  8 -1 -1</clus>
<clus scale="  102.778">  2  5  1 -1</clus>
<clus scale="  185.651">  1  9  2 -1</clus>
<clus scale="  185.651">  1  5  2 -1</clus>
</clustering>
</event>
<event>
 9    1  0.6014990E-005  0.1083113E+03  0.7546771E-02  0.1270801E+00
         21   -1    0    0  501  502  0.00000000000E+00  0.00000000000E+00  0.26773048385E+02  0.26773048385E+02  0.00000000000E+00 0.  1.
         -2   -1    0    0    0  501 -0.00000000000E+00 -0.00000000000E+00 -0.10496423150E+04  0.10496423150E+04  0.00000000000E+00 0.  1.
         23    2    1    2    0    0  0.69513997572E+02 -0.18208953241E+02 -0.60937282349E+03  0.62114507945E+03  0.96551591795E+02 0.  0.
        -24    2    1    2    0    0 -0.27564471763E+02 -0.33775935640E+02 -0.35445297528E+03  0.36611691898E+03  0.80647831634E+02 0.  0.
         11    1    4    4    0    0 -0.27921279656E+02 -0.24812642103E+02 -0.54742403297E+02  0.66272134298E+02  0.00000000000E+00 0. -1.
        -12    1    4    4    0    0  0.35680789302E+00 -0.89632935379E+01 -0.29971057198E+03  0.29984478468E+03  0.00000000000E+00 0.  1.
        -13    1    3    3    0    0  0.79630187728E+02  0.18708451371E+02 -0.39482684358E+03  0.40321112257E+03  0.00000000000E+00 0.  1.
         13    1    3    3    0    0 -0.10116190156E+02 -0.36917404611E+02 -0.21454597991E+03  0.21793395688E+03  0.00000000000E+00 0. -1.
         -1    1    1    2    0  502 -0.41949525809E+02  0.51984888881E+02 -0.59043467840E+02  0.89153364952E+02  0.00000000000E+00 0.  1.
<scales pt_clust_5="13000.00000" pt_clust_6="13000.00000" pt_clust_7="13000.00000" pt_clust_8="13000.00000" pt_clust_9="66.79964"></scales>
<clustering>
<clus scale="   66.800">  1  9  2 -1</clus>
<clus scale="   80.648">  5  6 -1 -1</clus>
<clus scale="   94.410">  1  5  2 -1</clus>
<clus scale="   96.552">  7  8 -1 -1</clus>
<clus scale="   66.800">  1  5  2 -1</clus>
</clustering>
</event>
<event>
 9    1  0.6014990E-005  0.1637392E+03  0.7546771E-02  0.1185733E+00
          1   -1    0    0  502    0 -0.00000000000E+00  0.00000000000E+00  0.85540263328E+03  0.85540263328E+03  0.00000000000E+00 0. -1.
         21   -1    0    0  501  502  0.00000000000E+00 -0.00000000000E+00 -0.82083058311E+02  0.82083058311E+02  0.00000000000E+00 0.  1.
         23    2    1    2    0    0  0.10346599494E+03  0.10852475905E+03  0.70570502739E+03  0.72697396135E+03  0.89379636137E+02 0.  0.
        -24    2    1    2    0    0 -0.31109587275E+02 -0.88152276099E+02  0.48001011813E+02  0.13282531845E+03  0.81239386295E+02 0.  0.
         13    1    4    4    0    0 -0.54844440217E+02 -0.42199961654E+02  0.13096581422E+02  0.70429183093E+02  0.00000000000E+00 0. -1.
        -14    1    4    4    0    0  0.23734852942E+02 -0.45952314445E+02  0.34904430391E+02  0.62396135360E+02  0.00000000000E+00 0.  1.
        -11    1    3    3    0    0 -0.15943055145E+02  0.21648932547E+02  0.11101824801E+03  0.11422744276E+03  0.00000000000E+00 0.  1.
         11    1    3    3    0    0  0.11940905008E+03  0.86875826507E+02  0.59468677938E+03  0.61274651858E+03  0.00000000000E+00 0. -1.
          2    1    1    2  501    0 -0.72356407662E+02 -0.20372482955E+02  0.19613535765E+02  0.77686411790E+02  0.00000000000E+00 0. -1.
<scales pt_clust_5="13000.00000" pt_clust_6="13000.00000" pt_clust_7="13000.00000" pt_clust_8="13000.00000" pt_clust_9="75.16973"></scales>
<clustering>
<clus scale="   75.170">  2  9  1 -1</clus>
<clus scale="   81.239">  5  6 -1 -1</clus>
<clus scale="   89.380">  7  8 -1 -1</clus>
<clus scale="  159.442">  2  5  1 -1</clus>
<clus scale="   75.170">  2  5  1 -1</clus>
</clustering>
</event>
<event>
 9    1  0.6014990E-005  0.1093486E+03  0.7546771E-02  0.1267454E+00
         21   -1    0    0  501  502  0.00000000000E+00  0.00000000000E+00  0.29749633357E+02  0.29749633357E+02  0.00000000000E+00 0. -1.
          1   -1    0    0  502    0 -0.00000000000E+00 -0.00000000000E+00 -0.65200833105E+03  0.65200833105E+03  0.00000000000E+00 0. -1.
        -24    2    1    2    0    0 -0.46306372798E+02  0.13281872251E+02 -0.29338055412E+03  0.30907070436E+03  0.84450355005E+02 0.  0.
         23    2    1    2    0    0  0.32988790065E+02 -0.48029657310E+02 -0.31160672403E+03  0.33166204208E+03  0.97497956110E+02 0.  0.
         13    1    3    3    0    0 -0.53892604252E+02 -0.13040780821E+02 -0.10530890067E+03  0.11901445004E+03  0.00000000000E+00 0. -1.
        -14    1    3    3    0    0  0.75862314535E+01  0.26322653072E+02 -0.18807165345E+03  0.19005625432E+03  0.00000000000E+00 0.  1.
        -13    1    4    4    0    0 -0.10043081316E+02  0.25782907043E+02 -0.89894683924E+02  0.94056769962E+02  0.00000000000E+00 0. -1.
         13    1    4    4    0    0  0.43031871381E+02 -0.73812564353E+02 -0.22171204010E+03  0.23760527212E+03  0.00000000000E+00 0.  1.
          2    1    1    2  501    0  0.13317582734E+02  0.34747785059E+02 -0.17271419537E+02  0.41025217967E+02  0.00000000000E+00 0. -1.
<scales pt_clust_5="13000.00000" pt_clust_6="13000.00000" pt_clust_7="13000.00000" pt_clust_8="13000.00000" pt_clust_9="37.21245"></scales>
<clustering>
<clus scale="   37.212">  1  9  2 -1</clus>
<clus scale="   84.450">  5  6 -1 -1</clus>
<clus scale="   97.498">  7  8 -1 -1</clus>
<clus scale="   97.893">  2  5  1 -1</clus>
<clus scale="   37.212">  1  5  2 -1</clus>
</clustering>
</event>
<event>
 9    1  0.6014990E-005  0.1564927E+03  0.7546771E-02  0.1209780E+00
         21   -1    0    0  501  502  0.00000000000E+00  0.00000000000E+00  0.29530518019E+02  0.29530518019E+02  0.00000000000E+00 0. -1.
          1   -1    0    0  502    0 -0.00000000000E+00 -0.00000000000E+00 -0.15260659927E+04  0.15260659927E+04  0.00000000000E+00 0. -1.
        -24    2    1    2    0    0  0.71945997660E+02 -0.16967691127E+02 -0.24079664725E+03  0.26395097035E+03  0.78885742034E+02 0.  0.
         23    2    1    2    0    0  0.86335405728E+02 -0.44025154475E+02 -0.53214850384E+03  0.54843891617E+03  0.90615661551E+02 0.  0.
         13    1    3    3    0    0  0.59062873826E+02 -0.35552218607E+02 -0.10067117123E+03  0.12201257325E+03  0.00000000000E+00 0. -1.
        -14    1    3    3    0    0  0.12883123834E+02  0.18584527481E+02 -0.14012547602E+03  0.14193839710E+03  0.00000000000E+00 0.  1.
        -11    1    4    4    0    0  0.59932045332E+01 -0.46463084561E+02 -0.27685335328E+03  0.28078909514E+03  0.00000000000E+00 0.  1.
         11    1    4    4    0    0  0.80342201195E+02  0.24379300851E+01 -0.25529515056E+03  0.26764982102E+03  0.00000000000E+00 0. -1.
          2    1    1    2  501    0 -0.15828140339E+03  0.60992845602E+02 -0.72359032356E+03  0.74320662418E+03  0.00000000000E+00 0. -1.
<scales pt_clust_5="13000.00000" pt_clust_6="13000.00000" pt_clust_7="13000.00000" pt_clust_8="13000.00000" pt_clust_9="127.58828"></scales>
<clustering>
<clus scale="   78.886">  5  6 -1 -1</clus>
<clus scale="   90.616">  7  8 -1 -1</clus>
<clus scale="  108.107">  2  5  1 -1</clus>
<clus scale="  127.588">  1  9  2 -1</clus>
<clus scale="  127.588">  1  5  2 -1</clus>
</clustering>
</event>
<event>
 9    1  0.6014990E-005  0.2707593E+03  0.7546771E-02  0.1137503E+00
          1   -1    0    0  502    0 -0.00000000000E+00  0.00000000000E+00  0.57375156830E+03  0.57375156830E+03  0.00000000000E+00 0. -1.
         21   -1    0    0  501  502  0.00000000000E+00 -0.00000000000E+00 -0.20533936712E+03  0.20533936712E+03  0.00000000000E+00 0. -1.
        -24    2    1    2    0    0  0.26506751008E+02  0.68966483561E+02  0.15284117419E+03  0.18719174722E+03  0.78875484136E+02 0.  0.
         23    2    1    2    0    0 -0.20857225328E+02 -0.29881946340E+03  0.17109453130E+03  0.35771450007E+03  0.94647923222E+02 0.  0.
         11    1    3    3    0    0  0.18963417317E+02  0.40391974682E+02  0.15113999782E+03  0.15758940877E+03  0.00000000000E+00 0. -1.
        -12    1    3    3    0    0  0.75433336904E+01  0.28574508878E+02  0.17011763648E+01  0.29602338452E+02  0.00000000000E+00 0.  1.
        -13    1    4    4    0    0 -0.51195501038E+02 -0.11666391712E+03  0.49870591268E+02  0.13681565976E+03  0.00000000000E+00 0. -1.
         13    1    4    4    0    0  0.30338275710E+02 -0.18215554628E+03  0.12122394003E+03  0.22089884031E+03  0.00000000000E+00 0.  1.
          2    1    1    2  501    0 -0.56495256801E+01  0.22985297984E+03  0.44476495694E+02  0.23418468812E+03  0.00000000000E+00 0. -1.
<scales pt_clust_5="13000.00000" pt_clust_6="13000.00000" pt_clust_7="13000.00000" pt_clust_8="13000.00000" pt_clust_9="253.67771"></scales>
<clustering>
<clus scale="   78.875">  5  6 -1 -1</clus>
<clus scale="   94.648">  7  8 -1 -1</clus>
<clus scale="  108.076">  1  5  2 -1</clus>
<clus scale="  253.678">  2  9  1 -1</clus>
<clus scale="  253.678">  2  5  1 -1</clus>
</clustering>
</event>
<event>
 9    1  0.6014990E-005  0.9375974E+02  0.7546771E-02  0.1297548E+00
          1   -1    0    0  502    0 -0.00000000000E+00  0.00000000000E+00  0.38077657774E+03  0.38077657774E+03  0.00000000000E+00 0. -1.
         21   -1    0    0  501  502  0.00000000000E+00 -0.00000000000E+00 -0.42418398801E+02  0.42418398801E+02  0.00000000000E+00 0.  1.
        -24    2    1    2    0    0  0.33340815950E+02  0.17843113364E+02  0.27783340280E+03  0.29191339640E+03  0.81191407080E+02 0.  0.
         23    2    1    2    0    0 -0.14994200346E+02 -0.14609637030E+01  0.34224327716E+02  0.95272043642E+02  0.87627034830E+02 0.  0.
         11    1    3    3    0    0  0.59288098673E+02  0.12533240138E+02  0.22191315375E+03  0.23003827629E+03  0.00000000000E+00 0. -1.
        -12    1    3    3    0    0 -0.25947282723E+02  0.53098732259E+01  0.55920249047E+02  0.61875120104E+02  0.00000000000E+00 0.  1.
        -11    1    4    4    0    0 -0.22570719522E+02 -0.37712720650E+02 -0.12771707551E+01  0.43969510388E+02  0.00000000000E+00 0. -1.
         11    1    4    4    0    0  0.75765191759E+01  0.36251756947E+02  0.35501498471E+02  0.51302533254E+02  0.00000000000E+00 0.  1.
          2    1    1    2  501    0 -0.18346615604E+02 -0.16382149661E+02  0.26300448422E+02  0.36009536498E+02  0.00000000000E+00 0. -1.
<scales pt_clust_5="13000.00000" pt_clust_6="13000.00000" pt_clust_7="13000.00000" pt_clust_8="13000.00000" pt_clust_9="24.59620"></scales>
<clustering>
<clus scale="   24.596">  2  9  1 -1</clus>
<clus scale="   81.191">  5  6 -1 -1</clus>
<clus scale="   87.627">  7  8 -1 -1</clus>
<clus scale="   87.775">  1  5  2 -1</clus>
<clus scale="   24.596">  2  5  1 -1</clus>
</clustering>
</event>
<event>
 9    1  0.6014990E-005  0.1169460E+03  0.7546771E-02  0.1259372E+00
         21   -1    0    0  501  502  0.00000000000E+00  0.00000000000E+00  0.35811621593E+02  0.35811621593E+02  0.00000000000E+00 0. -1.
          1   -1    0    0  502    0 -0.00000000000E+00 -0.00000000000E+00 -0.99413995624E+03  0.99413995624E+03  0.00000000000E+00 0. -1.
        -24    2    1    2    0    0 -0.46654093187E+02 -0.18893775978E+02 -0.23507957976E+03  0.25307341376E+03  0.79057983461E+02 0.  0.
         23    2    1    2    0    0  0.13230230084E+02 -0.69988688420E+02 -0.12100827516E+03  0.16719722906E+03  0.90765936632E+02 0.  0.
         13    1    3    3    0    0 -0.66694130679E+02 -0.25115972924E+02 -0.16076433607E+03  0.17585246918E+03  0.00000000000E+00 0. -1.
        -14    1    3    3    0    0  0.20040037492E+02  0.62221969462E+01 -0.74315243690E+02  0.77220944583E+02  0.00000000000E+00 0.  1.
        -11    1    4    4    0    0 -0.88055616267E+01 -0.81107509672E+02 -0.59662111000E+02  0.10107192256E+03  0.00000000000E+00 0. -1.
         11    1    4    4    0    0  0.22035791711E+02  0.11118821253E+02 -0.61346164161E+02  0.66125306499E+02  0.00000000000E+00 0.  1.
          2    1    1    2  501    0  0.33423863104E+02  0.88882464398E+02 -0.60224047972E+03  0.60968093501E+03  0.00000000000E+00 0. -1.
<scales pt_clust_5="13000.00000" pt_clust_6="13000.00000" pt_clust_7="13000.00000" pt_clust_8="13000.00000" pt_clust_9="73.74217"></scales>
<clustering>
<clus scale="   79.058">  5  6 -1 -1</clus>
<clus scale="   90.766">  7  8 -1 -1</clus>
<clus scale="   93.722">  2  5  1 -1</clus>
<clus scale="   73.742">  1  9  2 -1</clus>
<clus scale="   73.742">  1  5  2 -1</clus>
</clustering>
</event>
<event>
 9    1  0.6014990E-005  0.1029145E+03  0.7546771E-02  0.1281949E+00
         21   -1    0    0  501  502  0.00000000000E+00  0.00000000000E+00  0.33895723016E+03  0.33895723016E+03  0.00000000000E+00 0.  1.
         -2   -1    0    0    0  501 -0.00000000000E+00 -0.00000000000E+00 -0.15520966248E+03  0.15520966248E+03  0.00000000000E+00 0.  1.
        -24    2    1    2    0    0  0.12789905120E+02  0.38568177205E+02 -0.10707525158E+03  0.13965092552E+03  0.79913612928E+02 0.  0.
         23    2    1    2    0    0  0.62050723730E+02 -0.38510415590E+02  0.12887865037E+03  0.17611463051E+03  0.95253935002E+02 0.  0.
         11    1    3    3    0    0  0.19602005828E+02  0.88221718654E+01  0.61719232363E+01  0.22364301584E+02  0.00000000000E+00 0. -1.
        -12    1    3    3    0    0 -0.68121007082E+01  0.29746005340E+02 -0.11324717482E+03  0.11728662394E+03  0.00000000000E+00 0.  1.
        -13    1    4    4    0    0  0.43320560482E+02  0.83796180824E+00  0.36059855382E+01  0.43478457564E+02  0.00000000000E+00 0.  1.
         13    1    4    4    0    0  0.18730163248E+02 -0.39348377399E+02  0.12527266483E+03  0.13263617294E+03  0.00000000000E+00 0. -1.
         -1    1    1    2    0  502 -0.74840628850E+02 -0.57761614838E-01  0.16194416890E+03  0.17840133661E+03  0.00000000000E+00 0.  1.
<scales pt_clust_5="13000.00000" pt_clust_6="13000.00000" pt_clust_7="13000.00000" pt_clust_8="13000.00000" pt_clust_9="74.84065"></scales>
<clustering>
<clus scale="   74.841">  1  9  2 -1</clus>
<clus scale="   79.914">  5  6 -1 -1</clus>
<clus scale="   88.906">  2  5  1 -1</clus>
<clus scale="   95.254">  7  8 -1 -1</clus>
<clus scale="   74.841">  1  5  2 -1</clus>
</clustering>
</event>
<event>
 9    1  0.6014990E-005  0.9062398E+02  0.7546771E-02  0.1307009E+00
         21   -1    0    0  501  502  0.00000000000E+00  0.00000000000E+00  0.40301742730E+02  0.40301742730E+02  0.00000000000E+00 0.  1.
          1   -1    0    0  502    0 -0.00000000000E+00 -0.00000000000E+00 -0.64629594976E+03  0.64629594976E+03  0.00000000000E+00 0. -1.
        -24    2    1    2    0    0  0.10091336001E+02  0.76955824406E+01 -0.55700249869E+03  0.56299375038E+03  0.80926648036E+02 0.  0.
         23    2    1    2    0    0  0.11359466708E+02 -0.89296051777E+01 -0.45573251271E+02  0.10184743510E+03  0.89928880078E+02 0.  0.
         11    1    3    3    0    0  0.27142515902E+02  0.17954944681E+02 -0.92368979225E+02  0.97934286800E+02  0.00000000000E+00 0. -1.
        -12    1    3    3    0    0 -0.17051179901E+02 -0.10259362240E+02 -0.46463351947E+03  0.46505946358E+03  0.00000000000E+00 0.  1.
        -11    1    4    4    0    0  0.35001972055E+02 -0.28922861923E+01  0.13738256352E+02  0.37712637865E+02  0.00000000000E+00 0.  1.
         11    1    4    4    0    0 -0.23642505347E+02 -0.60373189854E+01 -0.59311507623E+02  0.64134797233E+02  0.00000000000E+00 0. -1.
          2    1    1    2  501    0 -0.21450802709E+02  0.12340227371E+01 -0.34184570708E+01  0.21756507020E+02  0.00000000000E+00 0. -1.
<scales pt_clust_5="13000.00000" pt_clust_6="13000.00000" pt_clust_7="13000.00000" pt_clust_8="13000.00000" pt_clust_9="21.48627"></scales>
<clustering>
<clus scale="   21.486">  1  9  2 -1</clus>
<clus scale="   80.927">  5  6 -1 -1</clus>
<clus scale="   81.698">  2  5  1 -1</clus>
<clus scale="   89.929">  7  8 -1 -1</clus>
<clus scale="   21.486">  1  5  2 -1</clus>
</clustering>
</event>
<event>
 9    1  0.6014990E-005  0.9056411E+02  0.7546771E-02  0.1309554E+00
         -2   -1    0    0    0  501 -0.00000000000E+00  0.00000000000E+00  0.96884370022E+02  0.96884370022E+02  0.00000000000E+00 0.  1.
         21   -1    0    0  501  502  0.00000000000E+00 -0.00000000000E+00 -0.38076114584E+03  0.38076114584E+03  0.00000000000E+00 0.  1.
        -24    2    1    2    0    0 -0.24661985919E+02  0.13811069322E+02  0.50605512826E+02  0.95546379623E+02  0.75955470807E+02 0.  0.
         23    2    1    2    0    0 -0.44667601450E+02  0.13397301686E+02 -0.12768172254E+03  0.16229613063E+03  0.88672032978E+02 0.  0.
         13    1    3    3    0    0  0.23911634506E+01  0.23169160280E+02 -0.12367745497E+02  0.26372121254E+02  0.00000000000E+00 0. -1.
        -14    1    3    3    0    0 -0.27053149370E+02 -0.93580909586E+01  0.62973258323E+02  0.69174258370E+02  0.00000000000E+00 0.  1.
        -13    1    4    4    0    0 -0.60173376780E+02  0.36731466580E+02 -0.77088560211E+02  0.10446378332E+03  0.00000000000E+00 0.  1.
         13    1    4    4    0    0  0.15505775331E+02 -0.23334164895E+02 -0.50593162333E+02  0.57832347305E+02  0.00000000000E+00 0. -1.
         -1    1    1    2    0  502  0.69329587369E+02 -0.27208371007E+02 -0.20680056610E+03  0.21980300562E+03  0.00000000000E+00 0.  1.
<scales pt_clust_5="13000.00000" pt_clust_6="13000.00000" pt_clust_7="13000.00000" pt_clust_8="13000.00000" pt_clust_9="74.47743"></scales>
<clustering>
<clus scale="   74.477">  2  9  1 -1</clus>
<clus scale="   75.955">  5  6 -1 -1</clus>
<clus scale="   78.156">  1  5  2 -1</clus>
<clus scale="   88.672">  7  8 -1 -1</clus>
<clus scale="   74.477">  2  5  1 -1</clus>
</clustering>
</event>
<event>
 9    1  0.6014990E-005  0.1009361E+03  0.7546771E-02  0.1285909E+00
          1   -1    0    0  502    0 -0.00000000000E+00  0.00000000000E+00  0.44289481391E+03  0.44289481391E+03  0.00000000000E+00 0. -1.
         21   -1    0    0  501  502  0.00000000000E+00 -0.00000000000E+00 -0.36147908945E+02  0.36147908945E+02  0.00000000000E+00 0. -1.
         23    2    1    2    0    0 -0.44190023511E+02 -0.36395723119E+02  0.19136893854E+03  0.22018233005E+03  0.92632505035E+02 0.  0.
        -24    2    1    2    0    0 -0.23098112954E+01  0.27842705876E+02  0.78057666765E+02  0.11362866955E+03  0.77704077783E+02 0.  0.
         13    1    4    4    0    0  0.23940627346E+02 -0.16581969932E+02  0.40152533503E+02  0.49601827701E+02  0.00000000000E+00 0. -1.
        -14    1    4    4    0    0 -0.26250438642E+02  0.44424675808E+02  0.37905133262E+02  0.64026841849E+02  0.00000000000E+00 0.  1.
        -11    1    3    3    0    0 -0.22585617852E+01  0.26392947692E+02  0.89793053008E+02  0.93618807713E+02  0.00000000000E+00 0.  1.
         11    1    3    3    0    0 -0.41931461725E+02 -0.62788670811E+02  0.10157588553E+03  0.12656352234E+03  0.00000000000E+00 0. -1.
          2    1    1    2  501    0  0.46499834806E+02  0.85530172428E+01  0.13732029966E+03  0.14523172325E+03  0.00000000000E+00 0. -1.
<scales pt_clust_5="13000.00000" pt_clust_6="13000.00000" pt_clust_7="13000.00000" pt_clust_8="13000.00000" pt_clust_9="47.27992"></scales>
<clustering>
<clus scale="   47.280">  2  9  1 -1</clus>
<clus scale="   77.704">  5  6 -1 -1</clus>
<clus scale="   87.437">  2  5  1 -1</clus>
<clus scale="   92.633">  7  8 -1 -1</clus>
<clus scale="   47.280">  2  5  1 -1</clus>
</clustering>
</event>
<event>
 9    1  0.6014990E-005  0.9819834E+02  0.7546771E-02  0.1290451E+00
         21   -1    0    0  501  502  0.00000000000E+00  0.00000000000E+00  0.16251242544E+03  0.16251242544E+03  0.00000000000E+00 0. -1.
         -4   -1    0    0    0  501 -0.00000000000E+00 -0.00000000000E+00 -0.21314580494E+03  0.21314580494E+03  0.00000000000E+00 0.  1.
        -24    2    1    2    0    0  0.16046306965E+02 -0.32590094656E+02 -0.17410416957E+03  0.19504444882E+03  0.80065453948E+02 0.  0.
         23    2    1    2    0    0 -0.28754746540E+02  0.52072422750E+00  0.10028060001E+03  0.13904776333E+03  0.91929185494E+02 0.  0.
         13    1    3    3    0    0 -0.27751843677E+02  0.35396606304E+01 -0.35055427854E+02  0.44850608099E+02  0.00000000000E+00 0. -1.
        -14    1    3    3    0    0  0.43798150642E+02 -0.36129755286E+02 -0.13904874172E+03  0.15019384072E+03  0.00000000000E+00 0.  1.
        -11    1    4    4    0    0 -0.55220440588E+02 -0.20778116589E+02  0.80269541122E+02  0.99620411662E+02  0.00000000000E+00 0. -1.
         11    1    4    4    0    0  0.26465694048E+02  0.21298840816E+02  0.20011058889E+02  0.39427351666E+02  0.00000000000E+00 0.  1.
         -3    1    1    2    0  502  0.12708439575E+02  0.32069370429E+02  0.23190190060E+02  0.41566018226E+02  0.00000000000E+00 0.  1.
<scales pt_clust_5="13000.00000" pt_clust_6="13000.00000" pt_clust_7="13000.00000" pt_clust_8="13000.00000" pt_clust_9="34.49564"></scales>
<clustering>
<clus scale="   34.496">  1  9  2 -1</clus>
<clus scale="   80.065">  5  6 -1 -1</clus>
<clus scale="   87.192">  2  5  1 -1</clus>
<clus scale="   91.929">  7  8 -1 -1</clus>
<clus scale="   34.496">  1  5  2 -1</clus>
</clustering>
</event>
<event>
 9    1  0.6014990E-005  0.1029304E+03  0.7546771E-02  0.1280118E+00
         21   -1    0    0  501  502  0.00000000000E+00  0.00000000000E+00  0.48144418534E+02  0.48144418534E+02  0.00000000000E+00 0. -1.
          1   -1    0    0  502    0 -0.00000000000E+00 -0.00000000000E+00 -0.49201531825E+03  0.49201531825E+03  0.00000000000E+00 0. -1.
        -24    2    1    2    0    0 -0.14030065225E+02  0.63095631771E+02 -0.23409279300E+03  0.25629257301E+03  0.81905712658E+02 0.  0.
         23    2    1    2    0    0  0.41312990555E+01  0.15674870874E+02 -0.55510123971E+02  0.11036964749E+03  0.94006999813E+02 0.  0.
         11    1    3    3    0    0 -0.19476527493E+02  0.82118581320E+02 -0.19488638576E+03  0.21237584579E+03  0.00000000000E+00 0. -1.
        -12    1    3    3    0    0  0.54464622674E+01 -0.19022949549E+02 -0.39206407238E+02  0.43916727215E+02  0.00000000000E+00 0.  1.
        -13    1    4    4    0    0  0.30438658954E+02 -0.19820162874E+02 -0.55330980671E+02  0.66188127616E+02  0.00000000000E+00 0.  1.
         13    1    4    4    0    0 -0.26307359899E+02  0.35495033748E+02 -0.17914330010E+00  0.44181519869E+02  0.00000000000E+00 0. -1.
          2    1    1    2  501    0  0.98987661698E+01 -0.78770502645E+02 -0.15426798275E+03  0.17349751629E+03  0.00000000000E+00 0. -1.
<scales pt_clust_5="13000.00000" pt_clust_6="13000.00000" pt_clust_7="13000.00000" pt_clust_8="13000.00000" pt_clust_9="79.39007"></scales>
<clustering>
<clus scale="   79.390">  1  9  2 -1</clus>
<clus scale="   81.906">  5  6 -1 -1</clus>
<clus scale="   92.010">  2  5  1 -1</clus>
<clus scale="   94.007">  7  8 -1 -1</clus>
<clus scale="   79.390">  1  5  2 -1</clus>
</clustering>
</event>
<event>
 9    1  0.6014990E-005  0.3154269E+03  0.7546771E-02  0.1095654E+00
         21   -1    0    0  501  502  0.00000000000E+00  0.00000000000E+00  0.97838750075E+03  0.97838750075E+03  0.00000000000E+00 0.  1.
         -2   -1    0    0    0  501 -0.00000000000E+00 -0.00000000000E+00 -0.27152821790E+03  0.27152821790E+03  0.00000000000E+00 0.  1.
         23    2    1    2    0    0 -0.17206451114E+03  0.18605103317E+02  0.53084542393E+03  0.56588526917E+03  0.92070233511E+02 0.  0.
        -24    2    1    2    0    0  0.88391189173E+02 -0.32012651185E+03  0.31396613672E+02  0.33931240202E+03  0.62073930945E+02 0.  0.
         11    1    4    4    0    0  0.21104907994E+02 -0.40263793326E+02 -0.14763137917E+02  0.47796866379E+02  0.00000000000E+00 0. -1.
        -12    1    4    4    0    0  0.67286281179E+02 -0.27986271852E+03  0.46159751589E+02  0.29151553564E+03  0.00000000000E+00 0.  1.
        -13    1    3    3    0    0 -0.12288342897E+03 -0.14177322767E+02  0.44345182298E+03  0.46038120389E+03  0.00000000000E+00 0.  1.
         13    1    3    3    0    0 -0.49181082174E+02  0.32782426084E+02  0.87393600950E+02  0.10550406528E+03  0.00000000000E+00 0. -1.
         -1    1    1    2    0  502  0.83673321972E+02  0.30152140853E+03  0.14461724525E+03  0.34471804745E+03  0.00000000000E+00 0.  1.
<scales pt_clust_5="13000.00000" pt_clust_6="13000.00000" pt_clust_7="13000.00000" pt_clust_8="13000.00000" pt_clust_9="309.25868"></scales>
<clustering>
<clus scale="   62.074">  5  6 -1 -1</clus>
<clus scale="   92.070">  7  8 -1 -1</clus>
<clus scale="  196.034">  2  7  1 -1</clus>
<clus scale="  309.259">  1  9  2 -1</clus>
<clus scale="  309.259">  1  5  2 -1</clus>
</clustering>
</event>
<event>
 9    1  0.6014990E-005  0.1020714E+03  0.7546771E-02  0.1281049E+00
         -4   -1    0    0    0  501 -0.00000000000E+00  0.00000000000E+00  0.35111852898E+03  0.35111852898E+03  0.00000000000E+00 0.  1.
         21   -1    0    0  501  502  0.00000000000E+00 -0.00000000000E+00 -0.96209729076E+02  0.96209729076E+02  0.00000000000E+00 0.  1.
        -24    2    1    2    0    0  0.34890652064E+01  0.50754381545E+02  0.28732473552E+03  0.30261654334E+03  0.80206532415E+02 0.  0.
         23    2    1    2    0    0  0.23063405015E+02 -0.17339235794E+02 -0.83489502003E+01  0.95713496103E+02  0.90877932514E+02 0.  0.
         11    1    3    3    0    0  0.38454736855E+02  0.73882617228E+01  0.12601651155E+03  0.13196027577E+03  0.00000000000E+00 0. -1.
        -12    1    3    3    0    0 -0.34965671649E+02  0.43366119822E+02  0.16130822397E+03  0.17065626757E+03  0.00000000000E+00 0.  1.
        -11    1    4    4    0    0 -0.18891379019E+02  0.15808262145E+02 -0.29306347101E+02  0.38283773765E+02  0.00000000000E+00 0. -1.
         11    1    4    4    0    0  0.41954784034E+02 -0.33147497938E+02  0.20957396901E+02  0.57429722338E+02  0.00000000000E+00 0.  1.
         -3    1    1    2    0  502 -0.26552470222E+02 -0.33415145751E+02 -0.24066985412E+02  0.48998218613E+02  0.00000000000E+00 0.  1.
<scales pt_clust_5="13000.00000" pt_clust_6="13000.00000" pt_clust_7="13000.00000" pt_clust_8="13000.00000" pt_clust_9="42.68027"></scales>
<clustering>
<clus scale="   42.680">  2  9  1 -1</clus>
<clus scale="   80.207">  5  6 -1 -1</clus>
<clus scale="   90.878">  7  8 -1 -1</clus>
<clus scale="   92.698">  1  5  2 -1</clus>
<clus scale="   42.680">  2  5  1 -1</clus>
</clustering>
</event>
<event>
 9    1  0.6014990E-005  0.9174705E+02  0.7546771E-02  0.1309904E+00
         -2   -1    0    0    0  501 -0.00000000000E+00  0.00000000000E+00  0.59030007858E+03  0.59030007858E+03  0.00000000000E+00 0.  1.
         21   -1    0    0  501  502  0.00000000000E+00 -0.00000000000E+00 -0.19222137650E+02  0.19222137650E+02  0.00000000000E+00 0.  1.
        -24    2    1    2    0    0 -0.11050379235E+01 -0.46223027600E+01  0.29902166345E+03  0.30805427478E+03  0.73897863351E+02 0.  0.
         23    2    1    2    0    0 -0.23730758631E+02  0.14967814169E+02  0.24679204393E+03  0.26456092458E+03  0.91098767856E+02 0.  0.
         13    1    3    3    0    0  0.16518890982E+02  0.27591991160E+02  0.84500787716E+02  0.90413355540E+02  0.00000000000E+00 0. -1.
        -14    1    3    3    0    0 -0.17623928905E+02 -0.32214293920E+02  0.21452087573E+03  0.21764091924E+03  0.00000000000E+00 0.  1.
        -13    1    4    4    0    0  0.17686841943E+02 -0.10114396178E+02  0.96832238030E+01  0.22558595062E+02  0.00000000000E+00 0. -1.
         13    1    4    4    0    0 -0.41417600574E+02  0.25082210347E+02  0.23710882013E+03  0.24200232952E+03  0.00000000000E+00 0.  1.
         -1    1    1    2    0  502  0.24835796554E+02 -0.10345511409E+02  0.25264233554E+02  0.36907016865E+02  0.00000000000E+00 0.  1.
<scales pt_clust_5="13000.00000" pt_clust_6="13000.00000" pt_clust_7="13000.00000" pt_clust_8="13000.00000" pt_clust_9="26.90439"></scales>
<clustering>
<clus scale="   26.904">  2  9  1 -1</clus>
<clus scale="   73.898">  5  6 -1 -1</clus>
<clus scale="   74.696">  1  5  2 -1</clus>
<clus scale="   91.099">  7  8 -1 -1</clus>
<clus scale="   26.904">  2  5  1 -1</clus>
</clustering>
</event>
<event>
 9    1  0.6014990E-005  0.1304023E+03  0.7546771E-02  0.1229550E+00
         -2   -1    0    0    0  501 -0.00000000000E+00  0.00000000000E+00  0.11123817825E+03  0.11123817825E+03  0.00000000000E+00 0.  1.
         21   -1    0    0  501  502  0.00000000000E+00 -0.00000000000E+00 -0.28665902939E+03  0.28665902939E+03  0.00000000000E+00 0. -1.
        -24    2    1    2    0    0  0.40281498623E+01 -0.96362798320E+02  0.43025644583E+02  0.13369441326E+03  0.81981553745E+02 0.  0.
         23    2    1    2    0    0  0.14689734910E+02  0.73680133229E+02 -0.18056648051E+03  0.21624700162E+03  0.92271130269E+02 0.  0.
         13    1    3    3    0    0  0.37531739389E+02 -0.29040825256E+02  0.82103100165E+00  0.47462354399E+02  0.00000000000E+00 0. -1.
        -14    1    3    3    0    0 -0.33503589527E+02 -0.67321973064E+02  0.42204613581E+02  0.86232058864E+02  0.00000000000E+00 0.  1.
        -11    1    4    4    0    0 -0.26941980622E+02  0.30250156113E+01 -0.13831845355E+02  0.30435850328E+02  0.00000000000E+00 0.  1.
         11    1    4    4    0    0  0.41631715532E+02  0.70655117618E+02 -0.16673463516E+03  0.18581115129E+03  0.00000000000E+00 0. -1.
         -1    1    1    2    0  502 -0.18717884772E+02  0.22682665091E+02 -0.37880015207E+02  0.47955792748E+02  0.00000000000E+00 0.  1.
<scales pt_clust_5="13000.00000" pt_clust_6="13000.00000" pt_clust_7="13000.00000" pt_clust_8="13000.00000" pt_clust_9="29.40854"></scales>
<clustering>
<clus scale="   29.409">  2  9  1 -1</clus>
<clus scale="   81.982">  5  6 -1 -1</clus>
<clus scale="   92.271">  7  8 -1 -1</clus>
<clus scale="  123.336">  1  5  2 -1</clus>
<clus scale="   29.409">  2  5  1 -1</clus>
</clustering>
</event>
<event>
 9    1  0.6014990E-005  0.8693214E+02  0.7546771E-02  0.1310528E+00
         -4   -1    0    0    0  501 -0.00000000000E+00  0.00000000000E+00  0.12651333958E+04  0.12651333958E+04  0.00000000000E+00 0.  1.
         21   -1    0    0  501  502  0.00000000000E+00 -0.00000000000E+00 -0.26314921366E+03  0.26314921366E+03  0.00000000000E+00 0.  1.
        -24    2    1    2    0    0  0.50368412488E+01 -0.34780529438E+02  0.12467162956E+04  0.12497522074E+04  0.79649250546E+02 0.  0.
         23    2    1    2    0    0 -0.10438193078E+02  0.12351046885E+02 -0.86435033823E+02  0.11856096217E+03  0.79524728519E+02 0.  0.
         13    1    3    3    0    0  0.13163912693E+02 -0.34077667652E+02  0.22066948828E+03  0.22367297353E+03  0.00000000000E+00 0. -1.
        -14    1    3    3    0    0 -0.81270714438E+01 -0.70286178595E+00  0.10260468073E+04  0.10260792339E+04  0.00000000000E+00 0.  1.
        -11    1    4    4    0    0 -0.23447264447E+02  0.41868141302E+02 -0.42820926968E+02  0.64314440467E+02  0.00000000000E+00 0. -1.
         11    1    4    4    0    0  0.13009071368E+02 -0.29517094417E+02 -0.43614106855E+02  0.54246521708E+02  0.00000000000E+00 0.  1.
         -3    1    1    2    0  502  0.54013518297E+01  0.22429482553E+02 -0.15829707963E+03  0.15996943992E+03  0.00000000000E+00 0.  1.
<scales pt_clust_5="13000.00000" pt_clust_6="13000.00000" pt_clust_7="13000.00000" pt_clust_8="13000.00000" pt_clust_9="23.07068"></scales>
<clustering>
<clus scale="   23.071">  2  9  1 -1</clus>
<clus scale="   79.525">  7  8 -1 -1</clus>
<clus scale="   79.649">  5  6 -1 -1</clus>
<clus scale="   86.818">  2  7  1 -1</clus>
<clus scale="   23.071">  2  5  1 -1</clus>
</clustering>
</event>
<event>
 9    1  0.6014990E-005  0.1755350E+03  0.7546771E-02  0.1200796E+00
         21   -1    0    0  501  502  0.00000000000E+00  0.00000000000E+00  0.46307700522E+03  0.46307700522E+03  0.00000000000E+00 0. -1.
          1   -1    0    0  502    0 -0.00000000000E+00 -0.00000000000E+00 -0.11966286598E+03  0.11966286598E+03  0.00000000000E+00 0. -1.
        -24    2    1    2    0    0 -0.37888779785E+02  0.27228937423E+02 -0.13465716126E+02  0.93915289932E+02  0.80385207006E+02 0.  0.
         23    2    1    2    0    0  0.39044738927E+02  0.13487260836E+03  0.13228815975E+03  0.21184141007E+03  0.87530073034E+02 0.  0.
         13    1    3    3    0    0 -0.30310687504E+02  0.19097098162E+02 -0.46707405822E+02  0.58864409398E+02  0.00000000000E+00 0. -1.
        -14    1    3    3    0    0 -0.75780922809E+01  0.81318392608E+01  0.33241689695E+02  0.35050880534E+02  0.00000000000E+00 0.  1.
        -11    1    4    4    0    0  0.46744966071E+02  0.72407838213E+02  0.11995560463E+03  0.14770691916E+03  0.00000000000E+00 0.  1.
         11    1    4    4    0    0 -0.77002271441E+01  0.62464770148E+02  0.12332555127E+02  0.64134490905E+02  0.00000000000E+00 0. -1.
          2    1    1    2  501    0 -0.11559591418E+01 -0.16210154578E+03  0.22459169561E+03  0.27698317119E+03  0.00000000000E+00 0. -1.
<scales pt_clust_5="13000.00000" pt_clust_6="13000.00000" pt_clust_7="13000.00000" pt_clust_8="13000.00000" pt_clust_9="152.15464"></scales>
<clustering>
<clus scale="   80.385">  5  6 -1 -1</clus>
<clus scale="   87.530">  7  8 -1 -1</clus>
<clus scale="   92.945">  2  5  1 -1</clus>
<clus scale="  152.155">  1  9  2 -1</clus>
<clus scale="  152.155">  1  5  2 -1</clus>
</clustering>
</event>
<event>
 9    1  0.6014990E-005  0.2172107E+03  0.7546771E-02  0.1136724E+00
         21   -1    0    0  501  502  0.00000000000E+00  0.00000000000E+00  0.40324085505E+02  0.40324085505E+02  0.00000000000E+00 0. -1.
          1   -1    0    0  502    0 -0.00000000000E+00 -0.00000000000E+00 -0.15494036375E+04  0.15494036375E+04  0.00000000000E+00 0. -1.
         23    2    1    2    0    0  0.19437202244E+03 -0.75167510012E+02 -0.96478037077E+03  0.99120113714E+03  0.90817910053E+02 0.  0.
        -24    2    1    2    0    0 -0.16033322386E+03  0.87257016597E+02 -0.51377789767E+03  0.55123657923E+03  0.81077176414E+02 0.  0.
         11    1    4    4    0    0 -0.16695719369E+03  0.89445593519E+02 -0.50805570341E+03  0.54221381068E+03  0.00000000000E+00 0. -1.
        -12    1    4    4    0    0  0.66239698293E+01 -0.21885769220E+01 -0.57221942540E+01  0.90227685509E+01  0.00000000000E+00 0.  1.
        -13    1    3    3    0    0  0.97948800454E+02  0.89056721763E+01 -0.37279819390E+03  0.38555385082E+03  0.00000000000E+00 0.  1.
         13    1    3    3    0    0  0.96423221989E+02 -0.84073182189E+02 -0.59198217686E+03  0.60564728632E+03  0.00000000000E+00 0. -1.
          2    1    1    2  501    0 -0.34038798582E+02 -0.12089506585E+02 -0.30521283611E+02  0.47290006679E+02  0.00000000000E+00 0. -1.
<scales pt_clust_5="13000.00000" pt_clust_6="13000.00000" pt_clust_7="13000.00000" pt_clust_8="13000.00000" pt_clust_9="36.12196"></scales>
<clustering>
<clus scale="   36.122">  1  9  2 -1</clus>
<clus scale="   81.077">  5  6 -1 -1</clus>
<clus scale="   90.818">  7  8 -1 -1</clus>
<clus scale="  213.322">  1  5  2 -1</clus>
<clus scale="   36.122">  1  5  2 -1</clus>
</clustering>
</event>
<event>
 9    1  0.6014990E-005  0.1059767E+03  0.7546771E-02  0.1273260E+00
         -2   -1    0    0    0  501 -0.00000000000E+00  0.00000000000E+00  0.18147320964E+03  0.18147320964E+03  0.00000000000E+00 0.  1.
         21   -1    0    0  501  502  0.00000000000E+00 -0.00000000000E+00 -0.10720837568E+03  0.10720837568E+03  0.00000000000E+00 0. -1.
        -24    2    1    2    0    0  0.30818793980E+02  0.74798803008E-01  0.28625528269E+02  0.90343594348E+02  0.79954615337E+02 0.  0.
         23    2    1    2    0    0 -0.88268864077E+02  0.26172015052E+02  0.31337148481E+02  0.13357721972E+03  0.91566860905E+02 0.  0.
         13    1    3    3    0    0 -0.78377911561E+01  0.31071954860E+02 -0.19759483936E+01  0.32106100995E+02  0.00000000000E+00 0. -1.
        -14    1    3    3    0    0  0.38656585136E+02 -0.30997156057E+02  0.30601476663E+02  0.58237493353E+02  0.00000000000E+00 0.  1.
        -13    1    4    4    0    0 -0.10609208764E+03  0.16278182976E+02  0.34937282375E+02  0.11287658748E+03  0.00000000000E+00 0.  1.
         13    1    4    4    0    0  0.17823223561E+02  0.98938320759E+01 -0.36001338942E+01  0.20700632245E+02  0.00000000000E+00 0. -1.
         -1    1    1    2    0  502  0.57450070096E+02 -0.26246813855E+02  0.14302157216E+02  0.64760771248E+02  0.00000000000E+00 0.  1.
<scales pt_clust_5="13000.00000" pt_clust_6="13000.00000" pt_clust_7="13000.00000" pt_clust_8="13000.00000" pt_clust_9="63.16174"></scales>
<clustering>
<clus scale="   63.162">  2  9  1 -1</clus>
<clus scale="   79.955">  5  6 -1 -1</clus>
<clus scale="   91.567">  7  8 -1 -1</clus>
<clus scale="   96.121">  1  5  2 -1</clus>
<clus scale="   63.162">  2  5  1 -1</clus>
</clustering>
</event>
<event>
 9    1  0.6014990E-005  0.9813186E+02  0.7546771E-02  0.1287486E+00
         -2   -1    0    0    0  501 -0.00000000000E+00  0.00000000000E+00  0.21623129953E+03  0.21623129953E+03  0.00000000000E+00 0.  1.
         21   -1    0    0  501  502  0.00000000000E+00 -0.00000000000E+00 -0.15020097394E+03  0.15020097394E+03  0.00000000000E+00 0. -1.
         23    2    1    2    0    0  0.34850751286E+02  0.26041008212E+02  0.10478163072E+03  0.14602983881E+03  0.91939190299E+02 0.  0.
        -24    2    1    2    0    0  0.65886010200E+02 -0.16925769687E+02  0.11129820972E+01  0.11168194863E+03  0.88567324116E+02 0.  0.
         13    1    4    4    0    0  0.46279312591E+02 -0.50902699875E+02 -0.12959832237E+02  0.70005834615E+02  0.00000000000E+00 0. -1.
        -14    1    4    4    0    0  0.19606697608E+02  0.33976930188E+02  0.14072814334E+02  0.41676114015E+02  0.00000000000E+00 0.  1.
        -11    1    3    3    0    0 -0.36588426381E+01 -0.30015158154E+02  0.16050759934E+02  0.34233371773E+02  0.00000000000E+00 0.  1.
         11    1    3    3    0    0  0.38509593924E+02  0.56056166366E+02  0.88730870782E+02  0.11179646704E+03  0.00000000000E+00 0. -1.
         -1    1    1    2    0  502 -0.10073676149E+03 -0.91152385242E+01 -0.39864287219E+02  0.10872048603E+03  0.00000000000E+00 0.  1.
<scales pt_clust_5="13000.00000" pt_clust_6="13000.00000" pt_clust_7="13000.00000" pt_clust_8="13000.00000" pt_clust_9="101.14832"></scales>
<clustering>
<clus scale="   88.567">  5  6 -1 -1</clus>
<clus scale="   91.939">  7  8 -1 -1</clus>
<clus scale="  101.148">  2  9  1 -1</clus>
<clus scale="  101.148">  2  5  1 -1</clus>
<clus scale="   98.132">  2  5  1 -1</clus>
</clustering>
</event>
<event>
 9    1  0.6014990E-005  0.1044593E+03  0.7546771E-02  0.1273333E+00
          1   -1    0    0  502    0 -0.00000000000E+00  0.00000000000E+00  0.38926454582E+03  0.38926454582E+03  0.00000000000E+00 0. -1.
         21   -1    0    0  501  502  0.00000000000E+00 -0.00000000000E+00 -0.91206624778E+02  0.91206624778E+02  0.00000000000E+00 0.  1.
         23    2    1    2    0    0  0.60160990833E+02  0.24436211714E+02  0.25405029750E+03  0.27608551553E+03  0.86401301878E+02 0.  0.
        -24    2    1    2    0    0 -0.25451685413E+02  0.17704698457E+02 -0.46560483811E+02  0.98635126640E+02  0.81238937196E+02 0.  0.
         13    1    4    4    0    0 -0.44274942546E+02  0.83101300801E+01  0.26403273128E+01  0.45125382300E+02  0.00000000000E+00 0. -1.
        -14    1    4    4    0    0  0.18823257133E+02  0.93945683767E+01 -0.49200811124E+02  0.53509744340E+02  0.00000000000E+00 0.  1.
        -11    1    3    3    0    0 -0.22550327018E+02  0.58492117642E+01  0.53153001902E+02  0.58034232468E+02  0.00000000000E+00 0.  1.
         11    1    3    3    0    0  0.82711317851E+02  0.18586999949E+02  0.20089729560E+03  0.21805128306E+03  0.00000000000E+00 0. -1.
          2    1    1    2  501    0 -0.34709305419E+02 -0.42140910170E+02  0.90568107349E+02  0.10575052842E+03  0.00000000000E+00 0. -1.
<scales pt_clust_5="13000.00000" pt_clust_6="13000.00000" pt_clust_7="13000.00000" pt_clust_8="13000.00000" pt_clust_9="54.59483"></scales>
<clustering>
<clus scale="   54.595">  2  9  1 -1</clus>
<clus scale="   81.239">  5  6 -1 -1</clus>
<clus scale="   86.401">  7  8 -1 -1</clus>
<clus scale="  100.231">  2  5  1 -1</clus>
<clus scale="   54.595">  2  5  1 -1</clus>
</clustering>
</event>
<event>
 9    1  0.6014990E-005  0.1353415E+03  0.7546771E-02  0.1221656E+00
         -2   -1    0    0    0  501 -0.00000000000E+00  0.00000000000E+00  0.39738683074E+03  0.39738683074E+03  0.00000000000E+00 0.  1.
         21   -1    0    0  501  502  0.00000000000E+00 -0.00000000000E+00 -0.20632843219E+03  0.20632843219E+03  0.00000000000E+00 0.  1.
        -24    2    1    2    0    0 -0.11696654397E+03 -0.24890612351E+02  0.85139299990E+01  0.14483065963E+03  0.81257110302E+02 0.  0.
         23    2    1    2    0    0  0.71632088367E+02 -0.61901231812E+02 -0.97153109649E+02  0.16254228042E+03  0.89545226702E+02 0.  0.
         13    1    3    3    0    0 -0.42387884063E+02  0.28205180050E+02 -0.87720617572E+01  0.51664436167E+02  0.00000000000E+00 0. -1.
        -14    1    3    3    0    0 -0.74578659908E+02 -0.53095792401E+02  0.17285991756E+02  0.93166223468E+02  0.00000000000E+00 0.  1.
        -11    1    4    4    0    0 -0.66348623094E+01 -0.31574982814E+02 -0.65168046932E+02  0.72717778284E+02  0.00000000000E+00 0. -1.
         11    1    4    4    0    0  0.78266950676E+02 -0.30326248997E+02 -0.31985062716E+02  0.89824502133E+02  0.00000000000E+00 0.  1.
         -1    1    1    2    0  502  0.45334455604E+02  0.86791844163E+02  0.27969757820E+03  0.29634232288E+03  0.00000000000E+00 0.  1.
<scales pt_clust_5="13000.00000" pt_clust_6="13000.00000" pt_clust_7="13000.00000" pt_clust_8="13000.00000" pt_clust_9="97.91857"></scales>
<clustering>
<clus scale="   81.257">  5  6 -1 -1</clus>
<clus scale="   89.545">  7  8 -1 -1</clus>
<clus scale="   97.919">  2  9  1 -1</clus>
<clus scale="  130.007">  1  5  2 -1</clus>
<clus scale="   97.919">  2  5  1 -1</clus>
</clustering>
</event>
<event>
 9    1  0.6014990E-005  0.1029317E+03  0.7546771E-02  0.1278050E+00
          3   -1    0    0  502    0 -0.00000000000E+00  0.00000000000E+00  0.56016391474E+02  0.56016391474E+02  0.00000000000E+00 0. -1.
         21   -1    0    0  501  502  0.00000000000E+00 -0.00000000000E+00 -0.38151025979E+03  0.38151025979E+03  0.00000000000E+00 0. -1.
        -24    2    1    2    0    0 -0.50349071950E+02  0.52059908169E+02 -0.64526026619E+02  0.12821530235E+03  0.83846839897E+02 0.  0.
         23    2    1    2    0    0 -0.96811769735E+01 -0.18843850003E+02 -0.12140407780E+03  0.15379613584E+03  0.92008072584E+02 0.  0.
         11    1    3    3    0    0 -0.64169519330E+02  0.39172570545E+02 -0.17012694566E+02  0.77082094357E+02  0.00000000000E+00 0. -1.
        -12    1    3    3    0    0  0.13820447380E+02  0.12887337624E+02 -0.47513332053E+02  0.51133207993E+02  0.00000000000E+00 0.  1.
        -13    1    4    4    0    0 -0.17892878203E+02 -0.45480404530E+02 -0.11534430416E+03  0.12527142846E+03  0.00000000000E+00 0.  1.
         13    1    4    4    0    0  0.82117012294E+01  0.26636554528E+02 -0.60597736417E+01  0.28524707374E+02  0.00000000000E+00 0. -1.
          4    1    1    2  501    0  0.60030248923E+02 -0.33216058166E+02 -0.13956376389E+03  0.15551521308E+03  0.00000000000E+00 0. -1.
<scales pt_clust_5="13000.00000" pt_clust_6="13000.00000" pt_clust_7="13000.00000" pt_clust_8="13000.00000" pt_clust_9="68.60712"></scales>
<clustering>
<clus scale="   68.607">  2  9  1 -1</clus>
<clus scale="   83.847">  5  6 -1 -1</clus>
<clus scale="   92.008">  7  8 -1 -1</clus>
<clus scale="   95.707">  1  5  2 -1</clus>
<clus scale="   68.607">  2  5  1 -1</clus>
</clustering>
</event>
<event>
 9    1  0.6634616E-005  0.9518361E+02  0.7546771E-02  0.1297652E+00
         21   -1    0    0  501  502  0.00000000000E+00  0.00000000000E+00  0.73353903878E+02  0.73353903878E+02  0.00000000000E+00 0. -1.
         -2   -1    0    0    0  501 -0.00000000000E+00 -0.00000000000E+00 -0.45042116081E+03  0.45042116081E+03  0.00000000000E+00 0.  1.
         23    2    1    2    0    0  0.71992014907E+01 -0.19024959945E+02 -0.37280154387E+03  0.38451317518E+03  0.91954408128E+02 0.  0.
        -24    2    1    2    0    0 -0.26984636755E+02  0.53103822613E+02 -0.39597622029E+01  0.99854708237E+02  0.80044340483E+02 0.  0.
         11    1    4    4    0    0 -0.40202278137E+02  0.28995426411E+02  0.28609942713E+02  0.57231868239E+02  0.00000000000E+00 0. -1.
        -12    1    4    4    0    0  0.13217641381E+02  0.24108396202E+02 -0.32569704916E+02  0.42622839997E+02  0.00000000000E+00 0.  1.
        -13    1    3    3    0    0  0.20185102722E+01 -0.54963571696E+02 -0.17612988674E+03  0.18451776500E+03  0.00000000000E+00 0.  1.
         13    1    3    3    0    0  0.51806912185E+01  0.35938611751E+02 -0.19667165713E+03  0.19999541018E+03  0.00000000000E+00 0. -1.
         -1    1    1    2    0  502  0.19785435265E+02 -0.34078862669E+02 -0.30595085738E+00  0.39407181266E+02  0.00000000000E+00 0.  1.
<scales pt_clust_5="13000.00000" pt_clust_6="13000.00000" pt_clust_7="13000.00000" pt_clust_8="13000.00000" pt_clust_9="39.40599"></scales>
<clustering>
<clus scale="   39.406">  1  9  2 -1</clus>
<clus scale="   80.044">  5  6 -1 -1</clus>
<clus scale="   83.734">  1  5  2 -1</clus>
<clus scale="   91.954">  7  8 -1 -1</clus>
<clus scale="   39.406">  1  5  2 -1</clus>
</clustering>
</event>
<event>
 9    1  0.6014990E-005  0.1494888E+03  0.7546771E-02  0.1204447E+00
         -4   -1    0    0    0  501 -0.00000000000E+00  0.00000000000E+00  0.20136622050E+03  0.20136622050E+03  0.00000000000E+00 0.  1.
         21   -1    0    0  501  502  0.00000000000E+00 -0.00000000000E+00 -0.30177347388E+03  0.30177347388E+03  0.00000000000E+00 0. -1.
        -24    2    1    2    0    0 -0.12926946163E+03  0.13236894867E+02  0.30916416953E+02  0.15171345679E+03  0.71939829290E+02 0.  0.
         23    2    1    2    0    0  0.81776803666E+02  0.65242170769E+02 -0.19550004794E+03  0.23947480282E+03  0.90465053891E+02 0.  0.
         13    1    3    3    0    0 -0.88542156427E+02  0.31945274589E+02  0.45544135673E+02  0.10456807509E+03  0.00000000000E+00 0. -1.
        -14    1    3    3    0    0 -0.40727305207E+02 -0.18708379723E+02 -0.14627718720E+02  0.47145381706E+02  0.00000000000E+00 0.  1.
        -11    1    4    4    0    0  0.66575177285E+02 -0.32916311681E+01 -0.77998514923E+02  0.10260047464E+03  0.00000000000E+00 0.  1.
         11    1    4    4    0    0  0.15201626381E+02  0.68533801937E+02 -0.11750153301E+03  0.13687432817E+03  0.00000000000E+00 0. -1.
         -3    1    1    2    0  502  0.47492657969E+02 -0.78479065636E+02  0.64176377604E+02  0.11195143477E+03  0.00000000000E+00 0.  1.
<scales pt_clust_5="13000.00000" pt_clust_6="13000.00000" pt_clust_7="13000.00000" pt_clust_8="13000.00000" pt_clust_9="91.73072"></scales>
<clustering>
<clus scale="   71.940">  5  6 -1 -1</clus>
<clus scale="   90.465">  7  8 -1 -1</clus>
<clus scale="   91.731">  2  9  1 -1</clus>
<clus scale="  139.062">  1  5  2 -1</clus>
<clus scale="   91.731">  2  5  1 -1</clus>
</clustering>
</event>
<event>
 9    1  0.6014990E-005  0.1043268E+03  0.7546771E-02  0.1277227E+00
         -2   -1    0    0    0  501 -0.00000000000E+00  0.00000000000E+00  0.35252866457E+03  0.35252866457E+03  0.00000000000E+00 0.  1.
         21   -1    0    0  501  502  0.00000000000E+00 -0.00000000000E+00 -0.53861921820E+02  0.53861921820E+02  0.00000000000E+00 0. -1.
        -24    2    1    2    0    0  0.53221084171E+02  0.62379627587E+01  0.13599275739E+03  0.16696146083E+03  0.80688929611E+02 0.  0.
         23    2    1    2    0    0 -0.29286280237E+02  0.52356990472E+02  0.87644546375E+02  0.14126772735E+03  0.93145389685E+02 0.  0.
         13    1    3    3    0    0  0.55971400971E+02  0.35777829048E+02  0.83915861002E+02  0.10702673734E+03  0.00000000000E+00 0. -1.
        -14    1    3    3    0    0 -0.27503168000E+01 -0.29539866289E+02  0.52076896387E+02  0.59934723493E+02  0.00000000000E+00 0.  1.
        -13    1    4    4    0    0 -0.34323066200E+01  0.75428187185E+02  0.52869013723E+02  0.92175510645E+02  0.00000000000E+00 0.  1.
         13    1    4    4    0    0 -0.25853973617E+02 -0.23071196713E+02  0.34775532652E+02  0.49092216703E+02  0.00000000000E+00 0. -1.
         -1    1    1    2    0  502 -0.23934803935E+02 -0.58594953230E+02  0.75029438982E+02  0.98161398204E+02  0.00000000000E+00 0.  1.
<scales pt_clust_5="13000.00000" pt_clust_6="13000.00000" pt_clust_7="13000.00000" pt_clust_8="13000.00000" pt_clust_9="63.29492"></scales>
<clustering>
<clus scale="   63.295">  2  9  1 -1</clus>
<clus scale="   80.689">  5  6 -1 -1</clus>
<clus scale="   93.145">  7  8 -1 -1</clus>
<clus scale="   93.374">  1  5  2 -1</clus>
<clus scale="   63.295">  2  5  1 -1</clus>
</clustering>
</event>
<event>
 9    1  0.6014990E-005  0.1305499E+03  0.7546771E-02  0.1233455E+00
          1   -1    0    0  502    0 -0.00000000000E+00  0.00000000000E+00  0.44379120762E+03  0.44379120762E+03  0.00000000000E+00 0. -1.
         21   -1    0    0  501  502  0.00000000000E+00 -0.00000000000E+00 -0.84343851903E+02  0.84343851903E+02  0.00000000000E+00 0.  1.
        -24    2    1    2    0    0  0.62465534186E+02 -0.48869823659E+02  0.57995502665E+02  0.12738605937E+03  0.81077291312E+02 0.  0.
         23    2    1    2    0    0  0.60682277684E+02  0.64460218391E+02  0.87402389042E+02  0.15331089270E+03  0.89596839405E+02 0.  0.
         13    1    3    3    0    0  0.14210651806E+02 -0.60414106317E+02  0.21087832172E+02  0.65547719507E+02  0.00000000000E+00 0. -1.
        -14    1    3    3    0    0  0.48254882380E+02  0.11544282658E+02  0.36907670493E+02  0.61838339861E+02  0.00000000000E+00 0.  1.
        -11    1    4    4    0    0  0.55577483624E+02  0.23916693882E+01  0.14615488847E+02  0.57516860856E+02  0.00000000000E+00 0.  1.
         11    1    4    4    0    0  0.51047940601E+01  0.62068549003E+02  0.72786900195E+02  0.95794031848E+02  0.00000000000E+00 0. -1.
          2    1    1    2  501    0 -0.12314781187E+03 -0.15590394732E+02  0.21404946401E+03  0.24743810745E+03  0.00000000000E+00 0. -1.
<scales pt_clust_5="13000.00000" pt_clust_6="13000.00000" pt_clust_7="13000.00000" pt_clust_8="13000.00000" pt_clust_9="94.95096"></scales>
<clustering>
<clus scale="   81.077">  5  6 -1 -1</clus>
<clus scale="   89.597">  7  8 -1 -1</clus>
<clus scale="  113.418">  1  5  2 -1</clus>
<clus scale="   94.951">  2  9  1 -1</clus>
<clus scale="   94.951">  2  5  1 -1</clus>
</clustering>
</event>
<event>
 9    1  0.6014990E-005  0.2036500E+03  0.7546771E-02  0.1147237E+00
          3   -1    0    0  502    0 -0.00000000000E+00  0.00000000000E+00  0.13030166578E+03  0.13030166578E+03  0.00000000000E+00 0. -1.
         21   -1    0    0  501  502  0.00000000000E+00 -0.00000000000E+00 -0.47361488157E+03  0.47361488157E+03  0.00000000000E+00 0.  1.
         23    2    1    2    0    0  0.87327786558E+02 -0.15006973564E+03 -0.58125435809E+02  0.20634615111E+03  0.95147779422E+02 0.  0.
        -24    2    1    2    0    0 -0.65917371528E+02  0.18031462686E+03 -0.15564367130E+03  0.26283051569E+03  0.89422944667E+02 0.  0.
         13    1    4    4    0    0 -0.51567160546E+02  0.46039721183E+02 -0.21273152149E+02  0.72328244661E+02  0.00000000000E+00 0. -1.
        -14    1    4    4    0    0 -0.14350210982E+02  0.13427490568E+03 -0.13437051915E+03  0.19050227103E+03  0.00000000000E+00 0.  1.
        -13    1    3    3    0    0  0.56991761192E+02 -0.12187215657E+03  0.53172883619E+00  0.13454057427E+03  0.00000000000E+00 0. -1.
         13    1    3    3    0    0  0.30336025367E+02 -0.28197579076E+02 -0.58657164645E+02  0.71805576838E+02  0.00000000000E+00 0.  1.
          4    1    1    2  501    0 -0.21410415030E+02 -0.30244891221E+02 -0.12954410867E+03  0.13473988054E+03  0.00000000000E+00 0. -1.
<scales pt_clust_5="13000.00000" pt_clust_6="13000.00000" pt_clust_7="13000.00000" pt_clust_8="13000.00000" pt_clust_9="37.05616"></scales>
<clustering>
<clus scale="   37.056">  2  9  1 -1</clus>
<clus scale="   89.423">  5  6 -1 -1</clus>
<clus scale="   95.148">  7  8 -1 -1</clus>
<clus scale="  201.039">  2  5  1 -1</clus>
<clus scale="   37.056">  2  5  1 -1</clus>
</clustering>
</event>
<event>
 9    1  0.6432061E-005  0.9902464E+02  0.7546771E-02  0.1286512E+00
         21   -1    0    0  501  502  0.00000000000E+00  0.00000000000E+00  0.20082526738E+03  0.20082526738E+03  0.00000000000E+00 0. -1.
          1   -1    0    0  502    0 -0.00000000000E+00 -0.00000000000E+00 -0.30520755942E+03  0.30520755942E+03  0.00000000000E+00 0. -1.
        -24    2    1    2    0    0 -0.31594222945E+02 -0.44219906748E+02 -0.21642211112E+03  0.23700629886E+03  0.79874028579E+02 0.  0.
         23    2    1    2    0    0  0.18268821303E+02  0.10734765154E+02 -0.49541187000E+02  0.10347519886E+03  0.88339133765E+02 0.  0.
         11    1    3    3    0    0 -0.58737027358E+02 -0.29397891388E+02 -0.14752119063E+03  0.16148305201E+03  0.00000000000E+00 0. -1.
        -12    1    3    3    0    0  0.27142804413E+02 -0.14822015360E+02 -0.68900920483E+02  0.75523246846E+02  0.00000000000E+00 0.  1.
        -11    1    4    4    0    0 -0.15103929656E+02  0.31116054833E+02  0.64462519798E+01  0.35183685481E+02  0.00000000000E+00 0.  1.
         11    1    4    4    0    0  0.33372750959E+02 -0.20381289679E+02 -0.55987438980E+02  0.68291513375E+02  0.00000000000E+00 0. -1.
          2    1    1    2  501    0  0.13325401642E+02  0.33485141595E+02  0.16158100607E+03  0.16555132908E+03  0.00000000000E+00 0. -1.
<scales pt_clust_5="13000.00000" pt_clust_6="13000.00000" pt_clust_7="13000.00000" pt_clust_8="13000.00000" pt_clust_9="36.03916"></scales>
<clustering>
<clus scale="   36.039">  1  9  2 -1</clus>
<clus scale="   79.874">  5  6 -1 -1</clus>
<clus scale="   88.339">  7  8 -1 -1</clus>
<clus scale="   91.553">  2  5  1 -1</clus>
<clus scale="   36.039">  1  5  2 -1</clus>
</clustering>
</event>
<event>
 9    1  0.6014990E-005  0.9356320E+02  0.7546771E-02  0.1298809E+00
         21   -1    0    0  501  502  0.00000000000E+00  0.00000000000E+00  0.45024201926E+02  0.45024201926E+02  0.00000000000E+00 0. -1.
          1   -1    0    0  502    0 -0.00000000000E+00 -0.00000000000E+00 -0.33973657559E+03  0.33973657559E+03  0.00000000000E+00 0. -1.
         23    2    1    2    0    0  0.21131480191E+02 -0.40653627452E+02 -0.17509967437E+03  0.20181990558E+03  0.89286737218E+02 0.  0.
        -24    2    1    2    0    0  0.17271108160E+02  0.13146959704E+02 -0.10221097020E+03  0.13260007598E+03  0.81636780877E+02 0.  0.
         13    1    4    4    0    0  0.49859513488E+02  0.19216767694E+01 -0.63738050387E+02  0.80945679279E+02  0.00000000000E+00 0. -1.
        -14    1    4    4    0    0 -0.32588405328E+02  0.11225282934E+02 -0.38472919817E+02  0.51654396696E+02  0.00000000000E+00 0.  1.
        -13    1    3    3    0    0 -0.77213115963E+01  0.22968757733E+02 -0.18970876320E+02  0.30774610199E+02  0.00000000000E+00 0.  1.
         13    1    3    3    0    0  0.28852791787E+02 -0.63622385185E+02 -0.15612879805E+03  0.17104529538E+03  0.00000000000E+00 0. -1.
          2    1    1    2  501    0 -0.38402588351E+02  0.27506667748E+02 -0.17401729085E+02  0.50340795959E+02  0.00000000000E+00 0. -1.
<scales pt_clust_5="13000.00000" pt_clust_6="13000.00000" pt_clust_7="13000.00000" pt_clust_8="13000.00000" pt_clust_9="47.23744"></scales>
<clustering>
<clus scale="   47.237">  1  9  2 -1</clus>
<clus scale="   81.637">  5  6 -1 -1</clus>
<clus scale="   86.293">  1  5  2 -1</clus>
<clus scale="   89.287">  7  8 -1 -1</clus>
<clus scale="   47.237">  1  5  2 -1</clus>
</clustering>
</event>
<event>
 9    1  0.6014990E-005  0.1068044E+03  0.7546771E-02  0.1272663E+00
         21   -1    0    0  501  502  0.00000000000E+00  0.00000000000E+00  0.18579571913E+03  0.18579571913E+03  0.00000000000E+00 0.  1.
          1   -1    0    0  502    0 -0.00000000000E+00 -0.00000000000E+00 -0.81878747187E+02  0.81878747187E+02  0.00000000000E+00 0. -1.
         23    2    1    2    0    0  0.22664335096E+02 -0.60356112202E+02  0.88111494609E+00  0.10999142230E+03  0.89111190381E+02 0.  0.
        -24    2    1    2    0    0 -0.35937998621E+02  0.36400653877E+02  0.89182432702E+02  0.12699148994E+03  0.74543845262E+02 0.  0.
         13    1    4    4    0    0 -0.25541617506E+02  0.13842506813E+02 -0.50967948891E+01  0.29495195165E+02  0.00000000000E+00 0. -1.
        -14    1    4    4    0    0 -0.10396381115E+02  0.22558147063E+02  0.94279227591E+02  0.97496294773E+02  0.00000000000E+00 0.  1.
        -13    1    3    3    0    0  0.12740769172E+02 -0.78142006866E+02 -0.19115555376E+02  0.81448786937E+02  0.00000000000E+00 0. -1.
         13    1    3    3    0    0  0.99235659241E+01  0.17785894664E+02  0.19996670322E+02  0.28542635366E+02  0.00000000000E+00 0.  1.
          2    1    1    2  501    0  0.13273663525E+02  0.23955458325E+02  0.13853424294E+02  0.30691554076E+02  0.00000000000E+00 0. -1.
<scales pt_clust_5="13000.00000" pt_clust_6="13000.00000" pt_clust_7="13000.00000" pt_clust_8="13000.00000" pt_clust_9="27.38712"></scales>
<clustering>
<clus scale="   27.387">  1  9  2 -1</clus>
<clus scale="   74.544">  5  6 -1 -1</clus>
<clus scale="   89.111">  7  8 -1 -1</clus>
<clus scale="   94.990">  1  5  2 -1</clus>
<clus scale="   27.387">  1  5  2 -1</clus>
</clustering>
</event>
<event>
 9    1  0.1427975E-004  0.1028628E+03  0.7546771E-02  0.1280475E+00
         21   -1    0    0  501  502  0.00000000000E+00  0.00000000000E+00  0.46708878801E+03  0.46708878801E+03  0.00000000000E+00 0. -1.
          1   -1    0    0  502    0 -0.00000000000E+00 -0.00000000000E+00 -0.17350593670E+03  0.17350593670E+03  0.00000000000E+00 0. -1.
         23    2    1    2    0    0  0.36221642634E+02  0.31446262141E+02 -0.13082969028E+03  0.16611887156E+03  0.90433383397E+02 0.  0.
        -24    2    1    2    0    0 -0.55355076835E+02 -0.50831479492E+02  0.43275445914E+03  0.44598967151E+03  0.77345596855E+02 0.  0.
         11    1    4    4    0    0 -0.25990751275E+02 -0.68637881359E+02  0.28531903233E+03  0.29460758327E+03  0.00000000000E+00 0. -1.
        -12    1    4    4    0    0 -0.29364325561E+02  0.17806401867E+02  0.14743542681E+03  0.15138208825E+03  0.00000000000E+00 0.  1.
        -13    1    3    3    0    0 -0.24041170549E+02  0.28331465372E+02 -0.26654215838E+02  0.45728514446E+02  0.00000000000E+00 0.  1.
         13    1    3    3    0    0  0.60262813182E+02  0.31147967699E+01 -0.10417547444E+03  0.12039035712E+03  0.00000000000E+00 0. -1.
          2    1    1    2  501    0  0.19133434202E+02  0.19385217351E+02 -0.83419175396E+01  0.28486181638E+02  0.00000000000E+00 0. -1.
<scales pt_clust_5="13000.00000" pt_clust_6="13000.00000" pt_clust_7="13000.00000" pt_clust_8="13000.00000" pt_clust_9="27.23740"></scales>
<clustering>
<clus scale="   27.237">  1  9  2 -1</clus>
<clus scale="   77.346">  5  6 -1 -1</clus>
<clus scale="   90.433">  7  8 -1 -1</clus>
<clus scale="   91.569">  1  5  2 -1</clus>
<clus scale="   27.237">  1  5  2 -1</clus>
</clustering>
</event>
<event>
 9    1  0.6014990E-005  0.9436901E+02  0.7546771E-02  0.1300486E+00
         21   -1    0    0  501  502  0.00000000000E+00  0.00000000000E+00  0.47407784983E+02  0.47407784983E+02  0.00000000000E+00 0.  1.
          3   -1    0    0  502    0 -0.00000000000E+00 -0.00000000000E+00 -0.28876632170E+03  0.28876632170E+03  0.00000000000E+00 0. -1.
        -24    2    1    2    0    0  0.11086949686E+02  0.20381591970E+02 -0.82684567762E+02  0.11766056511E+03  0.80429727664E+02 0.  0.
         23    2    1    2    0    0 -0.15977293030E+02  0.22187726861E+02 -0.69557276553E+02  0.11963054390E+03  0.93411365454E+02 0.  0.
         13    1    3    3    0    0  0.44111804427E+02  0.21243345235E+02 -0.60669935755E+02  0.77961350111E+02  0.00000000000E+00 0. -1.
        -14    1    3    3    0    0 -0.33024854741E+02 -0.86175326521E+00 -0.22014632006E+02  0.39699215002E+02  0.00000000000E+00 0.  1.
        -13    1    4    4    0    0  0.16242243653E+02 -0.14168329658E+02  0.12024543013E+02  0.24680795750E+02  0.00000000000E+00 0.  1.
         13    1    4    4    0    0 -0.32219536683E+02  0.36356056519E+02 -0.81581819566E+02  0.94949748148E+02  0.00000000000E+00 0. -1.
          4    1    1    2  501    0  0.48903433440E+01 -0.42569318831E+02 -0.89116692399E+02  0.98882997668E+02  0.00000000000E+00 0. -1.
<scales pt_clust_5="13000.00000" pt_clust_6="13000.00000" pt_clust_7="13000.00000" pt_clust_8="13000.00000" pt_clust_9="42.84932"></scales>
<clustering>
<clus scale="   42.849">  1  9  2 -1</clus>
<clus scale="   80.430">  5  6 -1 -1</clus>
<clus scale="   81.540">  2  5  1 -1</clus>
<clus scale="   93.411">  7  8 -1 -1</clus>
<clus scale="   42.849">  1  5  2 -1</clus>
</clustering>
</event>
<event>
 9    1  0.6014990E-005  0.9474937E+02  0.7546771E-02  0.1299071E+00
         21   -1    0    0  501  502  0.00000000000E+00  0.00000000000E+00  0.11047750136E+03  0.11047750136E+03  0.00000000000E+00 0.  1.
         -4   -1    0    0    0  501 -0.00000000000E+00 -0.00000000000E+00 -0.19163101983E+03  0.19163101983E+03  0.00000000000E+00 0.  1.
         23    2    1    2    0    0 -0.14416348072E+02  0.19496134959E+02 -0.11843038639E+03  0.15272246085E+03  0.93329862624E+02 0.  0.
        -24    2    1    2    0    0 -0.19257867326E+02  0.10753751696E+02  0.55394734194E+02  0.10062885058E+03  0.81062200578E+02 0.  0.
         11    1    4    4    0    0 -0.44331824882E+02 -0.13701244111E+02  0.19064452467E+02  0.50164610388E+02  0.00000000000E+00 0. -1.
        -12    1    4    4    0    0  0.25073957556E+02  0.24454995807E+02  0.36330281727E+02  0.50464240188E+02  0.00000000000E+00 0.  1.
        -11    1    3    3    0    0  0.19817887615E+02  0.44538279808E+02 -0.38060467423E+02  0.61846634656E+02  0.00000000000E+00 0.  1.
         11    1    3    3    0    0 -0.34234235686E+02 -0.25042144849E+02 -0.80369918967E+02  0.90875826194E+02  0.00000000000E+00 0. -1.
         -3    1    1    2    0  502  0.33674215397E+02 -0.30249886655E+02 -0.18117866281E+02  0.48757209763E+02  0.00000000000E+00 0.  1.
<scales pt_clust_5="13000.00000" pt_clust_6="13000.00000" pt_clust_7="13000.00000" pt_clust_8="13000.00000" pt_clust_9="45.26600"></scales>
<clustering>
<clus scale="   45.266">  1  9  2 -1</clus>
<clus scale="   81.062">  5  6 -1 -1</clus>
<clus scale="   82.693">  1  5  2 -1</clus>
<clus scale="   93.330">  7  8 -1 -1</clus>
<clus scale="   45.266">  1  5  2 -1</clus>
</clustering>
</event>
<event>
 9    1  0.6014990E-005  0.1017411E+03  0.7546771E-02  0.1281469E+00
         21   -1    0    0  501  502  0.00000000000E+00  0.00000000000E+00  0.32190120948E+03  0.32190120948E+03  0.00000000000E+00 0.  1.
         -4   -1    0    0    0  501 -0.00000000000E+00 -0.00000000000E+00 -0.17627510127E+03  0.17627510127E+03  0.00000000000E+00 0.  1.
        -24    2    1    2    0    0  0.43446285076E+02  0.64513656070E+01 -0.13838010881E+03  0.16601494315E+03  0.80515259598E+02 0.  0.
         23    2    1    2    0    0 -0.70463438566E+02 -0.63535200169E+01  0.12089980690E+03  0.16683249178E+03  0.90613760622E+02 0.  0.
         11    1    3    3    0    0  0.17646837526E+02  0.34156265025E+02 -0.23502571268E+02  0.45060317035E+02  0.00000000000E+00 0. -1.
        -12    1    3    3    0    0  0.25799447550E+02 -0.27704899418E+02 -0.11487753754E+03  0.12095462611E+03  0.00000000000E+00 0.  1.
        -13    1    4    4    0    0 -0.62591657651E+02 -0.39836349650E+02  0.54521638319E+02  0.92072033788E+02  0.00000000000E+00 0.  1.
         13    1    4    4    0    0 -0.78717809145E+01  0.33482829633E+02  0.66378168580E+02  0.74760457991E+02  0.00000000000E+00 0. -1.
         -3    1    1    2    0  502  0.27017153489E+02 -0.97845590128E-01  0.16310641013E+03  0.16532887583E+03  0.00000000000E+00 0.  1.
<scales pt_clust_5="13000.00000" pt_clust_6="13000.00000" pt_clust_7="13000.00000" pt_clust_8="13000.00000" pt_clust_9="27.01733"></scales>
<clustering>
<clus scale="   27.017">  1  9  2 -1</clus>
<clus scale="   80.515">  5  6 -1 -1</clus>
<clus scale="   90.614">  7  8 -1 -1</clus>
<clus scale="   92.861">  2  5  1 -1</clus>
<clus scale="   27.017">  1  5  2 -1</clus>
</clustering>
</event>
<event>
 9    1  0.6014990E-005  0.3705095E+03  0.7546771E-02  0.1090147E+00
         21   -1    0    0  501  502  0.00000000000E+00  0.00000000000E+00  0.17520790362E+03  0.17520790362E+03  0.00000000000E+00 0. -1.
          1   -1    0    0  502    0 -0.00000000000E+00 -0.00000000000E+00 -0.16659676260E+04  0.16659676260E+04  0.00000000000E+00 0. -1.
         23    2    1    2    0    0 -0.62122340942E+02 -0.76138503666E+02 -0.47389049804E+02  0.14761592292E+03  0.99440845101E+02 0.  0.
        -24    2    1    2    0    0  0.37403322589E+03 -0.20348051374E+02 -0.25229103862E+03  0.45854189433E+03  0.79341057614E+02 0.  0.
         13    1    4    4    0    0  0.24317659005E+03 -0.15453386912E+02 -0.11715332748E+03  0.27036745968E+03  0.00000000000E+00 0. -1.
        -14    1    4    4    0    0  0.13085663584E+03 -0.48946644619E+01 -0.13513771114E+03  0.18817443465E+03  0.00000000000E+00 0.  1.
        -13    1    3    3    0    0  0.10154985138E+02  0.18270088847E+02 -0.69100115371E+01  0.22015179515E+02  0.00000000000E+00 0. -1.
         13    1    3    3    0    0 -0.72277326080E+02 -0.94408592513E+02 -0.40479038267E+02  0.12560074341E+03  0.00000000000E+00 0.  1.
          2    1    1    2  501    0 -0.31191088495E+03  0.96486555040E+02 -0.11910796340E+04  0.12350177124E+04  0.00000000000E+00 0. -1.
<scales pt_clust_5="13000.00000" pt_clust_6="13000.00000" pt_clust_7="13000.00000" pt_clust_8="13000.00000" pt_clust_9="361.91498"></scales>
<clustering>
<clus scale="   79.341">  5  6 -1 -1</clus>
<clus scale="   99.441">  7  8 -1 -1</clus>
<clus scale="  139.803">  2  7  1 -1</clus>
<clus scale="  361.915">  1  9  2 -1</clus>
<clus scale="  361.915">  1  5  2 -1</clus>
</clustering>
</event>
<event>
 9    1  0.6014990E-005  0.1097803E+03  0.7546771E-02  0.1264058E+00
          1   -1    0    0  502    0 -0.00000000000E+00  0.00000000000E+00  0.19540107923E+03  0.19540107923E+03  0.00000000000E+00 0. -1.
         21   -1    0    0  501  502  0.00000000000E+00 -0.00000000000E+00 -0.14124054634E+03  0.14124054634E+03  0.00000000000E+00 0. -1.
        -24    2    1    2    0    0  0.31292763814E+02 -0.58162517045E+02  0.14509344809E+03  0.17911250593E+03  0.81652101282E+02 0.  0.
         23    2    1    2    0    0 -0.12888916589E+02  0.49224668212E+02 -0.56691155439E+02  0.11764071473E+03  0.89645181280E+02 0.  0.
         13    1    3    3    0    0  0.52763758005E+02 -0.55326810582E+02  0.80654854508E+02  0.11113179421E+03  0.00000000000E+00 0. -1.
        -14    1    3    3    0    0 -0.21470994191E+02 -0.28357064636E+01  0.64438593585E+02  0.67980711720E+02  0.00000000000E+00 0.  1.
        -11    1    4    4    0    0  0.28878935387E+02  0.51582705589E+02 -0.44724132311E+02  0.74128378074E+02  0.00000000000E+00 0. -1.
         11    1    4    4    0    0 -0.41767851977E+02 -0.23580373769E+01 -0.11967023128E+02  0.43512336660E+02  0.00000000000E+00 0.  1.
          2    1    1    2  501    0 -0.18403847224E+02  0.89378488330E+01 -0.34241759762E+02  0.39888404907E+02  0.00000000000E+00 0. -1.
<scales pt_clust_5="13000.00000" pt_clust_6="13000.00000" pt_clust_7="13000.00000" pt_clust_8="13000.00000" pt_clust_9="20.45939"></scales>
<clustering>
<clus scale="   20.459">  2  9  1 -1</clus>
<clus scale="   81.652">  5  6 -1 -1</clus>
<clus scale="   89.645">  7  8 -1 -1</clus>
<clus scale="  103.356">  1  5  2 -1</clus>
<clus scale="   20.459">  2  5  1 -1</clus>
</clustering>
</event>
<event>
 9    1  0.6014990E-005  0.1633793E+03  0.7546771E-02  0.1186813E+00
         21   -1    0    0  501  502  0.00000000000E+00  0.00000000000E+00  0.37962028576E+03  0.37962028576E+03  0.00000000000E+00 0.  1.
         -4   -1    0    0    0  501 -0.00000000000E+00 -0.00000000000E+00 -0.41029076838E+03  0.41029076838E+03  0.00000000000E+00 0.  1.
         23    2    1    2    0    0  0.35346335536E+02  0.13353294512E+03 -0.18236393349E+03  0.24678908499E+03  0.92562613218E+02 0.  0.
        -24    2    1    2    0    0 -0.16263628794E+03 -0.53547953932E+02  0.28512614704E+03  0.34211297631E+03  0.80164975579E+02 0.  0.
         11    1    4    4    0    0 -0.10220251312E+03 -0.67396318406E+02  0.22268866829E+03  0.25412174328E+03  0.00000000000E+00 0. -1.
        -12    1    4    4    0    0 -0.60433774821E+02  0.13848364473E+02  0.62437478743E+02  0.87991233026E+02  0.00000000000E+00 0.  1.
        -11    1    3    3    0    0  0.47803937205E+02  0.83497202229E+02 -0.58453069259E+02  0.11257779754E+03  0.00000000000E+00 0.  1.
         11    1    3    3    0    0 -0.12457601669E+02  0.50035742886E+02 -0.12391086424E+03  0.13421128746E+03  0.00000000000E+00 0. -1.
         -3    1    1    2    0  502  0.12728995240E+03 -0.79984991183E+02 -0.13343269616E+03  0.20100899284E+03  0.00000000000E+00 0.  1.
<scales pt_clust_5="13000.00000" pt_clust_6="13000.00000" pt_clust_7="13000.00000" pt_clust_8="13000.00000" pt_clust_9="150.33414"></scales>
<clustering>
<clus scale="   80.165">  5  6 -1 -1</clus>
<clus scale="   92.563">  7  8 -1 -1</clus>
<clus scale="  150.334">  1  9  2 -1</clus>
<clus scale="  156.689">  1  5  2 -1</clus>
<clus scale="  150.334">  1  5  2 -1</clus>
</clustering>
</event>
<event>
 9    1  0.6014990E-005  0.1291264E+03  0.7546771E-02  0.1231948E+00
         -2   -1    0    0    0  501 -0.00000000000E+00  0.00000000000E+00  0.74790900272E+03  0.74790900272E+03  0.00000000000E+00 0.  1.
         21   -1    0    0  501  502  0.00000000000E+00 -0.00000000000E+00 -0.14585578793E+03  0.14585578793E+03  0.00000000000E+00 0.  1.
        -24    2    1    2    0    0  0.97020621296E+02 -0.33769217730E+02  0.61536046270E+03  0.62955554231E+03  0.84370141537E+02 0.  0.
         23    2    1    2    0    0 -0.66195452251E+02  0.51851031979E+02  0.97922820465E+02  0.14737915306E+03  0.71143296056E+02 0.  0.
         13    1    3    3    0    0  0.35117676057E+02  0.12740864392E+02  0.76210739991E+02  0.84874364133E+02  0.00000000000E+00 0. -1.
        -14    1    3    3    0    0  0.61902945239E+02 -0.46510082123E+02  0.53914972271E+03  0.54468117818E+03  0.00000000000E+00 0.  1.
        -11    1    4    4    0    0 -0.17603581110E+02  0.11363421325E+02  0.78451041685E+02  0.81200858084E+02  0.00000000000E+00 0.  1.
         11    1    4    4    0    0 -0.48591871142E+02  0.40487610653E+02  0.19471778780E+02  0.66178294979E+02  0.00000000000E+00 0. -1.
         -1    1    1    2    0  502 -0.30825169045E+02 -0.18081814249E+02 -0.11123006837E+03  0.11683009527E+03  0.00000000000E+00 0.  1.
<scales pt_clust_5="13000.00000" pt_clust_6="13000.00000" pt_clust_7="13000.00000" pt_clust_8="13000.00000" pt_clust_9="35.73714"></scales>
<clustering>
<clus scale="   35.737">  2  9  1 -1</clus>
<clus scale="   71.143">  7  8 -1 -1</clus>
<clus scale="   84.370">  5  6 -1 -1</clus>
<clus scale="  120.899">  2  7  1 -1</clus>
<clus scale="   35.737">  2  5  1 -1</clus>
</clustering>
</event>
<event>
 9    1  0.6014990E-005  0.9347348E+02  0.7546771E-02  0.1299953E+00
          1   -1    0    0  502    0 -0.00000000000E+00  0.00000000000E+00  0.19899059481E+03  0.19899059481E+03  0.00000000000E+00 0. -1.
         21   -1    0    0  501  502  0.00000000000E+00 -0.00000000000E+00 -0.41459522581E+03  0.41459522581E+03  0.00000000000E+00 0.  1.
        -24    2    1    2    0    0  0.20969619121E+02  0.18401655975E+02  0.16618318189E+03  0.18661917283E+03  0.80196757144E+02 0.  0.
         23    2    1    2    0    0 -0.28403070197E+02  0.22186307178E+02 -0.37237457307E+03  0.38464350953E+03  0.89380311758E+02 0.  0.
         13    1    3    3    0    0  0.31390348687E+02  0.32866347729E+02  0.16207206878E+03  0.16832381377E+03  0.00000000000E+00 0. -1.
        -14    1    3    3    0    0 -0.10420729566E+02 -0.14464691754E+02  0.41111131136E+01  0.18295359063E+02  0.00000000000E+00 0.  1.
        -11    1    4    4    0    0  0.32497358994E+02  0.11739745817E+02 -0.13822458355E+03  0.14247784203E+03  0.00000000000E+00 0. -1.
         11    1    4    4    0    0 -0.60900429191E+02  0.10446561361E+02 -0.23414998952E+03  0.24216566749E+03  0.00000000000E+00 0.  1.
          2    1    1    2  501    0  0.74334510761E+01 -0.40587963153E+02 -0.94132398238E+01  0.42323138256E+02  0.00000000000E+00 0. -1.
<scales pt_clust_5="13000.00000" pt_clust_6="13000.00000" pt_clust_7="13000.00000" pt_clust_8="13000.00000" pt_clust_9="41.26307"></scales>
<clustering>
<clus scale="   41.263">  2  9  1 -1</clus>
<clus scale="   80.197">  5  6 -1 -1</clus>
<clus scale="   84.735">  1  5  2 -1</clus>
<clus scale="   89.380">  7  8 -1 -1</clus>
<clus scale="   41.263">  2  5  1 -1</clus>
</clustering>
</event>
<event>
 9    1  0.6014990E-005  0.9529244E+02  0.7546771E-02  0.1294431E+00
         21   -1    0    0  501  502  0.00000000000E+00  0.00000000000E+00  0.93565462173E+02  0.93565462173E+02  0.00000000000E+00 0.  1.
         -4   -1    0    0    0  501 -0.00000000000E+00 -0.00000000000E+00 -0.17977600677E+03  0.17977600677E+03  0.00000000000E+00 0.  1.
         23    2    1    2    0    0  0.36443687934E+02 -0.14007076054E+02 -0.28975793608E+02  0.10031925051E+03  0.87749728425E+02 0.  0.
        -24    2    1    2    0    0 -0.30896853716E+02 -0.48195744898E+02 -0.21343726497E+02  0.10099358563E+03  0.80415821087E+02 0.  0.
         11    1    4    4    0    0 -0.31296922713E+02  0.14783969269E+02 -0.14899881865E+02  0.37683810825E+02  0.00000000000E+00 0. -1.
        -12    1    4    4    0    0  0.40006899732E+00 -0.62979714167E+02 -0.64438446314E+01  0.63309774802E+02  0.00000000000E+00 0.  1.
        -11    1    3    3    0    0  0.65013532567E+02 -0.26221909954E+01 -0.22838255719E+02  0.68958112117E+02  0.00000000000E+00 0.  1.
         11    1    3    3    0    0 -0.28569844634E+02 -0.11384885059E+02 -0.61375378888E+01  0.31361138396E+02  0.00000000000E+00 0. -1.
         -3    1    1    2    0  502 -0.55468342175E+01  0.62202820952E+02 -0.35891024491E+02  0.72028632801E+02  0.00000000000E+00 0.  1.
<scales pt_clust_5="13000.00000" pt_clust_6="13000.00000" pt_clust_7="13000.00000" pt_clust_8="13000.00000" pt_clust_9="62.44968"></scales>
<clustering>
<clus scale="   62.450">  1  9  2 -1</clus>
<clus scale="   80.416">  5  6 -1 -1</clus>
<clus scale="   87.750">  7  8 -1 -1</clus>
<clus scale="   88.585">  1  5  2 -1</clus>
<clus scale="   62.450">  1  5  2 -1</clus>
</clustering>
</event>
<event>
 9    1  0.6014990E-005  0.9368102E+02  0.7546771E-02  0.1300681E+00
         21   -1    0    0  501  502  0.00000000000E+00  0.00000000000E+00  0.19624495279E+03  0.19624495279E+03  0.00000000000E+00 0. -1.
          1   -1    0    0  502    0 -0.00000000000E+00 -0.00000000000E+00 -0.36683371268E+03  0.36683371268E+03  0.00000000000E+00 0. -1.
        -24    2    1    2    0    0  0.11231468870E+01  0.13346147047E+02 -0.30903863532E+03  0.31986893099E+03  0.81436317392E+02 0.  0.
         23    2    1    2    0    0 -0.25249174639E+02 -0.42688037328E+02  0.54377291845E+01  0.10487953970E+03  0.92251610271E+02 0.  0.
         11    1    3    3    0    0  0.19697698651E+02  0.43033368273E+02 -0.16696191434E+03  0.17354005578E+03  0.00000000000E+00 0. -1.
        -12    1    3    3    0    0 -0.18574551764E+02 -0.29687221227E+02 -0.14207672098E+03  0.14632887521E+03  0.00000000000E+00 0.  1.
        -11    1    4    4    0    0 -0.32959356174E+02 -0.24203731909E+02  0.44836057937E+02  0.60682879704E+02  0.00000000000E+00 0.  1.
         11    1    4    4    0    0  0.77101815352E+01 -0.18484305419E+02 -0.39398328753E+02  0.44196659994E+02  0.00000000000E+00 0. -1.
          2    1    1    2  501    0  0.24126027752E+02  0.29341890282E+02  0.13301214625E+03  0.13833019479E+03  0.00000000000E+00 0. -1.
<scales pt_clust_5="13000.00000" pt_clust_6="13000.00000" pt_clust_7="13000.00000" pt_clust_8="13000.00000" pt_clust_9="37.98699"></scales>
<clustering>
<clus scale="   37.987">  1  9  2 -1</clus>
<clus scale="   81.436">  5  6 -1 -1</clus>
<clus scale="   83.052">  2  5  1 -1</clus>
<clus scale="   92.252">  7  8 -1 -1</clus>
<clus scale="   37.987">  1  5  2 -1</clus>
</clustering>
</event>
<event>
 9    1  0.6014990E-005  0.1121307E+03  0.7546771E-02  0.1258728E+00
         -2   -1    0    0    0  501 -0.00000000000E+00  0.00000000000E+00  0.10046884441E+03  0.10046884441E+03  0.00000000000E+00 0.  1.
         21   -1    0    0  501  502  0.00000000000E+00 -0.00000000000E+00 -0.22182979761E+03  0.22182979761E+03  0.00000000000E+00 0. -1.
        -24    2    1    2    0    0 -0.20973819392E+02 -0.58418566337E+02  0.35996250264E+02  0.11458200892E+03  0.89334633499E+02 0.  0.
         23    2    1    2    0    0  0.35590713491E+02  0.43431936912E+02 -0.10842210525E+03  0.15449167192E+03  0.94653535349E+02 0.  0.
         11    1    3    3    0    0 -0.27992758941E+02 -0.17721559422E+02 -0.24590182460E+02  0.41259244962E+02  0.00000000000E+00 0. -1.
        -12    1    3    3    0    0  0.70189395488E+01 -0.40697006915E+02  0.60586432724E+02  0.73322763958E+02  0.00000000000E+00 0.  1.
        -13    1    4    4    0    0 -0.69431978984E-01  0.22841725624E+02  0.12996649973E+02  0.26280452066E+02  0.00000000000E+00 0.  1.
         13    1    4    4    0    0  0.35660145470E+02  0.20590211288E+02 -0.12141875522E+03  0.12821121985E+03  0.00000000000E+00 0. -1.
         -1    1    1    2    0  502 -0.14616894099E+02  0.14986629425E+02 -0.48935098222E+02  0.53224961180E+02  0.00000000000E+00 0.  1.
<scales pt_clust_5="13000.00000" pt_clust_6="13000.00000" pt_clust_7="13000.00000" pt_clust_8="13000.00000" pt_clust_9="20.93448"></scales>
<clustering>
<clus scale="   20.934">  2  9  1 -1</clus>
<clus scale="   89.335">  5  6 -1 -1</clus>
<clus scale="   94.654">  7  8 -1 -1</clus>
<clus scale="  107.679">  1  5  2 -1</clus>
<clus scale="   20.934">  2  5  1 -1</clus>
</clustering>
</event>
<event>
 9    1  0.6014990E-005  0.1027887E+03  0.7546771E-02  0.1277853E+00
          1   -1    0    0  502    0 -0.00000000000E+00  0.00000000000E+00  0.53099166605E+03  0.53099166605E+03  0.00000000000E+00 0. -1.
         21   -1    0    0  501  502  0.00000000000E+00 -0.00000000000E+00 -0.16939227786E+03  0.16939227786E+03  0.00000000000E+00 0. -1.
        -24    2    1    2    0    0 -0.53628683104E+02  0.51320630298E+02  0.37918140680E+03  0.39528681996E+03  0.83446318184E+02 0.  0.
         23    2    1    2    0    0 -0.16431619801E+02 -0.10139800913E+02  0.11614629650E+03  0.14861207989E+03  0.90679514822E+02 0.  0.
         11    1    3    3    0    0  0.84040939140E+01  0.40545560756E+02  0.22442311533E+03  0.22821109961E+03  0.00000000000E+00 0. -1.
        -12    1    3    3    0    0 -0.62032777018E+02  0.10775069542E+02  0.15475829147E+03  0.16707572034E+03  0.00000000000E+00 0.  1.
        -13    1    4    4    0    0 -0.33404935558E+02 -0.35971117751E+02  0.10472693765E+03  0.11566132673E+03  0.00000000000E+00 0.  1.
         13    1    4    4    0    0  0.16973315757E+02  0.25831316838E+02  0.11419358845E+02  0.32950753159E+02  0.00000000000E+00 0. -1.
          2    1    1    2  501    0  0.70060302905E+02 -0.41180829385E+02 -0.13372831511E+03  0.15648504406E+03  0.00000000000E+00 0. -1.
<scales pt_clust_5="13000.00000" pt_clust_6="13000.00000" pt_clust_7="13000.00000" pt_clust_8="13000.00000" pt_clust_9="81.26689"></scales>
<clustering>
<clus scale="   81.267">  2  9  1 -1</clus>
<clus scale="   83.446">  5  6 -1 -1</clus>
<clus scale="   90.680">  7  8 -1 -1</clus>
<clus scale="   96.468">  1  5  2 -1</clus>
<clus scale="   81.267">  2  5  1 -1</clus>
</clustering>
</event>
<event>
 9    1  0.6014990E-005  0.1098432E+03  0.7546771E-02  0.1263968E+00
         21   -1    0    0  501  502  0.00000000000E+00  0.00000000000E+00  0.14276509547E+03  0.14276509547E+03  0.00000000000E+00 0. -1.
         -4   -1    0    0    0  501 -0.00000000000E+00 -0.00000000000E+00 -0.28838930732E+03  0.28838930732E+03  0.00000000000E+00 0.  1.
         23    2    1    2    0    0  0.19934958264E+02 -0.68507120076E+02 -0.23738465818E+03  0.26299826780E+03  0.87897581683E+02 0.  0.
        -24    2    1    2    0    0 -0.22565810076E+02  0.18170696853E+02  0.79671542650E+02  0.11632160522E+03  0.79647794214E+02 0.  0.
         13    1    4    4    0    0 -0.11730483130E+02  0.35196785098E+02  0.87213722622E+02  0.94776850176E+02  0.00000000000E+00 0. -1.
        -14    1    4    4    0    0 -0.10835326947E+02 -0.17026088245E+02 -0.75421799721E+01  0.21544755039E+02  0.00000000000E+00 0.  1.
        -13    1    3    3    0    0 -0.21987086523E+02 -0.64519742679E+02 -0.17425239295E+03  0.18710992923E+03  0.00000000000E+00 0.  1.
         13    1    3    3    0    0  0.41922044787E+02 -0.39873773968E+01 -0.63132265231E+02  0.75888338569E+02  0.00000000000E+00 0. -1.
         -3    1    1    2    0  502  0.26308518125E+01  0.50336423223E+02  0.12088903681E+02  0.51834529769E+02  0.00000000000E+00 0.  1.
<scales pt_clust_5="13000.00000" pt_clust_6="13000.00000" pt_clust_7="13000.00000" pt_clust_8="13000.00000" pt_clust_9="50.40513"></scales>
<clustering>
<clus scale="   50.405">  1  9  2 -1</clus>
<clus scale="   79.648">  5  6 -1 -1</clus>
<clus scale="   87.898">  7  8 -1 -1</clus>
<clus scale="  103.360">  1  5  2 -1</clus>
<clus scale="   50.405">  1  5  2 -1</clus>
</clustering>
</event>
<event>
 9    1  0.6014990E-005  0.2355451E+03  0.7546771E-02  0.1122797E+00
         21   -1    0    0  501  502  0.00000000000E+00  0.00000000000E+00  0.13117987363E+03  0.13117987363E+03  0.00000000000E+00 0. -1.
          1   -1    0    0  502    0 -0.00000000000E+00 -0.00000000000E+00 -0.31614527878E+03  0.31614527878E+03  0.00000000000E+00 0. -1.
        -24    2    1    2    0    0  0.70844239546E+02 -0.88880851208E+01 -0.49833001293E+02  0.11806425077E+03  0.79736660058E+02 0.  0.
         23    2    1    2    0    0  0.79964469384E+02  0.76617964106E+01 -0.13013503440E+03  0.17836443324E+03  0.91791744617E+02 0.  0.
         11    1    3    3    0    0  0.36642470545E+01  0.20119659421E+02  0.10714510302E+02  0.23087402035E+02  0.00000000000E+00 0. -1.
        -12    1    3    3    0    0  0.67179992492E+02 -0.29007744542E+02 -0.60547511596E+02  0.94976848732E+02  0.00000000000E+00 0.  1.
        -11    1    4    4    0    0  0.28792338115E+02  0.47880380276E+02 -0.48704023760E+02  0.74118900962E+02  0.00000000000E+00 0.  1.
         11    1    4    4    0    0  0.51172131269E+02 -0.40218583865E+02 -0.81431010640E+02  0.10424553228E+03  0.00000000000E+00 0. -1.
          2    1    1    2  501    0 -0.15080870893E+03  0.12262887101E+01 -0.49973694558E+01  0.15089646840E+03  0.00000000000E+00 0. -1.
<scales pt_clust_5="13000.00000" pt_clust_6="13000.00000" pt_clust_7="13000.00000" pt_clust_8="13000.00000" pt_clust_9="150.81369"></scales>
<clustering>
<clus scale="   79.737">  5  6 -1 -1</clus>
<clus scale="   91.792">  7  8 -1 -1</clus>
<clus scale="  105.966">  5  7 -1 -1</clus>
<clus scale="  150.814">  1  9  2 -1</clus>
<clus scale="  150.814">  1  5  2 -1</clus>
</clustering>
</event>
<event>
 9    1  0.6014990E-005  0.1041024E+03  0.7546771E-02  0.1276336E+00
          1   -1    0    0  502    0 -0.00000000000E+00  0.00000000000E+00  0.11691396360E+03  0.11691396360E+03  0.00000000000E+00 0. -1.
         21   -1    0    0  501  502  0.00000000000E+00 -0.00000000000E+00 -0.16819835126E+03  0.16819835126E+03  0.00000000000E+00 0. -1.
        -24    2    1    2    0    0  0.30667980488E+02  0.33577842037E+02  0.22608876002E+02  0.94541936462E+02  0.79743463511E+02 0.  0.
         23    2    1    2    0    0 -0.43347876917E+01 -0.77915393623E+02 -0.29549252668E+02  0.12255827040E+03  0.89765095462E+02 0.  0.
         11    1    3    3    0    0  0.50216997346E+02  0.42066745908E+02  0.29937842782E+01  0.65576830345E+02  0.00000000000E+00 0. -1.
        -12    1    3    3    0    0 -0.19549016857E+02 -0.84889038713E+01  0.19615091724E+02  0.28965106117E+02  0.00000000000E+00 0.  1.
        -13    1    4    4    0    0 -0.15563230201E+02 -0.51888275631E+02  0.26080374479E+02  0.60123150410E+02  0.00000000000E+00 0. -1.
         13    1    4    4    0    0  0.11228442510E+02 -0.26027117993E+02 -0.55629627147E+02  0.62435119994E+02  0.00000000000E+00 0.  1.
          2    1    1    2  501    0 -0.26333192797E+02  0.44337551586E+02 -0.44344010992E+02  0.68012107999E+02  0.00000000000E+00 0. -1.
<scales pt_clust_5="13000.00000" pt_clust_6="13000.00000" pt_clust_7="13000.00000" pt_clust_8="13000.00000" pt_clust_9="51.56797"></scales>
<clustering>
<clus scale="   51.568">  2  9  1 -1</clus>
<clus scale="   79.743">  5  6 -1 -1</clus>
<clus scale="   89.765">  7  8 -1 -1</clus>
<clus scale="   95.596">  1  5  2 -1</clus>
<clus scale="   51.568">  2  5  1 -1</clus>
</clustering>
</event>
<event>
 9    1  0.6014990E-005  0.9537345E+02  0.7546771E-02  0.1296076E+00
         -2   -1    0    0    0  501 -0.00000000000E+00  0.00000000000E+00  0.74123794400E+02  0.74123794400E+02  0.00000000000E+00 0.  1.
         21   -1    0    0  501  502  0.00000000000E+00 -0.00000000000E+00 -0.32278765086E+03  0.32278765086E+03  0.00000000000E+00 0. -1.
        -24    2    1    2    0    0 -0.11933586991E+02  0.13511814559E+02  0.78063707709E+01  0.83979802640E+02  0.81649789930E+02 0.  0.
         23    2    1    2    0    0  0.57347504838E+02 -0.75999537149E+01 -0.92073826672E+02  0.14227540761E+03  0.91750784430E+02 0.  0.
         11    1    3    3    0    0  0.32574289207E+02 -0.43517131864E+01  0.13808381621E+02  0.35646782856E+02  0.00000000000E+00 0. -1.
        -12    1    3    3    0    0 -0.44507876198E+02  0.17863527745E+02 -0.60020108499E+01  0.48333019784E+02  0.00000000000E+00 0.  1.
        -11    1    4    4    0    0  0.79475639868E+02  0.94870349155E+01 -0.73837039700E+02  0.10889577400E+03  0.00000000000E+00 0. -1.
         11    1    4    4    0    0 -0.22128135030E+02 -0.17086988630E+02 -0.18236786972E+02  0.33379633603E+02  0.00000000000E+00 0.  1.
         -1    1    1    2    0  502 -0.45413917847E+02 -0.59118608437E+01 -0.16439640056E+03  0.17065623501E+03  0.00000000000E+00 0.  1.
<scales pt_clust_5="13000.00000" pt_clust_6="13000.00000" pt_clust_7="13000.00000" pt_clust_8="13000.00000" pt_clust_9="45.79710"></scales>
<clustering>
<clus scale="   45.797">  2  9  1 -1</clus>
<clus scale="   81.650">  5  6 -1 -1</clus>
<clus scale="   85.701">  1  5  2 -1</clus>
<clus scale="   91.751">  7  8 -1 -1</clus>
<clus scale="   45.797">  2  5  1 -1</clus>
</clustering>
</event>
<event>
 9    1  0.6014990E-005  0.1212876E+03  0.7546771E-02  0.1243228E+00
          3   -1    0    0  502    0 -0.00000000000E+00  0.00000000000E+00  0.32728376381E+02  0.32728376381E+02  0.00000000000E+00 0. -1.
         21   -1    0    0  501  502  0.00000000000E+00 -0.00000000000E+00 -0.10031007493E+04  0.10031007493E+04  0.00000000000E+00 0.  1.
         23    2    1    2    0    0 -0.26036311191E+02  0.71946145807E+02 -0.18688067079E+03  0.22031368919E+03  0.88088586846E+02 0.  0.
        -24    2    1    2    0    0 -0.14074364151E+02 -0.11498786105E+03 -0.69550695004E+03  0.70967228779E+03  0.80526657582E+02 0.  0.
         11    1    4    4    0    0 -0.22853016849E+02 -0.13753827033E+02 -0.54674535468E+02  0.60833649946E+02  0.00000000000E+00 0. -1.
        -12    1    4    4    0    0  0.87786526979E+01 -0.10123403401E+03 -0.64083241457E+03  0.64883863784E+03  0.00000000000E+00 0.  1.
        -11    1    3    3    0    0  0.21729256831E+02 -0.77002618527E+01 -0.47900411430E+02  0.53159232972E+02  0.00000000000E+00 0.  1.
         11    1    3    3    0    0 -0.47765568022E+02  0.79646407660E+02 -0.13898025936E+03  0.16715445621E+03  0.00000000000E+00 0. -1.
          4    1    1    2  501    0  0.40110675342E+02  0.43041715239E+02 -0.87984752068E+02  0.10584314869E+03  0.00000000000E+00 0. -1.
<scales pt_clust_5="13000.00000" pt_clust_6="13000.00000" pt_clust_7="13000.00000" pt_clust_8="13000.00000" pt_clust_9="58.83417"></scales>
<clustering>
<clus scale="   58.834">  2  9  1 -1</clus>
<clus scale="   80.527">  5  6 -1 -1</clus>
<clus scale="   88.089">  7  8 -1 -1</clus>
<clus scale="  115.912">  2  5  1 -1</clus>
<clus scale="   58.834">  2  5  1 -1</clus>
</clustering>
</event>
<event>
 9    1  0.6014990E-005  0.1473457E+03  0.7546771E-02  0.1227797E+00
          1   -1    0    0  502    0 -0.00000000000E+00  0.00000000000E+00  0.75551760809E+03  0.75551760809E+03  0.00000000000E+00 0. -1.
         21   -1    0    0  501  502  0.00000000000E+00 -0.00000000000E+00 -0.53416937340E+02  0.53416937340E+02  0.00000000000E+00 0. -1.
        -24    2    1    2    0    0  0.29354111859E+02 -0.24082642648E+02  0.86758606893E+02  0.12404112554E+03  0.80109346487E+02 0.  0.
         23    2    1    2    0    0 -0.94678222279E+02  0.86365629956E+02  0.17344755880E+03  0.23387550062E+03  0.90502521089E+02 0.  0.
         11    1    3    3    0    0  0.48552256921E+02 -0.40615392359E+02  0.60897109882E+02  0.87837291287E+02  0.00000000000E+00 0. -1.
        -12    1    3    3    0    0 -0.19198145062E+02  0.16532749710E+02  0.25861497011E+02  0.36203834250E+02  0.00000000000E+00 0.  1.
        -11    1    4    4    0    0 -0.57615134865E+02 -0.30258114431E+01  0.85282840824E+02  0.10296515061E+03  0.00000000000E+00 0.  1.
         11    1    4    4    0    0 -0.37063087414E+02  0.89391441399E+02  0.88164717980E+02  0.13091035001E+03  0.00000000000E+00 0. -1.
          2    1    1    2  501    0  0.65324110420E+02 -0.62282987308E+02  0.44189450505E+03  0.45101791927E+03  0.00000000000E+00 0. -1.
<scales pt_clust_5="13000.00000" pt_clust_6="13000.00000" pt_clust_7="13000.00000" pt_clust_8="13000.00000" pt_clust_9="116.27582"></scales>
<clustering>
<clus scale="   80.109">  5  6 -1 -1</clus>
<clus scale="   88.652">  1  5  2 -1</clus>
<clus scale="   90.503">  7  8 -1 -1</clus>
<clus scale="  116.276">  2  9  1 -1</clus>
<clus scale="  116.276">  2  5  1 -1</clus>
</clustering>
</event>
<event>
 9    1  0.6014990E-005  0.1144978E+03  0.7546771E-02  0.1257621E+00
         21   -1    0    0  501  502  0.00000000000E+00  0.00000000000E+00  0.13384826648E+03  0.13384826648E+03  0.00000000000E+00 0. -1.
          3   -1    0    0  502    0 -0.00000000000E+00 -0.00000000000E+00 -0.13395933491E+03  0.13395933491E+03  0.00000000000E+00 0. -1.
         23    2    1    2    0    0 -0.76101080273E+02 -0.19113234909E+01 -0.52068306474E+02  0.13103675493E+03  0.93083269316E+02 0.  0.
        -24    2    1    2    0    0  0.50381278359E+02 -0.15170485730E+02  0.32717772130E+02  0.10039154650E+03  0.78991095379E+02 0.  0.
         13    1    4    4    0    0  0.24443190583E+02  0.20219103511E+02  0.44788453201E+02  0.54884307892E+02  0.00000000000E+00 0. -1.
        -14    1    4    4    0    0  0.25938087777E+02 -0.35389589241E+02 -0.12070681072E+02  0.45507238608E+02  0.00000000000E+00 0.  1.
        -13    1    3    3    0    0 -0.18354628385E+02  0.20051816142E+02 -0.62706659437E+02  0.68345393784E+02  0.00000000000E+00 0.  1.
         13    1    3    3    0    0 -0.57746451888E+02 -0.21963139633E+02  0.10638352964E+02  0.62691361143E+02  0.00000000000E+00 0. -1.
          4    1    1    2  501    0  0.25719801913E+02  0.17081809221E+02  0.19239465919E+02  0.36379299960E+02  0.00000000000E+00 0. -1.
<scales pt_clust_5="13000.00000" pt_clust_6="13000.00000" pt_clust_7="13000.00000" pt_clust_8="13000.00000" pt_clust_9="30.87550"></scales>
<clustering>
<clus scale="   30.875">  1  9  2 -1</clus>
<clus scale="   78.991">  5  6 -1 -1</clus>
<clus scale="   93.083">  7  8 -1 -1</clus>
<clus scale="  103.368">  1  5  2 -1</clus>
<clus scale="   30.875">  1  5  2 -1</clus>
</clustering>
</event>
<event>
 9    1  0.6014990E-005  0.9948191E+02  0.7546771E-02  0.1286600E+00
         21   -1    0    0  501  502  0.00000000000E+00  0.00000000000E+00  0.44654233495E+02  0.44654233495E+02  0.00000000000E+00 0. -1.
          1   -1    0    0  502    0 -0.00000000000E+00 -0.00000000000E+00 -0.41733049777E+03  0.41733049777E+03  0.00000000000E+00 0. -1.
         23    2    1    2    0    0 -0.16485900477E+02 -0.39575678971E+02 -0.23416376998E+03  0.25624655065E+03  0.94824070094E+02 0.  0.
        -24    2    1    2    0    0  0.32865278193E+02 -0.17073586615E+02 -0.76781361247E+02  0.12036748252E+03  0.84978347492E+02 0.  0.
         13    1    4    4    0    0  0.47970502306E+01 -0.47278801196E+02 -0.58211193753E+02  0.75145457691E+02  0.00000000000E+00 0. -1.
        -14    1    4    4    0    0  0.28068227963E+02  0.30205214580E+02 -0.18570167494E+02  0.45222024828E+02  0.00000000000E+00 0.  1.
        -11    1    3    3    0    0  0.35043480952E+02 -0.60018785451E+01 -0.45086742028E+02  0.57418484916E+02  0.00000000000E+00 0.  1.
         11    1    3    3    0    0 -0.51529381429E+02 -0.33573800426E+02 -0.18907702795E+03  0.19882806573E+03  0.00000000000E+00 0. -1.
          2    1    1    2  501    0 -0.16379377717E+02  0.56649265586E+02 -0.61731133056E+02  0.85370698100E+02  0.00000000000E+00 0. -1.
<scales pt_clust_5="13000.00000" pt_clust_6="13000.00000" pt_clust_7="13000.00000" pt_clust_8="13000.00000" pt_clust_9="58.96968"></scales>
<clustering>
<clus scale="   58.970">  1  9  2 -1</clus>
<clus scale="   84.978">  5  6 -1 -1</clus>
<clus scale="   90.146">  1  5  2 -1</clus>
<clus scale="   94.824">  7  8 -1 -1</clus>
<clus scale="   58.970">  1  5  2 -1</clus>
</clustering>
</event>
<event>
 9    1  0.6014990E-005  0.1111373E+03  0.7546771E-02  0.1259956E+00
         -2   -1    0    0    0  501 -0.00000000000E+00  0.00000000000E+00  0.48478411361E+03  0.48478411361E+03  0.00000000000E+00 0.  1.
         21   -1    0    0  501  502  0.00000000000E+00 -0.00000000000E+00 -0.10413342056E+03  0.10413342056E+03  0.00000000000E+00 0.  1.
         23    2    1    2    0    0 -0.10310062579E+02  0.71498168922E+02  0.35670334573E+03  0.37446805287E+03  0.88151915526E+02 0.  0.
        -24    2    1    2    0    0 -0.56361812676E+02 -0.53113391757E+02  0.67453929903E+02  0.13274292276E+03  0.84100918967E+02 0.  0.
         11    1    4    4    0    0  0.25409297192E+01  0.20142555539E+02  0.10930880297E+02  0.23057818881E+02  0.00000000000E+00 0. -1.
        -12    1    4    4    0    0 -0.58902742395E+02 -0.73255947296E+02  0.56523049606E+02  0.10968510388E+03  0.00000000000E+00 0.  1.
        -11    1    3    3    0    0  0.17360145417E+02  0.23940212506E+02  0.26488933915E+02  0.39701033283E+02  0.00000000000E+00 0.  1.
         11    1    3    3    0    0 -0.27670207996E+02  0.47557956416E+02  0.33021441182E+03  0.33476701958E+03  0.00000000000E+00 0. -1.
         -1    1    1    2    0  502  0.66671875255E+02 -0.18384777165E+02 -0.43506582585E+02  0.81706558548E+02  0.00000000000E+00 0.  1.
<scales pt_clust_5="13000.00000" pt_clust_6="13000.00000" pt_clust_7="13000.00000" pt_clust_8="13000.00000" pt_clust_9="69.16024"></scales>
<clustering>
<clus scale="   69.160">  2  9  1 -1</clus>
<clus scale="   84.101">  5  6 -1 -1</clus>
<clus scale="   88.152">  7  8 -1 -1</clus>
<clus scale="  107.952">  2  5  1 -1</clus>
<clus scale="   69.160">  2  5  1 -1</clus>
</clustering>
</event>
<event>
 9    1  0.6014990E-005  0.1693852E+03  0.7546771E-02  0.1183904E+00
         21   -1    0    0  501  502  0.00000000000E+00  0.00000000000E+00  0.46847180539E+02  0.46847180539E+02  0.00000000000E+00 0. -1.
         -4   -1    0    0    0  501 -0.00000000000E+00 -0.00000000000E+00 -0.10343499048E+04  0.10343499048E+04  0.00000000000E+00 0.  1.
        -24    2    1    2    0    0  0.98725910415E+02  0.11577452081E+02 -0.28557933879E+03  0.31295278226E+03  0.80641443418E+02 0.  0.
         23    2    1    2    0    0 -0.16164197837E+03 -0.83130556162E+02 -0.43266901543E+03  0.48262883764E+03  0.11264679077E+03 0.  0.
         11    1    3    3    0    0  0.44554598264E+02 -0.23755461913E+02 -0.60686622226E+02  0.78944919497E+02  0.00000000000E+00 0. -1.
        -12    1    3    3    0    0  0.54171312151E+02  0.35332913994E+02 -0.22489271656E+03  0.23400786276E+03  0.00000000000E+00 0.  1.
        -11    1    4    4    0    0 -0.30448997175E+02 -0.54243034836E+02 -0.23878006449E+03  0.24674960477E+03  0.00000000000E+00 0.  1.
         11    1    4    4    0    0 -0.13119298119E+03 -0.28887521326E+02 -0.19388895095E+03  0.23587923287E+03  0.00000000000E+00 0. -1.
         -3    1    1    2    0  502  0.62916067952E+02  0.71553104081E+02 -0.26925436999E+03  0.28561546539E+03  0.00000000000E+00 0.  1.
<scales pt_clust_5="13000.00000" pt_clust_6="13000.00000" pt_clust_7="13000.00000" pt_clust_8="13000.00000" pt_clust_9="95.28005"></scales>
<clustering>
<clus scale="   80.641">  5  6 -1 -1</clus>
<clus scale="   95.280">  1  9  2 -1</clus>
<clus scale="  112.647">  7  8 -1 -1</clus>
<clus scale="  150.017">  2  5  1 -1</clus>
<clus scale="   95.280">  1  5  2 -1</clus>
</clustering>
</event>
<event>
 9    1  0.6014990E-005  0.1012270E+03  0.7546771E-02  0.1278645E+00
          3   -1    0    0  502    0 -0.00000000000E+00  0.00000000000E+00  0.34632279616E+03  0.34632279616E+03  0.00000000000E+00 0. -1.
         21   -1    0    0  501  502  0.00000000000E+00 -0.00000000000E+00 -0.48344304790E+02  0.48344304790E+02  0.00000000000E+00 0. -1.
         23    2    1    2    0    0  0.28610546024E+02 -0.22585529485E+02  0.12431964587E+03  0.15814418795E+03  0.90694764712E+02 0.  0.
        -24    2    1    2    0    0 -0.63082683077E+02  0.76978336301E+01  0.79165104556E+02  0.13484184889E+03  0.88749810629E+02 0.  0.
         11    1    4    4    0    0 -0.80080816520E+02  0.10392904321E+02  0.84443351538E+02  0.11684018681E+03  0.00000000000E+00 0. -1.
        -12    1    4    4    0    0  0.16998133443E+02 -0.26950706904E+01 -0.52782469818E+01  0.18001662083E+02  0.00000000000E+00 0.  1.
        -11    1    3    3    0    0 -0.85175152147E+01  0.28592159885E+02  0.64672841565E+02  0.71222441045E+02  0.00000000000E+00 0. -1.
         11    1    3    3    0    0  0.37128061238E+02 -0.51177689371E+02  0.59646804305E+02  0.86921746901E+02  0.00000000000E+00 0.  1.
          4    1    1    2  501    0  0.34472137053E+02  0.14887695855E+02  0.94493740943E+02  0.10168106411E+03  0.00000000000E+00 0. -1.
<scales pt_clust_5="13000.00000" pt_clust_6="13000.00000" pt_clust_7="13000.00000" pt_clust_8="13000.00000" pt_clust_9="37.54961"></scales>
<clustering>
<clus scale="   37.550">  2  9  1 -1</clus>
<clus scale="   88.750">  5  6 -1 -1</clus>
<clus scale="   90.695">  7  8 -1 -1</clus>
<clus scale="   99.488">  2  5  1 -1</clus>
<clus scale="   37.550">  2  5  1 -1</clus>
</clustering>
</event>
<event>
 9    1  0.6014990E-005  0.1493013E+03  0.7546771E-02  0.1213636E+00
         21   -1    0    0  501  502  0.00000000000E+00  0.00000000000E+00  0.53318765772E+03  0.53318765772E+03  0.00000000000E+00 0.  1.
         -2   -1    0    0    0  501 -0.00000000000E+00 -0.00000000000E+00 -0.35998950100E+03  0.35998950100E+03  0.00000000000E+00 0.  1.
         23    2    1    2    0    0 -0.52453954410E+02 -0.43593261148E+02 -0.20206160838E+03  0.23233691809E+03  0.92194143950E+02 0.  0.
        -24    2    1    2    0    0  0.12773460451E+03  0.13749182452E+03 -0.56368446616E+02  0.21274758322E+03  0.82849269109E+02 0.  0.
         13    1    4    4    0    0  0.45528574126E+02  0.36355177793E+02  0.20107572458E+02  0.61634929095E+02  0.00000000000E+00 0. -1.
        -14    1    4    4    0    0  0.82206030384E+02  0.10113664672E+03 -0.76476019074E+02  0.15111265412E+03  0.00000000000E+00 0.  1.
        -11    1    3    3    0    0  0.47700719751E+01 -0.55597264762E+02 -0.10849046244E+03  0.12199995851E+03  0.00000000000E+00 0. -1.
         11    1    3    3    0    0 -0.57224026385E+02  0.12004003615E+02 -0.93571145933E+02  0.11033695958E+03  0.00000000000E+00 0.  1.
         -1    1    1    2    0  502 -0.75280650100E+02 -0.93898563368E+02  0.43162821171E+03  0.44809265741E+03  0.00000000000E+00 0.  1.
<scales pt_clust_5="13000.00000" pt_clust_6="13000.00000" pt_clust_7="13000.00000" pt_clust_8="13000.00000" pt_clust_9="124.20497"></scales>
<clustering>
<clus scale="   82.849">  5  6 -1 -1</clus>
<clus scale="   92.194">  7  8 -1 -1</clus>
<clus scale="  114.680">  2  7  1 -1</clus>
<clus scale="  124.205">  1  9  2 -1</clus>
<clus scale="  124.205">  1  5  2 -1</clus>
</clustering>
</event>
<event>
 9    1  0.6014990E-005  0.1545904E+03  0.7546771E-02  0.1197651E+00
         21   -1    0    0  501  502  0.00000000000E+00  0.00000000000E+00  0.85251468157E+03  0.85251468157E+03  0.00000000000E+00 0. -1.
          1   -1    0    0  502    0 -0.00000000000E+00 -0.00000000000E+00 -0.56719539055E+02  0.56719539055E+02  0.00000000000E+00 0. -1.
        -24    2    1    2    0    0  0.99639363682E+02 -0.28914520452E+02  0.20268876800E+03  0.23996899879E+03  0.75751775039E+02 0.  0.
         23    2    1    2    0    0 -0.16525533539E+03 -0.58745071153E+02  0.33842902952E+03  0.39204651792E+03  0.91683994971E+02 0.  0.
         11    1    3    3    0    0  0.10174647216E+03 -0.29460984232E+01  0.15130443809E+03  0.18235694963E+03  0.00000000000E+00 0. -1.
        -12    1    3    3    0    0 -0.21071084750E+01 -0.25968422029E+02  0.51384329913E+02  0.57612049168E+02  0.00000000000E+00 0.  1.
        -11    1    4    4    0    0 -0.95680846099E+02 -0.67841910223E+02  0.26841786427E+03  0.29292575673E+03  0.00000000000E+00 0. -1.
         11    1    4    4    0    0 -0.69574489288E+02  0.90968390695E+01  0.70011165250E+02  0.99120761198E+02  0.00000000000E+00 0.  1.
          2    1    1    2  501    0  0.65615971705E+02  0.87659591606E+02  0.25467734500E+03  0.27721870391E+03  0.00000000000E+00 0. -1.
<scales pt_clust_5="13000.00000" pt_clust_6="13000.00000" pt_clust_7="13000.00000" pt_clust_8="13000.00000" pt_clust_9="109.49730"></scales>
<clustering>
<clus scale="   75.752">  5  6 -1 -1</clus>
<clus scale="   91.684">  7  8 -1 -1</clus>
<clus scale="  109.497">  1  9  2 -1</clus>
<clus scale="  145.707">  2  5  1 -1</clus>
<clus scale="  109.497">  1  5  2 -1</clus>
</clustering>
</event>
<event>
 9    1  0.6014990E-005  0.9744624E+02  0.7546771E-02  0.1290732E+00
         21   -1    0    0  501  502  0.00000000000E+00  0.00000000000E+00  0.24492960200E+03  0.24492960200E+03  0.00000000000E+00 0.  1.
         -2   -1    0    0    0  501 -0.00000000000E+00 -0.00000000000E+00 -0.52329797076E+02  0.52329797076E+02  0.00000000000E+00 0.  1.
         23    2    1    2    0    0 -0.35803659277E+02 -0.10684291181E+02  0.57164281524E+02  0.11255265204E+03  0.89466688227E+02 0.  0.
        -24    2    1    2    0    0  0.28054183825E+02  0.36156699478E+02  0.12680526999E+03  0.15671783445E+03  0.79915949533E+02 0.  0.
         13    1    4    4    0    0 -0.54674978249E+01  0.26625746000E+02  0.21314687029E+01  0.27264758230E+02  0.00000000000E+00 0. -1.
        -14    1    4    4    0    0  0.33521681650E+02  0.95309534785E+01  0.12467380129E+03  0.12945307622E+03  0.00000000000E+00 0.  1.
        -11    1    3    3    0    0 -0.22916910548E+02 -0.33148601516E+02 -0.91811286939E+01  0.41331679081E+02  0.00000000000E+00 0. -1.
         11    1    3    3    0    0 -0.12886748728E+02  0.22464310335E+02  0.66345410218E+02  0.71220972954E+02  0.00000000000E+00 0.  1.
         -1    1    1    2    0  502  0.77494754515E+01 -0.25472408297E+02  0.86302534112E+01  0.27988912594E+02  0.00000000000E+00 0.  1.
<scales pt_clust_5="13000.00000" pt_clust_6="13000.00000" pt_clust_7="13000.00000" pt_clust_8="13000.00000" pt_clust_9="26.62515"></scales>
<clustering>
<clus scale="   26.625">  1  9  2 -1</clus>
<clus scale="   79.916">  5  6 -1 -1</clus>
<clus scale="   88.758">  1  5  2 -1</clus>
<clus scale="   89.467">  7  8 -1 -1</clus>
<clus scale="   26.625">  1  5  2 -1</clus>
</clustering>
</event>
<event>
 9    1  0.6014990E-005  0.1275085E+03  0.7546771E-02  0.1245353E+00
         21   -1    0    0  501  502  0.00000000000E+00  0.00000000000E+00  0.30263834091E+03  0.30263834091E+03  0.00000000000E+00 0. -1.
         -2   -1    0    0    0  501 -0.00000000000E+00 -0.00000000000E+00 -0.88127660657E+02  0.88127660657E+02  0.00000000000E+00 0.  1.
        -24    2    1    2    0    0  0.33793569560E+02  0.41605795930E+02  0.79605495649E+02  0.12438483949E+03  0.79129676852E+02 0.  0.
         23    2    1    2    0    0 -0.86177496073E+02  0.44887013829E+02  0.76224893883E+02  0.14946897958E+03  0.84198198138E+02 0.  0.
         13    1    3    3    0    0  0.33680678740E+02  0.60023510593E+02  0.37392696356E+02  0.78328945385E+02  0.00000000000E+00 0. -1.
        -14    1    3    3    0    0  0.11289082023E+00 -0.18417714662E+02  0.42212799292E+02  0.46055894105E+02  0.00000000000E+00 0.  1.
        -13    1    4    4    0    0 -0.57010179463E+02 -0.45317886975E+01  0.71971799181E+02  0.91927349296E+02  0.00000000000E+00 0.  1.
         13    1    4    4    0    0 -0.29167316610E+02  0.49418802526E+02  0.42530947019E+01  0.57541630285E+02  0.00000000000E+00 0. -1.
         -1    1    1    2    0  502  0.52383926513E+02 -0.86492809759E+02  0.58680290722E+02  0.11691218250E+03  0.00000000000E+00 0.  1.
<scales pt_clust_5="13000.00000" pt_clust_6="13000.00000" pt_clust_7="13000.00000" pt_clust_8="13000.00000" pt_clust_9="95.75540"></scales>
<clustering>
<clus scale="   79.130">  5  6 -1 -1</clus>
<clus scale="   84.198">  7  8 -1 -1</clus>
<clus scale="   95.575">  2  5  1 -1</clus>
<clus scale="   95.755">  1  9  2 -1</clus>
<clus scale="   95.755">  1  5  2 -1</clus>
</clustering>
</event>
<event>
 9    1  0.6014990E-005  0.1097337E+03  0.7546771E-02  0.1265701E+00
          1   -1    0    0  502    0 -0.00000000000E+00  0.00000000000E+00  0.91875500664E+03  0.91875500664E+03  0.00000000000E+00 0. -1.
         21   -1    0    0  501  502  0.00000000000E+00 -0.00000000000E+00 -0.21539210891E+02  0.21539210891E+02  0.00000000000E+00 0.  1.
         23    2    1    2    0    0 -0.49649926709E+02  0.34769511698E+02  0.46221226633E+03  0.47525241848E+03  0.92469713770E+02 0.  0.
        -24    2    1    2    0    0  0.87801902343E+01 -0.70396998245E+02  0.24839208376E+03  0.27071350772E+03  0.80958920982E+02 0.  0.
         13    1    4    4    0    0  0.35387680663E+02 -0.76233587048E+01  0.56829223786E+02  0.67379256577E+02  0.00000000000E+00 0. -1.
        -14    1    4    4    0    0 -0.26607490428E+02 -0.62773639540E+02  0.19156285998E+03  0.20333425115E+03  0.00000000000E+00 0.  1.
        -11    1    3    3    0    0 -0.38902785414E+02 -0.23256560531E+02  0.12608351391E+03  0.13398263619E+03  0.00000000000E+00 0.  1.
         11    1    3    3    0    0 -0.10747141295E+02  0.58026072228E+02  0.33612875242E+03  0.34126978230E+03  0.00000000000E+00 0. -1.
          2    1    1    2  501    0  0.40869736474E+02  0.35627486547E+02  0.18661144566E+03  0.19432829132E+03  0.00000000000E+00 0. -1.
<scales pt_clust_5="13000.00000" pt_clust_6="13000.00000" pt_clust_7="13000.00000" pt_clust_8="13000.00000" pt_clust_9="54.21860"></scales>
<clustering>
<clus scale="   54.219">  2  9  1 -1</clus>
<clus scale="   80.959">  5  6 -1 -1</clus>
<clus scale="   92.470">  7  8 -1 -1</clus>
<clus scale="  100.226">  2  5  1 -1</clus>
<clus scale="   54.219">  2  5  1 -1</clus>
</clustering>
</event>
<event>
 9    1  0.6014990E-005  0.1050757E+03  0.7546771E-02  0.1272842E+00
         21   -1    0    0  501  502  0.00000000000E+00  0.00000000000E+00  0.28116191244E+03  0.28116191244E+03  0.00000000000E+00 0. -1.
          1   -1    0    0  502    0 -0.00000000000E+00 -0.00000000000E+00 -0.11791098300E+03  0.11791098300E+03  0.00000000000E+00 0. -1.
         23    2    1    2    0    0 -0.46380397306E+02 -0.55706579796E+01 -0.58123567531E+02  0.11822106037E+03  0.91737105517E+02 0.  0.
        -24    2    1    2    0    0  0.12078972926E+02  0.10988781385E+02  0.60328162251E+02  0.11610394978E+03  0.97846742875E+02 0.  0.
         13    1    4    4    0    0 -0.60263126558E+01 -0.20997662686E+02  0.73794206698E+02  0.76959750680E+02  0.00000000000E+00 0. -1.
        -14    1    4    4    0    0  0.18105285582E+02  0.31986444071E+02 -0.13466044447E+02  0.39144199102E+02  0.00000000000E+00 0.  1.
        -11    1    3    3    0    0 -0.39260175486E+02 -0.46663960884E+02 -0.38595872429E+02  0.72170132279E+02  0.00000000000E+00 0. -1.
         11    1    3    3    0    0 -0.71202218198E+01  0.41093302904E+02 -0.19527695102E+02  0.46050928094E+02  0.00000000000E+00 0.  1.
          2    1    1    2  501    0  0.34301424380E+02 -0.54181234054E+01  0.16104633472E+03  0.16474788528E+03  0.00000000000E+00 0. -1.
<scales pt_clust_5="13000.00000" pt_clust_6="13000.00000" pt_clust_7="13000.00000" pt_clust_8="13000.00000" pt_clust_9="34.72670"></scales>
<clustering>
<clus scale="   34.727">  1  9  2 -1</clus>
<clus scale="   91.737">  7  8 -1 -1</clus>
<clus scale="   97.847">  5  6 -1 -1</clus>
<clus scale="   99.411">  2  7  1 -1</clus>
<clus scale="   34.727">  1  5  2 -1</clus>
</clustering>
</event>
<event>
 9    1  0.6014990E-005  0.1609533E+03  0.7546771E-02  0.1210051E+00
         21   -1    0    0  501  502  0.00000000000E+00  0.00000000000E+00  0.10390961294E+03  0.10390961294E+03  0.00000000000E+00 0. -1.
          1   -1    0    0  502    0 -0.00000000000E+00 -0.00000000000E+00 -0.44294950258E+03  0.44294950258E+03  0.00000000000E+00 0. -1.
        -24    2    1    2    0    0 -0.43638955260E+02  0.39050760356E+02 -0.26923567130E+02  0.10239544787E+03  0.79565249806E+02 0.  0.
         23    2    1    2    0    0 -0.10191128946E+03 -0.27315907521E+02 -0.24909424388E+03  0.28542165150E+03  0.91024760817E+02 0.  0.
         13    1    3    3    0    0 -0.57878326509E+02  0.72012335870E+00 -0.14772625728E+02  0.59738176471E+02  0.00000000000E+00 0. -1.
        -14    1    3    3    0    0  0.14239371249E+02  0.38330636997E+02 -0.12150941402E+02  0.42657271398E+02  0.00000000000E+00 0.  1.
        -11    1    4    4    0    0  0.55816393990E+01 -0.30575441385E+02 -0.68706664791E+02  0.75409668485E+02  0.00000000000E+00 0.  1.
         11    1    4    4    0    0 -0.10749292886E+03  0.32595338646E+01 -0.18038757909E+03  0.21001198301E+03  0.00000000000E+00 0. -1.
          2    1    1    2  501    0  0.14555024473E+03 -0.11734852835E+02 -0.63022078619E+02  0.15904201616E+03  0.00000000000E+00 0. -1.
<scales pt_clust_5="13000.00000" pt_clust_6="13000.00000" pt_clust_7="13000.00000" pt_clust_8="13000.00000" pt_clust_9="132.74204"></scales>
<clustering>
<clus scale="   79.565">  5  6 -1 -1</clus>
<clus scale="   91.025">  7  8 -1 -1</clus>
<clus scale="   98.793">  2  5  1 -1</clus>
<clus scale="  132.742">  1  9  2 -1</clus>
<clus scale="  132.742">  1  5  2 -1</clus>
</clustering>
</event>
<event>
 9    1  0.6014990E-005  0.8957962E+02  0.7546771E-02  0.1305433E+00
         -2   -1    0    0    0  501 -0.00000000000E+00  0.00000000000E+00  0.44727471211E+03  0.44727471211E+03  0.00000000000E+00 0.  1.
         21   -1    0    0  501  502  0.00000000000E+00 -0.00000000000E+00 -0.83646672666E+02  0.83646672666E+02  0.00000000000E+00 0.  1.
         23    2    1    2    0    0 -0.85877117201E+01 -0.37551543252E+02  0.38940890586E+03  0.39887130466E+03  0.77299123721E+02 0.  0.
        -24    2    1    2    0    0  0.30932330519E+02  0.51928462113E+02 -0.93339517564E+01  0.10080141955E+03  0.80127581266E+02 0.  0.
         11    1    4    4    0    0  0.32136850067E+02  0.15530601425E+01 -0.32152355785E+02  0.45485856160E+02  0.00000000000E+00 0. -1.
        -12    1    4    4    0    0 -0.12045195488E+01  0.50375401970E+02  0.22818404028E+02  0.55315563392E+02  0.00000000000E+00 0.  1.
        -11    1    3    3    0    0 -0.25640772601E+02  0.15947820561E+02  0.13227383673E+03  0.13567663794E+03  0.00000000000E+00 0.  1.
         11    1    3    3    0    0  0.17053060881E+02 -0.53499363813E+02  0.25713506913E+03  0.26319466672E+03  0.00000000000E+00 0. -1.
         -1    1    1    2    0  502 -0.22344618799E+02 -0.14376918861E+02 -0.16446914658E+02  0.31248660562E+02  0.00000000000E+00 0.  1.
<scales pt_clust_5="13000.00000" pt_clust_6="13000.00000" pt_clust_7="13000.00000" pt_clust_8="13000.00000" pt_clust_9="26.57024"></scales>
<clustering>
<clus scale="   26.570">  2  9  1 -1</clus>
<clus scale="   77.299">  7  8 -1 -1</clus>
<clus scale="   80.128">  5  6 -1 -1</clus>
<clus scale="   87.059">  1  7  2 -1</clus>
<clus scale="   26.570">  2  5  1 -1</clus>
</clustering>
</event>
<event>
 9    1  0.6014990E-005  0.2032455E+03  0.7546771E-02  0.1147977E+00
          3   -1    0    0  502    0 -0.00000000000E+00  0.00000000000E+00  0.24234579643E+03  0.24234579643E+03  0.00000000000E+00 0. -1.
         21   -1    0    0  501  502  0.00000000000E+00 -0.00000000000E+00 -0.33504411486E+03  0.33504411486E+03  0.00000000000E+00 0. -1.
         23    2    1    2    0    0  0.46280428538E+02  0.11315732425E+03 -0.55829884550E+02  0.16210186325E+03  0.90628803171E+02 0.  0.
        -24    2    1    2    0    0 -0.84118988154E+02 -0.24769823077E+03 -0.16305046584E+02  0.27402281871E+03  0.79951441085E+02 0.  0.
         11    1    4    4    0    0 -0.29689611696E+02 -0.13894227531E+03 -0.45061228203E+02  0.14905349107E+03  0.00000000000E+00 0. -1.
        -12    1    4    4    0    0 -0.54429376457E+02 -0.10875595546E+03  0.28756181619E+02  0.12496932764E+03  0.00000000000E+00 0.  1.
        -13    1    3    3    0    0  0.25303757551E+01  0.51233394887E+02 -0.68139580172E+02  0.85289307296E+02  0.00000000000E+00 0.  1.
         13    1    3    3    0    0  0.43750052783E+02  0.61923929366E+02  0.12309695622E+02  0.76812555959E+02  0.00000000000E+00 0. -1.
          4    1    1    2  501    0  0.37838559616E+02  0.13454090652E+03 -0.20563387294E+02  0.14126522933E+03  0.00000000000E+00 0. -1.
<scales pt_clust_5="13000.00000" pt_clust_6="13000.00000" pt_clust_7="13000.00000" pt_clust_8="13000.00000" pt_clust_9="139.76062"></scales>
<clustering>
<clus scale="   79.951">  5  6 -1 -1</clus>
<clus scale="   90.629">  7  8 -1 -1</clus>
<clus scale="  139.761">  2  9  1 -1</clus>
<clus scale="  198.714">  2  5  1 -1</clus>
<clus scale="  139.761">  2  5  1 -1</clus>
</clustering>
</event>
<event>
 9    1  0.6014990E-005  0.1104299E+03  0.7546771E-02  0.1264864E+00
          1   -1    0    0  502    0 -0.00000000000E+00  0.00000000000E+00  0.25369200529E+03  0.25369200529E+03  0.00000000000E+00 0. -1.
         21   -1    0    0  501  502  0.00000000000E+00 -0.00000000000E+00 -0.12532794241E+03  0.12532794241E+03  0.00000000000E+00 0. -1.
         23    2    1    2    0    0 -0.76451896675E+02 -0.68831534237E+02  0.14121709640E+03  0.19706296591E+03  0.91153012058E+02 0.  0.
        -24    2    1    2    0    0  0.19572281017E+02  0.13193920737E+02  0.35323120393E+02  0.88942055469E+02  0.78139699693E+02 0.  0.
         11    1    4    4    0    0 -0.51986922800E+01  0.25878835422E+02 -0.15779539652E+02  0.30752794928E+02  0.00000000000E+00 0. -1.
        -12    1    4    4    0    0  0.24770973297E+02 -0.12684914685E+02  0.51102660046E+02  0.58189260542E+02  0.00000000000E+00 0.  1.
        -11    1    3    3    0    0 -0.86349040844E+02 -0.49438759787E+02  0.14408524731E+03  0.17510255942E+03  0.00000000000E+00 0. -1.
         11    1    3    3    0    0  0.98971441695E+01 -0.19392774450E+02 -0.28681509077E+01  0.21960406490E+02  0.00000000000E+00 0.  1.
          2    1    1    2  501    0  0.56879615658E+02  0.55637613500E+02 -0.48176153915E+02  0.93014926326E+02  0.00000000000E+00 0. -1.
<scales pt_clust_5="13000.00000" pt_clust_6="13000.00000" pt_clust_7="13000.00000" pt_clust_8="13000.00000" pt_clust_9="79.56654"></scales>
<clustering>
<clus scale="   78.140">  5  6 -1 -1</clus>
<clus scale="   79.567">  2  9  1 -1</clus>
<clus scale="   91.153">  7  8 -1 -1</clus>
<clus scale="   99.958">  2  5  1 -1</clus>
<clus scale="   79.567">  2  5  1 -1</clus>
</clustering>
</event>
<event>
 9    1  0.6014990E-005  0.1819963E+03  0.7546771E-02  0.1167109E+00
          1   -1    0    0  502    0 -0.00000000000E+00  0.00000000000E+00  0.17265275708E+03  0.17265275708E+03  0.00000000000E+00 0. -1.
         21   -1    0    0  501  502  0.00000000000E+00 -0.00000000000E+00 -0.23378645713E+03  0.23378645713E+03  0.00000000000E+00 0. -1.
         23    2    1    2    0    0 -0.13603398553E+03  0.91386091313E+02  0.31017586016E+02  0.18947472692E+03  0.89899491628E+02 0.  0.
        -24    2    1    2    0    0  0.11585533766E+03 -0.92198436084E+02 -0.99855242343E+02  0.19534993949E+03  0.79167661047E+02 0.  0.
         11    1    4    4    0    0  0.11687873720E+03 -0.54535931108E+02 -0.86850849782E+02  0.15549236990E+03  0.00000000000E+00 0. -1.
        -12    1    4    4    0    0 -0.10233995356E+01 -0.37662504975E+02 -0.13004392561E+02  0.39857569588E+02  0.00000000000E+00 0.  1.
        -13    1    3    3    0    0 -0.39111154805E+02  0.95990593997E+01  0.46726401849E+02  0.61686149185E+02  0.00000000000E+00 0.  1.
         13    1    3    3    0    0 -0.96922830729E+02  0.81787031913E+02 -0.15708815833E+02  0.12778857774E+03  0.00000000000E+00 0. -1.
          2    1    1    2  501    0  0.20178647874E+02  0.81234477039E+00  0.77039562739E+01  0.21614547793E+02  0.00000000000E+00 0. -1.
<scales pt_clust_5="13000.00000" pt_clust_6="13000.00000" pt_clust_7="13000.00000" pt_clust_8="13000.00000" pt_clust_9="20.19500"></scales>
<clustering>
<clus scale="   20.195">  2  9  1 -1</clus>
<clus scale="   79.168">  5  6 -1 -1</clus>
<clus scale="   89.899">  7  8 -1 -1</clus>
<clus scale="  176.941">  2  5  1 -1</clus>
<clus scale="   20.195">  2  5  1 -1</clus>
</clustering>
</event>
<event>
 9    1  0.6014990E-005  0.1209749E+03  0.7546771E-02  0.1245056E+00
         21   -1    0    0  501  502  0.00000000000E+00  0.00000000000E+00  0.27970635574E+02  0.27970635574E+02  0.00000000000E+00 0.  1.
          3   -1    0    0  502    0 -0.00000000000E+00 -0.00000000000E+00 -0.80978117157E+03  0.80978117157E+03  0.00000000000E+00 0. -1.
         23    2    1    2    0    0 -0.80294822899E+02 -0.11797681096E+01 -0.58612978821E+03  0.59869525112E+03  0.91865252701E+02 0.  0.
        -24    2    1    2    0    0  0.73027860668E+02  0.25411831599E+02 -0.16630393322E+03  0.20028802658E+03  0.80495128839E+02 0.  0.
         13    1    4    4    0    0  0.81719044532E+02  0.30237095387E+02 -0.16886712085E+03  0.19002207419E+03  0.00000000000E+00 0. -1.
        -14    1    4    4    0    0 -0.86911838636E+01 -0.48252637880E+01  0.25631876278E+01  0.10265952386E+02  0.00000000000E+00 0.  1.
        -11    1    3    3    0    0  0.76473032926E+01 -0.25741552497E+02 -0.79762278974E+02  0.84161332688E+02  0.00000000000E+00 0. -1.
         11    1    3    3    0    0 -0.87942126192E+02  0.24561784388E+02 -0.50636750924E+03  0.51453391844E+03  0.00000000000E+00 0.  1.
          4    1    1    2  501    0  0.72669622311E+01 -0.24232063490E+02 -0.29376814563E+02  0.38768529439E+02  0.00000000000E+00 0. -1.
<scales pt_clust_5="13000.00000" pt_clust_6="13000.00000" pt_clust_7="13000.00000" pt_clust_8="13000.00000" pt_clust_9="25.29825"></scales>
<clustering>
<clus scale="   25.298">  1  9  2 -1</clus>
<clus scale="   80.495">  5  6 -1 -1</clus>
<clus scale="   91.865">  7  8 -1 -1</clus>
<clus scale="  112.584">  1  5  2 -1</clus>
<clus scale="   25.298">  1  5  2 -1</clus>
</clustering>
</event>
<event>
 9    1  0.6014990E-005  0.9158031E+02  0.7546771E-02  0.1306460E+00
         21   -1    0    0  501  502  0.00000000000E+00  0.00000000000E+00  0.80870990498E+02  0.80870990498E+02  0.00000000000E+00 0.  1.
          1   -1    0    0  502    0 -0.00000000000E+00 -0.00000000000E+00 -0.24580320709E+03  0.24580320709E+03  0.00000000000E+00 0. -1.
        -24    2    1    2    0    0  0.15871592944E+02 -0.30440640520E+02 -0.57632609646E+02  0.10355418374E+03  0.78888600044E+02 0.  0.
         23    2    1    2    0    0  0.42129020481E+02 -0.21791114269E+02 -0.16906325804E+02  0.10369148861E+03  0.90644326521E+02 0.  0.
         13    1    3    3    0    0  0.47913392453E+02 -0.16079901146E+02 -0.29164651200E+02  0.58350949236E+02  0.00000000000E+00 0. -1.
        -14    1    3    3    0    0 -0.32041799509E+02 -0.14360739374E+02 -0.28467958446E+02  0.45203234500E+02  0.00000000000E+00 0.  1.
        -11    1    4    4    0    0  0.29435142964E+02 -0.45916038410E+01  0.35942110550E+02  0.46683463646E+02  0.00000000000E+00 0.  1.
         11    1    4    4    0    0  0.12693877516E+02 -0.17199510428E+02 -0.52848436354E+02  0.57008024965E+02  0.00000000000E+00 0. -1.
          2    1    1    2  501    0 -0.58000613424E+02  0.52231754789E+02 -0.90393281143E+02  0.11942852524E+03  0.00000000000E+00 0. -1.
<scales pt_clust_5="13000.00000" pt_clust_6="13000.00000" pt_clust_7="13000.00000" pt_clust_8="13000.00000" pt_clust_9="78.05276"></scales>
<clustering>
<clus scale="   78.053">  1  9  2 -1</clus>
<clus scale="   78.889">  5  6 -1 -1</clus>
<clus scale="   79.962">  2  5  1 -1</clus>
<clus scale="   90.644">  7  8 -1 -1</clus>
<clus scale="   78.053">  1  5  2 -1</clus>
</clustering>
</event>
<event>
 9    1  0.6014990E-005  0.9288826E+02  0.7546771E-02  0.1302547E+00
         -2   -1    0    0    0  501 -0.00000000000E+00  0.00000000000E+00  0.34439412109E+02  0.34439412109E+02  0.00000000000E+00 0.  1.
         21   -1    0    0  501  502  0.00000000000E+00 -0.00000000000E+00 -0.66791205188E+03  0.66791205188E+03  0.00000000000E+00 0. -1.
        -24    2    1    2    0    0  0.10641584614E+02  0.31515679146E+02 -0.62512358669E+02  0.10605794573E+03  0.78955756669E+02 0.  0.
         23    2    1    2    0    0 -0.27158107523E+02  0.36832608882E+02 -0.36340774789E+03  0.37715352180E+03  0.89918762766E+02 0.  0.
         11    1    3    3    0    0 -0.32566849425E+02  0.16478260176E+02 -0.42779127175E+02  0.56233321632E+02  0.00000000000E+00 0. -1.
        -12    1    3    3    0    0  0.43208434039E+02  0.15037418970E+02 -0.19733231494E+02  0.49824624099E+02  0.00000000000E+00 0.  1.
        -13    1    4    4    0    0 -0.20042232835E+02 -0.25401196642E+02 -0.69749788878E+02  0.76889173077E+02  0.00000000000E+00 0.  1.
         13    1    4    4    0    0 -0.71158746880E+01  0.62233805524E+02 -0.29365795901E+03  0.30026434872E+03  0.00000000000E+00 0. -1.
         -1    1    1    2    0  502  0.16516522909E+02 -0.68348288027E+02 -0.20755253321E+03  0.21913999646E+03  0.00000000000E+00 0.  1.
<scales pt_clust_5="13000.00000" pt_clust_6="13000.00000" pt_clust_7="13000.00000" pt_clust_8="13000.00000" pt_clust_9="70.31560"></scales>
<clustering>
<clus scale="   70.316">  2  9  1 -1</clus>
<clus scale="   78.956">  5  6 -1 -1</clus>
<clus scale="   82.322">  1  5  2 -1</clus>
<clus scale="   89.919">  7  8 -1 -1</clus>
<clus scale="   70.316">  2  5  1 -1</clus>
</clustering>
</event>
<event>
 9    1  0.6014990E-005  0.9781139E+02  0.7546771E-02  0.1290917E+00
         21   -1    0    0  501  502  0.00000000000E+00  0.00000000000E+00  0.17360164383E+03  0.17360164383E+03  0.00000000000E+00 0. -1.
         -4   -1    0    0    0  501 -0.00000000000E+00 -0.00000000000E+00 -0.13562082939E+03  0.13562082939E+03  0.00000000000E+00 0.  1.
        -24    2    1    2    0    0 -0.38323713534E+01 -0.24023963700E+02 -0.45228070399E+02  0.95039716446E+02  0.79969565762E+02 0.  0.
         23    2    1    2    0    0 -0.38251894166E+02  0.79835812593E+02  0.59982700532E+02  0.14052473943E+03  0.91171890674E+02 0.  0.
         13    1    3    3    0    0 -0.41292080672E+02 -0.59669641257E+01 -0.26553886690E+02  0.49454519363E+02  0.00000000000E+00 0. -1.
        -14    1    3    3    0    0  0.37459709319E+02 -0.18056999575E+02 -0.18674183709E+02  0.45585197083E+02  0.00000000000E+00 0.  1.
        -11    1    4    4    0    0  0.13869922011E+02  0.48347743813E+02 -0.60961430169E+01  0.50665984921E+02  0.00000000000E+00 0.  1.
         11    1    4    4    0    0 -0.52121816177E+02  0.31488068780E+02  0.66078843549E+02  0.89858754509E+02  0.00000000000E+00 0. -1.
         -3    1    1    2    0  502  0.42084265520E+02 -0.55811848893E+02  0.23226184309E+02  0.73658017341E+02  0.00000000000E+00 0.  1.
<scales pt_clust_5="13000.00000" pt_clust_6="13000.00000" pt_clust_7="13000.00000" pt_clust_8="13000.00000" pt_clust_9="69.90027"></scales>
<clustering>
<clus scale="   69.900">  1  9  2 -1</clus>
<clus scale="   79.970">  5  6 -1 -1</clus>
<clus scale="   87.464">  2  5  1 -1</clus>
<clus scale="   91.172">  7  8 -1 -1</clus>
<clus scale="   69.900">  1  5  2 -1</clus>
</clustering>
</event>
<event>
 9    1  0.6014990E-005  0.1457731E+03  0.7546771E-02  0.1210947E+00
         21   -1    0    0  501  502  0.00000000000E+00  0.00000000000E+00  0.44096420809E+03  0.44096420809E+03  0.00000000000E+00 0. -1.
          1   -1    0    0  502    0 -0.00000000000E+00 -0.00000000000E+00 -0.11694692755E+03  0.11694692755E+03  0.00000000000E+00 0. -1.
        -24    2    1    2    0    0 -0.16296659472E+02  0.10141447706E+03  0.90853189900E+02  0.15898115759E+03  0.80437734225E+02 0.  0.
         23    2    1    2    0    0  0.90841558336E+02  0.41859673857E+02  0.18469365568E+03  0.23030670761E+03  0.94472282204E+02 0.  0.
         13    1    3    3    0    0 -0.10696491366E+02  0.10332551757E+03  0.45774906205E+02  0.11351616425E+03  0.00000000000E+00 0. -1.
        -14    1    3    3    0    0 -0.56001681064E+01 -0.19110405068E+01  0.45078283695E+02  0.45464993342E+02  0.00000000000E+00 0.  1.
        -11    1    4    4    0    0  0.85895443956E+02  0.14137799591E+02  0.18233383880E+03  0.20204834431E+03  0.00000000000E+00 0. -1.
         11    1    4    4    0    0  0.49461143798E+01  0.27721874266E+02  0.23598168808E+01  0.28258363293E+02  0.00000000000E+00 0.  1.
          2    1    1    2  501    0 -0.74544898864E+02 -0.14327415092E+03  0.48470434966E+02  0.16862327044E+03  0.00000000000E+00 0. -1.
<scales pt_clust_5="13000.00000" pt_clust_6="13000.00000" pt_clust_7="13000.00000" pt_clust_8="13000.00000" pt_clust_9="111.01715"></scales>
<clustering>
<clus scale="   80.438">  5  6 -1 -1</clus>
<clus scale="   94.472">  7  8 -1 -1</clus>
<clus scale="  130.463">  2  5  1 -1</clus>
<clus scale="  111.017">  1  9  2 -1</clus>
<clus scale="  111.017">  1  5  2 -1</clus>
</clustering>
</event>
<event>
 9    1  0.6014990E-005  0.9197134E+02  0.7546771E-02  0.1304247E+00
         21   -1    0    0  501  502  0.00000000000E+00  0.00000000000E+00  0.95124960550E+02  0.95124960550E+02  0.00000000000E+00 0.  1.
         -2   -1    0    0    0  501 -0.00000000000E+00 -0.00000000000E+00 -0.20121858227E+03  0.20121858227E+03  0.00000000000E+00 0.  1.
         23    2    1    2    0    0  0.88175343455E+01  0.14087171627E+02 -0.15036490897E+03  0.17659515022E+03  0.91104576812E+02 0.  0.
        -24    2    1    2    0    0  0.13413361499E+02  0.18110333125E+01  0.41661621058E+02  0.92293411114E+02  0.81235367652E+02 0.  0.
         11    1    4    4    0    0 -0.62625988054E+01 -0.37695498648E+02  0.18694635226E+02  0.42540100474E+02  0.00000000000E+00 0. -1.
        -12    1    4    4    0    0  0.19675960304E+02  0.39506531960E+02  0.22966985831E+02  0.49753310640E+02  0.00000000000E+00 0.  1.
        -13    1    3    3    0    0 -0.21435014406E+02  0.37897834896E+02 -0.11971128809E+03  0.12738327296E+03  0.00000000000E+00 0.  1.
         13    1    3    3    0    0  0.30252548751E+02 -0.23810663269E+02 -0.30653620881E+02  0.49211877269E+02  0.00000000000E+00 0. -1.
         -1    1    1    2    0  502 -0.22230895844E+02 -0.15898204939E+02  0.26096661981E+01  0.27454981479E+02  0.00000000000E+00 0.  1.
<scales pt_clust_5="13000.00000" pt_clust_6="13000.00000" pt_clust_7="13000.00000" pt_clust_8="13000.00000" pt_clust_9="27.33067"></scales>
<clustering>
<clus scale="   27.331">  1  9  2 -1</clus>
<clus scale="   81.235">  5  6 -1 -1</clus>
<clus scale="   82.206">  1  5  2 -1</clus>
<clus scale="   91.105">  7  8 -1 -1</clus>
<clus scale="   27.331">  1  5  2 -1</clus>
</clustering>
</event>
<event>
 9    1  0.6014990E-005  0.2059914E+03  0.7546771E-02  0.1168395E+00
         -4   -1    0    0    0  501 -0.00000000000E+00  0.00000000000E+00  0.13763268227E+03  0.13763268227E+03  0.00000000000E+00 0.  1.
         21   -1    0    0  501  502  0.00000000000E+00 -0.00000000000E+00 -0.53138536758E+03  0.53138536758E+03  0.00000000000E+00 0.  1.
        -24    2    1    2    0    0 -0.28957897840E+02 -0.81948898958E+02 -0.17695050750E+03  0.21295273612E+03  0.80518344677E+02 0.  0.
         23    2    1    2    0    0 -0.96425356819E+02  0.19115375407E+03 -0.15367160455E+03  0.27821107508E+03  0.89156228706E+02 0.  0.
         11    1    3    3    0    0 -0.20087441716E+02  0.12428494744E+02 -0.38168722720E+02  0.44886793050E+02  0.00000000000E+00 0. -1.
        -12    1    3    3    0    0 -0.88704561238E+01 -0.94377393702E+02 -0.13878178478E+03  0.16806594307E+03  0.00000000000E+00 0.  1.
        -13    1    4    4    0    0 -0.56839551473E+02  0.13829882745E+03 -0.15042385449E+03  0.21209581864E+03  0.00000000000E+00 0.  1.
         13    1    4    4    0    0 -0.39585805345E+02  0.52854926624E+02 -0.32477500618E+01  0.66115256437E+02  0.00000000000E+00 0. -1.
         -3    1    1    2    0  502  0.12538325466E+03 -0.10920485511E+03 -0.63130573254E+02  0.17785423866E+03  0.00000000000E+00 0.  1.
<scales pt_clust_5="13000.00000" pt_clust_6="13000.00000" pt_clust_7="13000.00000" pt_clust_8="13000.00000" pt_clust_9="185.69776"></scales>
<clustering>
<clus scale="   80.518">  5  6 -1 -1</clus>
<clus scale="   89.156">  7  8 -1 -1</clus>
<clus scale="  118.480">  1  5  2 -1</clus>
<clus scale="  185.698">  2  9  1 -1</clus>
<clus scale="  185.698">  2  5  1 -1</clus>
</clustering>
</event>
<event>
 9    1  0.6014990E-005  0.9712891E+02  0.7546771E-02  0.1295098E+00
          1   -1    0    0  502    0 -0.00000000000E+00  0.00000000000E+00  0.53047229574E+03  0.53047229574E+03  0.00000000000E+00 0. -1.
         21   -1    0    0  501  502  0.00000000000E+00 -0.00000000000E+00 -0.28347057856E+02  0.28347057856E+02  0.00000000000E+00 0.  1.
         23    2    1    2    0    0 -0.85711720656E+01  0.13333322177E+02  0.36466695937E+03  0.37738940452E+03  0.95862030624E+02 0.  0.
        -24    2    1    2    0    0  0.23784835968E+02  0.39853010126E+01  0.13345641616E+03  0.15803325741E+03  0.81131340350E+02 0.  0.
         11    1    4    4    0    0 -0.19213809854E+02 -0.25830748443E+02  0.46762061254E+02  0.56772250501E+02  0.00000000000E+00 0. -1.
        -12    1    4    4    0    0  0.42998645821E+02  0.29816049455E+02  0.86694354907E+02  0.10126100691E+03  0.00000000000E+00 0.  1.
        -11    1    3    3    0    0 -0.42794507353E+02  0.34214599615E+02  0.16908059942E+03  0.17773648412E+03  0.00000000000E+00 0.  1.
         11    1    3    3    0    0  0.34223335288E+02 -0.20881277438E+02  0.19558635995E+03  0.19965292040E+03  0.00000000000E+00 0. -1.
          2    1    1    2  501    0 -0.15213663902E+02 -0.17318623190E+02  0.40018623479E+01  0.23396691663E+02  0.00000000000E+00 0. -1.
<scales pt_clust_5="13000.00000" pt_clust_6="13000.00000" pt_clust_7="13000.00000" pt_clust_8="13000.00000" pt_clust_9="23.05190"></scales>
<clustering>
<clus scale="   23.052">  2  9  1 -1</clus>
<clus scale="   81.131">  5  6 -1 -1</clus>
<clus scale="   82.624">  2  5  1 -1</clus>
<clus scale="   95.862">  7  8 -1 -1</clus>
<clus scale="   23.052">  2  5  1 -1</clus>
</clustering>
</event>
<event>
 9    1  0.6014990E-005  0.4624024E+03  0.7546771E-02  0.1024087E+00
         -2   -1    0    0    0  501 -0.00000000000E+00  0.00000000000E+00  0.15246249877E+03  0.15246249877E+03  0.00000000000E+00 0.  1.
         21   -1    0    0  501  502  0.00000000000E+00 -0.00000000000E+00 -0.12573243282E+04  0.12573243282E+04  0.00000000000E+00 0.  1.
        -24    2    1    2    0    0  0.71213439234E+02  0.30023701252E+02 -0.95993331947E+02  0.14668311941E+03  0.79551500158E+02 0.  0.
         23    2    1    2    0    0  0.27823853004E+03  0.18817194072E+03 -0.45018438123E+03  0.56894669450E+03  0.90603560697E+02 0.  0.
         11    1    3    3    0    0  0.53455435066E+02 -0.66115471951E+01 -0.14807335230E+02  0.55861017454E+02  0.00000000000E+00 0. -1.
        -12    1    3    3    0    0  0.17758004168E+02  0.36635248447E+02 -0.81185996717E+02  0.90822101956E+02  0.00000000000E+00 0.  1.
        -11    1    4    4    0    0  0.10390514538E+03  0.34085084954E+02 -0.19534480166E+03  0.22386974737E+03  0.00000000000E+00 0.  1.
         11    1    4    4    0    0  0.17433338465E+03  0.15408685577E+03 -0.25483957957E+03  0.34507694713E+03  0.00000000000E+00 0. -1.
         -1    1    1    2    0  502 -0.34945196927E+03 -0.21819564198E+03 -0.55868411622E+03  0.69415701302E+03  0.00000000000E+00 0.  1.
<scales pt_clust_5="13000.00000" pt_clust_6="13000.00000" pt_clust_7="13000.00000" pt_clust_8="13000.00000" pt_clust_9="411.97818"></scales>
<clustering>
<clus scale="   79.552">  5  6 -1 -1</clus>
<clus scale="   90.604">  7  8 -1 -1</clus>
<clus scale="   97.135">  5  7 -1 -1</clus>
<clus scale="  411.978">  2  9  1 -1</clus>
<clus scale="  411.978">  2  5  1 -1</clus>
</clustering>
</event>
<event>
 9    1  0.6014990E-005  0.9802971E+02  0.7546771E-02  0.1285813E+00
         -2   -1    0    0    0  501 -0.00000000000E+00  0.00000000000E+00  0.11268054856E+04  0.11268054856E+04  0.00000000000E+00 0.  1.
         21   -1    0    0  501  502  0.00000000000E+00 -0.00000000000E+00 -0.20801833427E+02  0.20801833427E+02  0.00000000000E+00 0. -1.
        -24    2    1    2    0    0 -0.68638046192E+01  0.34890249215E+02  0.41457322993E+03  0.42451682103E+03  0.84137548410E+02 0.  0.
         23    2    1    2    0    0  0.78741774299E+02 -0.40207766157E+02  0.29211579391E+03  0.31732345781E+03  0.86865461158E+02 0.  0.
         13    1    3    3    0    0  0.31928035310E+02  0.40072426079E+02  0.20387517690E+03  0.21021485801E+03  0.00000000000E+00 0. -1.
        -14    1    3    3    0    0 -0.38791839929E+02 -0.51821768633E+01  0.21069805303E+03  0.21430196302E+03  0.00000000000E+00 0.  1.
        -11    1    4    4    0    0  0.59947201303E+02  0.21156953185E+01  0.24098759192E+03  0.24834081938E+03  0.00000000000E+00 0.  1.
         11    1    4    4    0    0  0.18794572997E+02 -0.42323461475E+02  0.51128201992E+02  0.68982638427E+02  0.00000000000E+00 0. -1.
         -1    1    1    2    0  502 -0.71877969680E+02  0.53175169416E+01  0.39931462834E+03  0.40576704021E+03  0.00000000000E+00 0.  1.
<scales pt_clust_5="13000.00000" pt_clust_6="13000.00000" pt_clust_7="13000.00000" pt_clust_8="13000.00000" pt_clust_9="72.07443"></scales>
<clustering>
<clus scale="   72.074">  2  9  1 -1</clus>
<clus scale="   84.138">  5  6 -1 -1</clus>
<clus scale="   86.865">  7  8 -1 -1</clus>
<clus scale="   95.621">  1  5  2 -1</clus>
<clus scale="   72.074">  2  5  1 -1</clus>
</clustering>
</event>
<event>
 9    1  0.6014990E-005  0.9168951E+02  0.7546771E-02  0.1306387E+00
          1   -1    0    0  502    0 -0.00000000000E+00  0.00000000000E+00  0.28950185257E+03  0.28950185257E+03  0.00000000000E+00 0. -1.
         21   -1    0    0  501  502  0.00000000000E+00 -0.00000000000E+00 -0.43178500399E+02  0.43178500399E+02  0.00000000000E+00 0.  1.
         23    2    1    2    0    0 -0.11764408788E+01  0.89545449052E+01  0.17212391910E+03  0.19521312700E+03  0.91651260429E+02 0.  0.
        -24    2    1    2    0    0 -0.82376848404E+01  0.22125335928E+02  0.55732566583E+02  0.10010936316E+03  0.79739423585E+02 0.  0.
         13    1    4    4    0    0 -0.15590667029E+02 -0.23680221159E+02  0.43854250475E+02  0.52220848876E+02  0.00000000000E+00 0. -1.
        -14    1    4    4    0    0  0.73529821890E+01  0.45805557087E+02  0.11878316107E+02  0.47888514288E+02  0.00000000000E+00 0.  1.
        -13    1    3    3    0    0 -0.25109943983E+02 -0.31367515471E+02  0.11185010803E+03  0.11884812569E+03  0.00000000000E+00 0. -1.
         13    1    3    3    0    0  0.23933503104E+02  0.40322060376E+02  0.60273811068E+02  0.76365001306E+02  0.00000000000E+00 0.  1.
          2    1    1    2  501    0  0.94141257192E+01 -0.31079880834E+02  0.18466866489E+02  0.37357862809E+02  0.00000000000E+00 0. -1.
<scales pt_clust_5="13000.00000" pt_clust_6="13000.00000" pt_clust_7="13000.00000" pt_clust_8="13000.00000" pt_clust_9="32.47437"></scales>
<clustering>
<clus scale="   32.474">  2  9  1 -1</clus>
<clus scale="   79.739">  5  6 -1 -1</clus>
<clus scale="   79.783">  2  5  1 -1</clus>
<clus scale="   91.651">  7  8 -1 -1</clus>
<clus scale="   32.474">  2  5  1 -1</clus>
</clustering>
</event>
<event>
 9    1  0.6014990E-005  0.9893620E+02  0.7546771E-02  0.1289832E+00
         21   -1    0    0  501  502  0.00000000000E+00  0.00000000000E+00  0.33096213006E+02  0.33096213006E+02  0.00000000000E+00 0. -1.
          1   -1    0    0  502    0 -0.00000000000E+00 -0.00000000000E+00 -0.56014617544E+03  0.56014617544E+03  0.00000000000E+00 0. -1.
         23    2    1    2    0    0  0.11696891051E+02 -0.27650091801E+02 -0.26459132024E+03  0.28233697628E+03  0.93831000178E+02 0.  0.
        -24    2    1    2    0    0  0.50369825600E+02  0.27055281982E+02 -0.19925476475E+03  0.22232007908E+03  0.80340828158E+02 0.  0.
         11    1    4    4    0    0  0.11495685408E+02  0.36364734985E+02 -0.16599319079E+03  0.17031818494E+03  0.00000000000E+00 0. -1.
        -12    1    4    4    0    0  0.38874140192E+02 -0.93094530035E+01 -0.33261573964E+02  0.52001894133E+02  0.00000000000E+00 0.  1.
        -11    1    3    3    0    0 -0.25092434141E+02  0.48806037988E+01 -0.18913355470E+02  0.31798829533E+02  0.00000000000E+00 0. -1.
         11    1    3    3    0    0  0.36789325191E+02 -0.32530695600E+02 -0.24567796477E+03  0.25053814675E+03  0.00000000000E+00 0.  1.
          2    1    1    2  501    0 -0.62066716651E+02  0.59480981927E+00 -0.63203877443E+02  0.88585333088E+02  0.00000000000E+00 0. -1.
<scales pt_clust_5="13000.00000" pt_clust_6="13000.00000" pt_clust_7="13000.00000" pt_clust_8="13000.00000" pt_clust_9="62.06957"></scales>
<clustering>
<clus scale="   62.070">  1  9  2 -1</clus>
<clus scale="   80.341">  5  6 -1 -1</clus>
<clus scale="   86.248">  1  5  2 -1</clus>
<clus scale="   93.831">  7  8 -1 -1</clus>
<clus scale="   62.070">  1  5  2 -1</clus>
</clustering>
</event>
<event>
 9    1  0.6014990E-005  0.9984006E+02  0.7546771E-02  0.1286607E+00
          1   -1    0    0  502    0 -0.00000000000E+00  0.00000000000E+00  0.51750674011E+03  0.51750674011E+03  0.00000000000E+00 0. -1.
         21   -1    0    0  501  502  0.00000000000E+00 -0.00000000000E+00 -0.26514233108E+02  0.26514233108E+02  0.00000000000E+00 0. -1.
         23    2    1    2    0    0 -0.17499212423E+02 -0.50373638250E+02  0.25532473767E+03  0.27629188264E+03  0.91119464890E+02 0.  0.
        -24    2    1    2    0    0 -0.17106388359E+02  0.30230007496E+02  0.15043815972E+03  0.17356221838E+03  0.79282544557E+02 0.  0.
         13    1    4    4    0    0 -0.30506734285E+02 -0.18721891549E+02  0.60847559145E+02  0.70594585585E+02  0.00000000000E+00 0. -1.
        -14    1    4    4    0    0  0.13400345926E+02  0.48951899045E+02  0.89590600577E+02  0.10296763279E+03  0.00000000000E+00 0.  1.
        -11    1    3    3    0    0  0.19877403926E+02 -0.28512825710E+02  0.27312955040E+02  0.44205089411E+02  0.00000000000E+00 0. -1.
         11    1    3    3    0    0 -0.37376616349E+02 -0.21860812541E+02  0.22801178263E+03  0.23208679323E+03  0.00000000000E+00 0.  1.
          2    1    1    2  501    0  0.34605600782E+02  0.20143630754E+02  0.85229609609E+02  0.94166872198E+02  0.00000000000E+00 0. -1.
<scales pt_clust_5="13000.00000" pt_clust_6="13000.00000" pt_clust_7="13000.00000" pt_clust_8="13000.00000" pt_clust_9="40.04142"></scales>
<clustering>
<clus scale="   40.041">  2  9  1 -1</clus>
<clus scale="   79.283">  5  6 -1 -1</clus>
<clus scale="   89.168">  2  5  1 -1</clus>
<clus scale="   91.119">  7  8 -1 -1</clus>
<clus scale="   40.041">  2  5  1 -1</clus>
</clustering>
</event>
<event>
 9    1  0.6014990E-005  0.1596909E+03  0.7546771E-02  0.1191531E+00
         21   -1    0    0  501  502  0.00000000000E+00  0.00000000000E+00  0.46855622871E+03  0.46855622871E+03  0.00000000000E+00 0. -1.
          1   -1    0    0  502    0 -0.00000000000E+00 -0.00000000000E+00 -0.25433862256E+03  0.25433862256E+03  0.00000000000E+00 0. -1.
        -24    2    1    2    0    0 -0.12842798586E+03  0.87181359146E+02 -0.14730076550E+03  0.22840527104E+03  0.79856843078E+02 0.  0.
         23    2    1    2    0    0  0.96789253546E+02  0.33898040193E+02  0.34000710753E+02  0.14387718950E+03  0.95012423376E+02 0.  0.
         11    1    3    3    0    0 -0.11165474608E+03  0.30927684069E+02 -0.98065599609E+02  0.15178987381E+03  0.00000000000E+00 0. -1.
        -12    1    3    3    0    0 -0.16773239781E+02  0.56253675077E+02 -0.49235165894E+02  0.76615397232E+02  0.00000000000E+00 0.  1.
        -13    1    4    4    0    0  0.17424094462E+02  0.33394353805E+02  0.50313976131E+02  0.62851238079E+02  0.00000000000E+00 0.  1.
         13    1    4    4    0    0  0.79365159084E+02  0.50368638730E+00 -0.16313265378E+02  0.81025951421E+02  0.00000000000E+00 0. -1.
          2    1    1    2  501    0  0.31638732315E+02 -0.12107939934E+03  0.32751766091E+03  0.35061239073E+03  0.00000000000E+00 0. -1.
<scales pt_clust_5="13000.00000" pt_clust_6="13000.00000" pt_clust_7="13000.00000" pt_clust_8="13000.00000" pt_clust_9="125.14484"></scales>
<clustering>
<clus scale="   79.857">  5  6 -1 -1</clus>
<clus scale="   95.012">  7  8 -1 -1</clus>
<clus scale="  125.145">  1  9  2 -1</clus>
<clus scale="  151.165">  2  5  1 -1</clus>
<clus scale="  125.145">  1  5  2 -1</clus>
</clustering>
</event>
<event>
 9    1  0.6014990E-005  0.1183647E+03  0.7546771E-02  0.1250549E+00
          1   -1    0    0  502    0 -0.00000000000E+00  0.00000000000E+00  0.67526552690E+03  0.67526552690E+03  0.00000000000E+00 0. -1.
         21   -1    0    0  501  502  0.00000000000E+00 -0.00000000000E+00 -0.26276781184E+02  0.26276781184E+02  0.00000000000E+00 0.  1.
         23    2    1    2    0    0 -0.46831439785E+02 -0.40551810155E+02  0.27152437048E+03  0.29394036055E+03  0.94009673635E+02 0.  0.
        -24    2    1    2    0    0  0.78709789510E+02  0.33143656269E+02  0.25101347622E+03  0.27698441507E+03  0.80117838405E+02 0.  0.
         13    1    4    4    0    0  0.22064755141E+01  0.25111017654E+02  0.13794972093E+03  0.14023393757E+03  0.00000000000E+00 0. -1.
        -14    1    4    4    0    0  0.76503313996E+02  0.80326386151E+01  0.11306375529E+03  0.13675047750E+03  0.00000000000E+00 0.  1.
        -13    1    3    3    0    0 -0.76545726861E+01 -0.62931504636E+02  0.11835718853E+03  0.13426611947E+03  0.00000000000E+00 0. -1.
         13    1    3    3    0    0 -0.39176867099E+02  0.22379694481E+02  0.15316718194E+03  0.15967424108E+03  0.00000000000E+00 0.  1.
          2    1    1    2  501    0 -0.31878349725E+02  0.74081538864E+01  0.12645089901E+03  0.13061753246E+03  0.00000000000E+00 0. -1.
<scales pt_clust_5="13000.00000" pt_clust_6="13000.00000" pt_clust_7="13000.00000" pt_clust_8="13000.00000" pt_clust_9="32.72783"></scales>
<clustering>
<clus scale="   32.728">  2  9  1 -1</clus>
<clus scale="   80.118">  5  6 -1 -1</clus>
<clus scale="   94.010">  7  8 -1 -1</clus>
<clus scale="  107.663">  2  5  1 -1</clus>
<clus scale="   32.728">  2  5  1 -1</clus>
</clustering>
</event>
<event>
 9    1  0.6014990E-005  0.2046965E+03  0.7546771E-02  0.1179609E+00
          1   -1    0    0  502    0 -0.00000000000E+00  0.00000000000E+00  0.13091632068E+04  0.13091632068E+04  0.00000000000E+00 0. -1.
         21   -1    0    0  501  502  0.00000000000E+00 -0.00000000000E+00 -0.47868320452E+02  0.47868320452E+02  0.00000000000E+00 0. -1.
        -24    2    1    2    0    0 -0.43969718895E+02  0.18012636982E+02  0.25193870028E+03  0.26876058997E+03  0.80630978876E+02 0.  0.
         23    2    1    2    0    0  0.59391311093E+02 -0.18757114916E+03  0.38374114979E+03  0.43990214702E+03  0.86869816873E+02 0.  0.
         11    1    3    3    0    0 -0.21613467478E+02  0.49791798519E+02  0.13357965759E+03  0.14418699698E+03  0.00000000000E+00 0. -1.
        -12    1    3    3    0    0 -0.22356251417E+02 -0.31779161538E+02  0.11835904268E+03  0.12457359299E+03  0.00000000000E+00 0.  1.
        -13    1    4    4    0    0 -0.19644393286E+02 -0.27333272825E+02  0.90019525867E+02  0.96106841735E+02  0.00000000000E+00 0.  1.
         13    1    4    4    0    0  0.79035704379E+02 -0.16023787633E+03  0.29372162393E+03  0.34379530529E+03  0.00000000000E+00 0. -1.
          2    1    1    2  501    0 -0.15421592198E+02  0.16955851217E+03  0.62561503626E+03  0.64836879024E+03  0.00000000000E+00 0. -1.
<scales pt_clust_5="13000.00000" pt_clust_6="13000.00000" pt_clust_7="13000.00000" pt_clust_8="13000.00000" pt_clust_9="185.34924"></scales>
<clustering>
<clus scale="   80.631">  5  6 -1 -1</clus>
<clus scale="   86.870">  7  8 -1 -1</clus>
<clus scale="   93.590">  1  5  2 -1</clus>
<clus scale="  185.349">  2  9  1 -1</clus>
<clus scale="  185.349">  2  5  1 -1</clus>
</clustering>
</event>
<event>
 9    1  0.6014990E-005  0.1052337E+03  0.7546771E-02  0.1277070E+00
         21   -1    0    0  501  502  0.00000000000E+00  0.00000000000E+00  0.16135285560E+03  0.16135285560E+03  0.00000000000E+00 0.  1.
          1   -1    0    0  502    0 -0.00000000000E+00 -0.00000000000E+00 -0.31656161036E+03  0.31656161036E+03  0.00000000000E+00 0. -1.
         23    2    1    2    0    0  0.26235885111E+02  0.33447535608E+02 -0.20958314752E+03  0.23319899238E+03  0.93003306482E+02 0.  0.
        -24    2    1    2    0    0 -0.82857177131E+02 -0.14495136330E+02 -0.50045742188E+02  0.12442944476E+03  0.76828963508E+02 0.  0.
         13    1    4    4    0    0 -0.15571849070E+02  0.25815464504E+02  0.21316950825E+01  0.30223580445E+02  0.00000000000E+00 0. -1.
        -14    1    4    4    0    0 -0.67285328060E+02 -0.40310600834E+02 -0.52177437270E+02  0.94205864318E+02  0.00000000000E+00 0.  1.
        -13    1    3    3    0    0 -0.70632787328E+01 -0.22737533125E+02 -0.15472008603E+02  0.28394865192E+02  0.00000000000E+00 0.  1.
         13    1    3    3    0    0  0.33299163843E+02  0.56185068733E+02 -0.19411113892E+03  0.20480412719E+03  0.00000000000E+00 0. -1.
          2    1    1    2  501    0  0.56621292020E+02 -0.18952399278E+02  0.10442013494E+03  0.12028602882E+03  0.00000000000E+00 0. -1.
<scales pt_clust_5="13000.00000" pt_clust_6="13000.00000" pt_clust_7="13000.00000" pt_clust_8="13000.00000" pt_clust_9="59.70900"></scales>
<clustering>
<clus scale="   59.709">  1  9  2 -1</clus>
<clus scale="   76.829">  5  6 -1 -1</clus>
<clus scale="   91.254">  1  5  2 -1</clus>
<clus scale="   93.003">  7  8 -1 -1</clus>
<clus scale="   59.709">  1  5  2 -1</clus>
</clustering>
</event>
<event>
 9    1  0.6014990E-005  0.1037779E+03  0.7546771E-02  0.1278229E+00
          1   -1    0    0  502    0 -0.00000000000E+00  0.00000000000E+00  0.14704398098E+03  0.14704398098E+03  0.00000000000E+00 0. -1.
         21   -1    0    0  501  502  0.00000000000E+00 -0.00000000000E+00 -0.30648185878E+03  0.30648185878E+03  0.00000000000E+00 0. -1.
        -24    2    1    2    0    0  0.48343309708E+02 -0.10849283404E+02  0.11067451348E+03  0.14558862572E+03  0.80575538855E+02 0.  0.
         23    2    1    2    0    0 -0.25349125506E+02 -0.21591871029E+02 -0.13527612676E+03  0.16735990706E+03  0.92741150314E+02 0.  0.
         13    1    3    3    0    0  0.52062223275E+02 -0.11337460460E+02  0.12228407898E+03  0.13338818941E+03  0.00000000000E+00 0. -1.
        -14    1    3    3    0    0 -0.37189135666E+01  0.48817705590E+00 -0.11609565504E+02  0.12200436310E+02  0.00000000000E+00 0.  1.
        -13    1    4    4    0    0  0.35210171579E+02 -0.77226797183E+01 -0.56727893185E+02  0.67211976833E+02  0.00000000000E+00 0. -1.
         13    1    4    4    0    0 -0.60559297085E+02 -0.13869191310E+02 -0.78548233579E+02  0.10014793023E+03  0.00000000000E+00 0.  1.
          2    1    1    2  501    0 -0.22994184202E+02  0.32441154433E+02 -0.13483626452E+03  0.14057730698E+03  0.00000000000E+00 0. -1.
<scales pt_clust_5="13000.00000" pt_clust_6="13000.00000" pt_clust_7="13000.00000" pt_clust_8="13000.00000" pt_clust_9="39.76382"></scales>
<clustering>
<clus scale="   39.764">  2  9  1 -1</clus>
<clus scale="   80.576">  5  6 -1 -1</clus>
<clus scale="   92.741">  7  8 -1 -1</clus>
<clus scale="   93.066">  1  5  2 -1</clus>
<clus scale="   39.764">  2  5  1 -1</clus>
</clustering>
</event>
<event>
 9    1  0.6014990E-005  0.1112281E+03  0.7546771E-02  0.1262722E+00
         21   -1    0    0  501  502  0.00000000000E+00  0.00000000000E+00  0.97376611574E+02  0.97376611574E+02  0.00000000000E+00 0.  1.
         -2   -1    0    0    0  501 -0.00000000000E+00 -0.00000000000E+00 -0.42263918753E+03  0.42263918753E+03  0.00000000000E+00 0.  1.
        -24    2    1    2    0    0  0.57428301891E+02  0.56131787476E+02 -0.30685838423E+03  0.32713499775E+03  0.80040310815E+02 0.  0.
         23    2    1    2    0    0 -0.27585405206E+02  0.11014475694E+01 -0.62954831093E+02  0.11445248285E+03  0.91508973907E+02 0.  0.
         11    1    3    3    0    0  0.46659376541E+02  0.10607606048E+02 -0.64544883624E+02  0.80347126440E+02  0.00000000000E+00 0. -1.
        -12    1    3    3    0    0  0.10768925350E+02  0.45524181428E+02 -0.24231350060E+03  0.24678787131E+03  0.00000000000E+00 0.  1.
        -11    1    4    4    0    0  0.26352945816E+02  0.22068287293E+02 -0.38544740314E+02  0.51644787376E+02  0.00000000000E+00 0.  1.
         11    1    4    4    0    0 -0.53938351022E+02 -0.20966839723E+02 -0.24410090779E+02  0.62807695475E+02  0.00000000000E+00 0. -1.
         -1    1    1    2    0  502 -0.29842896685E+02 -0.57233235045E+02  0.44550639365E+02  0.78428318509E+02  0.00000000000E+00 0.  1.
<scales pt_clust_5="13000.00000" pt_clust_6="13000.00000" pt_clust_7="13000.00000" pt_clust_8="13000.00000" pt_clust_9="64.54643"></scales>
<clustering>
<clus scale="   64.546">  1  9  2 -1</clus>
<clus scale="   80.040">  5  6 -1 -1</clus>
<clus scale="   91.509">  7  8 -1 -1</clus>
<clus scale="  102.001">  2  5  1 -1</clus>
<clus scale="   64.546">  1  5  2 -1</clus>
</clustering>
</event>
<event>
 9    1  0.6014990E-005  0.2433534E+03  0.7546771E-02  0.1140391E+00
         21   -1    0    0  501  502  0.00000000000E+00  0.00000000000E+00  0.19516070884E+03  0.19516070884E+03  0.00000000000E+00 0.  1.
          1   -1    0    0  502    0 -0.00000000000E+00 -0.00000000000E+00 -0.78386552677E+03  0.78386552677E+03  0.00000000000E+00 0. -1.
        -24    2    1    2    0    0 -0.12001592702E+03  0.13950589861E+02 -0.10768493828E+03  0.17569083424E+03  0.68357747218E+02 0.  0.
         23    2    1    2    0    0 -0.19255917410E+03 -0.71747573474E+02  0.10412359192E+01  0.22590436280E+03  0.93834679790E+02 0.  0.
         13    1    3    3    0    0 -0.74829207660E+02 -0.13171595899E+02 -0.94701330769E+02  0.12141352193E+03  0.00000000000E+00 0. -1.
        -14    1    3    3    0    0 -0.45186719364E+02  0.27122185760E+02 -0.12983607513E+02  0.54277312307E+02  0.00000000000E+00 0.  1.
        -13    1    4    4    0    0 -0.94058823709E+02 -0.62324388466E+01 -0.37552275839E+02  0.10146959659E+03  0.00000000000E+00 0. -1.
         13    1    4    4    0    0 -0.98500350390E+02 -0.65515134628E+02  0.38593511758E+02  0.12443476621E+03  0.00000000000E+00 0.  1.
          2    1    1    2  501    0  0.31257510112E+03  0.57796983613E+02 -0.48206111557E+03  0.57743103857E+03  0.00000000000E+00 0. -1.
<scales pt_clust_5="13000.00000" pt_clust_6="13000.00000" pt_clust_7="13000.00000" pt_clust_8="13000.00000" pt_clust_9="224.53506"></scales>
<clustering>
<clus scale="   68.358">  5  6 -1 -1</clus>
<clus scale="   93.835">  7  8 -1 -1</clus>
<clus scale="  138.821">  2  5  1 -1</clus>
<clus scale="  224.535">  1  9  2 -1</clus>
<clus scale="  224.535">  1  5  2 -1</clus>
</clustering>
</event>
<event>
 9    1  0.6014990E-005  0.9271411E+02  0.7546771E-02  0.1305878E+00
         21   -1    0    0  501  502  0.00000000000E+00  0.00000000000E+00  0.12870740967E+03  0.12870740967E+03  0.00000000000E+00 0. -1.
          3   -1    0    0  502    0 -0.00000000000E+00 -0.00000000000E+00 -0.18491408432E+03  0.18491408432E+03  0.00000000000E+00 0. -1.
         23    2    1    2    0    0  0.12913337621E+02 -0.14789972394E+02  0.15488453591E+02  0.94792634391E+02  0.91434423322E+02 0.  0.
        -24    2    1    2    0    0  0.45878671059E+02 -0.37851087824E+01  0.34848410849E+02  0.95731095003E+02  0.76360011164E+02 0.  0.
         13    1    4    4    0    0  0.19420423258E+02  0.68620589111E+01 -0.23218814134E+02  0.31037944871E+02  0.00000000000E+00 0. -1.
        -14    1    4    4    0    0  0.26458247801E+02 -0.10647167694E+02  0.58067224984E+02  0.64693150131E+02  0.00000000000E+00 0.  1.
        -13    1    3    3    0    0 -0.22630313687E+02  0.27040435490E+02 -0.61437070973E+01  0.35791917886E+02  0.00000000000E+00 0.  1.
         13    1    3    3    0    0  0.35543651307E+02 -0.41830407884E+02  0.21632160688E+02  0.59000716505E+02  0.00000000000E+00 0. -1.
          4    1    1    2  501    0 -0.58792008680E+02  0.18575081176E+02 -0.10654353909E+03  0.12309776459E+03  0.00000000000E+00 0. -1.
<scales pt_clust_5="13000.00000" pt_clust_6="13000.00000" pt_clust_7="13000.00000" pt_clust_8="13000.00000" pt_clust_9="61.65661"></scales>
<clustering>
<clus scale="   61.657">  1  9  2 -1</clus>
<clus scale="   76.360">  5  6 -1 -1</clus>
<clus scale="   77.888">  1  5  2 -1</clus>
<clus scale="   91.434">  7  8 -1 -1</clus>
<clus scale="   61.657">  1  5  2 -1</clus>
</clustering>
</event>
<event>
 9    1  0.6014990E-005  0.1702053E+03  0.7546771E-02  0.1179257E+00
         21   -1    0    0  501  502  0.00000000000E+00  0.00000000000E+00  0.32697499466E+03  0.32697499466E+03  0.00000000000E+00 0. -1.
          1   -1    0    0  502    0 -0.00000000000E+00 -0.00000000000E+00 -0.21866739480E+03  0.21866739480E+03  0.00000000000E+00 0. -1.
        -24    2    1    2    0    0  0.76248342098E+02 -0.16055935703E+03  0.12740384067E+02  0.19563235525E+03  0.80725363001E+02 0.  0.
         23    2    1    2    0    0  0.70635653071E+02  0.11477693722E+03  0.10756629719E+03  0.19568921269E+03  0.92523612496E+02 0.  0.
         13    1    3    3    0    0  0.35346447504E+02 -0.90792517320E+02 -0.32819643755E+02  0.10280944299E+03  0.00000000000E+00 0. -1.
        -14    1    3    3    0    0  0.40901894594E+02 -0.69766839714E+02  0.45560027822E+02  0.92822912259E+02  0.00000000000E+00 0.  1.
        -11    1    4    4    0    0  0.10443103784E+02  0.35736013258E+02  0.86439996717E+02  0.94116917144E+02  0.00000000000E+00 0.  1.
         11    1    4    4    0    0  0.60192549288E+02  0.79040923961E+02  0.21126300471E+02  0.10157229554E+03  0.00000000000E+00 0. -1.
          2    1    1    2  501    0 -0.14688399517E+03  0.45782419815E+02 -0.11999081401E+02  0.15432082152E+03  0.00000000000E+00 0. -1.
<scales pt_clust_5="13000.00000" pt_clust_6="13000.00000" pt_clust_7="13000.00000" pt_clust_8="13000.00000" pt_clust_9="153.85370"></scales>
<clustering>
<clus scale="   80.725">  5  6 -1 -1</clus>
<clus scale="   92.524">  7  8 -1 -1</clus>
<clus scale="  153.854">  1  9  2 -1</clus>
<clus scale="  164.091">  2  5  1 -1</clus>
<clus scale="  153.854">  1  5  2 -1</clus>
</clustering>
</event>
<event>
 9    1  0.6014990E-005  0.1168029E+03  0.7546771E-02  0.1252823E+00
         21   -1    0    0  501  502  0.00000000000E+00  0.00000000000E+00  0.85639230299E+02  0.85639230299E+02  0.00000000000E+00 0.  1.
          1   -1    0    0  502    0 -0.00000000000E+00 -0.00000000000E+00 -0.50691056269E+03  0.50691056269E+03  0.00000000000E+00 0. -1.
        -24    2    1    2    0    0 -0.33722538439E+02  0.60662287914E+02 -0.87131877599E+02  0.13804863852E+03  0.81537351740E+02 0.  0.
         23    2    1    2    0    0  0.47567779045E+02  0.51415626265E+02 -0.13915016459E+02  0.11494727003E+03  0.90072120973E+02 0.  0.
         11    1    3    3    0    0 -0.45316299454E+02  0.21718152643E+02 -0.83236076160E+02  0.97229056999E+02  0.00000000000E+00 0. -1.
        -12    1    3    3    0    0  0.11593761015E+02  0.38944135271E+02 -0.38958014395E+01  0.40819581518E+02  0.00000000000E+00 0.  1.
        -11    1    4    4    0    0  0.16741710319E+02  0.61133138100E+02  0.21565199902E+02  0.66952246304E+02  0.00000000000E+00 0.  1.
         11    1    4    4    0    0  0.30826068725E+02 -0.97175118353E+01 -0.35480216361E+02  0.47995023725E+02  0.00000000000E+00 0. -1.
          2    1    1    2  501    0 -0.13845240605E+02 -0.11207791418E+03 -0.32022443833E+03  0.33955388444E+03  0.00000000000E+00 0. -1.
<scales pt_clust_5="13000.00000" pt_clust_6="13000.00000" pt_clust_7="13000.00000" pt_clust_8="13000.00000" pt_clust_9="74.36354"></scales>
<clustering>
<clus scale="   81.537">  5  6 -1 -1</clus>
<clus scale="   90.072">  7  8 -1 -1</clus>
<clus scale="  107.077">  2  5  1 -1</clus>
<clus scale="   74.364">  1  9  2 -1</clus>
<clus scale="   74.364">  1  5  2 -1</clus>
</clustering>
</event>
<event>
 9    1  0.6014990E-005  0.1318451E+03  0.7546771E-02  0.1237808E+00
          1   -1    0    0  502    0 -0.00000000000E+00  0.00000000000E+00  0.10190527243E+03  0.10190527243E+03  0.00000000000E+00 0. -1.
         21   -1    0    0  501  502  0.00000000000E+00 -0.00000000000E+00 -0.62896363532E+03  0.62896363532E+03  0.00000000000E+00 0. -1.
         23    2    1    2    0    0 -0.23110398540E+02 -0.35720825045E+02 -0.21785495848E+03  0.24001427992E+03  0.91301718330E+02 0.  0.
        -24    2    1    2    0    0  0.21034021584E+01  0.13558318753E+03  0.79597582804E+01  0.15767861262E+03  0.80074728113E+02 0.  0.
         13    1    4    4    0    0  0.38419822772E+02  0.59089674876E+02  0.17052190650E+02  0.72515168515E+02  0.00000000000E+00 0. -1.
        -14    1    4    4    0    0 -0.36316420613E+02  0.76493512659E+02 -0.90924323693E+01  0.85163444103E+02  0.00000000000E+00 0.  1.
        -11    1    3    3    0    0  0.29802243441E+02 -0.19909687072E+02 -0.14030622753E+03  0.14481162535E+03  0.00000000000E+00 0.  1.
         11    1    3    3    0    0 -0.52912641981E+02 -0.15811137973E+02 -0.77548730951E+02  0.95202654572E+02  0.00000000000E+00 0. -1.
          2    1    1    2  501    0  0.21006996382E+02 -0.99862362490E+02 -0.31716316270E+03  0.33317601521E+03  0.00000000000E+00 0. -1.
<scales pt_clust_5="13000.00000" pt_clust_6="13000.00000" pt_clust_7="13000.00000" pt_clust_8="13000.00000" pt_clust_9="104.74332"></scales>
<clustering>
<clus scale="   80.075">  5  6 -1 -1</clus>
<clus scale="   91.302">  7  8 -1 -1</clus>
<clus scale="  100.728">  1  7  2 -1</clus>
<clus scale="  104.743">  2  9  1 -1</clus>
<clus scale="  104.743">  2  5  1 -1</clus>
</clustering>
</event>
<event>
 9    1  0.6014990E-005  0.9825381E+02  0.7546771E-02  0.1286048E+00
         -2   -1    0    0    0  501 -0.00000000000E+00  0.00000000000E+00  0.20799113198E+03  0.20799113198E+03  0.00000000000E+00 0.  1.
         21   -1    0    0  501  502  0.00000000000E+00 -0.00000000000E+00 -0.10977143724E+03  0.10977143724E+03  0.00000000000E+00 0.  1.
        -24    2    1    2    0    0 -0.34005836169E+02 -0.12914637188E+01  0.10960916983E+03  0.14510916154E+03  0.88794334730E+02 0.  0.
         23    2    1    2    0    0  0.23052018369E+02  0.31975883852E+02  0.42759358376E+02  0.10945834514E+03  0.92730328877E+02 0.  0.
         13    1    3    3    0    0  0.23084111503E+02 -0.24280342055E+02  0.40781786652E+02  0.52778455232E+02  0.00000000000E+00 0. -1.
        -14    1    3    3    0    0 -0.57089947671E+02  0.22988878336E+02  0.68827383174E+02  0.92330706305E+02  0.00000000000E+00 0.  1.
        -11    1    4    4    0    0  0.41395435237E+02 -0.16735457217E+02  0.35210019563E+02  0.56863020183E+02  0.00000000000E+00 0. -1.
         11    1    4    4    0    0 -0.18343416867E+02  0.48711341069E+02  0.75493388129E+01  0.52595324960E+02  0.00000000000E+00 0.  1.
         -1    1    1    2    0  502  0.10953817799E+02 -0.30684420133E+02 -0.54148833463E+02  0.63195062534E+02  0.00000000000E+00 0.  1.
<scales pt_clust_5="13000.00000" pt_clust_6="13000.00000" pt_clust_7="13000.00000" pt_clust_8="13000.00000" pt_clust_9="32.58097"></scales>
<clustering>
<clus scale="   32.581">  2  9  1 -1</clus>
<clus scale="   88.794">  5  6 -1 -1</clus>
<clus scale="   92.730">  7  8 -1 -1</clus>
<clus scale="   94.548">  1  5  2 -1</clus>
<clus scale="   32.581">  2  5  1 -1</clus>
</clustering>
</event>
<event>
 9    1  0.8989127E-005  0.9406402E+02  0.7546771E-02  0.1299527E+00
         -2   -1    0    0    0  501 -0.00000000000E+00  0.00000000000E+00  0.16634331655E+04  0.16634331655E+04  0.00000000000E+00 0.  1.
         21   -1    0    0  501  502  0.00000000000E+00 -0.00000000000E+00 -0.11230223268E+03  0.11230223268E+03  0.00000000000E+00 0. -1.
        -24    2    1    2    0    0 -0.17278216996E+01  0.20567653765E+02  0.16150324848E+04  0.16172080424E+04  0.81276759231E+02 0.  0.
         23    2    1    2    0    0 -0.31282087876E+02 -0.11689607646E+02 -0.14976740044E+02  0.98843932257E+02  0.91818321989E+02 0.  0.
         11    1    3    3    0    0  0.19435008893E+02 -0.52929642730E+01  0.11153615444E+03  0.11334041110E+03  0.00000000000E+00 0. -1.
        -12    1    3    3    0    0 -0.21162830592E+02  0.25860618038E+02  0.15034963304E+04  0.15038676313E+04  0.00000000000E+00 0.  1.
        -11    1    4    4    0    0 -0.55766274250E+02 -0.31737962320E+02 -0.80453798024E+00  0.64170264744E+02  0.00000000000E+00 0.  1.
         11    1    4    4    0    0  0.24484186373E+02  0.20048354674E+02 -0.14172202064E+02  0.34673667513E+02  0.00000000000E+00 0. -1.
         -1    1    1    2    0  502  0.33009909576E+02 -0.88780461183E+01 -0.48924811897E+02  0.59683423597E+02  0.00000000000E+00 0.  1.
<scales pt_clust_5="13000.00000" pt_clust_6="13000.00000" pt_clust_7="13000.00000" pt_clust_8="13000.00000" pt_clust_9="34.18295"></scales>
<clustering>
<clus scale="   34.183">  2  9  1 -1</clus>
<clus scale="   81.277">  5  6 -1 -1</clus>
<clus scale="   83.805">  1  5  2 -1</clus>
<clus scale="   91.818">  7  8 -1 -1</clus>
<clus scale="   34.183">  2  5  1 -1</clus>
</clustering>
</event>
<event>
 9    1  0.6014990E-005  0.1104913E+03  0.7546771E-02  0.1263427E+00
         -4   -1    0    0    0  501 -0.00000000000E+00  0.00000000000E+00  0.32857637518E+03  0.32857637518E+03  0.00000000000E+00 0.  1.
         21   -1    0    0  501  502  0.00000000000E+00 -0.00000000000E+00 -0.13583233239E+03  0.13583233239E+03  0.00000000000E+00 0.  1.
        -24    2    1    2    0    0  0.51610180354E+02  0.50298684591E+02  0.25916759325E+03  0.28069500179E+03  0.80176519304E+02 0.  0.
         23    2    1    2    0    0 -0.28201801340E+02  0.20027647783E+02 -0.45917898327E+02  0.10680969416E+03  0.90018937487E+02 0.  0.
         13    1    3    3    0    0 -0.17213703552E+02  0.22639922424E+02  0.38298375236E+02  0.47703702405E+02  0.00000000000E+00 0. -1.
        -14    1    3    3    0    0  0.68823883906E+02  0.27658762167E+02  0.22086921801E+03  0.23299129938E+03  0.00000000000E+00 0.  1.
        -11    1    4    4    0    0 -0.17851085896E+02 -0.35259069112E+02 -0.12824169471E+02  0.41549037834E+02  0.00000000000E+00 0. -1.
         11    1    4    4    0    0 -0.10350715444E+02  0.55286716895E+02 -0.33093728856E+02  0.65260656331E+02  0.00000000000E+00 0.  1.
         -3    1    1    2    0  502 -0.23408379014E+02 -0.70326332374E+02 -0.20505652139E+02  0.76904011618E+02  0.00000000000E+00 0.  1.
<scales pt_clust_5="13000.00000" pt_clust_6="13000.00000" pt_clust_7="13000.00000" pt_clust_8="13000.00000" pt_clust_9="74.11980"></scales>
<clustering>
<clus scale="   74.120">  2  9  1 -1</clus>
<clus scale="   80.177">  5  6 -1 -1</clus>
<clus scale="   90.019">  7  8 -1 -1</clus>
<clus scale="  102.631">  1  5  2 -1</clus>
<clus scale="   74.120">  2  5  1 -1</clus>
</clustering>
</event>
<event>
 9    1  0.6014990E-005  0.1359468E+03  0.7546771E-02  0.1221221E+00
         21   -1    0    0  501  502  0.00000000000E+00  0.00000000000E+00  0.42915018107E+03  0.42915018107E+03  0.00000000000E+00 0.  1.
          1   -1    0    0  502    0 -0.00000000000E+00 -0.00000000000E+00 -0.45795116882E+03  0.45795116882E+03  0.00000000000E+00 0. -1.
        -24    2    1    2    0    0  0.87922258741E+02  0.50047455943E+02 -0.42997968870E+03  0.44894454581E+03  0.80209731907E+02 0.  0.
         23    2    1    2    0    0 -0.92447317849E+02 -0.73495264872E+02  0.30860284998E+03  0.34255050676E+03  0.90316499772E+02 0.  0.
         11    1    3    3    0    0  0.99579311192E+02  0.54347319455E+02 -0.41009819491E+03  0.42549994103E+03  0.00000000000E+00 0. -1.
        -12    1    3    3    0    0 -0.11657052451E+02 -0.42998635128E+01 -0.19881493794E+02  0.23444604785E+02  0.00000000000E+00 0.  1.
        -11    1    4    4    0    0 -0.18829501145E+02 -0.10713509579E+02  0.28453657417E+01  0.21850068811E+02  0.00000000000E+00 0. -1.
         11    1    4    4    0    0 -0.73617816704E+02 -0.62781755293E+02  0.30575748424E+03  0.32070043795E+03  0.00000000000E+00 0.  1.
          2    1    1    2  501    0  0.45250591075E+01  0.23447808929E+02  0.92575850972E+02  0.95606297317E+02  0.00000000000E+00 0. -1.
<scales pt_clust_5="13000.00000" pt_clust_6="13000.00000" pt_clust_7="13000.00000" pt_clust_8="13000.00000" pt_clust_9="23.88045"></scales>
<clustering>
<clus scale="   23.880">  1  9  2 -1</clus>
<clus scale="   80.210">  5  6 -1 -1</clus>
<clus scale="   90.316">  7  8 -1 -1</clus>
<clus scale="  129.453">  2  5  1 -1</clus>
<clus scale="   23.880">  1  5  2 -1</clus>
</clustering>
</event>
<event>
 9    1  0.6014990E-005  0.1437094E+03  0.7546771E-02  0.1209885E+00
         21   -1    0    0  501  502  0.00000000000E+00  0.00000000000E+00  0.13161398310E+03  0.13161398310E+03  0.00000000000E+00 0. -1.
          1   -1    0    0  502    0 -0.00000000000E+00 -0.00000000000E+00 -0.33078364321E+03  0.33078364321E+03  0.00000000000E+00 0. -1.
        -24    2    1    2    0    0  0.10644498704E+03  0.46364930831E+02 -0.35051580450E+02  0.14491709583E+03  0.79322816978E+02 0.  0.
         23    2    1    2    0    0 -0.12216299391E+03  0.22946459341E+02 -0.15106810406E+02  0.15238818387E+03  0.86853933617E+02 0.  0.
         11    1    3    3    0    0  0.11957042673E+03  0.42408284473E+02 -0.32614206182E+02  0.13099326695E+03  0.00000000000E+00 0. -1.
        -12    1    3    3    0    0 -0.13125439687E+02  0.39566463583E+01 -0.24373742683E+01  0.13923828881E+02  0.00000000000E+00 0.  1.
        -11    1    4    4    0    0 -0.12439424426E+03  0.98555073421E+00  0.20749739146E+01  0.12441545255E+03  0.00000000000E+00 0. -1.
         11    1    4    4    0    0  0.22312503547E+01  0.21960908606E+02 -0.17181784321E+02  0.27972731318E+02  0.00000000000E+00 0.  1.
          2    1    1    2  501    0  0.15718006866E+02 -0.69311390171E+02 -0.14901126925E+03  0.16509234662E+03  0.00000000000E+00 0. -1.
<scales pt_clust_5="13000.00000" pt_clust_6="13000.00000" pt_clust_7="13000.00000" pt_clust_8="13000.00000" pt_clust_9="71.07130"></scales>
<clustering>
<clus scale="   71.071">  1  9  2 -1</clus>
<clus scale="   79.323">  5  6 -1 -1</clus>
<clus scale="   86.854">  7  8 -1 -1</clus>
<clus scale="  139.287">  2  5  1 -1</clus>
<clus scale="   71.071">  1  5  2 -1</clus>
</clustering>
</event>
<event>
 9    1  0.6014990E-005  0.2898137E+03  0.7546771E-02  0.1090791E+00
         21   -1    0    0  501  502  0.00000000000E+00  0.00000000000E+00  0.50599428155E+03  0.50599428155E+03  0.00000000000E+00 0.  1.
          3   -1    0    0  502    0 -0.00000000000E+00 -0.00000000000E+00 -0.28885509956E+03  0.28885509956E+03  0.00000000000E+00 0. -1.
         23    2    1    2    0    0 -0.51332946593E+02 -0.28593505285E+03 -0.10685256295E+03  0.32259248931E+03  0.90854378532E+02 0.  0.
        -24    2    1    2    0    0  0.52463412744E+02  0.23664212304E+03  0.16188238428E+03  0.30281511509E+03  0.82092530212E+02 0.  0.
         11    1    4    4    0    0  0.11381135530E+02  0.13103371907E+03  0.42518175053E+02  0.13822865473E+03  0.00000000000E+00 0. -1.
        -12    1    4    4    0    0  0.41082277214E+02  0.10560840397E+03  0.11936420923E+03  0.16458646036E+03  0.00000000000E+00 0.  1.
        -11    1    3    3    0    0 -0.56761179405E+02 -0.14450212657E+03 -0.91542874725E+02  0.18022983655E+03  0.00000000000E+00 0.  1.
         11    1    3    3    0    0  0.54282328115E+01 -0.14143292628E+03 -0.15309688223E+02  0.14236265276E+03  0.00000000000E+00 0. -1.
          4    1    1    2  501    0 -0.11304661506E+01  0.49292929814E+02  0.16210936065E+03  0.16944177670E+03  0.00000000000E+00 0. -1.
<scales pt_clust_5="13000.00000" pt_clust_6="13000.00000" pt_clust_7="13000.00000" pt_clust_8="13000.00000" pt_clust_9="49.30589"></scales>
<clustering>
<clus scale="   49.306">  1  9  2 -1</clus>
<clus scale="   82.093">  5  6 -1 -1</clus>
<clus scale="   90.854">  7  8 -1 -1</clus>
<clus scale="  287.187">  1  5  2 -1</clus>
<clus scale="   49.306">  1  5  2 -1</clus>
</clustering>
</event>
<event>
 9    1  0.6014990E-005  0.2228173E+03  0.7546771E-02  0.1155487E+00
          1   -1    0    0  502    0 -0.00000000000E+00  0.00000000000E+00  0.60105448654E+03  0.60105448654E+03  0.00000000000E+00 0. -1.
         21   -1    0    0  501  502  0.00000000000E+00 -0.00000000000E+00 -0.15707126603E+03  0.15707126603E+03  0.00000000000E+00 0. -1.
        -24    2    1    2    0    0  0.74252962295E+02  0.63779791118E+02  0.25587715039E+03  0.28534925160E+03  0.79810495111E+02 0.  0.
         23    2    1    2    0    0 -0.69480453124E+02  0.16453076149E+03  0.10098650602E+03  0.22836229572E+03  0.10026544204E+03 0.  0.
         13    1    3    3    0    0  0.91474704259E+02  0.50485255454E+02  0.20837986755E+03  0.23310630995E+03  0.00000000000E+00 0. -1.
        -14    1    3    3    0    0 -0.17221741964E+02  0.13294535664E+02  0.47497282839E+02  0.52242941647E+02  0.00000000000E+00 0.  1.
        -11    1    4    4    0    0 -0.87387592044E+01  0.29228168069E+02  0.70684581053E+02  0.76986763276E+02  0.00000000000E+00 0.  1.
         11    1    4    4    0    0 -0.60741693919E+02  0.13530259342E+03  0.30301924965E+02  0.15137553245E+03  0.00000000000E+00 0. -1.
          2    1    1    2  501    0 -0.47725091713E+01 -0.22831055261E+03  0.87119564100E+02  0.24441420524E+03  0.00000000000E+00 0. -1.
<scales pt_clust_5="13000.00000" pt_clust_6="13000.00000" pt_clust_7="13000.00000" pt_clust_8="13000.00000" pt_clust_9="198.98353"></scales>
<clustering>
<clus scale="   79.810">  5  6 -1 -1</clus>
<clus scale="  100.265">  7  8 -1 -1</clus>
<clus scale="  126.298">  1  5  2 -1</clus>
<clus scale="  198.984">  2  9  1 -1</clus>
<clus scale="  198.984">  2  5  1 -1</clus>
</clustering>
</event>
<event>
 9    1  0.6014990E-005  0.9137037E+02  0.7546771E-02  0.1304982E+00
          1   -1    0    0  502    0 -0.00000000000E+00  0.00000000000E+00  0.10027529853E+03  0.10027529853E+03  0.00000000000E+00 0. -1.
         21   -1    0    0  501  502  0.00000000000E+00 -0.00000000000E+00 -0.29825192272E+03  0.29825192272E+03  0.00000000000E+00 0.  1.
         23    2    1    2    0    0 -0.28803593328E+02  0.75980093011E+01  0.19148795975E+02  0.97053555823E+02  0.90362268545E+02 0.  0.
        -24    2    1    2    0    0 -0.13455160492E+02 -0.13116803025E+02 -0.36851209247E+01  0.83820223690E+02  0.81603663629E+02 0.  0.
         13    1    4    4    0    0 -0.42414786673E+01  0.30643811188E+02 -0.19288125054E+02  0.36456344764E+02  0.00000000000E+00 0. -1.
        -14    1    4    4    0    0 -0.92136818245E+01 -0.43760614213E+02  0.15603004129E+02  0.47363878926E+02  0.00000000000E+00 0.  1.
        -13    1    3    3    0    0 -0.32840495262E+02 -0.32883893191E+02 -0.93196550853E+01  0.47399414884E+02  0.00000000000E+00 0. -1.
         13    1    3    3    0    0  0.40369019335E+01  0.40481902492E+02  0.28468451061E+02  0.49654140939E+02  0.00000000000E+00 0.  1.
          2    1    1    2  501    0  0.42258753820E+02  0.55187937239E+01 -0.21344029925E+03  0.21765344174E+03  0.00000000000E+00 0. -1.
<scales pt_clust_5="13000.00000" pt_clust_6="13000.00000" pt_clust_7="13000.00000" pt_clust_8="13000.00000" pt_clust_9="42.61759"></scales>
<clustering>
<clus scale="   42.618">  2  9  1 -1</clus>
<clus scale="   81.604">  5  6 -1 -1</clus>
<clus scale="   82.719">  2  5  1 -1</clus>
<clus scale="   90.362">  7  8 -1 -1</clus>
<clus scale="   42.618">  2  5  1 -1</clus>
</clustering>
</event>
<event>
 9    1  0.6014990E-005  0.1005295E+03  0.7546771E-02  0.1285127E+00
         21   -1    0    0  501  502  0.00000000000E+00  0.00000000000E+00  0.74332170067E+02  0.74332170067E+02  0.00000000000E+00 0. -1.
          1   -1    0    0  502    0 -0.00000000000E+00 -0.00000000000E+00 -0.21101868809E+03  0.21101868809E+03  0.00000000000E+00 0. -1.
         23    2    1    2    0    0  0.12287565742E+02  0.30539079206E+02 -0.10430263373E+03  0.14311760819E+03  0.92303795918E+02 0.  0.
        -24    2    1    2    0    0  0.29714834400E+01 -0.52363977761E+02 -0.51913158409E+02  0.10920966253E+03  0.80504400461E+02 0.  0.
         13    1    4    4    0    0 -0.30115431240E+02 -0.48559764049E+02 -0.49870286487E+02  0.75842174004E+02  0.00000000000E+00 0. -1.
        -14    1    4    4    0    0  0.33086914680E+02 -0.38042137121E+01 -0.20428719222E+01  0.33367488529E+02  0.00000000000E+00 0.  1.
        -11    1    3    3    0    0  0.10263622238E+02 -0.17308006740E+02 -0.91303874871E+02  0.93494954972E+02  0.00000000000E+00 0.  1.
         11    1    3    3    0    0  0.20239435041E+01  0.47847085946E+02 -0.12998758862E+02  0.49622653222E+02  0.00000000000E+00 0. -1.
          2    1    1    2  501    0 -0.15259049182E+02  0.21824898556E+02  0.19529274121E+02  0.33023587428E+02  0.00000000000E+00 0. -1.
<scales pt_clust_5="13000.00000" pt_clust_6="13000.00000" pt_clust_7="13000.00000" pt_clust_8="13000.00000" pt_clust_9="26.63015"></scales>
<clustering>
<clus scale="   26.630">  1  9  2 -1</clus>
<clus scale="   80.504">  5  6 -1 -1</clus>
<clus scale="   89.817">  1  5  2 -1</clus>
<clus scale="   92.304">  7  8 -1 -1</clus>
<clus scale="   26.630">  1  5  2 -1</clus>
</clustering>
</event>
<event>
 9    1  0.6014990E-005  0.1927264E+03  0.7546771E-02  0.1157582E+00
          1   -1    0    0  502    0 -0.00000000000E+00  0.00000000000E+00  0.83178179707E+03  0.83178179707E+03  0.00000000000E+00 0. -1.
         21   -1    0    0  501  502  0.00000000000E+00 -0.00000000000E+00 -0.67159853834E+02  0.67159853834E+02  0.00000000000E+00 0.  1.
        -24    2    1    2    0    0 -0.87021563681E+02  0.15077530657E+03  0.48970639285E+03  0.52580621679E+03  0.79711233886E+02 0.  0.
         23    2    1    2    0    0  0.35381735594E+02 -0.15373000402E+03  0.14812816496E+03  0.23620317646E+03  0.94684771556E+02 0.  0.
         13    1    3    3    0    0 -0.89341110584E+02  0.15742992033E+03  0.48398883396E+03  0.51673126986E+03  0.00000000000E+00 0. -1.
        -14    1    3    3    0    0  0.23195469026E+01 -0.66546137645E+01  0.57175588900E+01  0.90749469337E+01  0.00000000000E+00 0.  1.
        -11    1    4    4    0    0  0.51996594214E+02 -0.36151615893E+02  0.35810174078E+02  0.72752688672E+02  0.00000000000E+00 0. -1.
         11    1    4    4    0    0 -0.16614858619E+02 -0.11757838813E+03  0.11231799089E+03  0.16345048779E+03  0.00000000000E+00 0.  1.
          2    1    1    2  501    0  0.51639828087E+02  0.29546974525E+01  0.12678738542E+03  0.13693225765E+03  0.00000000000E+00 0. -1.
<scales pt_clust_5="13000.00000" pt_clust_6="13000.00000" pt_clust_7="13000.00000" pt_clust_8="13000.00000" pt_clust_9="51.72431"></scales>
<clustering>
<clus scale="   51.724">  2  9  1 -1</clus>
<clus scale="   79.711">  5  6 -1 -1</clus>
<clus scale="   94.685">  7  8 -1 -1</clus>
<clus scale="  185.828">  1  5  2 -1</clus>
<clus scale="   51.724">  2  5  1 -1</clus>
</clustering>
</event>
<event>
 9    1  0.6014990E-005  0.1858611E+03  0.7546771E-02  0.1165517E+00
         21   -1    0    0  501  502  0.00000000000E+00  0.00000000000E+00  0.15795222125E+03  0.15795222125E+03  0.00000000000E+00 0. -1.
          1   -1    0    0  502    0 -0.00000000000E+00 -0.00000000000E+00 -0.49174288666E+03  0.49174288666E+03  0.00000000000E+00 0. -1.
        -24    2    1    2    0    0  0.11864789335E+03  0.67466095426E+02 -0.21907369026E+03  0.27111003528E+03  0.82935956229E+02 0.  0.
         23    2    1    2    0    0 -0.21722723332E+03 -0.34470135315E+01 -0.86595176250E+02  0.25772496883E+03  0.10827687756E+03 0.  0.
         11    1    3    3    0    0  0.63559347737E+02  0.76975573931E+02 -0.16783032511E+03  0.19527428836E+03  0.00000000000E+00 0. -1.
        -12    1    3    3    0    0  0.55088545613E+02 -0.95094785046E+01 -0.51243365154E+02  0.75835746924E+02  0.00000000000E+00 0.  1.
        -11    1    4    4    0    0 -0.10353972449E+03  0.21891023745E+02  0.10144240198E+02  0.10631367305E+03  0.00000000000E+00 0. -1.
         11    1    4    4    0    0 -0.11368750883E+03 -0.25338037277E+02 -0.96739416448E+02  0.15141129578E+03  0.00000000000E+00 0.  1.
          2    1    1    2  501    0  0.98579339968E+02 -0.64019081895E+02 -0.28121798901E+02  0.12086010379E+03  0.00000000000E+00 0. -1.
<scales pt_clust_5="13000.00000" pt_clust_6="13000.00000" pt_clust_7="13000.00000" pt_clust_8="13000.00000" pt_clust_9="117.54288"></scales>
<clustering>
<clus scale="   82.936">  5  6 -1 -1</clus>
<clus scale="  108.277">  7  8 -1 -1</clus>
<clus scale="  117.543">  1  9  2 -1</clus>
<clus scale="  172.334">  2  5  1 -1</clus>
<clus scale="  117.543">  1  5  2 -1</clus>
</clustering>
</event>
<event>
 9    1  0.6014990E-005  0.9540238E+02  0.7546771E-02  0.1297701E+00
         21   -1    0    0  501  502  0.00000000000E+00  0.00000000000E+00  0.25110470860E+02  0.25110470860E+02  0.00000000000E+00 0. -1.
          1   -1    0    0  502    0 -0.00000000000E+00 -0.00000000000E+00 -0.73647355927E+03  0.73647355927E+03  0.00000000000E+00 0. -1.
        -24    2    1    2    0    0  0.68293568043E+01  0.15768356291E+02 -0.16834249669E+03  0.18692521571E+03  0.79413845797E+02 0.  0.
         23    2    1    2    0    0  0.53979135471E+02 -0.16318346402E+02 -0.21061309063E+03  0.23673467795E+03  0.92224716346E+02 0.  0.
         13    1    3    3    0    0 -0.20793659076E+02  0.34417200531E+02 -0.13022416951E+03  0.13629106454E+03  0.00000000000E+00 0. -1.
        -14    1    3    3    0    0  0.27623015881E+02 -0.18648844240E+02 -0.38118327177E+02  0.50634151169E+02  0.00000000000E+00 0.  1.
        -13    1    4    4    0    0  0.75493118107E+02 -0.30313123450E+02 -0.14469124742E+03  0.16599293182E+03  0.00000000000E+00 0. -1.
         13    1    4    4    0    0 -0.21513982636E+02  0.13994777047E+02 -0.65921843209E+02  0.70741746130E+02  0.00000000000E+00 0.  1.
          2    1    1    2  501    0 -0.60808492276E+02  0.54999011103E+00 -0.33240750110E+03  0.33792413647E+03  0.00000000000E+00 0. -1.
<scales pt_clust_5="13000.00000" pt_clust_6="13000.00000" pt_clust_7="13000.00000" pt_clust_8="13000.00000" pt_clust_9="60.81101"></scales>
<clustering>
<clus scale="   60.811">  1  9  2 -1</clus>
<clus scale="   79.414">  5  6 -1 -1</clus>
<clus scale="   83.083">  2  5  1 -1</clus>
<clus scale="   92.225">  7  8 -1 -1</clus>
<clus scale="   60.811">  1  5  2 -1</clus>
</clustering>
</event>
<event>
 9    1  0.6014990E-005  0.1494551E+03  0.7546771E-02  0.1202832E+00
         21   -1    0    0  501  502  0.00000000000E+00  0.00000000000E+00  0.48657578802E+02  0.48657578802E+02  0.00000000000E+00 0. -1.
         -2   -1    0    0    0  501 -0.00000000000E+00 -0.00000000000E+00 -0.51430675229E+03  0.51430675229E+03  0.00000000000E+00 0.  1.
         23    2    1    2    0    0  0.58923559403E+02  0.10705004290E+03 -0.23414087580E+03  0.27918206584E+03  0.90492975562E+02 0.  0.
        -24    2    1    2    0    0 -0.72970684503E+02 -0.90799459444E+02 -0.19249421473E+03  0.23924574254E+03  0.81334125606E+02 0.  0.
         13    1    4    4    0    0  0.33899953455E+01 -0.40353534781E+02 -0.22870293888E+02  0.46507528211E+02  0.00000000000E+00 0. -1.
        -14    1    4    4    0    0 -0.76360679849E+02 -0.50445924663E+02 -0.16962392084E+03  0.19273821433E+03  0.00000000000E+00 0.  1.
        -11    1    3    3    0    0  0.78553069335E+02  0.10078173686E+03 -0.21921718077E+03  0.25373946388E+03  0.00000000000E+00 0.  1.
         11    1    3    3    0    0 -0.19629509933E+02  0.62683060464E+01 -0.14923695029E+02  0.25442601955E+02  0.00000000000E+00 0. -1.
         -1    1    1    2    0  502  0.14047125100E+02 -0.16250583459E+02 -0.39014082955E+02  0.44536522711E+02  0.00000000000E+00 0.  1.
<scales pt_clust_5="13000.00000" pt_clust_6="13000.00000" pt_clust_7="13000.00000" pt_clust_8="13000.00000" pt_clust_9="21.48031"></scales>
<clustering>
<clus scale="   21.480">  1  9  2 -1</clus>
<clus scale="   81.334">  5  6 -1 -1</clus>
<clus scale="   90.493">  7  8 -1 -1</clus>
<clus scale="  144.094">  1  5  2 -1</clus>
<clus scale="   21.480">  1  5  2 -1</clus>
</clustering>
</event>
<event>
 9    1  0.6014990E-005  0.1008511E+03  0.7546771E-02  0.1282559E+00
         21   -1    0    0  501  502  0.00000000000E+00  0.00000000000E+00  0.12786811665E+03  0.12786811665E+03  0.00000000000E+00 0.  1.
         -2   -1    0    0    0  501 -0.00000000000E+00 -0.00000000000E+00 -0.20783774717E+03  0.20783774717E+03  0.00000000000E+00 0.  1.
        -24    2    1    2    0    0 -0.49006097058E+02 -0.23726371314E+02 -0.13666130671E+03  0.16929111780E+03  0.83777273584E+02 0.  0.
         23    2    1    2    0    0  0.23436731404E+01 -0.12812305097E+02  0.15457355853E+02  0.94215536508E+02  0.92021679532E+02 0.  0.
         11    1    3    3    0    0 -0.95240355880E+01 -0.48899026628E+02 -0.91791658958E+02  0.10443912444E+03  0.00000000000E+00 0. -1.
        -12    1    3    3    0    0 -0.39482061470E+02  0.25172655314E+02 -0.44869647754E+02  0.64851993362E+02  0.00000000000E+00 0.  1.
        -11    1    4    4    0    0  0.44102708678E+02 -0.36433976451E+01 -0.87129086648E+01  0.45102528051E+02  0.00000000000E+00 0. -1.
         11    1    4    4    0    0 -0.41759035538E+02 -0.91689074523E+01  0.24170264518E+02  0.49113008458E+02  0.00000000000E+00 0.  1.
         -1    1    1    2    0  502  0.46662423918E+02  0.36538676412E+02  0.41234320336E+02  0.72199209506E+02  0.00000000000E+00 0.  1.
<scales pt_clust_5="13000.00000" pt_clust_6="13000.00000" pt_clust_7="13000.00000" pt_clust_8="13000.00000" pt_clust_9="59.26598"></scales>
<clustering>
<clus scale="   59.266">  1  9  2 -1</clus>
<clus scale="   83.777">  5  6 -1 -1</clus>
<clus scale="   92.022">  7  8 -1 -1</clus>
<clus scale="   93.389">  2  5  1 -1</clus>
<clus scale="   59.266">  1  5  2 -1</clus>
</clustering>
</event>
<event>
 9    1  0.6014990E-005  0.1071570E+03  0.7546771E-02  0.1269500E+00
         21   -1    0    0  501  502  0.00000000000E+00  0.00000000000E+00  0.24495815684E+03  0.24495815684E+03  0.00000000000E+00 0. -1.
          1   -1    0    0  502    0 -0.00000000000E+00 -0.00000000000E+00 -0.89989011364E+02  0.89989011364E+02  0.00000000000E+00 0. -1.
         23    2    1    2    0    0  0.29196294688E+01  0.48697194173E+02 -0.15635404164E+02  0.10659722387E+03  0.93480272343E+02 0.  0.
        -24    2    1    2    0    0  0.33699044578E+02 -0.63714280626E+02  0.13481191772E+03  0.17498747930E+03  0.85154151933E+02 0.  0.
         11    1    4    4    0    0 -0.14884658316E+02 -0.23497298050E+02  0.98195862298E+02  0.10205931335E+03  0.00000000000E+00 0. -1.
        -12    1    4    4    0    0  0.48583702894E+02 -0.40216982575E+02  0.36616055423E+02  0.72928165951E+02  0.00000000000E+00 0.  1.
        -11    1    3    3    0    0 -0.42311873079E+02  0.35792110063E+02  0.41365244335E+01  0.55574099908E+02  0.00000000000E+00 0.  1.
         11    1    3    3    0    0  0.45231502548E+02  0.12905084111E+02 -0.19771928597E+02  0.51023123964E+02  0.00000000000E+00 0. -1.
          2    1    1    2  501    0 -0.36618674046E+02  0.15017086453E+02  0.35792631917E+02  0.53362465029E+02  0.00000000000E+00 0. -1.
<scales pt_clust_5="13000.00000" pt_clust_6="13000.00000" pt_clust_7="13000.00000" pt_clust_8="13000.00000" pt_clust_9="39.57828"></scales>
<clustering>
<clus scale="   39.578">  1  9  2 -1</clus>
<clus scale="   85.154">  5  6 -1 -1</clus>
<clus scale="   93.480">  7  8 -1 -1</clus>
<clus scale="   99.977">  1  5  2 -1</clus>
<clus scale="   39.578">  1  5  2 -1</clus>
</clustering>
</event>
<event>
 9    1  0.6014990E-005  0.9507451E+02  0.7546771E-02  0.1297842E+00
         21   -1    0    0  501  502  0.00000000000E+00  0.00000000000E+00  0.22734928847E+03  0.22734928847E+03  0.00000000000E+00 0.  1.
         -4   -1    0    0    0  501 -0.00000000000E+00 -0.00000000000E+00 -0.27456204007E+03  0.27456204007E+03  0.00000000000E+00 0.  1.
        -24    2    1    2    0    0 -0.22130393662E+02 -0.56347839204E+01 -0.24370536025E+03  0.25757806586E+03  0.80203817129E+02 0.  0.
         23    2    1    2    0    0  0.47209593528E+02 -0.43662602784E+01  0.99159344438E+02  0.14332459240E+03  0.91986701465E+02 0.  0.
         13    1    3    3    0    0  0.29692899503E+02 -0.74439761462E+01 -0.72658787351E+02  0.78844026032E+02  0.00000000000E+00 0. -1.
        -14    1    3    3    0    0 -0.51823293165E+02  0.18091922257E+01 -0.17104657290E+03  0.17873403983E+03  0.00000000000E+00 0.  1.
        -11    1    4    4    0    0  0.27581505826E+02 -0.45007917020E+02  0.29927269832E+02  0.60680256573E+02  0.00000000000E+00 0.  1.
         11    1    4    4    0    0  0.19628087702E+02  0.40641656742E+02  0.69232074606E+02  0.82644335824E+02  0.00000000000E+00 0. -1.
         -3    1    1    2    0  502 -0.25079199866E+02  0.10001044199E+02  0.97333264214E+02  0.10100867029E+03  0.00000000000E+00 0.  1.
<scales pt_clust_5="13000.00000" pt_clust_6="13000.00000" pt_clust_7="13000.00000" pt_clust_8="13000.00000" pt_clust_9="26.99976"></scales>
<clustering>
<clus scale="   27.000">  1  9  2 -1</clus>
<clus scale="   80.204">  5  6 -1 -1</clus>
<clus scale="   83.727">  2  5  1 -1</clus>
<clus scale="   91.987">  7  8 -1 -1</clus>
<clus scale="   27.000">  1  5  2 -1</clus>
</clustering>
</event>
<event>
 9    1  0.6014990E-005  0.1132809E+03  0.7546771E-02  0.1258228E+00
          1   -1    0    0  502    0 -0.00000000000E+00  0.00000000000E+00  0.30745265296E+02  0.30745265296E+02  0.00000000000E+00 0. -1.
         21   -1    0    0  501  502  0.00000000000E+00 -0.00000000000E+00 -0.54884043669E+03  0.54884043669E+03  0.00000000000E+00 0. -1.
         23    2    1    2    0    0 -0.53874475381E+02  0.99961920302E+01 -0.18655399236E+03  0.21533549364E+03  0.92545123062E+02 0.  0.
        -24    2    1    2    0    0  0.69675083451E+02 -0.40328277295E+02 -0.23525424481E+03  0.26206964114E+03  0.82794624850E+02 0.  0.
         11    1    4    4    0    0  0.81713798489E+02 -0.38590772558E+02 -0.23271347832E+03  0.24964365720E+03  0.00000000000E+00 0. -1.
        -12    1    4    4    0    0 -0.12038715037E+02 -0.17375047373E+01 -0.25407664872E+01  0.12425983937E+02  0.00000000000E+00 0.  1.
        -11    1    3    3    0    0 -0.14063316721E+02  0.42445560864E+02 -0.13642668940E+03  0.14356755934E+03  0.00000000000E+00 0.  1.
         11    1    3    3    0    0 -0.39811158660E+02 -0.32449368834E+02 -0.50127302964E+02  0.71767934303E+02  0.00000000000E+00 0. -1.
          2    1    1    2  501    0 -0.15800608070E+02  0.30332085265E+02 -0.96286934230E+02  0.10218056721E+03  0.00000000000E+00 0. -1.
<scales pt_clust_5="13000.00000" pt_clust_6="13000.00000" pt_clust_7="13000.00000" pt_clust_8="13000.00000" pt_clust_9="34.20080"></scales>
<clustering>
<clus scale="   34.201">  2  9  1 -1</clus>
<clus scale="   82.795">  5  6 -1 -1</clus>
<clus scale="   92.545">  7  8 -1 -1</clus>
<clus scale="  105.465">  2  5  1 -1</clus>
<clus scale="   34.201">  2  5  1 -1</clus>
</clustering>
</event>
<event>
 9    1  0.6014990E-005  0.9507632E+02  0.7546771E-02  0.1295148E+00
         21   -1    0    0  501  502  0.00000000000E+00  0.00000000000E+00  0.32860125800E+02  0.32860125800E+02  0.00000000000E+00 0.  1.
         -2   -1    0    0    0  501 -0.00000000000E+00 -0.00000000000E+00 -0.10245592506E+04  0.10245592506E+04  0.00000000000E+00 0.  1.
        -24    2    1    2    0    0 -0.25349803953E+02  0.15716089210E+02 -0.85004079961E+03  0.85471261490E+03  0.84111146978E+02 0.  0.
         23    2    1    2    0    0  0.33186915777E+01 -0.27751713824E+01 -0.15006956783E+03  0.17580720255E+03  0.91479954023E+02 0.  0.
         13    1    3    3    0    0  0.92912208962E+01 -0.18986581587E+02 -0.69748472718E+02  0.72881180785E+02  0.00000000000E+00 0. -1.
        -14    1    3    3    0    0 -0.34641024850E+02  0.34702670797E+02 -0.78029232689E+03  0.78183143412E+03  0.00000000000E+00 0.  1.
        -11    1    4    4    0    0  0.27152512712E+02  0.14454807452E+02 -0.14202402122E+03  0.14531697426E+03  0.00000000000E+00 0.  1.
         11    1    4    4    0    0 -0.23833821134E+02 -0.17229978834E+02 -0.80455466096E+01  0.30490228283E+02  0.00000000000E+00 0. -1.
         -1    1    1    2    0  502  0.22031112376E+02 -0.12940917827E+02  0.84112426765E+01  0.26899558920E+02  0.00000000000E+00 0.  1.
<scales pt_clust_5="13000.00000" pt_clust_6="13000.00000" pt_clust_7="13000.00000" pt_clust_8="13000.00000" pt_clust_9="25.55068"></scales>
<clustering>
<clus scale="   25.551">  1  9  2 -1</clus>
<clus scale="   84.111">  5  6 -1 -1</clus>
<clus scale="   88.009">  2  5  1 -1</clus>
<clus scale="   91.480">  7  8 -1 -1</clus>
<clus scale="   25.551">  1  5  2 -1</clus>
</clustering>
</event>
<event>
 9    1  0.6014990E-005  0.1077636E+03  0.7546771E-02  0.1265907E+00
         21   -1    0    0  501  502  0.00000000000E+00  0.00000000000E+00  0.67847775589E+02  0.67847775589E+02  0.00000000000E+00 0.  1.
         -4   -1    0    0    0  501 -0.00000000000E+00 -0.00000000000E+00 -0.40746726900E+03  0.40746726900E+03  0.00000000000E+00 0.  1.
        -24    2    1    2    0    0  0.55178362300E+02 -0.96159021167E+01 -0.29294605840E+03  0.31272519084E+03  0.94034752159E+02 0.  0.
         23    2    1    2    0    0 -0.45417349321E+02 -0.15581987524E+02 -0.71796025844E+02  0.12569330124E+03  0.91315949835E+02 0.  0.
         11    1    3    3    0    0 -0.14596385404E+02 -0.28137428568E+02 -0.49316488830E+02  0.58624955640E+02  0.00000000000E+00 0. -1.
        -12    1    3    3    0    0  0.69774747704E+02  0.18521526452E+02 -0.24362956957E+03  0.25410023520E+03  0.00000000000E+00 0.  1.
        -11    1    4    4    0    0 -0.65652855752E+02  0.59017355174E+01 -0.25268338057E+02  0.70594736763E+02  0.00000000000E+00 0. -1.
         11    1    4    4    0    0  0.20235506431E+02 -0.21483723042E+02 -0.46527687786E+02  0.55098564473E+02  0.00000000000E+00 0.  1.
         -3    1    1    2    0  502 -0.97610129784E+01  0.25197889641E+02  0.25122590837E+02  0.36896552510E+02  0.00000000000E+00 0.  1.
<scales pt_clust_5="13000.00000" pt_clust_6="13000.00000" pt_clust_7="13000.00000" pt_clust_8="13000.00000" pt_clust_9="27.02242"></scales>
<clustering>
<clus scale="   27.022">  1  9  2 -1</clus>
<clus scale="   91.316">  7  8 -1 -1</clus>
<clus scale="   94.035">  5  6 -1 -1</clus>
<clus scale="  105.400">  1  7  2 -1</clus>
<clus scale="   27.022">  1  5  2 -1</clus>
</clustering>
</event>
<event>
 9    1  0.6014990E-005  0.9308310E+02  0.7546771E-02  0.1298274E+00
         21   -1    0    0  501  502  0.00000000000E+00  0.00000000000E+00  0.49495768829E+02  0.49495768829E+02  0.00000000000E+00 0. -1.
          3   -1    0    0  502    0 -0.00000000000E+00 -0.00000000000E+00 -0.22152580116E+03  0.22152580116E+03  0.00000000000E+00 0. -1.
         23    2    1    2    0    0  0.90029345690E+01 -0.42206373560E+02 -0.96983026751E+02  0.13575757020E+03  0.84628479769E+02 0.  0.
        -24    2    1    2    0    0 -0.25659437107E+02  0.25985400555E+02 -0.48914022060E+02  0.10028555115E+03  0.79567345439E+02 0.  0.
         11    1    4    4    0    0 -0.51652418210E+02  0.86474745874E+01 -0.15674974639E+02  0.54666771934E+02  0.00000000000E+00 0. -1.
        -12    1    4    4    0    0  0.25992981103E+02  0.17337925968E+02 -0.33239047421E+02  0.45618779214E+02  0.00000000000E+00 0.  1.
        -13    1    3    3    0    0 -0.30181434452E+02 -0.78635009895E+01 -0.70969653322E+02  0.77520612266E+02  0.00000000000E+00 0.  1.
         13    1    3    3    0    0  0.39184369021E+02 -0.34342872570E+02 -0.26013373429E+02  0.58236957931E+02  0.00000000000E+00 0. -1.
          4    1    1    2  501    0  0.16656502538E+02  0.16220973005E+02 -0.26132983520E+02  0.34978448646E+02  0.00000000000E+00 0. -1.
<scales pt_clust_5="13000.00000" pt_clust_6="13000.00000" pt_clust_7="13000.00000" pt_clust_8="13000.00000" pt_clust_9="23.24994"></scales>
<clustering>
<clus scale="   23.250">  1  9  2 -1</clus>
<clus scale="   79.567">  5  6 -1 -1</clus>
<clus scale="   84.628">  7  8 -1 -1</clus>
<clus scale="   88.507">  1  5  2 -1</clus>
<clus scale="   23.250">  1  5  2 -1</clus>
</clustering>
</event>
<event>
 9    1  0.6014990E-005  0.1967469E+03  0.7546771E-02  0.1153511E+00
         21   -1    0    0  501  502  0.00000000000E+00  0.00000000000E+00  0.95663592945E+02  0.95663592945E+02  0.00000000000E+00 0.  1.
         -2   -1    0    0    0  501 -0.00000000000E+00 -0.00000000000E+00 -0.10192779054E+04  0.10192779054E+04  0.00000000000E+00 0.  1.
        -24    2    1    2    0    0 -0.92778878812E+02 -0.16453406683E+03 -0.84918439753E+03  0.87372152464E+03  0.81214420565E+02 0.  0.
         23    2    1    2    0    0  0.77484282117E+02  0.89548640143E+02 -0.68117033529E+02  0.16443070772E+03  0.91513684530E+02 0.  0.
         11    1    3    3    0    0  0.12353521992E+02 -0.43130596840E+02 -0.17213392303E+03  0.17788464056E+03  0.00000000000E+00 0. -1.
        -12    1    3    3    0    0 -0.10513240080E+03 -0.12140346999E+03 -0.67705047450E+03  0.69583688408E+03  0.00000000000E+00 0.  1.
        -11    1    4    4    0    0  0.19445923394E+02  0.59015334234E+02  0.94556312433E+01  0.62851909864E+02  0.00000000000E+00 0.  1.
         11    1    4    4    0    0  0.58038358723E+02  0.30533305909E+02 -0.77572664772E+02  0.10157879785E+03  0.00000000000E+00 0. -1.
         -1    1    1    2    0  502  0.15294596695E+02  0.74985426689E+02 -0.63128814248E+01  0.76789266019E+02  0.00000000000E+00 0.  1.
<scales pt_clust_5="13000.00000" pt_clust_6="13000.00000" pt_clust_7="13000.00000" pt_clust_8="13000.00000" pt_clust_9="76.52933"></scales>
<clustering>
<clus scale="   76.529">  1  9  2 -1</clus>
<clus scale="   81.214">  5  6 -1 -1</clus>
<clus scale="   91.514">  7  8 -1 -1</clus>
<clus scale="  192.173">  2  5  1 -1</clus>
<clus scale="   76.529">  1  5  2 -1</clus>
</clustering>
</event>
<event>
 9    1  0.6014990E-005  0.9704226E+02  0.7546771E-02  0.1291924E+00
         21   -1    0    0  501  502  0.00000000000E+00  0.00000000000E+00  0.18582829832E+03  0.18582829832E+03  0.00000000000E+00 0. -1.
          3   -1    0    0  502    0 -0.00000000000E+00 -0.00000000000E+00 -0.11905883103E+03  0.11905883103E+03  0.00000000000E+00 0. -1.
        -24    2    1    2    0    0  0.23066924402E+02 -0.31988491722E+02 -0.66525625703E+02  0.11208679114E+03  0.81132257883E+02 0.  0.
         23    2    1    2    0    0 -0.26052061137E+02 -0.90991791396E+01  0.73375025249E+02  0.12008498731E+03  0.90967053906E+02 0.  0.
         11    1    3    3    0    0  0.50180850638E+02 -0.21589151513E+02 -0.62106062265E+02  0.82712587940E+02  0.00000000000E+00 0. -1.
        -12    1    3    3    0    0 -0.27113926235E+02 -0.10399340210E+02 -0.44195634379E+01  0.29374203201E+02  0.00000000000E+00 0.  1.
        -11    1    4    4    0    0  0.23318759882E+02 -0.32547641522E+02  0.25871009979E+02  0.47669934848E+02  0.00000000000E+00 0. -1.
         11    1    4    4    0    0 -0.49370821019E+02  0.23448462383E+02  0.47504015270E+02  0.72415052462E+02  0.00000000000E+00 0.  1.
          4    1    1    2  501    0  0.29851367351E+01  0.41087670862E+02  0.59920067738E+02  0.72715350896E+02  0.00000000000E+00 0. -1.
<scales pt_clust_5="13000.00000" pt_clust_6="13000.00000" pt_clust_7="13000.00000" pt_clust_8="13000.00000" pt_clust_9="41.19597"></scales>
<clustering>
<clus scale="   41.196">  1  9  2 -1</clus>
<clus scale="   81.132">  5  6 -1 -1</clus>
<clus scale="   87.890">  2  5  1 -1</clus>
<clus scale="   90.967">  7  8 -1 -1</clus>
<clus scale="   41.196">  1  5  2 -1</clus>
</clustering>
</event>
<event>
 9    1  0.6014990E-005  0.1085635E+03  0.7546771E-02  0.1268066E+00
         21   -1    0    0  501  502  0.00000000000E+00  0.00000000000E+00  0.38326484143E+03  0.38326484143E+03  0.00000000000E+00 0. -1.
          1   -1    0    0  502    0 -0.00000000000E+00 -0.00000000000E+00 -0.11150477310E+03  0.11150477310E+03  0.00000000000E+00 0. -1.
         23    2    1    2    0    0  0.40588347591E+02 -0.18696758079E+02 -0.34210472504E+00  0.10000846231E+03  0.89468389811E+02 0.  0.
        -24    2    1    2    0    0 -0.80860317789E+02  0.62164805038E+01 -0.71634156861E+01  0.11233088124E+03  0.77394293936E+02 0.  0.
         11    1    4    4    0    0 -0.91799906502E+02  0.11114679762E+01 -0.20784585525E+02  0.94130001542E+02  0.00000000000E+00 0. -1.
        -12    1    4    4    0    0  0.10939588713E+02  0.51050125275E+01  0.13621169839E+02  0.18200879701E+02  0.00000000000E+00 0.  1.
        -11    1    3    3    0    0 -0.24146485842E+01 -0.38308053781E+02 -0.25873024835E+02  0.46289857705E+02  0.00000000000E+00 0. -1.
         11    1    3    3    0    0  0.43002996176E+02  0.19611295702E+02  0.25530920110E+02  0.53718604606E+02  0.00000000000E+00 0.  1.
          2    1    1    2  501    0  0.40271970198E+02  0.12480277575E+02  0.27926558874E+03  0.28243027098E+03  0.00000000000E+00 0. -1.
<scales pt_clust_5="13000.00000" pt_clust_6="13000.00000" pt_clust_7="13000.00000" pt_clust_8="13000.00000" pt_clust_9="42.16146"></scales>
<clustering>
<clus scale="   42.161">  1  9  2 -1</clus>
<clus scale="   77.394">  5  6 -1 -1</clus>
<clus scale="   89.468">  7  8 -1 -1</clus>
<clus scale="   98.850">  1  5  2 -1</clus>
<clus scale="   42.161">  1  5  2 -1</clus>
</clustering>
</event>
<event>
 9    1  0.6014990E-005  0.1004209E+03  0.7546771E-02  0.1282997E+00
          1   -1    0    0  502    0 -0.00000000000E+00  0.00000000000E+00  0.51150530925E+03  0.51150530925E+03  0.00000000000E+00 0. -1.
         21   -1    0    0  501  502  0.00000000000E+00 -0.00000000000E+00 -0.41242789615E+02  0.41242789615E+02  0.00000000000E+00 0. -1.
        -24    2    1    2    0    0  0.34260686929E+02  0.44318104762E+02  0.13895154919E+03  0.17235810087E+03  0.85216740358E+02 0.  0.
         23    2    1    2    0    0  0.10391334216E+02 -0.25436514396E+02  0.82536716907E+02  0.12693596533E+03  0.92441514293E+02 0.  0.
         13    1    3    3    0    0  0.19036849952E+02  0.68250449610E+02  0.79539334226E+02  0.10652244466E+03  0.00000000000E+00 0. -1.
        -14    1    3    3    0    0  0.15223836977E+02 -0.23932344848E+02  0.59412214959E+02  0.65835656210E+02  0.00000000000E+00 0.  1.
        -13    1    4    4    0    0  0.38567219054E+02 -0.33689349630E+02  0.15106242073E+02  0.53391021844E+02  0.00000000000E+00 0. -1.
         13    1    4    4    0    0 -0.28175884838E+02  0.82528352339E+01  0.67430474834E+02  0.73544943484E+02  0.00000000000E+00 0.  1.
          2    1    1    2  501    0 -0.44652021146E+02 -0.18881590366E+02  0.24877425354E+03  0.25345403266E+03  0.00000000000E+00 0. -1.
<scales pt_clust_5="13000.00000" pt_clust_6="13000.00000" pt_clust_7="13000.00000" pt_clust_8="13000.00000" pt_clust_9="48.48010"></scales>
<clustering>
<clus scale="   48.480">  2  9  1 -1</clus>
<clus scale="   85.217">  5  6 -1 -1</clus>
<clus scale="   92.442">  7  8 -1 -1</clus>
<clus scale="   93.813">  1  5  2 -1</clus>
<clus scale="   48.480">  2  5  1 -1</clus>
</clustering>
</event>
<event>
 9    1  0.6014990E-005  0.1801431E+03  0.7546771E-02  0.1198506E+00
         21   -1    0    0  501  502  0.00000000000E+00  0.00000000000E+00  0.29175243126E+03  0.29175243126E+03  0.00000000000E+00 0. -1.
          3   -1    0    0  502    0 -0.00000000000E+00 -0.00000000000E+00 -0.16293848474E+03  0.16293848474E+03  0.00000000000E+00 0. -1.
        -24    2    1    2    0    0 -0.14291080470E+02  0.42175981895E+02  0.57222748959E+02  0.10697396028E+03  0.78650726319E+02 0.  0.
         23    2    1    2    0    0  0.92088690302E+02 -0.15086963535E+03  0.79076499127E+02  0.21384086324E+03  0.90735044633E+02 0.  0.
         13    1    3    3    0    0  0.26481304663E+02  0.36534417528E+02  0.45718772724E+02  0.64235732580E+02  0.00000000000E+00 0. -1.
        -14    1    3    3    0    0 -0.40772385133E+02  0.56415643672E+01  0.11503976235E+02  0.42738227703E+02  0.00000000000E+00 0.  1.
        -13    1    4    4    0    0  0.75223864909E+02 -0.98353155220E+02  0.82871239496E+01  0.12409935301E+03  0.00000000000E+00 0.  1.
         13    1    4    4    0    0  0.16864825393E+02 -0.52516480133E+02  0.70789375177E+02  0.89741510234E+02  0.00000000000E+00 0. -1.
          4    1    1    2  501    0 -0.77797609832E+02  0.10869365346E+03 -0.74853015678E+01  0.13387609248E+03  0.00000000000E+00 0. -1.
<scales pt_clust_5="13000.00000" pt_clust_6="13000.00000" pt_clust_7="13000.00000" pt_clust_8="13000.00000" pt_clust_9="155.62358"></scales>
<clustering>
<clus scale="   78.651">  5  6 -1 -1</clus>
<clus scale="   90.382">  2  5  1 -1</clus>
<clus scale="   90.735">  7  8 -1 -1</clus>
<clus scale="  155.624">  1  9  2 -1</clus>
<clus scale="  155.624">  1  5  2 -1</clus>
</clustering>
</event>
<event>
 9    1  0.6014990E-005  0.1572317E+03  0.7546771E-02  0.1195385E+00
         21   -1    0    0  501  502  0.00000000000E+00  0.00000000000E+00  0.98200488519E+02  0.98200488519E+02  0.00000000000E+00 0. -1.
         -2   -1    0    0    0  501 -0.00000000000E+00 -0.00000000000E+00 -0.65411653609E+03  0.65411653609E+03  0.00000000000E+00 0.  1.
        -24    2    1    2    0    0  0.38780685736E+02 -0.11291156939E+03 -0.28300802068E+03  0.32484290820E+03  0.10571854684E+03 0.  0.
         23    2    1    2    0    0 -0.13288090225E+03  0.54493945360E+02 -0.44900441958E+02  0.17398855798E+03  0.87344400833E+02 0.  0.
         13    1    3    3    0    0  0.21936623296E+02 -0.92262674498E+01 -0.90265552637E+00  0.23815000308E+02  0.00000000000E+00 0. -1.
        -14    1    3    3    0    0  0.16844062440E+02 -0.10368530194E+03 -0.28210536516E+03  0.30102790789E+03  0.00000000000E+00 0.  1.
        -11    1    4    4    0    0 -0.13576168578E+03  0.27329805804E+02 -0.26352744680E+02  0.14097028326E+03  0.00000000000E+00 0. -1.
         11    1    4    4    0    0  0.28807835226E+01  0.27164139556E+02 -0.18547697278E+02  0.33018274725E+02  0.00000000000E+00 0.  1.
         -1    1    1    2    0  502  0.94100216517E+02  0.58417624031E+02 -0.22800758493E+03  0.25348555843E+03  0.00000000000E+00 0.  1.
<scales pt_clust_5="13000.00000" pt_clust_6="13000.00000" pt_clust_7="13000.00000" pt_clust_8="13000.00000" pt_clust_9="110.75866"></scales>
<clustering>
<clus scale="   87.344">  7  8 -1 -1</clus>
<clus scale="  105.719">  5  6 -1 -1</clus>
<clus scale="  110.759">  1  9  2 -1</clus>
<clus scale="  145.514">  1  7  2 -1</clus>
<clus scale="  110.759">  1  5  2 -1</clus>
</clustering>
</event>
<event>
 9    1  0.6014990E-005  0.9136669E+02  0.7546771E-02  0.1303938E+00
          1   -1    0    0  502    0 -0.00000000000E+00  0.00000000000E+00  0.10554650846E+04  0.10554650846E+04  0.00000000000E+00 0. -1.
         21   -1    0    0  501  502  0.00000000000E+00 -0.00000000000E+00 -0.15340410354E+02  0.15340410354E+02  0.00000000000E+00 0. -1.
        -24    2    1    2    0    0  0.26705998243E+00 -0.14703327474E+02  0.42750737182E+03  0.43584595188E+03  0.83563638322E+02 0.  0.
         23    2    1    2    0    0  0.35727973498E+02 -0.27548951832E+02  0.28017374077E+03  0.29791411701E+03  0.90664564535E+02 0.  0.
         11    1    3    3    0    0  0.32851597497E+02 -0.24399850626E+02  0.12720111377E+03  0.13362149345E+03  0.00000000000E+00 0. -1.
        -12    1    3    3    0    0 -0.32584537515E+02  0.96965231524E+01  0.30030625805E+03  0.30222445843E+03  0.00000000000E+00 0.  1.
        -13    1    4    4    0    0 -0.16342821824E+00 -0.52482177985E+02  0.19805594074E+03  0.20489158445E+03  0.00000000000E+00 0. -1.
         13    1    4    4    0    0  0.35891401716E+02  0.24933226153E+02  0.82117800025E+02  0.93022532563E+02  0.00000000000E+00 0.  1.
          2    1    1    2  501    0 -0.35995033480E+02  0.42252279306E+02  0.33244356168E+03  0.33704542608E+03  0.00000000000E+00 0. -1.
<scales pt_clust_5="13000.00000" pt_clust_6="13000.00000" pt_clust_7="13000.00000" pt_clust_8="13000.00000" pt_clust_9="55.50586"></scales>
<clustering>
<clus scale="   55.506">  2  9  1 -1</clus>
<clus scale="   83.564">  5  6 -1 -1</clus>
<clus scale="   84.325">  1  5  2 -1</clus>
<clus scale="   90.665">  7  8 -1 -1</clus>
<clus scale="   55.506">  2  5  1 -1</clus>
</clustering>
</event>
<event>
 9    1  0.6014990E-005  0.1263906E+03  0.7546771E-02  0.1235745E+00
          1   -1    0    0  502    0 -0.00000000000E+00  0.00000000000E+00  0.10628168136E+04  0.10628168136E+04  0.00000000000E+00 0. -1.
         21   -1    0    0  501  502  0.00000000000E+00 -0.00000000000E+00 -0.81522974150E+02  0.81522974150E+02  0.00000000000E+00 0.  1.
        -24    2    1    2    0    0 -0.62204015686E+02 -0.60261721868E+02  0.60974984754E+03  0.62108757626E+03  0.80337327093E+02 0.  0.
         23    2    1    2    0    0  0.10841613455E+03  0.42412100243E+02 -0.91617922654E+00  0.14751194481E+03  0.90587471525E+02 0.  0.
         13    1    3    3    0    0 -0.45853125938E+02 -0.72630813658E+02  0.34449692188E+03  0.35504348105E+03  0.00000000000E+00 0. -1.
        -14    1    3    3    0    0 -0.16350889748E+02  0.12369091791E+02  0.26525292566E+03  0.26604409521E+03  0.00000000000E+00 0.  1.
        -11    1    4    4    0    0  0.90241038309E+02 -0.51916756481E+01 -0.20904978425E+02  0.92776164040E+02  0.00000000000E+00 0.  1.
         11    1    4    4    0    0  0.18175096245E+02  0.47603775891E+02  0.19988799198E+02  0.54735780765E+02  0.00000000000E+00 0. -1.
          2    1    1    2  501    0 -0.46212118867E+02  0.17849621625E+02  0.37246017116E+03  0.37574026671E+03  0.00000000000E+00 0. -1.
<scales pt_clust_5="13000.00000" pt_clust_6="13000.00000" pt_clust_7="13000.00000" pt_clust_8="13000.00000" pt_clust_9="49.53959"></scales>
<clustering>
<clus scale="   49.540">  2  9  1 -1</clus>
<clus scale="   80.337">  5  6 -1 -1</clus>
<clus scale="   90.587">  7  8 -1 -1</clus>
<clus scale="  119.258">  1  5  2 -1</clus>
<clus scale="   49.540">  2  5  1 -1</clus>
</clustering>
</event>
<event>
 9    1  0.6014990E-005  0.9222354E+02  0.7546771E-02  0.1303938E+00
         21   -1    0    0  501  502  0.00000000000E+00  0.00000000000E+00  0.64897593237E+03  0.64897593237E+03  0.00000000000E+00 0.  1.
         -4   -1    0    0    0  501 -0.00000000000E+00 -0.00000000000E+00 -0.22322034909E+02  0.22322034909E+02  0.00000000000E+00 0.  1.
         23    2    1    2    0    0  0.27868496991E+02  0.35095820703E+01  0.19777419329E+03  0.21893845306E+03  0.89612746885E+02 0.  0.
        -24    2    1    2    0    0  0.26539984229E+01  0.41044974972E+02  0.24444693190E+03  0.26018204736E+03  0.79048476130E+02 0.  0.
         13    1    4    4    0    0  0.23558353716E+02 -0.15901418235E+02  0.75193299350E+02  0.80385840786E+02  0.00000000000E+00 0. -1.
        -14    1    4    4    0    0 -0.20904355293E+02  0.56946393207E+02  0.16925363255E+03  0.17979620658E+03  0.00000000000E+00 0.  1.
        -13    1    3    3    0    0 -0.29649425047E+02  0.51594591007E+01  0.34291132887E+02  0.45624447596E+02  0.00000000000E+00 0. -1.
         13    1    3    3    0    0  0.57517922037E+02 -0.16498770303E+01  0.16348306040E+03  0.17331400546E+03  0.00000000000E+00 0.  1.
         -3    1    1    2    0  502 -0.30522495413E+02 -0.44554557042E+02  0.18443277227E+03  0.19217746686E+03  0.00000000000E+00 0.  1.
<scales pt_clust_5="13000.00000" pt_clust_6="13000.00000" pt_clust_7="13000.00000" pt_clust_8="13000.00000" pt_clust_9="54.00677"></scales>
<clustering>
<clus scale="   54.007">  1  9  2 -1</clus>
<clus scale="   79.048">  5  6 -1 -1</clus>
<clus scale="   81.996">  1  5  2 -1</clus>
<clus scale="   89.613">  7  8 -1 -1</clus>
<clus scale="   54.007">  1  5  2 -1</clus>
</clustering>
</event>
<event>
 9    1  0.6014990E-005  0.1379606E+03  0.7546771E-02  0.1218386E+00
         21   -1    0    0  501  502  0.00000000000E+00  0.00000000000E+00  0.19663737352E+03  0.19663737352E+03  0.00000000000E+00 0. -1.
         -4   -1    0    0    0  501 -0.00000000000E+00 -0.00000000000E+00 -0.21781211745E+03  0.21781211745E+03  0.00000000000E+00 0.  1.
        -24    2    1    2    0    0  0.36133364601E+02  0.99085496749E+02 -0.14875110318E+03  0.19906763329E+03  0.79859102330E+02 0.  0.
         23    2    1    2    0    0 -0.14949373428E+02 -0.10050006225E+03  0.67534794163E+02  0.15169707129E+03  0.90151576461E+02 0.  0.
         13    1    3    3    0    0  0.18425797649E+02 -0.91870585047E+01 -0.12309743491E+02  0.23988369010E+02  0.00000000000E+00 0. -1.
        -14    1    3    3    0    0  0.17707566952E+02  0.10827255525E+03 -0.13644135969E+03  0.17507926428E+03  0.00000000000E+00 0.  1.
        -13    1    4    4    0    0 -0.37396237375E+02 -0.51685246317E+02  0.73860835872E+02  0.97597470932E+02  0.00000000000E+00 0. -1.
         13    1    4    4    0    0  0.22446863947E+02 -0.48814815933E+02 -0.63260417093E+01  0.54099600362E+02  0.00000000000E+00 0.  1.
         -3    1    1    2    0  502 -0.21183991173E+02  0.14145655009E+01  0.60041565087E+02  0.63684786375E+02  0.00000000000E+00 0.  1.
<scales pt_clust_5="13000.00000" pt_clust_6="13000.00000" pt_clust_7="13000.00000" pt_clust_8="13000.00000" pt_clust_9="21.23117"></scales>
<clustering>
<clus scale="   21.231">  1  9  2 -1</clus>
<clus scale="   79.859">  5  6 -1 -1</clus>
<clus scale="   90.152">  7  8 -1 -1</clus>
<clus scale="  131.466">  2  5  1 -1</clus>
<clus scale="   21.231">  1  5  2 -1</clus>
</clustering>
</event>
<event>
 9    1  0.6014990E-005  0.2289996E+03  0.7546771E-02  0.1128473E+00
         21   -1    0    0  501  502  0.00000000000E+00  0.00000000000E+00  0.15123755895E+03  0.15123755895E+03  0.00000000000E+00 0. -1.
          1   -1    0    0  502    0 -0.00000000000E+00 -0.00000000000E+00 -0.92665275034E+03  0.92665275034E+03  0.00000000000E+00 0. -1.
         23    2    1    2    0    0  0.24460620319E+03  0.11283039869E+03 -0.66129559261E+03  0.72063488338E+03  0.97159049140E+02 0.  0.
        -24    2    1    2    0    0 -0.11801475434E+03 -0.68199481492E+02 -0.14994259024E+03  0.21832882511E+03  0.81277573707E+02 0.  0.
         13    1    4    4    0    0 -0.12685148737E+03 -0.57143509554E+02 -0.14942210217E+03  0.20416572961E+03  0.00000000000E+00 0. -1.
        -14    1    4    4    0    0  0.88367330336E+01 -0.11055971938E+02 -0.52048807627E+00  0.14163095496E+02  0.00000000000E+00 0.  1.
        -13    1    3    3    0    0  0.55307396901E+02  0.60281510270E+02 -0.27996183199E+03  0.29167001218E+03  0.00000000000E+00 0. -1.
         13    1    3    3    0    0  0.18929880629E+03  0.52548888424E+02 -0.38133376062E+03  0.42896487120E+03  0.00000000000E+00 0.  1.
          2    1    1    2  501    0 -0.12659144885E+03 -0.44630917201E+02  0.35822991460E+02  0.13892660080E+03  0.00000000000E+00 0. -1.
<scales pt_clust_5="13000.00000" pt_clust_6="13000.00000" pt_clust_7="13000.00000" pt_clust_8="13000.00000" pt_clust_9="134.22859"></scales>
<clustering>
<clus scale="   81.278">  5  6 -1 -1</clus>
<clus scale="   97.159">  7  8 -1 -1</clus>
<clus scale="  134.229">  1  9  2 -1</clus>
<clus scale="  222.726">  1  5  2 -1</clus>
<clus scale="  134.229">  1  5  2 -1</clus>
</clustering>
</event>
<event>
 9    1  0.6014990E-005  0.1092237E+03  0.7546771E-02  0.1268026E+00
         -2   -1    0    0    0  501 -0.00000000000E+00  0.00000000000E+00  0.81772522738E+02  0.81772522738E+02  0.00000000000E+00 0.  1.
         21   -1    0    0  501  502  0.00000000000E+00 -0.00000000000E+00 -0.31417736042E+03  0.31417736042E+03  0.00000000000E+00 0. -1.
         23    2    1    2    0    0 -0.58584293335E+02  0.35158914939E+01  0.24088486886E+02  0.11397033443E+03  0.94681048850E+02 0.  0.
        -24    2    1    2    0    0  0.38123588238E+02  0.75346110596E+01 -0.16564406794E+03  0.18820139834E+03  0.80446446474E+02 0.  0.
         13    1    4    4    0    0 -0.19771739373E+02 -0.12042478471E+02 -0.77926293161E+02  0.81292374374E+02  0.00000000000E+00 0. -1.
        -14    1    4    4    0    0  0.57895327611E+02  0.19577089531E+02 -0.87717774780E+02  0.10690902397E+03  0.00000000000E+00 0.  1.
        -13    1    3    3    0    0  0.29697197037E+01 -0.37370652426E+02  0.73434067486E+01  0.38200923032E+02  0.00000000000E+00 0.  1.
         13    1    3    3    0    0 -0.61554013039E+02  0.40886543920E+02  0.16745080138E+02  0.75769411399E+02  0.00000000000E+00 0. -1.
         -1    1    1    2    0  502  0.20460705097E+02 -0.11050502553E+02 -0.90849256625E+02  0.93778150382E+02  0.00000000000E+00 0.  1.
<scales pt_clust_5="13000.00000" pt_clust_6="13000.00000" pt_clust_7="13000.00000" pt_clust_8="13000.00000" pt_clust_9="23.25412"></scales>
<clustering>
<clus scale="   23.254">  2  9  1 -1</clus>
<clus scale="   80.446">  5  6 -1 -1</clus>
<clus scale="   94.681">  7  8 -1 -1</clus>
<clus scale="   97.144">  2  5  1 -1</clus>
<clus scale="   23.254">  2  5  1 -1</clus>
</clustering>
</event>
<event>
 9    1  0.6014990E-005  0.9921144E+02  0.7546771E-02  0.1291142E+00
         21   -1    0    0  501  502  0.00000000000E+00  0.00000000000E+00  0.14915713610E+03  0.14915713610E+03  0.00000000000E+00 0. -1.
          3   -1    0    0  502    0 -0.00000000000E+00 -0.00000000000E+00 -0.13161836381E+03  0.13161836381E+03  0.00000000000E+00 0. -1.
        -24    2    1    2    0    0  0.12490386199E+02 -0.38126753537E+02 -0.54318320811E+02  0.98204798255E+02  0.71302477810E+02 0.  0.
         23    2    1    2    0    0  0.19958893506E+02  0.66157282693E+02  0.80762009919E+02  0.13877613736E+03  0.89225391958E+02 0.  0.
         13    1    3    3    0    0  0.16224660792E+02 -0.56495249600E+02 -0.53439256871E+02  0.79439958586E+02  0.00000000000E+00 0. -1.
        -14    1    3    3    0    0 -0.37342745931E+01  0.18368496063E+02 -0.87906393995E+00  0.18764839668E+02  0.00000000000E+00 0.  1.
        -13    1    4    4    0    0 -0.24938663194E+02  0.32420335109E+02  0.60974360429E+00  0.40907051199E+02  0.00000000000E+00 0.  1.
         13    1    4    4    0    0  0.44897556700E+02  0.33736947584E+02  0.80152266315E+02  0.97869086157E+02  0.00000000000E+00 0. -1.
          4    1    1    2  501    0 -0.32449279704E+02 -0.28030529156E+02 -0.89049168188E+01  0.43794564293E+02  0.00000000000E+00 0. -1.
<scales pt_clust_5="13000.00000" pt_clust_6="13000.00000" pt_clust_7="13000.00000" pt_clust_8="13000.00000" pt_clust_9="42.87969"></scales>
<clustering>
<clus scale="   42.880">  1  9  2 -1</clus>
<clus scale="   71.302">  5  6 -1 -1</clus>
<clus scale="   83.461">  2  5  1 -1</clus>
<clus scale="   89.225">  7  8 -1 -1</clus>
<clus scale="   42.880">  1  5  2 -1</clus>
</clustering>
</event>
<event>
 9    1  0.6014990E-005  0.1004287E+03  0.7546771E-02  0.1287664E+00
          1   -1    0    0  502    0 -0.00000000000E+00  0.00000000000E+00  0.25717079450E+03  0.25717079450E+03  0.00000000000E+00 0. -1.
         21   -1    0    0  501  502  0.00000000000E+00 -0.00000000000E+00 -0.93077437520E+02  0.93077437520E+02  0.00000000000E+00 0.  1.
        -24    2    1    2    0    0 -0.48032144383E+01 -0.24058857412E+02  0.19962344953E+03  0.21741203807E+03  0.82562541181E+02 0.  0.
         23    2    1    2    0    0  0.25962591338E+02  0.10392857063E+02 -0.35766174943E+02  0.10764622510E+03  0.97603395844E+02 0.  0.
         13    1    3    3    0    0 -0.43202677376E+02 -0.18318746317E+02  0.11929114792E+03  0.12818902360E+03  0.00000000000E+00 0. -1.
        -14    1    3    3    0    0  0.38399462937E+02 -0.57401110949E+01  0.80332301607E+02  0.89223014468E+02  0.00000000000E+00 0.  1.
        -11    1    4    4    0    0  0.24332607897E+02  0.41508939425E+02 -0.53371226485E+02  0.71857885272E+02  0.00000000000E+00 0.  1.
         11    1    4    4    0    0  0.16299834411E+01 -0.31116082362E+02  0.17605051542E+02  0.35788339824E+02  0.00000000000E+00 0. -1.
          2    1    1    2  501    0 -0.21159376900E+02  0.13666000348E+02  0.23608239867E+00  0.25189968861E+02  0.00000000000E+00 0. -1.
<scales pt_clust_5="13000.00000" pt_clust_6="13000.00000" pt_clust_7="13000.00000" pt_clust_8="13000.00000" pt_clust_9="25.18886"></scales>
<clustering>
<clus scale="   25.189">  2  9  1 -1</clus>
<clus scale="   82.563">  5  6 -1 -1</clus>
<clus scale="   85.884">  1  5  2 -1</clus>
<clus scale="   97.603">  7  8 -1 -1</clus>
<clus scale="   25.189">  2  5  1 -1</clus>
</clustering>
</event>
<event>
 9    1  0.6014990E-005  0.1106553E+03  0.7546771E-02  0.1265393E+00
         -2   -1    0    0    0  501 -0.00000000000E+00  0.00000000000E+00  0.20620472489E+03  0.20620472489E+03  0.00000000000E+00 0.  1.
         21   -1    0    0  501  502  0.00000000000E+00 -0.00000000000E+00 -0.68126986969E+03  0.68126986969E+03  0.00000000000E+00 0. -1.
        -24    2    1    2    0    0  0.79415862605E+01  0.56586164345E+02  0.18124643796E+03  0.20594691831E+03  0.79364974026E+02 0.  0.
         23    2    1    2    0    0  0.18403806451E+02 -0.95858001474E+02 -0.45886409905E+03  0.47849598975E+03  0.94205595729E+02 0.  0.
         11    1    3    3    0    0  0.33880235916E+02  0.69989041229E+01  0.11022733717E+03  0.11552887477E+03  0.00000000000E+00 0. -1.
        -12    1    3    3    0    0 -0.25938649655E+02  0.49587260222E+02  0.71019100787E+02  0.90418043546E+02  0.00000000000E+00 0.  1.
        -13    1    4    4    0    0 -0.27985226313E+02 -0.71101453500E+02 -0.34065863884E+03  0.34912304106E+03  0.00000000000E+00 0. -1.
         13    1    4    4    0    0  0.46389032764E+02 -0.24756547974E+02 -0.11820546021E+03  0.12937294869E+03  0.00000000000E+00 0.  1.
         -1    1    1    2    0  502 -0.26345392712E+02  0.39271837129E+02 -0.19744748370E+03  0.20303168652E+03  0.00000000000E+00 0.  1.
<scales pt_clust_5="13000.00000" pt_clust_6="13000.00000" pt_clust_7="13000.00000" pt_clust_8="13000.00000" pt_clust_9="47.29014"></scales>
<clustering>
<clus scale="   47.290">  2  9  1 -1</clus>
<clus scale="   79.365">  5  6 -1 -1</clus>
<clus scale="   94.206">  7  8 -1 -1</clus>
<clus scale="   98.330">  1  5  2 -1</clus>
<clus scale="   47.290">  2  5  1 -1</clus>
</clustering>
</event>
<event>
 9    1  0.6014990E-005  0.9895527E+02  0.7546771E-02  0.1288328E+00
         21   -1    0    0  501  502  0.00000000000E+00  0.00000000000E+00  0.31024503439E+02  0.31024503439E+02  0.00000000000E+00 0.  1.
         -4   -1    0    0    0  501 -0.00000000000E+00 -0.00000000000E+00 -0.11026661068E+04  0.11026661068E+04  0.00000000000E+00 0.  1.
        -24    2    1    2    0    0  0.11824525774E+02 -0.40897740821E+02 -0.93868643503E+03  0.94295450970E+03  0.78857716374E+02 0.  0.
         23    2    1    2    0    0  0.78246437947E+01  0.29293446533E+02 -0.13770729681E+03  0.16742661238E+03  0.90272032647E+02 0.  0.
         11    1    3    3    0    0  0.14012564512E+02 -0.16734826076E+02 -0.58587243173E+02  0.62520967928E+02  0.00000000000E+00 0. -1.
        -12    1    3    3    0    0 -0.21880387387E+01 -0.24162914745E+02 -0.88009919186E+03  0.88043354177E+03  0.00000000000E+00 0.  1.
        -11    1    4    4    0    0  0.29669130400E+02  0.18477278248E+02 -0.85414786272E+01  0.35980883359E+02  0.00000000000E+00 0.  1.
         11    1    4    4    0    0 -0.21844486605E+02  0.10816168285E+02 -0.12916581818E+03  0.13144572902E+03  0.00000000000E+00 0. -1.
         -3    1    1    2    0  502 -0.19649169568E+02  0.11604294288E+02  0.47521285267E+01  0.23309488115E+02  0.00000000000E+00 0.  1.
<scales pt_clust_5="13000.00000" pt_clust_6="13000.00000" pt_clust_7="13000.00000" pt_clust_8="13000.00000" pt_clust_9="22.81994"></scales>
<clustering>
<clus scale="   22.820">  1  9  2 -1</clus>
<clus scale="   78.858">  5  6 -1 -1</clus>
<clus scale="   88.666">  2  5  1 -1</clus>
<clus scale="   90.272">  7  8 -1 -1</clus>
<clus scale="   22.820">  1  5  2 -1</clus>
</clustering>
</event>
<event>
 9    1  0.6014990E-005  0.7486434E+03  0.7546771E-02  0.9637481E-01
          1   -1    0    0  502    0 -0.00000000000E+00  0.00000000000E+00  0.41046526173E+03  0.41046526173E+03  0.00000000000E+00 0. -1.
         21   -1    0    0  501  502  0.00000000000E+00 -0.00000000000E+00 -0.12681540398E+04  0.12681540398E+04  0.00000000000E+00 0. -1.
        -24    2    1    2    0    0  0.91115532207E+02  0.21890618262E+03 -0.23437677072E+03  0.34510117143E+03  0.89108870888E+02 0.  0.
         23    2    1    2    0    0  0.35575134437E+02  0.43675819074E+03 -0.58119735229E+02  0.45865322626E+03  0.12231750068E+03 0.  0.
         11    1    3    3    0    0  0.71488696073E+02  0.22217672103E+03 -0.21680724022E+03  0.31855691555E+03  0.00000000000E+00 0. -1.
        -12    1    3    3    0    0  0.19626836134E+02 -0.32705384115E+01 -0.17569530499E+02  0.26544255878E+02  0.00000000000E+00 0.  1.
        -11    1    4    4    0    0 -0.31717150838E+02  0.11275635536E+03  0.19529110829E+02  0.11874914526E+03  0.00000000000E+00 0.  1.
         11    1    4    4    0    0  0.67292285275E+02  0.32400183538E+03 -0.77648846058E+02  0.33990408100E+03  0.00000000000E+00 0. -1.
          2    1    1    2  501    0 -0.12669066664E+03 -0.65566437335E+03 -0.56519227209E+03  0.87486490382E+03  0.00000000000E+00 0. -1.
<scales pt_clust_5="13000.00000" pt_clust_6="13000.00000" pt_clust_7="13000.00000" pt_clust_8="13000.00000" pt_clust_9="667.79211"></scales>
<clustering>
<clus scale="   89.109">  5  6 -1 -1</clus>
<clus scale="  122.318">  7  8 -1 -1</clus>
<clus scale="  228.134">  5  7 -1 -1</clus>
<clus scale="  667.792">  2  9  1 -1</clus>
<clus scale="  667.792">  2  5  1 -1</clus>
</clustering>
</event>
<event>
 9    1  0.6014990E-005  0.1029256E+03  0.7546771E-02  0.1278938E+00
          3   -1    0    0  502    0 -0.00000000000E+00  0.00000000000E+00  0.27050544249E+03  0.27050544249E+03  0.00000000000E+00 0. -1.
         21   -1    0    0  501  502  0.00000000000E+00 -0.00000000000E+00 -0.95058986166E+02  0.95058986166E+02  0.00000000000E+00 0. -1.
         23    2    1    2    0    0  0.88936129232E+00 -0.46512459213E+02  0.15613671261E+03  0.18610232729E+03  0.89951116561E+02 0.  0.
        -24    2    1    2    0    0  0.47573685809E+02  0.50797792998E+02  0.54865313896E+02  0.11920241675E+03  0.79720399739E+02 0.  0.
         13    1    4    4    0    0  0.11368522975E+02  0.64865558606E+02  0.25965217712E+02  0.70788251418E+02  0.00000000000E+00 0. -1.
        -14    1    4    4    0    0  0.36205162835E+02 -0.14067765609E+02  0.28900096184E+02  0.48414165329E+02  0.00000000000E+00 0.  1.
        -13    1    3    3    0    0 -0.20719477190E+02  0.79848003617E+01  0.33522744379E+01  0.22456435954E+02  0.00000000000E+00 0.  1.
         13    1    3    3    0    0  0.21608838483E+02 -0.54497259574E+02  0.15278443818E+03  0.16364589133E+03  0.00000000000E+00 0. -1.
          4    1    1    2  501    0 -0.48463047102E+02 -0.42853337849E+01 -0.35555570182E+02  0.60259684624E+02  0.00000000000E+00 0. -1.
<scales pt_clust_5="13000.00000" pt_clust_6="13000.00000" pt_clust_7="13000.00000" pt_clust_8="13000.00000" pt_clust_9="48.65214"></scales>
<clustering>
<clus scale="   48.652">  2  9  1 -1</clus>
<clus scale="   79.720">  5  6 -1 -1</clus>
<clus scale="   89.951">  7  8 -1 -1</clus>
<clus scale="   94.116">  2  5  1 -1</clus>
<clus scale="   48.652">  2  5  1 -1</clus>
</clustering>
</event>
<event>
 9    1  0.6014990E-005  0.1639513E+03  0.7546771E-02  0.1194705E+00
          1   -1    0    0  502    0 -0.00000000000E+00  0.00000000000E+00  0.12457426168E+04  0.12457426168E+04  0.00000000000E+00 0. -1.
         21   -1    0    0  501  502  0.00000000000E+00 -0.00000000000E+00 -0.44652581727E+02  0.44652581727E+02  0.00000000000E+00 0. -1.
        -24    2    1    2    0    0 -0.50020860015E+02  0.10212348683E+03  0.35515257912E+03  0.37829164980E+03  0.63560403200E+02 0.  0.
         23    2    1    2    0    0  0.13589433858E+03  0.29194408638E+02  0.29312343033E+03  0.33745409827E+03  0.92921140074E+02 0.  0.
         13    1    3    3    0    0 -0.51421007690E+02  0.66917960666E+02  0.30846584507E+03  0.31980198728E+03  0.00000000000E+00 0. -1.
        -14    1    3    3    0    0  0.14001476750E+01  0.35205526164E+02  0.46686734052E+02  0.58489662526E+02  0.00000000000E+00 0.  1.
        -11    1    4    4    0    0  0.98733654765E+02  0.61387842535E+02  0.22715947488E+03  0.25518273614E+03  0.00000000000E+00 0.  1.
         11    1    4    4    0    0  0.37160683818E+02 -0.32193433897E+02  0.65963955452E+02  0.82271362130E+02  0.00000000000E+00 0. -1.
          2    1    1    2  501    0 -0.85873478567E+02 -0.13131789547E+03  0.55281402565E+03  0.57464945049E+03  0.00000000000E+00 0. -1.
<scales pt_clust_5="13000.00000" pt_clust_6="13000.00000" pt_clust_7="13000.00000" pt_clust_8="13000.00000" pt_clust_9="135.07666"></scales>
<clustering>
<clus scale="   63.560">  5  6 -1 -1</clus>
<clus scale="   92.921">  7  8 -1 -1</clus>
<clus scale="  130.274">  1  5  2 -1</clus>
<clus scale="  135.077">  2  9  1 -1</clus>
<clus scale="  135.077">  2  5  1 -1</clus>
</clustering>
</event>
<event>
 9    1  0.6014990E-005  0.9751169E+02  0.7546771E-02  0.1289527E+00
          1   -1    0    0  502    0 -0.00000000000E+00  0.00000000000E+00  0.15974857753E+03  0.15974857753E+03  0.00000000000E+00 0. -1.
         21   -1    0    0  501  502  0.00000000000E+00 -0.00000000000E+00 -0.23851379559E+03  0.23851379559E+03  0.00000000000E+00 0. -1.
        -24    2    1    2    0    0  0.42615998110E+02 -0.74341828580E+01  0.11843624768E+03  0.14984287920E+03  0.80958960676E+02 0.  0.
         23    2    1    2    0    0 -0.21597020103E+02  0.22400283329E+02 -0.66230121831E+02  0.11493063848E+03  0.88625158127E+02 0.  0.
         13    1    3    3    0    0  0.30775116188E+02 -0.17660522633E+02  0.12709915575E+03  0.13195907407E+03  0.00000000000E+00 0. -1.
        -14    1    3    3    0    0  0.11840881922E+02  0.10226339774E+02 -0.86629080717E+01  0.17883805136E+02  0.00000000000E+00 0.  1.
        -11    1    4    4    0    0 -0.44092226275E+02 -0.11656284550E+02 -0.57150764392E+02  0.73117735591E+02  0.00000000000E+00 0.  1.
         11    1    4    4    0    0  0.22495206172E+02  0.34056567879E+02 -0.90793574389E+01  0.41812902888E+02  0.00000000000E+00 0. -1.
          2    1    1    2  501    0 -0.21018978007E+02 -0.14966100471E+02 -0.13097134391E+03  0.13348885544E+03  0.00000000000E+00 0. -1.
<scales pt_clust_5="13000.00000" pt_clust_6="13000.00000" pt_clust_7="13000.00000" pt_clust_8="13000.00000" pt_clust_9="25.80274"></scales>
<clustering>
<clus scale="   25.803">  2  9  1 -1</clus>
<clus scale="   80.959">  5  6 -1 -1</clus>
<clus scale="   88.625">  7  8 -1 -1</clus>
<clus scale="   90.601">  1  5  2 -1</clus>
<clus scale="   25.803">  2  5  1 -1</clus>
</clustering>
</event>
<event>
 9    1  0.6014990E-005  0.9519086E+02  0.7546771E-02  0.1298039E+00
         21   -1    0    0  501  502  0.00000000000E+00  0.00000000000E+00  0.19605037446E+02  0.19605037446E+02  0.00000000000E+00 0.  1.
         -2   -1    0    0    0  501 -0.00000000000E+00 -0.00000000000E+00 -0.60590300115E+03  0.60590300115E+03  0.00000000000E+00 0.  1.
        -24    2    1    2    0    0 -0.15286096515E+02  0.17995334669E+02 -0.31090290379E+03  0.32233039347E+03  0.81723742861E+02 0.  0.
         23    2    1    2    0    0  0.91738544860E+01  0.73219004186E+01 -0.24756226374E+03  0.26505958592E+03  0.93977336786E+02 0.  0.
         13    1    3    3    0    0  0.25883950506E+02  0.56840015391E+00 -0.39226886807E+02  0.47000538519E+02  0.00000000000E+00 0. -1.
        -14    1    3    3    0    0 -0.41170047021E+02  0.17426934515E+02 -0.27167601699E+03  0.27532985495E+03  0.00000000000E+00 0.  1.
        -11    1    4    4    0    0 -0.39926613589E+02  0.92784348379E+01 -0.73092139423E+02  0.83801459839E+02  0.00000000000E+00 0.  1.
         11    1    4    4    0    0  0.49100468075E+02 -0.19565344193E+01 -0.17447012432E+03  0.18125812609E+03  0.00000000000E+00 0. -1.
         -1    1    1    2    0  502  0.61122420290E+01 -0.25317235087E+02 -0.27832796162E+02  0.38118059202E+02  0.00000000000E+00 0.  1.
<scales pt_clust_5="13000.00000" pt_clust_6="13000.00000" pt_clust_7="13000.00000" pt_clust_8="13000.00000" pt_clust_9="26.04461"></scales>
<clustering>
<clus scale="   26.045">  1  9  2 -1</clus>
<clus scale="   81.724">  5  6 -1 -1</clus>
<clus scale="   83.116">  2  5  1 -1</clus>
<clus scale="   93.977">  7  8 -1 -1</clus>
<clus scale="   26.045">  1  5  2 -1</clus>
</clustering>
</event>
<event>
 9    1  0.6014990E-005  0.9648578E+02  0.7546771E-02  0.1291402E+00
         -2   -1    0    0    0  501 -0.00000000000E+00  0.00000000000E+00  0.88751584786E+02  0.88751584786E+02  0.00000000000E+00 0.  1.
         21   -1    0    0  501  502  0.00000000000E+00 -0.00000000000E+00 -0.19830770112E+03  0.19830770112E+03  0.00000000000E+00 0. -1.
        -24    2    1    2    0    0  0.12979830564E+02 -0.36694040353E+02  0.25751828773E+02  0.94104632230E+02  0.81716562110E+02 0.  0.
         23    2    1    2    0    0  0.12275629581E+02  0.41097782594E+02 -0.13535917360E+03  0.16731808142E+03  0.88507150419E+02 0.  0.
         11    1    3    3    0    0  0.10528485303E+02 -0.59775056328E+02  0.17570384757E+01  0.60720618788E+02  0.00000000000E+00 0. -1.
        -12    1    3    3    0    0  0.24513452606E+01  0.23081015976E+02  0.23994790297E+02  0.33384013442E+02  0.00000000000E+00 0.  1.
        -13    1    4    4    0    0 -0.31345080376E+02 -0.79466258668E+01 -0.37943965544E+02  0.49853860911E+02  0.00000000000E+00 0.  1.
         13    1    4    4    0    0  0.43620709957E+02  0.49044408461E+02 -0.97415208055E+02  0.11746422050E+03  0.00000000000E+00 0. -1.
         -1    1    1    2    0  502 -0.25255460145E+02 -0.44037422415E+01  0.51228493754E-01  0.25636572259E+02  0.00000000000E+00 0.  1.
<scales pt_clust_5="13000.00000" pt_clust_6="13000.00000" pt_clust_7="13000.00000" pt_clust_8="13000.00000" pt_clust_9="25.63653"></scales>
<clustering>
<clus scale="   25.637">  2  9  1 -1</clus>
<clus scale="   81.717">  5  6 -1 -1</clus>
<clus scale="   88.507">  7  8 -1 -1</clus>
<clus scale="   90.297">  1  5  2 -1</clus>
<clus scale="   25.637">  2  5  1 -1</clus>
</clustering>
</event>
<event>
 9    1  0.6014990E-005  0.1279375E+03  0.7546771E-02  0.1233754E+00
         21   -1    0    0  501  502  0.00000000000E+00  0.00000000000E+00  0.23013730896E+03  0.23013730896E+03  0.00000000000E+00 0. -1.
         -2   -1    0    0    0  501 -0.00000000000E+00 -0.00000000000E+00 -0.10859365549E+03  0.10859365549E+03  0.00000000000E+00 0.  1.
        -24    2    1    2    0    0 -0.12378397267E+01  0.96222975502E+02 -0.26631710029E+02  0.12771984148E+03  0.79641174452E+02 0.  0.
         23    2    1    2    0    0 -0.16359428193E+02 -0.72133594531E+02  0.10021040569E+03  0.15452573290E+03  0.91461414643E+02 0.  0.
         11    1    3    3    0    0 -0.15871264525E+01  0.27131088200E+02  0.28459803160E+02  0.39351941670E+02  0.00000000000E+00 0. -1.
        -12    1    3    3    0    0  0.34928672579E+00  0.69091887303E+02 -0.55091513189E+02  0.88367899815E+02  0.00000000000E+00 0.  1.
        -13    1    4    4    0    0 -0.42982590183E+02 -0.57501715345E+02  0.29592952371E+02  0.77651098875E+02  0.00000000000E+00 0.  1.
         13    1    4    4    0    0  0.26623161990E+02 -0.14631879185E+02  0.70617453321E+02  0.76874634024E+02  0.00000000000E+00 0. -1.
         -1    1    1    2    0  502  0.17597267920E+02 -0.24089380971E+02  0.47964957806E+02  0.56485390068E+02  0.00000000000E+00 0.  1.
<scales pt_clust_5="13000.00000" pt_clust_6="13000.00000" pt_clust_7="13000.00000" pt_clust_8="13000.00000" pt_clust_9="29.83223"></scales>
<clustering>
<clus scale="   29.832">  1  9  2 -1</clus>
<clus scale="   79.641">  5  6 -1 -1</clus>
<clus scale="   91.461">  7  8 -1 -1</clus>
<clus scale="  119.773">  2  5  1 -1</clus>
<clus scale="   29.832">  1  5  2 -1</clus>
</clustering>
</event>
<event>
 9    1  0.6014990E-005  0.1050501E+03  0.7546771E-02  0.1274066E+00
          1   -1    0    0  502    0 -0.00000000000E+00  0.00000000000E+00  0.40977416898E+03  0.40977416898E+03  0.00000000000E+00 0. -1.
         21   -1    0    0  501  502  0.00000000000E+00 -0.00000000000E+00 -0.42813958163E+02  0.42813958163E+02  0.00000000000E+00 0. -1.
        -24    2    1    2    0    0  0.46084783085E+02 -0.40764995301E+02  0.22891357905E+03  0.25039399671E+03  0.80685406610E+02 0.  0.
         23    2    1    2    0    0 -0.41752263226E+02  0.16951097296E+02  0.14544377157E+03  0.17688424810E+03  0.90019749783E+02 0.  0.
         11    1    3    3    0    0  0.14321345605E+02 -0.37715132244E+02  0.20882826321E+03  0.21268938774E+03  0.00000000000E+00 0. -1.
        -12    1    3    3    0    0  0.31763437480E+02 -0.30498630568E+01  0.20085315837E+02  0.37704608969E+02  0.00000000000E+00 0.  1.
        -13    1    4    4    0    0 -0.52420920021E+02  0.41290658020E+02  0.69159949393E+02  0.96103953590E+02  0.00000000000E+00 0.  1.
         13    1    4    4    0    0  0.10668656795E+02 -0.24339560724E+02  0.76283822182E+02  0.80780294507E+02  0.00000000000E+00 0. -1.
          2    1    1    2  501    0 -0.43325198592E+01  0.23813898006E+02 -0.73971398084E+01  0.25309882337E+02  0.00000000000E+00 0. -1.
<scales pt_clust_5="13000.00000" pt_clust_6="13000.00000" pt_clust_7="13000.00000" pt_clust_8="13000.00000" pt_clust_9="24.20480"></scales>
<clustering>
<clus scale="   24.205">  2  9  1 -1</clus>
<clus scale="   80.685">  5  6 -1 -1</clus>
<clus scale="   90.020">  7  8 -1 -1</clus>
<clus scale="   97.170">  1  5  2 -1</clus>
<clus scale="   24.205">  2  5  1 -1</clus>
</clustering>
</event>
<event>
 9    1  0.6014990E-005  0.9648093E+02  0.7546771E-02  0.1294883E+00
          3   -1    0    0  502    0 -0.00000000000E+00  0.00000000000E+00  0.75733054318E+03  0.75733054318E+03  0.00000000000E+00 0. -1.
         21   -1    0    0  501  502  0.00000000000E+00 -0.00000000000E+00 -0.20264491060E+02  0.20264491060E+02  0.00000000000E+00 0. -1.
        -24    2    1    2    0    0 -0.23795618425E+02  0.30312833181E+02  0.31928463666E+03  0.33154342104E+03  0.80580776360E+02 0.  0.
         23    2    1    2    0    0  0.38864873070E+01  0.35555078458E+01  0.15854121617E+03  0.18385146264E+03  0.92942437396E+02 0.  0.
         13    1    3    3    0    0 -0.46374787595E+02  0.86817461666E+01  0.10662263722E+03  0.11659494161E+03  0.00000000000E+00 0. -1.
        -14    1    3    3    0    0  0.22579169170E+02  0.21631087014E+02  0.21266199943E+03  0.21494847943E+03  0.00000000000E+00 0.  1.
        -13    1    4    4    0    0 -0.11404459369E+02 -0.42433361327E+02  0.64302778930E+02  0.77881314994E+02  0.00000000000E+00 0.  1.
         13    1    4    4    0    0  0.15290946676E+02  0.45988869172E+02  0.94238437239E+02  0.10597014764E+03  0.00000000000E+00 0. -1.
          4    1    1    2  501    0  0.19909131118E+02 -0.33868341026E+02  0.25924019930E+03  0.26220015056E+03  0.00000000000E+00 0. -1.
<scales pt_clust_5="13000.00000" pt_clust_6="13000.00000" pt_clust_7="13000.00000" pt_clust_8="13000.00000" pt_clust_9="39.28663"></scales>
<clustering>
<clus scale="   39.287">  2  9  1 -1</clus>
<clus scale="   80.581">  5  6 -1 -1</clus>
<clus scale="   84.638">  1  5  2 -1</clus>
<clus scale="   92.942">  7  8 -1 -1</clus>
<clus scale="   39.287">  2  5  1 -1</clus>
</clustering>
</event>
<event>
 9    1  0.6014990E-005  0.1315979E+03  0.7546771E-02  0.1226924E+00
         21   -1    0    0  501  502  0.00000000000E+00  0.00000000000E+00  0.17158464895E+03  0.17158464895E+03  0.00000000000E+00 0.  1.
          1   -1    0    0  502    0 -0.00000000000E+00 -0.00000000000E+00 -0.25257962970E+03  0.25257962970E+03  0.00000000000E+00 0. -1.
        -24    2    1    2    0    0 -0.11028095851E+03  0.51771533917E+01 -0.11022263599E+03  0.17555777003E+03  0.80515889162E+02 0.  0.
         23    2    1    2    0    0  0.48659439512E+02  0.17821207959E+01  0.10850900130E+03  0.14795277081E+03  0.88005124960E+02 0.  0.
         11    1    3    3    0    0 -0.39560303631E+02 -0.32929506439E+02 -0.21254874663E+02  0.55687877627E+02  0.00000000000E+00 0. -1.
        -12    1    3    3    0    0 -0.70720654878E+02  0.38106659831E+02 -0.88967761326E+02  0.11986989241E+03  0.00000000000E+00 0.  1.
        -11    1    4    4    0    0  0.13655632792E+02 -0.32933948729E+02  0.87271377518E+02  0.94273085341E+02  0.00000000000E+00 0.  1.
         11    1    4    4    0    0  0.35003806719E+02  0.34716069525E+02  0.21237623780E+02  0.53679685468E+02  0.00000000000E+00 0. -1.
          2    1    1    2  501    0  0.61621518997E+02 -0.69592741876E+01 -0.79281346057E+02  0.10065373780E+03  0.00000000000E+00 0. -1.
<scales pt_clust_5="13000.00000" pt_clust_6="13000.00000" pt_clust_7="13000.00000" pt_clust_8="13000.00000" pt_clust_9="62.01328"></scales>
<clustering>
<clus scale="   62.013">  1  9  2 -1</clus>
<clus scale="   80.516">  5  6 -1 -1</clus>
<clus scale="   88.005">  7  8 -1 -1</clus>
<clus scale="  126.712">  2  5  1 -1</clus>
<clus scale="   62.013">  1  5  2 -1</clus>
</clustering>
</event>
<event>
 9    1  0.6014990E-005  0.1170386E+03  0.7546771E-02  0.1251583E+00
         -2   -1    0    0    0  501 -0.00000000000E+00  0.00000000000E+00  0.36151595297E+03  0.36151595297E+03  0.00000000000E+00 0.  1.
         21   -1    0    0  501  502  0.00000000000E+00 -0.00000000000E+00 -0.49021576748E+02  0.49021576748E+02  0.00000000000E+00 0. -1.
        -24    2    1    2    0    0 -0.65056750592E+02 -0.21483491152E+02  0.13083496383E+03  0.16765955781E+03  0.79360055294E+02 0.  0.
         23    2    1    2    0    0  0.85279316577E+02  0.95238121175E+01  0.10512523890E+03  0.16281883245E+03  0.89974393659E+02 0.  0.
         13    1    3    3    0    0 -0.57447340778E+02  0.15219576028E+02  0.46801858256E+02  0.75645531217E+02  0.00000000000E+00 0. -1.
        -14    1    3    3    0    0 -0.76094098141E+01 -0.36703067180E+02  0.84033105572E+02  0.92014026595E+02  0.00000000000E+00 0.  1.
        -13    1    4    4    0    0  0.62225427202E+02  0.34141511053E+02  0.10771032671E+03  0.12899287208E+03  0.00000000000E+00 0.  1.
         13    1    4    4    0    0  0.23053889375E+02 -0.24617698936E+02 -0.25850878090E+01  0.33825960374E+02  0.00000000000E+00 0. -1.
         -1    1    1    2    0  502 -0.20222565985E+02  0.11959679035E+02  0.76534173488E+02  0.80059139448E+02  0.00000000000E+00 0.  1.
<scales pt_clust_5="13000.00000" pt_clust_6="13000.00000" pt_clust_7="13000.00000" pt_clust_8="13000.00000" pt_clust_9="23.49440"></scales>
<clustering>
<clus scale="   23.494">  2  9  1 -1</clus>
<clus scale="   79.360">  5  6 -1 -1</clus>
<clus scale="   89.974">  7  8 -1 -1</clus>
<clus scale="  109.090">  1  5  2 -1</clus>
<clus scale="   23.494">  2  5  1 -1</clus>
</clustering>
</event>
<event>
 9    1  0.6014990E-005  0.1123195E+03  0.7546771E-02  0.1260432E+00
         21   -1    0    0  501  502  0.00000000000E+00  0.00000000000E+00  0.27178479720E+02  0.27178479720E+02  0.00000000000E+00 0. -1.
         -2   -1    0    0    0  501 -0.00000000000E+00 -0.00000000000E+00 -0.71422474515E+03  0.71422474515E+03  0.00000000000E+00 0.  1.
        -24    2    1    2    0    0 -0.54727713332E+02 -0.12593122176E+02 -0.37715549049E+03  0.38961309470E+03  0.79989938228E+02 0.  0.
         23    2    1    2    0    0  0.88202596244E+02  0.44561111323E+01 -0.27464384936E+03  0.30250398103E+03  0.90993734059E+02 0.  0.
         13    1    3    3    0    0 -0.31733307029E+02 -0.28617990260E+02 -0.76268449894E+02  0.87423501364E+02  0.00000000000E+00 0. -1.
        -14    1    3    3    0    0 -0.22994406303E+02  0.16024868084E+02 -0.30088704060E+03  0.30218959333E+03  0.00000000000E+00 0.  1.
        -11    1    4    4    0    0  0.48959751074E+02  0.40818895508E+02 -0.20500813690E+03  0.21468948659E+03  0.00000000000E+00 0.  1.
         11    1    4    4    0    0  0.39242845170E+02 -0.36362784376E+02 -0.69635712454E+02  0.87814494439E+02  0.00000000000E+00 0. -1.
         -1    1    1    2    0  502 -0.33474882912E+02  0.81370110438E+01 -0.35246925584E+02  0.49286149148E+02  0.00000000000E+00 0.  1.
<scales pt_clust_5="13000.00000" pt_clust_6="13000.00000" pt_clust_7="13000.00000" pt_clust_8="13000.00000" pt_clust_9="34.44966"></scales>
<clustering>
<clus scale="   34.450">  1  9  2 -1</clus>
<clus scale="   79.990">  5  6 -1 -1</clus>
<clus scale="   90.994">  7  8 -1 -1</clus>
<clus scale="  103.606">  2  5  1 -1</clus>
<clus scale="   34.450">  1  5  2 -1</clus>
</clustering>
</event>
<event>
 9    1  0.6014990E-005  0.1630066E+03  0.7546771E-02  0.1187600E+00
         21   -1    0    0  501  502  0.00000000000E+00  0.00000000000E+00  0.13001360029E+03  0.13001360029E+03  0.00000000000E+00 0.  1.
          1   -1    0    0  502    0 -0.00000000000E+00 -0.00000000000E+00 -0.53600238875E+03  0.53600238875E+03  0.00000000000E+00 0. -1.
        -24    2    1    2    0    0  0.55907364923E+02  0.12699441411E+03 -0.24233052783E+03  0.29007816967E+03  0.78536903002E+02 0.  0.
         23    2    1    2    0    0 -0.82509796711E+02 -0.84368494565E+02  0.48385464864E+02  0.15802223958E+03  0.93295045763E+02 0.  0.
         13    1    3    3    0    0 -0.12443193183E+01  0.89743402771E+02 -0.15683779274E+03  0.18070284973E+03  0.00000000000E+00 0. -1.
        -14    1    3    3    0    0  0.57151684241E+02  0.37251011338E+02 -0.85492735092E+02  0.10937531993E+03  0.00000000000E+00 0.  1.
        -13    1    4    4    0    0 -0.80920958401E+02 -0.49434478215E+02  0.69141394198E+02  0.11735630165E+03  0.00000000000E+00 0.  1.
         13    1    4    4    0    0 -0.15888383099E+01 -0.34934016350E+02 -0.20755929334E+02  0.40665937933E+02  0.00000000000E+00 0. -1.
          2    1    1    2  501    0  0.26602431788E+02 -0.42625919544E+02 -0.21204372550E+03  0.21791557979E+03  0.00000000000E+00 0. -1.
<scales pt_clust_5="13000.00000" pt_clust_6="13000.00000" pt_clust_7="13000.00000" pt_clust_8="13000.00000" pt_clust_9="50.24600"></scales>
<clustering>
<clus scale="   50.246">  1  9  2 -1</clus>
<clus scale="   78.537">  5  6 -1 -1</clus>
<clus scale="   93.295">  7  8 -1 -1</clus>
<clus scale="  155.033">  2  5  1 -1</clus>
<clus scale="   50.246">  1  5  2 -1</clus>
</clustering>
</event>
<event>
 9    1  0.6014990E-005  0.1394402E+03  0.7546771E-02  0.1218793E+00
         21   -1    0    0  501  502  0.00000000000E+00  0.00000000000E+00  0.11351538964E+03  0.11351538964E+03  0.00000000000E+00 0.  1.
          1   -1    0    0  502    0 -0.00000000000E+00 -0.00000000000E+00 -0.46367279749E+03  0.46367279749E+03  0.00000000000E+00 0. -1.
         23    2    1    2    0    0  0.84348169340E+02 -0.27368234326E+02 -0.30793416736E+03  0.33542462747E+03  0.99109007477E+02 0.  0.
        -24    2    1    2    0    0 -0.12480768829E+03  0.24731723487E+02 -0.93216811974E+02  0.17661551137E+03  0.79467273892E+02 0.  0.
         11    1    4    4    0    0 -0.11204858672E+02  0.31205704094E+02 -0.37054219467E+02  0.49722831840E+02  0.00000000000E+00 0. -1.
        -12    1    4    4    0    0 -0.11360282961E+03 -0.64739806065E+01 -0.56162592507E+02  0.12689267953E+03  0.00000000000E+00 0.  1.
        -11    1    3    3    0    0 -0.20394076441E+02  0.39740449765E+01 -0.27763441264E+02  0.34677370981E+02  0.00000000000E+00 0.  1.
         11    1    3    3    0    0  0.10474224578E+03 -0.31342279302E+02 -0.28017072610E+03  0.30074725649E+03  0.00000000000E+00 0. -1.
          2    1    1    2  501    0  0.40459518946E+02  0.26365108385E+01  0.50993571484E+02  0.65148048285E+02  0.00000000000E+00 0. -1.
<scales pt_clust_5="13000.00000" pt_clust_6="13000.00000" pt_clust_7="13000.00000" pt_clust_8="13000.00000" pt_clust_9="40.54533"></scales>
<clustering>
<clus scale="   40.545">  1  9  2 -1</clus>
<clus scale="   79.467">  5  6 -1 -1</clus>
<clus scale="   99.109">  7  8 -1 -1</clus>
<clus scale="  126.238">  1  5  2 -1</clus>
<clus scale="   40.545">  1  5  2 -1</clus>
</clustering>
</event>
<event>
 9    1  0.6014990E-005  0.9878619E+02  0.7546771E-02  0.1285677E+00
         21   -1    0    0  501  502  0.00000000000E+00  0.00000000000E+00  0.97489181516E+02  0.97489181516E+02  0.00000000000E+00 0.  1.
         -2   -1    0    0    0  501 -0.00000000000E+00 -0.00000000000E+00 -0.26202290869E+03  0.26202290869E+03  0.00000000000E+00 0.  1.
         23    2    1    2    0    0  0.23061328983E+02  0.56106849081E+02 -0.20352761851E+03  0.22461201810E+03  0.73124987326E+02 0.  0.
        -24    2    1    2    0    0  0.27112376363E+01 -0.52264093710E+02  0.97452727391E+01  0.95727713873E+02  0.79560911017E+02 0.  0.
         13    1    4    4    0    0 -0.35719486793E+02 -0.13762524898E+02 -0.67774909770E+01  0.38874454495E+02  0.00000000000E+00 0. -1.
        -14    1    4    4    0    0  0.38430724429E+02 -0.38501568812E+02  0.16522763716E+02  0.56853259379E+02  0.00000000000E+00 0.  1.
        -11    1    3    3    0    0 -0.20981622173E+02  0.44903491383E+02 -0.10549796390E+03  0.11656059538E+03  0.00000000000E+00 0.  1.
         11    1    3    3    0    0  0.44042951156E+02  0.11203357698E+02 -0.98029654610E+02  0.10805142273E+03  0.00000000000E+00 0. -1.
         -1    1    1    2    0  502 -0.25772566619E+02 -0.38427553705E+01  0.29248618601E+02  0.39172358227E+02  0.00000000000E+00 0.  1.
<scales pt_clust_5="13000.00000" pt_clust_6="13000.00000" pt_clust_7="13000.00000" pt_clust_8="13000.00000" pt_clust_9="26.05747"></scales>
<clustering>
<clus scale="   26.057">  1  9  2 -1</clus>
<clus scale="   73.125">  7  8 -1 -1</clus>
<clus scale="   79.561">  5  6 -1 -1</clus>
<clus scale="   93.681">  2  7  1 -1</clus>
<clus scale="   26.057">  1  5  2 -1</clus>
</clustering>
</event>
<event>
 9    1  0.6014990E-005  0.3234486E+03  0.7546771E-02  0.1122204E+00
          1   -1    0    0  502    0 -0.00000000000E+00  0.00000000000E+00  0.45965191942E+03  0.45965191942E+03  0.00000000000E+00 0. -1.
         21   -1    0    0  501  502  0.00000000000E+00 -0.00000000000E+00 -0.44379297733E+03  0.44379297733E+03  0.00000000000E+00 0. -1.
        -24    2    1    2    0    0 -0.67687468220E+01 -0.46225711804E+02  0.12950720896E+03  0.15904364695E+03  0.79624946462E+02 0.  0.
         23    2    1    2    0    0 -0.12085307210E+02 -0.29582718039E+03 -0.22424578549E+03  0.38441865641E+03  0.99155210555E+02 0.  0.
         11    1    3    3    0    0  0.22878568182E+01 -0.59099836352E+02  0.13049475630E+03  0.14327214093E+03  0.00000000000E+00 0. -1.
        -12    1    3    3    0    0 -0.90566036403E+01  0.12874124548E+02 -0.98754734375E+00  0.15771506020E+02  0.00000000000E+00 0.  1.
        -13    1    4    4    0    0 -0.87033083048E+01 -0.76518825142E+02 -0.11749730479E+03  0.14048663570E+03  0.00000000000E+00 0.  1.
         13    1    4    4    0    0 -0.33819989057E+01 -0.21930835525E+03 -0.10674848070E+03  0.24393202071E+03  0.00000000000E+00 0. -1.
          2    1    1    2  501    0  0.18854054033E+02  0.34205289219E+03  0.11059751863E+03  0.35998259338E+03  0.00000000000E+00 0. -1.
<scales pt_clust_5="13000.00000" pt_clust_6="13000.00000" pt_clust_7="13000.00000" pt_clust_8="13000.00000" pt_clust_9="307.87547"></scales>
<clustering>
<clus scale="   79.625">  5  6 -1 -1</clus>
<clus scale="   92.319">  1  5  2 -1</clus>
<clus scale="   99.155">  7  8 -1 -1</clus>
<clus scale="  307.875">  2  9  1 -1</clus>
<clus scale="  307.875">  2  5  1 -1</clus>
</clustering>
</event>
<event>
 9    1  0.6014990E-005  0.1214306E+03  0.7546771E-02  0.1243689E+00
         -4   -1    0    0    0  501 -0.00000000000E+00  0.00000000000E+00  0.24542082017E+03  0.24542082017E+03  0.00000000000E+00 0.  1.
         21   -1    0    0  501  502  0.00000000000E+00 -0.00000000000E+00 -0.19813107013E+03  0.19813107013E+03  0.00000000000E+00 0.  1.
        -24    2    1    2    0    0  0.65477043227E+02  0.58369383897E+02  0.18954127656E+03  0.22346407858E+03  0.79473710944E+02 0.  0.
         23    2    1    2    0    0 -0.62216627144E+02 -0.51790978159E+00 -0.80042879774E+02  0.13507405342E+03  0.89257830922E+02 0.  0.
         11    1    3    3    0    0 -0.12012189052E+02  0.24188949999E+02  0.83461507423E+02  0.87722409960E+02  0.00000000000E+00 0. -1.
        -12    1    3    3    0    0  0.77489232279E+02  0.34180433899E+02  0.10607976913E+03  0.13574166862E+03  0.00000000000E+00 0.  1.
        -13    1    4    4    0    0 -0.78147849881E+02  0.20303455566E+02 -0.70451846290E+02  0.10715773138E+03  0.00000000000E+00 0.  1.
         13    1    4    4    0    0  0.15931222737E+02 -0.20821365348E+02 -0.95910334832E+01  0.27916322038E+02  0.00000000000E+00 0. -1.
         -3    1    1    2    0  502 -0.32604160836E+01 -0.57851474116E+02 -0.62208646741E+02  0.85013758296E+02  0.00000000000E+00 0.  1.
<scales pt_clust_5="13000.00000" pt_clust_6="13000.00000" pt_clust_7="13000.00000" pt_clust_8="13000.00000" pt_clust_9="57.94328"></scales>
<clustering>
<clus scale="   57.943">  2  9  1 -1</clus>
<clus scale="   79.474">  5  6 -1 -1</clus>
<clus scale="   89.258">  7  8 -1 -1</clus>
<clus scale="  114.431">  1  5  2 -1</clus>
<clus scale="   57.943">  2  5  1 -1</clus>
</clustering>
</event>
<event>
 9    1  0.6014990E-005  0.9604066E+02  0.7546771E-02  0.1295268E+00
         21   -1    0    0  501  502  0.00000000000E+00  0.00000000000E+00  0.42544744428E+03  0.42544744428E+03  0.00000000000E+00 0.  1.
          1   -1    0    0  502    0 -0.00000000000E+00 -0.00000000000E+00 -0.44714569088E+02  0.44714569088E+02  0.00000000000E+00 0. -1.
        -24    2    1    2    0    0 -0.42083898041E+02 -0.19342870944E+02  0.81686121386E+02  0.12446204605E+03  0.81688293837E+02 0.  0.
         23    2    1    2    0    0 -0.76533309421E+01 -0.35133681195E+02  0.16990619881E+03  0.19697616416E+03  0.92943767001E+02 0.  0.
         11    1    3    3    0    0 -0.44801313663E+02 -0.10509626520E+02  0.39590620856E+01  0.46187488871E+02  0.00000000000E+00 0. -1.
        -12    1    3    3    0    0  0.27174156221E+01 -0.88332444237E+01  0.77727059300E+02  0.78274557183E+02  0.00000000000E+00 0.  1.
        -13    1    4    4    0    0  0.26486055005E+02 -0.88799428845E+01  0.14407151347E+03  0.14675478012E+03  0.00000000000E+00 0.  1.
         13    1    4    4    0    0 -0.34139385947E+02 -0.26253738311E+02  0.25834685342E+02  0.50221384039E+02  0.00000000000E+00 0. -1.
          2    1    1    2  501    0  0.49737228984E+02  0.54476552139E+02  0.12914055500E+03  0.14872380315E+03  0.00000000000E+00 0. -1.
<scales pt_clust_5="13000.00000" pt_clust_6="13000.00000" pt_clust_7="13000.00000" pt_clust_8="13000.00000" pt_clust_9="73.76643"></scales>
<clustering>
<clus scale="   73.766">  1  9  2 -1</clus>
<clus scale="   81.688">  5  6 -1 -1</clus>
<clus scale="   85.195">  2  5  1 -1</clus>
<clus scale="   92.944">  7  8 -1 -1</clus>
<clus scale="   73.766">  1  5  2 -1</clus>
</clustering>
</event>
<event>
 9    1  0.6014990E-005  0.1117067E+03  0.7546771E-02  0.1268588E+00
          1   -1    0    0  502    0 -0.00000000000E+00  0.00000000000E+00  0.28155634308E+03  0.28155634308E+03  0.00000000000E+00 0. -1.
         21   -1    0    0  501  502  0.00000000000E+00 -0.00000000000E+00 -0.14190663755E+03  0.14190663755E+03  0.00000000000E+00 0.  1.
        -24    2    1    2    0    0 -0.35636586977E+02  0.19951053547E+02  0.22196261639E+03  0.23905568332E+03  0.78817547416E+02 0.  0.
         23    2    1    2    0    0  0.71753033476E+02 -0.19258260572E+02 -0.75053248814E+02  0.14756193990E+03  0.10306385175E+03 0.  0.
         13    1    3    3    0    0 -0.34227192817E+02  0.28764312368E+02  0.22517448865E+03  0.22957011289E+03  0.00000000000E+00 0. -1.
        -14    1    3    3    0    0 -0.14093941607E+01 -0.88132588208E+01 -0.32118722547E+01  0.94855704269E+01  0.00000000000E+00 0.  1.
        -11    1    4    4    0    0  0.54393045059E+02 -0.61014914695E+02 -0.45678349556E+02  0.93637251050E+02  0.00000000000E+00 0.  1.
         11    1    4    4    0    0  0.17359988417E+02  0.41756654123E+02 -0.29374899258E+02  0.53924688852E+02  0.00000000000E+00 0. -1.
          2    1    1    2  501    0 -0.36116446499E+02 -0.69279297581E+00 -0.72596620553E+01  0.36845357414E+02  0.00000000000E+00 0. -1.
<scales pt_clust_5="13000.00000" pt_clust_6="13000.00000" pt_clust_7="13000.00000" pt_clust_8="13000.00000" pt_clust_9="36.12309"></scales>
<clustering>
<clus scale="   36.123">  2  9  1 -1</clus>
<clus scale="   78.818">  5  6 -1 -1</clus>
<clus scale="   89.824">  1  5  2 -1</clus>
<clus scale="  103.064">  7  8 -1 -1</clus>
<clus scale="   36.123">  2  5  1 -1</clus>
</clustering>
</event>
<event>
 9    1  0.6014990E-005  0.9382260E+02  0.7546771E-02  0.1300445E+00
          1   -1    0    0  502    0 -0.00000000000E+00  0.00000000000E+00  0.51463584721E+03  0.51463584721E+03  0.00000000000E+00 0. -1.
         21   -1    0    0  501  502  0.00000000000E+00 -0.00000000000E+00 -0.71227910453E+02  0.71227910453E+02  0.00000000000E+00 0. -1.
        -24    2    1    2    0    0 -0.25445927625E+02  0.57084417315E+01  0.30472259326E+03  0.31602606967E+03  0.79602363835E+02 0.  0.
         23    2    1    2    0    0  0.27897207849E+01 -0.34996825302E+02  0.18589314273E+03  0.20984027614E+03  0.90797140131E+02 0.  0.
         11    1    3    3    0    0 -0.81973235011E+01  0.37660932480E+02  0.85091279748E+02  0.93413424287E+02  0.00000000000E+00 0. -1.
        -12    1    3    3    0    0 -0.17248604124E+02 -0.31952490749E+02  0.21963131351E+03  0.22261264538E+03  0.00000000000E+00 0.  1.
        -11    1    4    4    0    0  0.12044180708E+02  0.26692353495E+02  0.29967635676E+02  0.41899918998E+02  0.00000000000E+00 0.  1.
         11    1    4    4    0    0 -0.92544599233E+01 -0.61689178798E+02  0.15592550705E+03  0.16794035714E+03  0.00000000000E+00 0. -1.
          2    1    1    2  501    0  0.22656206841E+02  0.29288383571E+02 -0.47207799230E+02  0.59997411850E+02  0.00000000000E+00 0. -1.
<scales pt_clust_5="13000.00000" pt_clust_6="13000.00000" pt_clust_7="13000.00000" pt_clust_8="13000.00000" pt_clust_9="37.02854"></scales>
<clustering>
<clus scale="   37.029">  2  9  1 -1</clus>
<clus scale="   79.602">  5  6 -1 -1</clus>
<clus scale="   83.037">  1  5  2 -1</clus>
<clus scale="   90.797">  7  8 -1 -1</clus>
<clus scale="   37.029">  2  5  1 -1</clus>
</clustering>
</event>
<event>
 9    1  0.6014990E-005  0.1050789E+03  0.7546771E-02  0.1275849E+00
          3   -1    0    0  502    0 -0.00000000000E+00  0.00000000000E+00  0.12909118208E+03  0.12909118208E+03  0.00000000000E+00 0. -1.
         21   -1    0    0  501  502  0.00000000000E+00 -0.00000000000E+00 -0.18116576429E+03  0.18116576429E+03  0.00000000000E+00 0.  1.
        -24    2    1    2    0    0  0.37457227432E+02 -0.39072296039E+02  0.59808091086E+02  0.11374057831E+03  0.80188672456E+02 0.  0.
         23    2    1    2    0    0  0.40737644233E+01  0.32056543523E+02 -0.11823222532E+03  0.15392105284E+03  0.93105391161E+02 0.  0.
         13    1    3    3    0    0  0.21242581651E+02  0.20915659762E+02  0.37415785098E+01  0.30045157817E+02  0.00000000000E+00 0. -1.
        -14    1    3    3    0    0  0.16214645781E+02 -0.59987955801E+02  0.56066512576E+02  0.83695420492E+02  0.00000000000E+00 0.  1.
        -11    1    4    4    0    0 -0.27061245727E+02  0.36461022961E+02 -0.17951758775E+02  0.48826046930E+02  0.00000000000E+00 0. -1.
         11    1    4    4    0    0  0.31135010150E+02 -0.44044794381E+01 -0.10028046655E+03  0.10509500591E+03  0.00000000000E+00 0.  1.
          4    1    1    2  501    0 -0.41530991855E+02  0.70157525157E+01  0.63495520327E+01  0.42595315222E+02  0.00000000000E+00 0. -1.
<scales pt_clust_5="13000.00000" pt_clust_6="13000.00000" pt_clust_7="13000.00000" pt_clust_8="13000.00000" pt_clust_9="42.11942"></scales>
<clustering>
<clus scale="   42.119">  2  9  1 -1</clus>
<clus scale="   80.189">  5  6 -1 -1</clus>
<clus scale="   93.105">  7  8 -1 -1</clus>
<clus scale="   93.825">  1  5  2 -1</clus>
<clus scale="   42.119">  2  5  1 -1</clus>
</clustering>
</event>
<event>
 9    1  0.6014990E-005  0.1104441E+03  0.7546771E-02  0.1267940E+00
         -2   -1    0    0    0  501 -0.00000000000E+00  0.00000000000E+00  0.52673743760E+03  0.52673743760E+03  0.00000000000E+00 0.  1.
         21   -1    0    0  501  502  0.00000000000E+00 -0.00000000000E+00 -0.65766270795E+02  0.65766270795E+02  0.00000000000E+00 0. -1.
        -24    2    1    2    0    0  0.13222122363E+02 -0.70600416555E+02  0.14039523986E+03  0.17584760956E+03  0.77796626378E+02 0.  0.
         23    2    1    2    0    0  0.37622848322E+02  0.10179430383E+02  0.20611764525E+02  0.10647162896E+03  0.96913690559E+02 0.  0.
         13    1    3    3    0    0  0.35515578097E+02 -0.67525415410E+02  0.13070936098E+03  0.15134720037E+03  0.00000000000E+00 0. -1.
        -14    1    3    3    0    0 -0.22293455735E+02 -0.30750011458E+01  0.96858788816E+01  0.24500409187E+02  0.00000000000E+00 0.  1.
        -13    1    4    4    0    0  0.49242027600E+01  0.23431723156E+02 -0.33921185907E+02  0.41520359780E+02  0.00000000000E+00 0. -1.
         13    1    4    4    0    0  0.32698645562E+02 -0.13252292774E+02  0.54532950432E+02  0.64951269180E+02  0.00000000000E+00 0.  1.
         -1    1    1    2    0  502 -0.50844970684E+02  0.60420986173E+02  0.29996416242E+03  0.31018446987E+03  0.00000000000E+00 0.  1.
<scales pt_clust_5="13000.00000" pt_clust_6="13000.00000" pt_clust_7="13000.00000" pt_clust_8="13000.00000" pt_clust_9="78.96780"></scales>
<clustering>
<clus scale="   77.797">  5  6 -1 -1</clus>
<clus scale="   78.968">  2  9  1 -1</clus>
<clus scale="   94.117">  1  5  2 -1</clus>
<clus scale="   96.914">  7  8 -1 -1</clus>
<clus scale="   78.968">  2  5  1 -1</clus>
</clustering>
</event>
<event>
 9    1  0.6014990E-005  0.1054490E+03  0.7546771E-02  0.1274828E+00
         -2   -1    0    0    0  501 -0.00000000000E+00  0.00000000000E+00  0.53752254381E+02  0.53752254381E+02  0.00000000000E+00 0.  1.
         21   -1    0    0  501  502  0.00000000000E+00 -0.00000000000E+00 -0.26960277501E+03  0.26960277501E+03  0.00000000000E+00 0. -1.
        -24    2    1    2    0    0 -0.24126199178E+02 -0.49606010655E+02 -0.63335321394E+02  0.11566202824E+03  0.79520513463E+02 0.  0.
         23    2    1    2    0    0 -0.21371434464E+01  0.48400501093E+02 -0.14815526120E+03  0.18104294526E+03  0.92083607220E+02 0.  0.
         13    1    3    3    0    0 -0.14756997008E+02 -0.71071428309E+02 -0.41350152112E+02  0.83538924833E+02  0.00000000000E+00 0. -1.
        -14    1    3    3    0    0 -0.93692021704E+01  0.21465417654E+02 -0.21985169282E+02  0.32123103411E+02  0.00000000000E+00 0.  1.
        -11    1    4    4    0    0 -0.37385830153E+01  0.73832579243E+02 -0.83369412015E+02  0.11142569551E+03  0.00000000000E+00 0.  1.
         11    1    4    4    0    0  0.16014395689E+01 -0.25432078150E+02 -0.64785849184E+02  0.69617249746E+02  0.00000000000E+00 0. -1.
         -1    1    1    2    0  502  0.26263342625E+02  0.12055095620E+01 -0.43599380341E+01  0.26650055887E+02  0.00000000000E+00 0.  1.
<scales pt_clust_5="13000.00000" pt_clust_6="13000.00000" pt_clust_7="13000.00000" pt_clust_8="13000.00000" pt_clust_9="26.29101"></scales>
<clustering>
<clus scale="   26.291">  2  9  1 -1</clus>
<clus scale="   79.521">  5  6 -1 -1</clus>
<clus scale="   92.084">  7  8 -1 -1</clus>
<clus scale="   94.676">  1  5  2 -1</clus>
<clus scale="   26.291">  2  5  1 -1</clus>
</clustering>
</event>
<event>
 9    1  0.6014990E-005  0.9184981E+02  0.7546771E-02  0.1305325E+00
         21   -1    0    0  501  502  0.00000000000E+00  0.00000000000E+00  0.47776614697E+02  0.47776614697E+02  0.00000000000E+00 0. -1.
          1   -1    0    0  502    0 -0.00000000000E+00 -0.00000000000E+00 -0.48266503088E+03  0.48266503088E+03  0.00000000000E+00 0. -1.
         23    2    1    2    0    0  0.32884573429E+00  0.20977664128E+00 -0.31704921109E+03  0.32990036261E+03  0.91180561785E+02 0.  0.
        -24    2    1    2    0    0  0.22220292629E+02  0.25240303057E+02 -0.13644353797E+03  0.16178187896E+03  0.80160607545E+02 0.  0.
         11    1    4    4    0    0  0.51513478443E+02  0.13263569564E+02 -0.67653739352E+02  0.86061543021E+02  0.00000000000E+00 0. -1.
        -12    1    4    4    0    0 -0.29293185813E+02  0.11976733493E+02 -0.68789798617E+02  0.75720335935E+02  0.00000000000E+00 0.  1.
        -13    1    3    3    0    0 -0.90208824148E+01  0.43951348244E+02 -0.18937432646E+03  0.19461688739E+03  0.00000000000E+00 0. -1.
         13    1    3    3    0    0  0.93497281491E+01 -0.43741571603E+02 -0.12767488463E+03  0.13528347522E+03  0.00000000000E+00 0.  1.
          2    1    1    2  501    0 -0.22549138364E+02 -0.25450079698E+02  0.18604332881E+02  0.38759404014E+02  0.00000000000E+00 0. -1.
<scales pt_clust_5="13000.00000" pt_clust_6="13000.00000" pt_clust_7="13000.00000" pt_clust_8="13000.00000" pt_clust_9="34.00250"></scales>
<clustering>
<clus scale="   34.003">  1  9  2 -1</clus>
<clus scale="   80.161">  5  6 -1 -1</clus>
<clus scale="   80.921">  1  5  2 -1</clus>
<clus scale="   91.181">  7  8 -1 -1</clus>
<clus scale="   34.003">  1  5  2 -1</clus>
</clustering>
</event>
<event>
 9    1  0.6014990E-005  0.9737095E+02  0.7546771E-02  0.1292189E+00
          3   -1    0    0  502    0 -0.00000000000E+00  0.00000000000E+00  0.87464626630E+02  0.87464626630E+02  0.00000000000E+00 0. -1.
         21   -1    0    0  501  502  0.00000000000E+00 -0.00000000000E+00 -0.40600187362E+03  0.40600187362E+03  0.00000000000E+00 0.  1.
        -24    2    1    2    0    0  0.37358437251E+02  0.51608675318E+02 -0.88776480901E+01  0.10302759033E+03  0.80478341998E+02 0.  0.
         23    2    1    2    0    0 -0.16248596648E+02  0.40632892670E+02 -0.48820279789E+02  0.11296587947E+03  0.91993594048E+02 0.  0.
         13    1    3    3    0    0  0.14193816599E+02  0.54892294783E+02  0.24911489972E+02  0.61929078701E+02  0.00000000000E+00 0. -1.
        -14    1    3    3    0    0  0.23164620653E+02 -0.32836194647E+01 -0.33789138062E+02  0.41098511624E+02  0.00000000000E+00 0.  1.
        -11    1    4    4    0    0 -0.36636079740E+02  0.58912820802E+02 -0.50067191241E+02  0.85554932250E+02  0.00000000000E+00 0.  1.
         11    1    4    4    0    0  0.20387483092E+02 -0.18279928132E+02  0.12469114518E+01  0.27410947220E+02  0.00000000000E+00 0. -1.
          4    1    1    2  501    0 -0.21109840603E+02 -0.92241567988E+02 -0.26083931911E+03  0.27747303045E+03  0.00000000000E+00 0. -1.
<scales pt_clust_5="13000.00000" pt_clust_6="13000.00000" pt_clust_7="13000.00000" pt_clust_8="13000.00000" pt_clust_9="94.62628"></scales>
<clustering>
<clus scale="   80.478">  5  6 -1 -1</clus>
<clus scale="   91.994">  7  8 -1 -1</clus>
<clus scale="   94.626">  2  9  1 -1</clus>
<clus scale="   86.574">  1  5  2 -1</clus>
<clus scale="   94.626">  2  5  1 -1</clus>
</clustering>
</event>
<event>
 9    1  0.6014990E-005  0.1538315E+03  0.7546771E-02  0.1197753E+00
          1   -1    0    0  502    0 -0.00000000000E+00  0.00000000000E+00  0.52430093131E+03  0.52430093131E+03  0.00000000000E+00 0. -1.
         21   -1    0    0  501  502  0.00000000000E+00 -0.00000000000E+00 -0.14920909491E+03  0.14920909491E+03  0.00000000000E+00 0. -1.
        -24    2    1    2    0    0 -0.52556183347E+02 -0.12196966015E+03  0.36344505677E+03  0.39509116788E+03  0.79787036793E+02 0.  0.
         23    2    1    2    0    0  0.10488363933E+03  0.56807976764E+02  0.80440953141E+02  0.17017447770E+03  0.90889393753E+02 0.  0.
         13    1    3    3    0    0 -0.83504861985E+01 -0.10812887665E+03  0.26278860117E+03  0.28428758941E+03  0.00000000000E+00 0. -1.
        -14    1    3    3    0    0 -0.44205697149E+02 -0.13840783497E+02  0.10065645560E+03  0.11080357847E+03  0.00000000000E+00 0.  1.
        -11    1    4    4    0    0  0.10346387415E+03  0.26452843371E+02  0.29387857740E+02  0.11076178204E+03  0.00000000000E+00 0. -1.
         11    1    4    4    0    0  0.14197651744E+01  0.30355133393E+02  0.51053095400E+02  0.59412695667E+02  0.00000000000E+00 0.  1.
          2    1    1    2  501    0 -0.52327455982E+02  0.65161683387E+02 -0.68794173507E+02  0.10824438064E+03  0.00000000000E+00 0. -1.
<scales pt_clust_5="13000.00000" pt_clust_6="13000.00000" pt_clust_7="13000.00000" pt_clust_8="13000.00000" pt_clust_9="83.57157"></scales>
<clustering>
<clus scale="   79.787">  5  6 -1 -1</clus>
<clus scale="   83.572">  2  9  1 -1</clus>
<clus scale="   90.889">  7  8 -1 -1</clus>
<clus scale="  147.544">  1  5  2 -1</clus>
<clus scale="   83.572">  2  5  1 -1</clus>
</clustering>
</event>
<event>
 9    1  0.1198526E-004  0.4180434E+03  0.7546771E-02  0.1037887E+00
         21   -1    0    0  501  502  0.00000000000E+00  0.00000000000E+00  0.11803939111E+04  0.11803939111E+04  0.00000000000E+00 0. -1.
          3   -1    0    0  502    0 -0.00000000000E+00 -0.00000000000E+00 -0.66629950552E+03  0.66629950552E+03  0.00000000000E+00 0. -1.
         23    2    1    2    0    0 -0.40667462222E+03 -0.14635737872E+03 -0.54120664916E+03  0.69859076214E+03  0.91212308315E+02 0.  0.
        -24    2    1    2    0    0  0.23047509120E+03  0.76798370764E+02  0.50548775721E+03  0.56657071859E+03  0.80422316887E+02 0.  0.
         11    1    4    4    0    0  0.91731368827E+02 -0.46431779597E+01  0.14260414033E+03  0.16962353601E+03  0.00000000000E+00 0. -1.
        -12    1    4    4    0    0  0.13874372237E+03  0.81441548724E+02  0.36288361689E+03  0.39694718258E+03  0.00000000000E+00 0.  1.
        -11    1    3    3    0    0 -0.14102811522E+03 -0.29553333522E+02 -0.24287916225E+03  0.28240505708E+03  0.00000000000E+00 0.  1.
         11    1    3    3    0    0 -0.26564650700E+03 -0.11680404520E+03 -0.29832748690E+03  0.41618570506E+03  0.00000000000E+00 0. -1.
          4    1    1    2  501    0  0.17619953102E+03  0.69559007957E+02  0.54981329750E+03  0.58153193586E+03  0.00000000000E+00 0. -1.
<scales pt_clust_5="13000.00000" pt_clust_6="13000.00000" pt_clust_7="13000.00000" pt_clust_8="13000.00000" pt_clust_9="189.43265"></scales>
<clustering>
<clus scale="   80.422">  5  6 -1 -1</clus>
<clus scale="   91.212">  7  8 -1 -1</clus>
<clus scale="  189.433">  1  9  2 -1</clus>
<clus scale="  415.823">  1  5  2 -1</clus>
<clus scale="  189.433">  1  5  2 -1</clus>
</clustering>
</event>
<event>
 9    1  0.6014990E-005  0.1259444E+03  0.7546771E-02  0.1234274E+00
         21   -1    0    0  501  502  0.00000000000E+00  0.00000000000E+00  0.25158876931E+03  0.25158876931E+03  0.00000000000E+00 0.  1.
         -4   -1    0    0    0  501 -0.00000000000E+00 -0.00000000000E+00 -0.12915110780E+03  0.12915110780E+03  0.00000000000E+00 0.  1.
        -24    2    1    2    0    0 -0.80279956929E+02  0.62641847878E+02 -0.56405053016E+02  0.14539771146E+03  0.87121133496E+02 0.  0.
         23    2    1    2    0    0  0.53720771608E+02 -0.32503907213E+02  0.92865968040E+02  0.14044386889E+03  0.84604769376E+02 0.  0.
         13    1    3    3    0    0  0.48076448438E+01  0.31598868375E+02  0.95454053509E+01  0.33357408395E+02  0.00000000000E+00 0. -1.
        -14    1    3    3    0    0 -0.85087601773E+02  0.31042979503E+02 -0.65950458367E+02  0.11204030306E+03  0.00000000000E+00 0.  1.
        -13    1    4    4    0    0  0.64426371489E+02 -0.51009052992E+02  0.83338021590E+02  0.11703805652E+03  0.00000000000E+00 0. -1.
         13    1    4    4    0    0 -0.10705599881E+02  0.18505145779E+02  0.95279464506E+01  0.23405812370E+02  0.00000000000E+00 0.  1.
         -3    1    1    2    0  502  0.26559185322E+02 -0.30137940665E+02  0.85976746484E+02  0.94898296763E+02  0.00000000000E+00 0.  1.
<scales pt_clust_5="13000.00000" pt_clust_6="13000.00000" pt_clust_7="13000.00000" pt_clust_8="13000.00000" pt_clust_9="40.17071"></scales>
<clustering>
<clus scale="   40.171">  1  9  2 -1</clus>
<clus scale="   84.605">  7  8 -1 -1</clus>
<clus scale="   87.121">  5  6 -1 -1</clus>
<clus scale="  124.217">  1  7  2 -1</clus>
<clus scale="   40.171">  1  5  2 -1</clus>
</clustering>
</event>
<event>
 9    1  0.6014990E-005  0.1015019E+03  0.7546771E-02  0.1285649E+00
         21   -1    0    0  501  502  0.00000000000E+00  0.00000000000E+00  0.28285287504E+03  0.28285287504E+03  0.00000000000E+00 0.  1.
          1   -1    0    0  502    0 -0.00000000000E+00 -0.00000000000E+00 -0.14437839288E+03  0.14437839288E+03  0.00000000000E+00 0. -1.
        -24    2    1    2    0    0  0.36322352416E+02 -0.29566418850E+02 -0.91040564853E+02  0.12944546326E+03  0.79210208314E+02 0.  0.
         23    2    1    2    0    0  0.26221552528E+02 -0.18092709154E+02  0.78865765841E+02  0.12784952706E+03  0.95450388187E+02 0.  0.
         11    1    3    3    0    0  0.33836282170E+02  0.11007829459E+02 -0.79639136976E+02  0.87226477854E+02  0.00000000000E+00 0. -1.
        -12    1    3    3    0    0  0.24860702465E+01 -0.40574248309E+02 -0.11401427876E+02  0.42218985406E+02  0.00000000000E+00 0.  1.
        -13    1    4    4    0    0 -0.16190942967E+02 -0.35246825667E+02  0.71730815326E+02  0.81546276562E+02  0.00000000000E+00 0.  1.
         13    1    4    4    0    0  0.42412495494E+02  0.17154116513E+02  0.71349505150E+01  0.46303250493E+02  0.00000000000E+00 0. -1.
          2    1    1    2  501    0 -0.62543904944E+02  0.47659128005E+02  0.15064928117E+03  0.16993627760E+03  0.00000000000E+00 0. -1.
<scales pt_clust_5="13000.00000" pt_clust_6="13000.00000" pt_clust_7="13000.00000" pt_clust_8="13000.00000" pt_clust_9="78.63290"></scales>
<clustering>
<clus scale="   78.633">  1  9  2 -1</clus>
<clus scale="   79.210">  5  6 -1 -1</clus>
<clus scale="   86.407">  2  5  1 -1</clus>
<clus scale="   95.450">  7  8 -1 -1</clus>
<clus scale="   78.633">  1  5  2 -1</clus>
</clustering>
</event>
<event>
 9    1  0.6014990E-005  0.9915382E+02  0.7546771E-02  0.1288175E+00
         21   -1    0    0  501  502  0.00000000000E+00  0.00000000000E+00  0.13122060433E+03  0.13122060433E+03  0.00000000000E+00 0.  1.
         -2   -1    0    0    0  501 -0.00000000000E+00 -0.00000000000E+00 -0.20895402084E+03  0.20895402084E+03  0.00000000000E+00 0.  1.
        -24    2    1    2    0    0 -0.16894354160E+00 -0.37675103016E+02 -0.16020679795E+03  0.18291363770E+03  0.79823172189E+02 0.  0.
         23    2    1    2    0    0  0.23005973011E+02  0.38822757562E+02  0.41271386019E+02  0.11013932099E+03  0.91601645320E+02 0.  0.
         13    1    3    3    0    0  0.15402098157E+02 -0.18230644107E+02 -0.33603349462E+01  0.24101304179E+02  0.00000000000E+00 0. -1.
        -14    1    3    3    0    0 -0.15571041698E+02 -0.19444458909E+02 -0.15684646300E+03  0.15881233352E+03  0.00000000000E+00 0.  1.
        -13    1    4    4    0    0 -0.23252137353E+02  0.15470171766E+00  0.44021595786E+02  0.49785406693E+02  0.00000000000E+00 0. -1.
         13    1    4    4    0    0  0.46258110364E+02  0.38668055844E+02 -0.27502097670E+01  0.60353914297E+02  0.00000000000E+00 0.  1.
         -1    1    1    2    0  502 -0.22837029470E+02 -0.11476545451E+01  0.41201995418E+02  0.47121666486E+02  0.00000000000E+00 0.  1.
<scales pt_clust_5="13000.00000" pt_clust_6="13000.00000" pt_clust_7="13000.00000" pt_clust_8="13000.00000" pt_clust_9="22.86585"></scales>
<clustering>
<clus scale="   22.866">  1  9  2 -1</clus>
<clus scale="   79.823">  5  6 -1 -1</clus>
<clus scale="   88.388">  2  5  1 -1</clus>
<clus scale="   91.602">  7  8 -1 -1</clus>
<clus scale="   22.866">  1  5  2 -1</clus>
</clustering>
</event>
<event>
 9    1  0.6014990E-005  0.1355564E+03  0.7546771E-02  0.1222196E+00
         21   -1    0    0  501  502  0.00000000000E+00  0.00000000000E+00  0.19359902638E+03  0.19359902638E+03  0.00000000000E+00 0.  1.
         -4   -1    0    0    0  501 -0.00000000000E+00 -0.00000000000E+00 -0.11612384199E+03  0.11612384199E+03  0.00000000000E+00 0.  1.
         23    2    1    2    0    0 -0.56275669854E+02 -0.66656165229E+02  0.26673047297E+02  0.13017120651E+03  0.92860627665E+02 0.  0.
        -24    2    1    2    0    0  0.78005343636E+02  0.78072924798E+02  0.17541367243E+02  0.13821402849E+03  0.81333897511E+02 0.  0.
         11    1    4    4    0    0  0.16505766270E+02  0.31035684369E+02  0.44067929790E+02  0.56370528296E+02  0.00000000000E+00 0. -1.
        -12    1    4    4    0    0  0.61499577366E+02  0.47037240430E+02 -0.26526562547E+02  0.81843500194E+02  0.00000000000E+00 0.  1.
        -13    1    3    3    0    0 -0.12904847065E+02 -0.17665488012E+02  0.54759257807E+02  0.58967625525E+02  0.00000000000E+00 0.  1.
         13    1    3    3    0    0 -0.43370822789E+02 -0.48990677217E+02 -0.28086210510E+02  0.71203580980E+02  0.00000000000E+00 0. -1.
         -3    1    1    2    0  502 -0.21729673782E+02 -0.11416759569E+02  0.33260769853E+02  0.41337633374E+02  0.00000000000E+00 0.  1.
<scales pt_clust_5="13000.00000" pt_clust_6="13000.00000" pt_clust_7="13000.00000" pt_clust_8="13000.00000" pt_clust_9="24.54631"></scales>
<clustering>
<clus scale="   24.546">  1  9  2 -1</clus>
<clus scale="   81.334">  5  6 -1 -1</clus>
<clus scale="   92.861">  7  8 -1 -1</clus>
<clus scale="  127.936">  1  5  2 -1</clus>
<clus scale="   24.546">  1  5  2 -1</clus>
</clustering>
</event>
<event>
 9    1  0.6014990E-005  0.1298574E+03  0.7546771E-02  0.1240946E+00
          1   -1    0    0  502    0 -0.00000000000E+00  0.00000000000E+00  0.93877726791E+03  0.93877726791E+03  0.00000000000E+00 0. -1.
         21   -1    0    0  501  502  0.00000000000E+00 -0.00000000000E+00 -0.23042303210E+02  0.23042303210E+02  0.00000000000E+00 0.  1.
        -24    2    1    2    0    0 -0.26030790634E+02 -0.64812350596E+02  0.61973595140E+03  0.62839130345E+03  0.76972319350E+02 0.  0.
         23    2    1    2    0    0  0.12288788208E+02  0.33817690434E+02  0.22960578945E+03  0.25887914451E+03  0.11403921437E+03 0.  0.
         11    1    3    3    0    0 -0.49892601393E+02 -0.62463077124E+02  0.47189524993E+03  0.47861888239E+03  0.00000000000E+00 0. -1.
        -12    1    3    3    0    0  0.23861810759E+02 -0.23492734716E+01  0.14784070148E+03  0.14977242106E+03  0.00000000000E+00 0.  1.
        -11    1    4    4    0    0  0.38094250989E+02  0.68052375789E+01  0.15741429613E+02  0.41776498455E+02  0.00000000000E+00 0.  1.
         11    1    4    4    0    0 -0.25805462781E+02  0.27012452855E+02  0.21386435983E+03  0.21710264606E+03  0.00000000000E+00 0. -1.
          2    1    1    2  501    0  0.13742002426E+02  0.30994660162E+02  0.66393223854E+02  0.74549123154E+02  0.00000000000E+00 0. -1.
<scales pt_clust_5="13000.00000" pt_clust_6="13000.00000" pt_clust_7="13000.00000" pt_clust_8="13000.00000" pt_clust_9="33.90445"></scales>
<clustering>
<clus scale="   33.904">  2  9  1 -1</clus>
<clus scale="   76.972">  5  6 -1 -1</clus>
<clus scale="   98.908">  1  5  2 -1</clus>
<clus scale="  114.039">  7  8 -1 -1</clus>
<clus scale="   33.904">  2  5  1 -1</clus>
</clustering>
</event>
<event>
 9    1  0.6014990E-005  0.1198266E+03  0.7546771E-02  0.1246077E+00
          1   -1    0    0  502    0 -0.00000000000E+00  0.00000000000E+00  0.11639057350E+03  0.11639057350E+03  0.00000000000E+00 0. -1.
         21   -1    0    0  501  502  0.00000000000E+00 -0.00000000000E+00 -0.22556241987E+03  0.22556241987E+03  0.00000000000E+00 0. -1.
        -24    2    1    2    0    0 -0.46921507419E+02  0.28314886765E+02 -0.24365527495E+02  0.10354269898E+03  0.84404092977E+02 0.  0.
         23    2    1    2    0    0  0.57195922326E+02 -0.10115696152E+03 -0.48597707079E+02  0.15641886176E+03  0.92741677716E+02 0.  0.
         11    1    3    3    0    0 -0.40046537891E+02 -0.59531624180E+01  0.21529143930E+02  0.45854873004E+02  0.00000000000E+00 0. -1.
        -12    1    3    3    0    0 -0.68749695280E+01  0.34268049183E+02 -0.45894671425E+02  0.57687825978E+02  0.00000000000E+00 0.  1.
        -11    1    4    4    0    0  0.57939743473E+02 -0.12656524263E+02 -0.27830960173E+02  0.65511554892E+02  0.00000000000E+00 0. -1.
         11    1    4    4    0    0 -0.74382114715E+00 -0.88500437257E+02 -0.20766746906E+02  0.90907306866E+02  0.00000000000E+00 0.  1.
          2    1    1    2  501    0 -0.10274414908E+02  0.72842074755E+02 -0.36208611799E+02  0.81991432630E+02  0.00000000000E+00 0. -1.
<scales pt_clust_5="13000.00000" pt_clust_6="13000.00000" pt_clust_7="13000.00000" pt_clust_8="13000.00000" pt_clust_9="73.56311"></scales>
<clustering>
<clus scale="   73.563">  2  9  1 -1</clus>
<clus scale="   84.404">  5  6 -1 -1</clus>
<clus scale="   92.742">  7  8 -1 -1</clus>
<clus scale="  113.496">  1  5  2 -1</clus>
<clus scale="   73.563">  2  5  1 -1</clus>
</clustering>
</event>
<event>
 9    1  0.6014990E-005  0.1036622E+03  0.7546771E-02  0.1283056E+00
          1   -1    0    0  502    0 -0.00000000000E+00  0.00000000000E+00  0.32991923065E+03  0.32991923065E+03  0.00000000000E+00 0. -1.
         21   -1    0    0  501  502  0.00000000000E+00 -0.00000000000E+00 -0.69949658658E+02  0.69949658658E+02  0.00000000000E+00 0. -1.
        -24    2    1    2    0    0 -0.22217889952E+02  0.18088764945E+02  0.21980117037E+03  0.23602787829E+03  0.81091101730E+02 0.  0.
         23    2    1    2    0    0 -0.19450227622E+02 -0.37471301510E+02  0.44696295038E+02  0.11766291487E+03  0.10032144812E+03 0.  0.
         13    1    3    3    0    0  0.92857853445E+01  0.23855410179E+02  0.17037331795E+02  0.30750237056E+02  0.00000000000E+00 0. -1.
        -14    1    3    3    0    0 -0.31503675297E+02 -0.57666452336E+01  0.20276383858E+03  0.20527764123E+03  0.00000000000E+00 0.  1.
        -13    1    4    4    0    0  0.75821308968E+01 -0.58373889755E+02  0.56419989375E+02  0.81536586359E+02  0.00000000000E+00 0. -1.
         13    1    4    4    0    0 -0.27032358519E+02  0.20902588245E+02 -0.11723694337E+02  0.36126328506E+02  0.00000000000E+00 0.  1.
          2    1    1    2  501    0  0.41668117574E+02  0.19382536564E+02 -0.45278934192E+01  0.46178096157E+02  0.00000000000E+00 0. -1.
<scales pt_clust_5="13000.00000" pt_clust_6="13000.00000" pt_clust_7="13000.00000" pt_clust_8="13000.00000" pt_clust_9="45.95557"></scales>
<clustering>
<clus scale="   45.956">  2  9  1 -1</clus>
<clus scale="   81.091">  5  6 -1 -1</clus>
<clus scale="   85.189">  1  5  2 -1</clus>
<clus scale="  100.321">  7  8 -1 -1</clus>
<clus scale="   45.956">  2  5  1 -1</clus>
</clustering>
</event>
<event>
 9    1  0.6014990E-005  0.2664261E+03  0.7546771E-02  0.1103555E+00
         21   -1    0    0  501  502  0.00000000000E+00  0.00000000000E+00  0.11933899004E+03  0.11933899004E+03  0.00000000000E+00 0. -1.
          1   -1    0    0  502    0 -0.00000000000E+00 -0.00000000000E+00 -0.98579691117E+03  0.98579691117E+03  0.00000000000E+00 0. -1.
         23    2    1    2    0    0 -0.98637592746E+02 -0.17400772653E+03 -0.27702318071E+03  0.35385108477E+03  0.91981976233E+02 0.  0.
        -24    2    1    2    0    0  0.19468633974E+03  0.23689798027E+03 -0.53533275049E+03  0.62436921011E+03  0.96085029260E+02 0.  0.
         11    1    4    4    0    0  0.50213503071E+02  0.11512280883E+03 -0.15343272834E+03  0.19828328001E+03  0.00000000000E+00 0. -1.
        -12    1    4    4    0    0  0.14447283667E+03  0.12177517144E+03 -0.38190002215E+03  0.42608593010E+03  0.00000000000E+00 0.  1.
        -13    1    3    3    0    0 -0.96952817158E+02 -0.80849735419E+02 -0.14488673106E+03  0.19216839831E+03  0.00000000000E+00 0.  1.
         13    1    3    3    0    0 -0.16847755883E+01 -0.93157991107E+02 -0.13213644965E+03  0.16168268646E+03  0.00000000000E+00 0. -1.
          2    1    1    2  501    0 -0.96048746993E+02 -0.62890253744E+02 -0.54101989939E+02  0.12691560633E+03  0.00000000000E+00 0. -1.
<scales pt_clust_5="13000.00000" pt_clust_6="13000.00000" pt_clust_7="13000.00000" pt_clust_8="13000.00000" pt_clust_9="114.80656"></scales>
<clustering>
<clus scale="   91.982">  7  8 -1 -1</clus>
<clus scale="   96.085">  5  6 -1 -1</clus>
<clus scale="  114.807">  1  9  2 -1</clus>
<clus scale="  264.974">  2  7  1 -1</clus>
<clus scale="  114.807">  1  5  2 -1</clus>
</clustering>
</event>
<event>
 9    1  0.6014990E-005  0.9830073E+02  0.7546771E-02  0.1291361E+00
         21   -1    0    0  501  502  0.00000000000E+00  0.00000000000E+00  0.62019864568E+02  0.62019864568E+02  0.00000000000E+00 0. -1.
          1   -1    0    0  502    0 -0.00000000000E+00 -0.00000000000E+00 -0.42811995444E+03  0.42811995444E+03  0.00000000000E+00 0. -1.
        -24    2    1    2    0    0 -0.51738469498E-01 -0.27565435874E+02 -0.27251374610E+03  0.28532003826E+03  0.79899477393E+02 0.  0.
         23    2    1    2    0    0  0.54252838683E+02  0.43199905488E+02 -0.30830840040E+02  0.12043702686E+03  0.93514353993E+02 0.  0.
         13    1    3    3    0    0 -0.15359702466E+01 -0.53570343480E+02 -0.13292716502E+03  0.14332401092E+03  0.00000000000E+00 0. -1.
        -14    1    3    3    0    0  0.14842317771E+01  0.26004907607E+02 -0.13958658108E+03  0.14199602734E+03  0.00000000000E+00 0.  1.
        -11    1    4    4    0    0  0.46232462275E+02  0.63830526223E+02 -0.48126037604E+02  0.92346587058E+02  0.00000000000E+00 0. -1.
         11    1    4    4    0    0  0.80203764084E+01 -0.20630620735E+02  0.17295197564E+02  0.28090439805E+02  0.00000000000E+00 0.  1.
          2    1    1    2  501    0 -0.54201100214E+02 -0.15634469614E+02 -0.62755503737E+02  0.84382753888E+02  0.00000000000E+00 0. -1.
<scales pt_clust_5="13000.00000" pt_clust_6="13000.00000" pt_clust_7="13000.00000" pt_clust_8="13000.00000" pt_clust_9="56.41096"></scales>
<clustering>
<clus scale="   56.411">  1  9  2 -1</clus>
<clus scale="   79.899">  5  6 -1 -1</clus>
<clus scale="   85.452">  2  5  1 -1</clus>
<clus scale="   93.514">  7  8 -1 -1</clus>
<clus scale="   56.411">  1  5  2 -1</clus>
</clustering>
</event>
<event>
 9    1  0.6014990E-005  0.1008178E+03  0.7546771E-02  0.1285123E+00
         21   -1    0    0  501  502  0.00000000000E+00  0.00000000000E+00  0.50596140269E+02  0.50596140269E+02  0.00000000000E+00 0.  1.
         -2   -1    0    0    0  501 -0.00000000000E+00 -0.00000000000E+00 -0.30879304636E+03  0.30879304636E+03  0.00000000000E+00 0.  1.
        -24    2    1    2    0    0  0.17250075231E+02 -0.25646478498E+02 -0.15879677772E+03  0.18121152891E+03  0.81644930291E+02 0.  0.
         23    2    1    2    0    0 -0.21226884073E+02  0.47070983230E+02 -0.39718670526E+02  0.11464262154E+03  0.94335040229E+02 0.  0.
         13    1    3    3    0    0 -0.19354184474E+02 -0.98525029513E+01 -0.13057065317E+03  0.13236446555E+03  0.00000000000E+00 0. -1.
        -14    1    3    3    0    0  0.36604259705E+02 -0.15793975546E+02 -0.28226124548E+02  0.48847063362E+02  0.00000000000E+00 0.  1.
        -11    1    4    4    0    0 -0.36654016074E+02  0.68508977771E+02 -0.41655372787E+02  0.88159894576E+02  0.00000000000E+00 0.  1.
         11    1    4    4    0    0  0.15427132001E+02 -0.21437994541E+02  0.19367022615E+01  0.26482726962E+02  0.00000000000E+00 0. -1.
         -1    1    1    2    0  502  0.39768088423E+01 -0.21424504733E+02 -0.59681457847E+02  0.63535036179E+02  0.00000000000E+00 0.  1.
<scales pt_clust_5="13000.00000" pt_clust_6="13000.00000" pt_clust_7="13000.00000" pt_clust_8="13000.00000" pt_clust_9="21.79048"></scales>
<clustering>
<clus scale="   21.790">  1  9  2 -1</clus>
<clus scale="   81.645">  5  6 -1 -1</clus>
<clus scale="   89.056">  2  5  1 -1</clus>
<clus scale="   94.335">  7  8 -1 -1</clus>
<clus scale="   21.790">  1  5  2 -1</clus>
</clustering>
</event>
<event>
 9    1  0.6014990E-005  0.1338410E+03  0.7546771E-02  0.1223628E+00
          1   -1    0    0  502    0 -0.00000000000E+00  0.00000000000E+00  0.51510424250E+03  0.51510424250E+03  0.00000000000E+00 0. -1.
         21   -1    0    0  501  502  0.00000000000E+00 -0.00000000000E+00 -0.46972042510E+02  0.46972042510E+02  0.00000000000E+00 0.  1.
         23    2    1    2    0    0 -0.90788889426E+02 -0.34834537502E+02  0.26766368438E+03  0.29897348667E+03  0.91023240722E+02 0.  0.
        -24    2    1    2    0    0  0.99108703602E+02  0.15877816940E+02  0.20381561742E+03  0.24213187435E+03  0.83740064924E+02 0.  0.
         13    1    4    4    0    0  0.45309431388E+02 -0.16326364887E+02  0.15603926233E+03  0.16330262138E+03  0.00000000000E+00 0. -1.
        -14    1    4    4    0    0  0.53799272214E+02  0.32204181828E+02  0.47776355093E+02  0.78829252971E+02  0.00000000000E+00 0.  1.
        -11    1    3    3    0    0 -0.48777795496E+02 -0.56737116608E+02  0.21733059354E+03  0.22984986540E+03  0.00000000000E+00 0. -1.
         11    1    3    3    0    0 -0.42011093930E+02  0.21902579106E+02  0.50333090832E+02  0.69123621270E+02  0.00000000000E+00 0.  1.
          2    1    1    2  501    0 -0.83198141756E+01  0.18956720562E+02 -0.33471018046E+01  0.20970923987E+02  0.00000000000E+00 0. -1.
<scales pt_clust_5="13000.00000" pt_clust_6="13000.00000" pt_clust_7="13000.00000" pt_clust_8="13000.00000" pt_clust_9="20.70209"></scales>
<clustering>
<clus scale="   20.702">  2  9  1 -1</clus>
<clus scale="   83.740">  5  6 -1 -1</clus>
<clus scale="   91.023">  7  8 -1 -1</clus>
<clus scale="  128.998">  2  5  1 -1</clus>
<clus scale="   20.702">  2  5  1 -1</clus>
</clustering>
</event>
<event>
 9    1  0.6014990E-005  0.1318014E+03  0.7546771E-02  0.1245385E+00
         21   -1    0    0  501  502  0.00000000000E+00  0.00000000000E+00  0.25629535121E+03  0.25629535121E+03  0.00000000000E+00 0.  1.
         -4   -1    0    0    0  501 -0.00000000000E+00 -0.00000000000E+00 -0.84524812072E+03  0.84524812072E+03  0.00000000000E+00 0.  1.
        -24    2    1    2    0    0  0.15482250877E+01 -0.31589900283E+02 -0.78822995886E+03  0.79295997624E+03  0.80490602369E+02 0.  0.
         23    2    1    2    0    0 -0.85812892200E+02  0.55454493547E+02  0.82095788893E+02  0.16229086584E+03  0.95705554998E+02 0.  0.
         13    1    3    3    0    0 -0.34662874820E+02 -0.48171956914E+01 -0.20253222149E+03  0.20553350337E+03  0.00000000000E+00 0. -1.
        -14    1    3    3    0    0  0.36211099908E+02 -0.26772704591E+02 -0.58569773737E+03  0.58742647287E+03  0.00000000000E+00 0.  1.
        -13    1    4    4    0    0 -0.46188720915E+02  0.80273152092E+02  0.47186419865E+02  0.10394101744E+03  0.00000000000E+00 0.  1.
         13    1    4    4    0    0 -0.39624171285E+02 -0.24818658545E+02  0.34909369028E+02  0.58349848397E+02  0.00000000000E+00 0. -1.
         -3    1    1    2    0  502  0.84264667112E+02 -0.23864593265E+02  0.11718140046E+03  0.14629262986E+03  0.00000000000E+00 0.  1.
<scales pt_clust_5="13000.00000" pt_clust_6="13000.00000" pt_clust_7="13000.00000" pt_clust_8="13000.00000" pt_clust_9="90.62038"></scales>
<clustering>
<clus scale="   80.491">  5  6 -1 -1</clus>
<clus scale="   86.482">  2  5  1 -1</clus>
<clus scale="   90.620">  1  9  2 -1</clus>
<clus scale="   95.706">  7  8 -1 -1</clus>
<clus scale="   90.620">  1  5  2 -1</clus>
</clustering>
</event>
<event>
 9    1  0.6014990E-005  0.1163152E+03  0.7546771E-02  0.1255078E+00
         21   -1    0    0  501  502  0.00000000000E+00  0.00000000000E+00  0.24832542988E+03  0.24832542988E+03  0.00000000000E+00 0.  1.
         -2   -1    0    0    0  501 -0.00000000000E+00 -0.00000000000E+00 -0.27514751827E+03  0.27514751827E+03  0.00000000000E+00 0.  1.
        -24    2    1    2    0    0  0.39834535550E+02  0.54861827739E+02 -0.21990471635E+03  0.24384656775E+03  0.80662593345E+02 0.  0.
         23    2    1    2    0    0 -0.72909386422E+02  0.55720882739E+01  0.73287182850E+02  0.14143393258E+03  0.96362437286E+02 0.  0.
         13    1    3    3    0    0 -0.54759557367E+01  0.21122867654E+02 -0.60330553952E+01  0.22639774437E+02  0.00000000000E+00 0. -1.
        -14    1    3    3    0    0  0.45310491286E+02  0.33738960085E+02 -0.21387166095E+03  0.22120679331E+03  0.00000000000E+00 0.  1.
        -11    1    4    4    0    0 -0.40298583883E+02  0.50182626008E+02  0.28881609143E+02  0.70543739358E+02  0.00000000000E+00 0.  1.
         11    1    4    4    0    0 -0.32610802539E+02 -0.44610537734E+02  0.44405573707E+02  0.70890193225E+02  0.00000000000E+00 0. -1.
         -1    1    1    2    0  502  0.33074850872E+02 -0.60433916013E+02  0.11979544511E+03  0.13819244782E+03  0.00000000000E+00 0.  1.
<scales pt_clust_5="13000.00000" pt_clust_6="13000.00000" pt_clust_7="13000.00000" pt_clust_8="13000.00000" pt_clust_9="68.89270"></scales>
<clustering>
<clus scale="   68.893">  1  9  2 -1</clus>
<clus scale="   80.663">  5  6 -1 -1</clus>
<clus scale="   96.362">  7  8 -1 -1</clus>
<clus scale="  103.682">  2  5  1 -1</clus>
<clus scale="   68.893">  1  5  2 -1</clus>
</clustering>
</event>
<event>
 9    1  0.6014990E-005  0.1043147E+03  0.7546771E-02  0.1275046E+00
          3   -1    0    0  502    0 -0.00000000000E+00  0.00000000000E+00  0.45143891822E+02  0.45143891822E+02  0.00000000000E+00 0. -1.
         21   -1    0    0  501  502  0.00000000000E+00 -0.00000000000E+00 -0.34587938511E+03  0.34587938511E+03  0.00000000000E+00 0. -1.
         23    2    1    2    0    0 -0.45177396450E+02  0.28175275212E+01 -0.56238592609E+02  0.11718491976E+03  0.92307044748E+02 0.  0.
        -24    2    1    2    0    0  0.56706910249E+02  0.14092662914E+02 -0.19775259565E+03  0.22280979378E+03  0.84402833480E+02 0.  0.
         11    1    4    4    0    0  0.24217446004E+02  0.45356873975E+02 -0.66700706476E+02  0.84218257832E+02  0.00000000000E+00 0. -1.
        -12    1    4    4    0    0  0.32489464245E+02 -0.31264211061E+02 -0.13105188918E+03  0.13859153595E+03  0.00000000000E+00 0.  1.
        -13    1    3    3    0    0 -0.24236989934E+02  0.31553156604E+02  0.10864243801E+02  0.41243971270E+02  0.00000000000E+00 0.  1.
         13    1    3    3    0    0 -0.20940406516E+02 -0.28735629083E+02 -0.67102836410E+02  0.75940948493E+02  0.00000000000E+00 0. -1.
          4    1    1    2  501    0 -0.11529513799E+02 -0.16910190435E+02 -0.46744305029E+02  0.51028563390E+02  0.00000000000E+00 0. -1.
<scales pt_clust_5="13000.00000" pt_clust_6="13000.00000" pt_clust_7="13000.00000" pt_clust_8="13000.00000" pt_clust_9="20.46666"></scales>
<clustering>
<clus scale="   20.467">  2  9  1 -1</clus>
<clus scale="   84.403">  5  6 -1 -1</clus>
<clus scale="   92.307">  7  8 -1 -1</clus>
<clus scale="   97.390">  2  5  1 -1</clus>
<clus scale="   20.467">  2  5  1 -1</clus>
</clustering>
</event>
<event>
 9    1  0.6014990E-005  0.9175324E+02  0.7546771E-02  0.1304178E+00
         21   -1    0    0  501  502  0.00000000000E+00  0.00000000000E+00  0.84447244180E+02  0.84447244180E+02  0.00000000000E+00 0. -1.
         -2   -1    0    0    0  501 -0.00000000000E+00 -0.00000000000E+00 -0.22855547804E+03  0.22855547804E+03  0.00000000000E+00 0.  1.
         23    2    1    2    0    0 -0.25458321947E+02  0.17550081408E+02 -0.11119239489E+03  0.14703975349E+03  0.91108775154E+02 0.  0.
        -24    2    1    2    0    0 -0.24597543203E+02  0.31316627205E+02 -0.78792884252E+01  0.91663751310E+02  0.82185095042E+02 0.  0.
         13    1    4    4    0    0 -0.25882212993E+02  0.95438142070E+01  0.34397358614E+02  0.44092534727E+02  0.00000000000E+00 0. -1.
        -14    1    4    4    0    0  0.12846697901E+01  0.21772812998E+02 -0.42276647039E+02  0.47571216583E+02  0.00000000000E+00 0.  1.
        -11    1    3    3    0    0  0.13882959373E+02 -0.15310616246E+02  0.39145617892E+01  0.21035097452E+02  0.00000000000E+00 0. -1.
         11    1    3    3    0    0 -0.39341281320E+02  0.32860697655E+02 -0.11510695668E+03  0.12600465604E+03  0.00000000000E+00 0.  1.
         -1    1    1    2    0  502  0.50055865150E+02 -0.48866708613E+02 -0.25036550543E+02  0.74299217423E+02  0.00000000000E+00 0.  1.
<scales pt_clust_5="13000.00000" pt_clust_6="13000.00000" pt_clust_7="13000.00000" pt_clust_8="13000.00000" pt_clust_9="69.95388"></scales>
<clustering>
<clus scale="   69.954">  1  9  2 -1</clus>
<clus scale="   82.185">  5  6 -1 -1</clus>
<clus scale="   82.899">  1  5  2 -1</clus>
<clus scale="   91.109">  7  8 -1 -1</clus>
<clus scale="   69.954">  1  5  2 -1</clus>
</clustering>
</event>
<event>
 9    1  0.6014990E-005  0.9764382E+02  0.7546771E-02  0.1289669E+00
         21   -1    0    0  501  502  0.00000000000E+00  0.00000000000E+00  0.56357349347E+02  0.56357349347E+02  0.00000000000E+00 0. -1.
          1   -1    0    0  502    0 -0.00000000000E+00 -0.00000000000E+00 -0.47201842516E+03  0.47201842516E+03  0.00000000000E+00 0. -1.
        -24    2    1    2    0    0 -0.71734158944E+01  0.33407777309E+02 -0.28391546793E+03  0.29735475442E+03  0.81512695728E+02 0.  0.
         23    2    1    2    0    0  0.27171533248E+02 -0.40678649159E+02 -0.16344645790E+03  0.19284073502E+03  0.89887483936E+02 0.  0.
         13    1    3    3    0    0  0.36669639883E+02  0.21881043211E+02 -0.15095977373E+03  0.15688306418E+03  0.00000000000E+00 0. -1.
        -14    1    3    3    0    0 -0.43843055777E+02  0.11526734098E+02 -0.13295569420E+03  0.14047169025E+03  0.00000000000E+00 0.  1.
        -13    1    4    4    0    0 -0.26957216443E+02 -0.39951044375E+02 -0.78175811168E+02  0.91838090773E+02  0.00000000000E+00 0.  1.
         13    1    4    4    0    0  0.54128749691E+02 -0.72760478388E+00 -0.85270646731E+02  0.10100264425E+03  0.00000000000E+00 0. -1.
          2    1    1    2  501    0 -0.19998117354E+02  0.72708718502E+01  0.31700850021E+02  0.38180285059E+02  0.00000000000E+00 0. -1.
<scales pt_clust_5="13000.00000" pt_clust_6="13000.00000" pt_clust_7="13000.00000" pt_clust_8="13000.00000" pt_clust_9="21.27887"></scales>
<clustering>
<clus scale="   21.279">  1  9  2 -1</clus>
<clus scale="   81.513">  5  6 -1 -1</clus>
<clus scale="   89.887">  7  8 -1 -1</clus>
<clus scale="   89.994">  2  5  1 -1</clus>
<clus scale="   21.279">  1  5  2 -1</clus>
</clustering>
</event>
<event>
 9    1  0.6014990E-005  0.1383681E+03  0.7546771E-02  0.1234785E+00
         21   -1    0    0  501  502  0.00000000000E+00  0.00000000000E+00  0.29678261358E+03  0.29678261358E+03  0.00000000000E+00 0.  1.
         -4   -1    0    0    0  501 -0.00000000000E+00 -0.00000000000E+00 -0.10351010416E+03  0.10351010416E+03  0.00000000000E+00 0.  1.
        -24    2    1    2    0    0  0.11184567419E+02  0.44325799731E+02  0.13844604403E+02  0.93723374277E+02  0.80638246166E+02 0.  0.
         23    2    1    2    0    0  0.70777423148E+02  0.36834909094E+02  0.48069252832E+02  0.13175537361E+03  0.93180315795E+02 0.  0.
         11    1    3    3    0    0  0.44589560117E+02  0.32412288113E+02 -0.13451593572E+01  0.55141588169E+02  0.00000000000E+00 0. -1.
        -12    1    3    3    0    0 -0.33404992698E+02  0.11913511617E+02  0.15189763760E+02  0.38581786108E+02  0.00000000000E+00 0.  1.
        -13    1    4    4    0    0  0.30818489325E+02  0.60276597396E+02  0.40014909664E+01  0.67816365339E+02  0.00000000000E+00 0.  1.
         13    1    4    4    0    0  0.39958933823E+02 -0.23441688301E+02  0.44067761865E+02  0.63939008270E+02  0.00000000000E+00 0. -1.
         -3    1    1    2    0  502 -0.81961990566E+02 -0.81160708825E+02  0.13135865219E+03  0.17481396986E+03  0.00000000000E+00 0.  1.
<scales pt_clust_5="13000.00000" pt_clust_6="13000.00000" pt_clust_7="13000.00000" pt_clust_8="13000.00000" pt_clust_9="102.28957"></scales>
<clustering>
<clus scale="   80.638">  5  6 -1 -1</clus>
<clus scale="   92.695">  2  5  1 -1</clus>
<clus scale="   93.180">  7  8 -1 -1</clus>
<clus scale="  102.290">  1  9  2 -1</clus>
<clus scale="  102.290">  1  5  2 -1</clus>
</clustering>
</event>
<event>
 9    1  0.6014990E-005  0.1329698E+03  0.7546771E-02  0.1226083E+00
         21   -1    0    0  501  502  0.00000000000E+00  0.00000000000E+00  0.35795757602E+03  0.35795757602E+03  0.00000000000E+00 0. -1.
         -4   -1    0    0    0  501 -0.00000000000E+00 -0.00000000000E+00 -0.98912435128E+02  0.98912435128E+02  0.00000000000E+00 0.  1.
        -24    2    1    2    0    0 -0.11584829014E+03 -0.34370486444E+02  0.65672193390E+02  0.15910647191E+03  0.79999223447E+02 0.  0.
         23    2    1    2    0    0  0.34026578457E+02  0.57843122488E+02  0.17795624108E+03  0.21125670724E+03  0.91963785016E+02 0.  0.
         13    1    3    3    0    0 -0.70256196685E+02 -0.53135246879E+02  0.16778497154E+02  0.89670539199E+02  0.00000000000E+00 0. -1.
        -14    1    3    3    0    0 -0.45592093453E+02  0.18764760435E+02  0.48893696236E+02  0.69435932710E+02  0.00000000000E+00 0.  1.
        -11    1    4    4    0    0 -0.58786291789E+01 -0.20040194545E+02  0.65581852281E+02  0.68826935331E+02  0.00000000000E+00 0.  1.
         11    1    4    4    0    0  0.39905207636E+02  0.77883317033E+02  0.11237438880E+03  0.14242977191E+03  0.00000000000E+00 0. -1.
         -3    1    1    2    0  502  0.81821711681E+02 -0.23472636044E+02  0.15416706419E+02  0.86506831996E+02  0.00000000000E+00 0.  1.
<scales pt_clust_5="13000.00000" pt_clust_6="13000.00000" pt_clust_7="13000.00000" pt_clust_8="13000.00000" pt_clust_9="85.12206"></scales>
<clustering>
<clus scale="   79.999">  5  6 -1 -1</clus>
<clus scale="   85.122">  1  9  2 -1</clus>
<clus scale="   91.964">  7  8 -1 -1</clus>
<clus scale="  124.994">  2  5  1 -1</clus>
<clus scale="   85.122">  1  5  2 -1</clus>
</clustering>
</event>
<event>
 9    1  0.6014990E-005  0.1368694E+03  0.7546771E-02  0.1241630E+00
          1   -1    0    0  502    0 -0.00000000000E+00  0.00000000000E+00  0.74874500532E+03  0.74874500532E+03  0.00000000000E+00 0. -1.
         21   -1    0    0  501  502  0.00000000000E+00 -0.00000000000E+00 -0.36685381781E+02  0.36685381781E+02  0.00000000000E+00 0. -1.
        -24    2    1    2    0    0  0.30034906524E+02  0.10812347263E+00  0.17084147740E+03  0.19007168971E+03  0.77706689099E+02 0.  0.
         23    2    1    2    0    0  0.78336893190E+01  0.10126855242E+03  0.24352261734E+03  0.27860344671E+03  0.89442321983E+02 0.  0.
         11    1    3    3    0    0  0.46725239191E+02  0.11614541787E+02  0.15999026016E+03  0.16707791267E+03  0.00000000000E+00 0. -1.
        -12    1    3    3    0    0 -0.16690332667E+02 -0.11506418314E+02  0.10851217240E+02  0.22993777040E+02  0.00000000000E+00 0.  1.
        -13    1    4    4    0    0 -0.27839352141E+02  0.45597366289E+00  0.61146566239E+02  0.67187350018E+02  0.00000000000E+00 0.  1.
         13    1    4    4    0    0  0.35673041460E+02  0.10081257876E+03  0.18237605110E+03  0.21141609669E+03  0.00000000000E+00 0. -1.
          2    1    1    2  501    0 -0.37868595843E+02 -0.10137667590E+03  0.29769552880E+03  0.31675525068E+03  0.00000000000E+00 0. -1.
<scales pt_clust_5="13000.00000" pt_clust_6="13000.00000" pt_clust_7="13000.00000" pt_clust_8="13000.00000" pt_clust_9="103.60166"></scales>
<clustering>
<clus scale="   77.707">  5  6 -1 -1</clus>
<clus scale="   83.309">  1  5  2 -1</clus>
<clus scale="   89.442">  7  8 -1 -1</clus>
<clus scale="  103.602">  2  9  1 -1</clus>
<clus scale="  103.602">  2  5  1 -1</clus>
</clustering>
</event>
<event>
 9    1  0.6014990E-005  0.1810900E+03  0.7546771E-02  0.1168023E+00
          1   -1    0    0  502    0 -0.00000000000E+00  0.00000000000E+00  0.12534931999E+04  0.12534931999E+04  0.00000000000E+00 0. -1.
         21   -1    0    0  501  502  0.00000000000E+00 -0.00000000000E+00 -0.53948771999E+02  0.53948771999E+02  0.00000000000E+00 0. -1.
         23    2    1    2    0    0  0.20884400686E+02  0.19887562310E+03  0.77916576784E+03  0.80954459674E+03  0.90969713003E+02 0.  0.
        -24    2    1    2    0    0 -0.73806507986E+02 -0.80766554688E+02  0.18629970016E+03  0.23042128100E+03  0.80098386249E+02 0.  0.
         11    1    4    4    0    0 -0.90567791449E+02 -0.58928530433E+02  0.14702802293E+03  0.18246187567E+03  0.00000000000E+00 0. -1.
        -12    1    4    4    0    0  0.16761283464E+02 -0.21838024256E+02  0.39271677231E+02  0.47959405327E+02  0.00000000000E+00 0.  1.
        -11    1    3    3    0    0 -0.31933127617E+02  0.55575783816E+02  0.29412334624E+03  0.30102646925E+03  0.00000000000E+00 0.  1.
         11    1    3    3    0    0  0.52817528302E+02  0.14329983928E+03  0.48504242159E+03  0.50851812748E+03  0.00000000000E+00 0. -1.
          2    1    1    2  501    0  0.52922107300E+02 -0.11810906841E+03  0.23407895994E+03  0.26747609420E+03  0.00000000000E+00 0. -1.
<scales pt_clust_5="13000.00000" pt_clust_6="13000.00000" pt_clust_7="13000.00000" pt_clust_8="13000.00000" pt_clust_9="129.42373"></scales>
<clustering>
<clus scale="   80.098">  5  6 -1 -1</clus>
<clus scale="   90.970">  7  8 -1 -1</clus>
<clus scale="  129.424">  2  9  1 -1</clus>
<clus scale="  175.880">  2  5  1 -1</clus>
<clus scale="  129.424">  2  5  1 -1</clus>
</clustering>
</event>
<event>
 9    1  0.6014990E-005  0.1283008E+03  0.7546771E-02  0.1232776E+00
          1   -1    0    0  502    0 -0.00000000000E+00  0.00000000000E+00  0.54901476299E+03  0.54901476299E+03  0.00000000000E+00 0. -1.
         21   -1    0    0  501  502  0.00000000000E+00 -0.00000000000E+00 -0.60765222789E+02  0.60765222789E+02  0.00000000000E+00 0.  1.
         23    2    1    2    0    0 -0.12281895922E+02 -0.89579232790E+02  0.43856661835E+03  0.45697158009E+03  0.91143087277E+02 0.  0.
        -24    2    1    2    0    0 -0.97353476588E+01  0.91441489173E+02  0.41811926292E+02  0.12935249845E+03  0.80792999318E+02 0.  0.
         13    1    4    4    0    0 -0.44566971872E+02  0.46472147264E+02  0.30960807385E+02  0.71445413058E+02  0.00000000000E+00 0. -1.
        -14    1    4    4    0    0  0.34831624213E+02  0.44969341909E+02  0.10851118907E+02  0.57907085392E+02  0.00000000000E+00 0.  1.
        -13    1    3    3    0    0 -0.23027856432E+02  0.91072638009E+01  0.14436429596E+03  0.14647277690E+03  0.00000000000E+00 0. -1.
         13    1    3    3    0    0  0.10745960510E+02 -0.98686496591E+02  0.29420232239E+03  0.31049880318E+03  0.00000000000E+00 0.  1.
          2    1    1    2  501    0  0.22017243581E+02 -0.18622563826E+01  0.78709955616E+01  0.23455907249E+02  0.00000000000E+00 0. -1.
<scales pt_clust_5="13000.00000" pt_clust_6="13000.00000" pt_clust_7="13000.00000" pt_clust_8="13000.00000" pt_clust_9="22.09586"></scales>
<clustering>
<clus scale="   22.096">  2  9  1 -1</clus>
<clus scale="   80.793">  5  6 -1 -1</clus>
<clus scale="   91.143">  7  8 -1 -1</clus>
<clus scale="  121.167">  2  5  1 -1</clus>
<clus scale="   22.096">  2  5  1 -1</clus>
</clustering>
</event>
<event>
 9    1  0.6014990E-005  0.1141510E+03  0.7546771E-02  0.1255820E+00
          1   -1    0    0  502    0 -0.00000000000E+00  0.00000000000E+00  0.11902220853E+03  0.11902220853E+03  0.00000000000E+00 0. -1.
         21   -1    0    0  501  502  0.00000000000E+00 -0.00000000000E+00 -0.31704070521E+03  0.31704070521E+03  0.00000000000E+00 0. -1.
        -24    2    1    2    0    0 -0.65842016578E+02 -0.15912060275E+02  0.54119369024E+02  0.11811373255E+03  0.80209618532E+02 0.  0.
         23    2    1    2    0    0  0.88697690236E+02  0.20015659371E+02 -0.93068483235E+02  0.15719380869E+03  0.88205691686E+02 0.  0.
         11    1    3    3    0    0 -0.59215844976E+02 -0.35918315958E+02  0.64482215893E+02  0.94628737094E+02  0.00000000000E+00 0. -1.
        -12    1    3    3    0    0 -0.66261716016E+01  0.20006255683E+02 -0.10362846869E+02  0.23484995461E+02  0.00000000000E+00 0.  1.
        -13    1    4    4    0    0  0.20807586683E+02 -0.28778693630E+02 -0.54669499256E+02  0.65191433636E+02  0.00000000000E+00 0. -1.
         13    1    4    4    0    0  0.67890103553E+02  0.48794353001E+02 -0.38398983979E+02  0.92002375055E+02  0.00000000000E+00 0.  1.
          2    1    1    2  501    0 -0.22855673658E+02 -0.41035990963E+01 -0.15906938247E+03  0.16075537249E+03  0.00000000000E+00 0. -1.
<scales pt_clust_5="13000.00000" pt_clust_6="13000.00000" pt_clust_7="13000.00000" pt_clust_8="13000.00000" pt_clust_9="23.22114"></scales>
<clustering>
<clus scale="   23.221">  2  9  1 -1</clus>
<clus scale="   80.210">  5  6 -1 -1</clus>
<clus scale="   88.206">  7  8 -1 -1</clus>
<clus scale="  108.092">  1  5  2 -1</clus>
<clus scale="   23.221">  2  5  1 -1</clus>
</clustering>
</event>
<event>
 9    1  0.6014990E-005  0.9883506E+02  0.7546771E-02  0.1286791E+00
         21   -1    0    0  501  502  0.00000000000E+00  0.00000000000E+00  0.73666217488E+02  0.73666217488E+02  0.00000000000E+00 0. -1.
         -4   -1    0    0    0  501 -0.00000000000E+00 -0.00000000000E+00 -0.26588610988E+03  0.26588610988E+03  0.00000000000E+00 0.  1.
         23    2    1    2    0    0 -0.11145626589E+02  0.37691692663E+02 -0.18975194121E+03  0.21315253905E+03  0.88788045505E+02 0.  0.
        -24    2    1    2    0    0  0.91123291250E+01 -0.57724249113E+02 -0.17686968709E+02  0.10115981781E+03  0.80655789617E+02 0.  0.
         13    1    4    4    0    0  0.36551558248E+01 -0.23899447450E+02  0.32430021307E+02  0.40450587567E+02  0.00000000000E+00 0. -1.
        -14    1    4    4    0    0  0.54571733003E+01 -0.33824801663E+02 -0.50116990016E+02  0.60709230239E+02  0.00000000000E+00 0.  1.
        -11    1    3    3    0    0 -0.49058020235E+02  0.21743202087E+02 -0.12973427142E+03  0.14039386514E+03  0.00000000000E+00 0. -1.
         11    1    3    3    0    0  0.37912393646E+02  0.15948490576E+02 -0.60017669786E+02  0.72758673917E+02  0.00000000000E+00 0.  1.
         -3    1    1    2    0  502  0.20332974644E+01  0.20032556450E+02  0.15219017529E+02  0.25239970504E+02  0.00000000000E+00 0.  1.
<scales pt_clust_5="13000.00000" pt_clust_6="13000.00000" pt_clust_7="13000.00000" pt_clust_8="13000.00000" pt_clust_9="20.13548"></scales>
<clustering>
<clus scale="   20.135">  1  9  2 -1</clus>
<clus scale="   80.656">  5  6 -1 -1</clus>
<clus scale="   88.788">  7  8 -1 -1</clus>
<clus scale="   91.599">  1  5  2 -1</clus>
<clus scale="   20.135">  1  5  2 -1</clus>
</clustering>
</event>
<event>
 9    1  0.6014990E-005  0.1037163E+03  0.7546771E-02  0.1278945E+00
         21   -1    0    0  501  502  0.00000000000E+00  0.00000000000E+00  0.73171991949E+02  0.73171991949E+02  0.00000000000E+00 0.  1.
          1   -1    0    0  502    0 -0.00000000000E+00 -0.00000000000E+00 -0.46840741433E+03  0.46840741433E+03  0.00000000000E+00 0. -1.
        -24    2    1    2    0    0 -0.60990864805E+02  0.44727500937E+02 -0.97116651038E+02  0.14692041539E+03  0.80209286376E+02 0.  0.
         23    2    1    2    0    0 -0.42042008684E+02 -0.32840937507E+02 -0.34133388072E+02  0.11103010309E+03  0.91195054368E+02 0.  0.
         13    1    3    3    0    0 -0.63241071053E+02  0.16998255251E+02 -0.99371606936E+02  0.11900878125E+03  0.00000000000E+00 0. -1.
        -14    1    3    3    0    0  0.22502062481E+01  0.27729245686E+02  0.22549558983E+01  0.27911634144E+02  0.00000000000E+00 0.  1.
        -13    1    4    4    0    0 -0.65398313551E+02 -0.44494442524E+02 -0.30027552029E+02  0.84607025191E+02  0.00000000000E+00 0.  1.
         13    1    4    4    0    0  0.23356304867E+02  0.11653505017E+02 -0.41058360434E+01  0.26423077903E+02  0.00000000000E+00 0. -1.
          2    1    1    2  501    0  0.10303287349E+03 -0.11886563430E+02 -0.26398538327E+03  0.28362888779E+03  0.00000000000E+00 0. -1.
<scales pt_clust_5="13000.00000" pt_clust_6="13000.00000" pt_clust_7="13000.00000" pt_clust_8="13000.00000" pt_clust_9="103.71632"></scales>
<clustering>
<clus scale="   80.209">  5  6 -1 -1</clus>
<clus scale="   91.195">  7  8 -1 -1</clus>
<clus scale="  103.716">  1  9  2 -1</clus>
<clus scale="   91.966">  2  5  1 -1</clus>
<clus scale="  103.716">  1  5  2 -1</clus>
</clustering>
</event>
<event>
 9    1  0.6014990E-005  0.9989959E+02  0.7546771E-02  0.1283733E+00
          3   -1    0    0  502    0 -0.00000000000E+00  0.00000000000E+00  0.26056781775E+03  0.26056781775E+03  0.00000000000E+00 0. -1.
         21   -1    0    0  501  502  0.00000000000E+00 -0.00000000000E+00 -0.89575367616E+02  0.89575367616E+02  0.00000000000E+00 0. -1.
         23    2    1    2    0    0 -0.60899749101E+02 -0.19849776723E+02  0.18695827647E+03  0.21561860238E+03  0.86227556349E+02 0.  0.
        -24    2    1    2    0    0  0.13203138472E+02  0.81927032955E+00  0.11741052122E+01  0.80386758019E+02  0.79282143465E+02 0.  0.
         11    1    4    4    0    0 -0.24053728957E+02  0.11236787967E+02 -0.22697219449E+02  0.34928656591E+02  0.00000000000E+00 0. -1.
        -12    1    4    4    0    0  0.37256867429E+02 -0.10417517638E+02  0.23871324661E+02  0.45458101428E+02  0.00000000000E+00 0.  1.
        -11    1    3    3    0    0  0.18733297415E+02 -0.16532926409E+02  0.26296981601E+02  0.36274031056E+02  0.00000000000E+00 0.  1.
         11    1    3    3    0    0 -0.79633046516E+02 -0.33168503134E+01  0.16066129487E+03  0.17934457132E+03  0.00000000000E+00 0. -1.
          4    1    1    2  501    0  0.47696610629E+02  0.19030506393E+02 -0.17139931547E+02  0.54137824970E+02  0.00000000000E+00 0. -1.
<scales pt_clust_5="13000.00000" pt_clust_6="13000.00000" pt_clust_7="13000.00000" pt_clust_8="13000.00000" pt_clust_9="51.35296"></scales>
<clustering>
<clus scale="   51.353">  2  9  1 -1</clus>
<clus scale="   79.282">  5  6 -1 -1</clus>
<clus scale="   86.228">  7  8 -1 -1</clus>
<clus scale="   93.970">  2  5  1 -1</clus>
<clus scale="   51.353">  2  5  1 -1</clus>
</clustering>
</event>
<event>
 9    1  0.6014990E-005  0.1198232E+03  0.7546771E-02  0.1248098E+00
         21   -1    0    0  501  502  0.00000000000E+00  0.00000000000E+00  0.75397531628E+02  0.75397531628E+02  0.00000000000E+00 0. -1.
          1   -1    0    0  502    0 -0.00000000000E+00 -0.00000000000E+00 -0.55690477612E+03  0.55690477612E+03  0.00000000000E+00 0. -1.
         23    2    1    2    0    0 -0.35945509805E+02  0.81714249947E+02 -0.14128192452E+03  0.19183377236E+03  0.94182353438E+02 0.  0.
        -24    2    1    2    0    0  0.33077355007E+02 -0.33848854221E+02  0.39260622356E+01  0.92992642283E+02  0.79952243295E+02 0.  0.
         11    1    4    4    0    0  0.26234122691E+02 -0.60143397956E+02  0.49542715021E+01  0.65802753113E+02  0.00000000000E+00 0. -1.
        -12    1    4    4    0    0  0.68432323151E+01  0.26294543736E+02 -0.10282092664E+01  0.27189889170E+02  0.00000000000E+00 0.  1.
        -11    1    3    3    0    0 -0.49073450756E+02  0.14748572485E+02 -0.25018916918E+02  0.57023417674E+02  0.00000000000E+00 0. -1.
         11    1    3    3    0    0  0.13127940952E+02  0.66965677462E+02 -0.11626300761E+03  0.13481035468E+03  0.00000000000E+00 0.  1.
          2    1    1    2  501    0  0.28681547982E+01 -0.47865395727E+02 -0.34415138220E+03  0.34747589311E+03  0.00000000000E+00 0. -1.
<scales pt_clust_5="13000.00000" pt_clust_6="13000.00000" pt_clust_7="13000.00000" pt_clust_8="13000.00000" pt_clust_9="47.95127"></scales>
<clustering>
<clus scale="   47.951">  1  9  2 -1</clus>
<clus scale="   79.952">  5  6 -1 -1</clus>
<clus scale="   94.182">  7  8 -1 -1</clus>
<clus scale="  108.994">  1  5  2 -1</clus>
<clus scale="   47.951">  1  5  2 -1</clus>
</clustering>
</event>
<event>
 9    1  0.6014990E-005  0.2191359E+03  0.7546771E-02  0.1134529E+00
         21   -1    0    0  501  502  0.00000000000E+00  0.00000000000E+00  0.15135934002E+03  0.15135934002E+03  0.00000000000E+00 0.  1.
         -2   -1    0    0    0  501 -0.00000000000E+00 -0.00000000000E+00 -0.18720168659E+03  0.18720168659E+03  0.00000000000E+00 0.  1.
        -24    2    1    2    0    0  0.70415717999E+02  0.51597555307E+02 -0.39298867200E+02  0.12373401223E+03  0.78390201968E+02 0.  0.
         23    2    1    2    0    0  0.35291473804E+02 -0.11959036307E+02 -0.10742134515E+02  0.10104290126E+03  0.93304703897E+02 0.  0.
         11    1    3    3    0    0  0.39465757787E+02  0.15264771038E+02 -0.58574793166E+02  0.72260401791E+02  0.00000000000E+00 0. -1.
        -12    1    3    3    0    0  0.30949960213E+02  0.36332784268E+02  0.19275925966E+02  0.51473610440E+02  0.00000000000E+00 0.  1.
        -13    1    4    4    0    0  0.40006494579E+02  0.32878512795E+02 -0.19093255637E+02  0.55191200593E+02  0.00000000000E+00 0. -1.
         13    1    4    4    0    0 -0.47150207751E+01 -0.44837549102E+02  0.83511211215E+01  0.45851700671E+02  0.00000000000E+00 0.  1.
         -1    1    1    2    0  502 -0.10570719180E+03 -0.39638518999E+02  0.14198655146E+02  0.11378411311E+03  0.00000000000E+00 0.  1.
<scales pt_clust_5="13000.00000" pt_clust_6="13000.00000" pt_clust_7="13000.00000" pt_clust_8="13000.00000" pt_clust_9="112.89474"></scales>
<clustering>
<clus scale="   78.390">  5  6 -1 -1</clus>
<clus scale="   93.305">  7  8 -1 -1</clus>
<clus scale="  100.054">  5  7 -1 -1</clus>
<clus scale="  112.895">  1  9  2 -1</clus>
<clus scale="  112.895">  1  5  2 -1</clus>
</clustering>
</event>
<event>
 9    1  0.6014990E-005  0.1420097E+03  0.7546771E-02  0.1212741E+00
          1   -1    0    0  502    0 -0.00000000000E+00  0.00000000000E+00  0.31411158544E+03  0.31411158544E+03  0.00000000000E+00 0. -1.
         21   -1    0    0  501  502  0.00000000000E+00 -0.00000000000E+00 -0.15123791580E+03  0.15123791580E+03  0.00000000000E+00 0. -1.
        -24    2    1    2    0    0  0.90248019046E+02  0.53091387874E+02  0.11517089007E+03  0.17497650491E+03  0.79931489072E+02 0.  0.
         23    2    1    2    0    0 -0.14762796888E+03  0.39598085034E+02  0.27915046155E+02  0.17957881135E+03  0.90040402861E+02 0.  0.
         13    1    3    3    0    0  0.42178314041E+02  0.69156882263E+02  0.72964081145E+02  0.10902037276E+03  0.00000000000E+00 0. -1.
        -14    1    3    3    0    0  0.48069705005E+02 -0.16065494390E+02  0.42206808920E+02  0.65956132152E+02  0.00000000000E+00 0.  1.
        -13    1    4    4    0    0 -0.27147545804E+02 -0.14139368381E+02 -0.22881009123E+02  0.38215854824E+02  0.00000000000E+00 0.  1.
         13    1    4    4    0    0 -0.12048042308E+03  0.53737453415E+02  0.50796055278E+02  0.14136295652E+03  0.00000000000E+00 0. -1.
          2    1    1    2  501    0  0.57379949838E+02 -0.92689472907E+02  0.19787733423E+02  0.11079418498E+03  0.00000000000E+00 0. -1.
<scales pt_clust_5="13000.00000" pt_clust_6="13000.00000" pt_clust_7="13000.00000" pt_clust_8="13000.00000" pt_clust_9="109.01283"></scales>
<clustering>
<clus scale="   79.931">  5  6 -1 -1</clus>
<clus scale="   90.040">  7  8 -1 -1</clus>
<clus scale="  109.013">  2  9  1 -1</clus>
<clus scale="  135.825">  1  5  2 -1</clus>
<clus scale="  109.013">  2  5  1 -1</clus>
</clustering>
</event>
<event>
 9    1  0.6014990E-005  0.9859442E+02  0.7546771E-02  0.1289593E+00
         -2   -1    0    0    0  501 -0.00000000000E+00  0.00000000000E+00  0.75439507105E+02  0.75439507105E+02  0.00000000000E+00 0.  1.
         21   -1    0    0  501  502  0.00000000000E+00 -0.00000000000E+00 -0.21659291838E+03  0.21659291838E+03  0.00000000000E+00 0. -1.
        -24    2    1    2    0    0  0.29105463854E+02  0.81206016006E+01 -0.59564799626E+02  0.10311520709E+03  0.78560221378E+02 0.  0.
         23    2    1    2    0    0 -0.44521821637E+02 -0.29228553453E+02 -0.10869432349E+03  0.15126181595E+03  0.90714828271E+02 0.  0.
         13    1    3    3    0    0 -0.26039083777E+02 -0.68705042410E+01 -0.16817615104E+02  0.31750116382E+02  0.00000000000E+00 0. -1.
        -14    1    3    3    0    0  0.55144547631E+02  0.14991105842E+02 -0.42747184522E+02  0.71365090712E+02  0.00000000000E+00 0.  1.
        -11    1    4    4    0    0 -0.72180125816E+02 -0.21781403755E+02 -0.88248867951E+02  0.11607007714E+03  0.00000000000E+00 0. -1.
         11    1    4    4    0    0  0.27658304179E+02 -0.74471496982E+01 -0.20445455537E+02  0.35191738815E+02  0.00000000000E+00 0.  1.
         -1    1    1    2    0  502  0.15416357783E+02  0.21107951853E+02  0.27105711837E+02  0.37655402440E+02  0.00000000000E+00 0.  1.
<scales pt_clust_5="13000.00000" pt_clust_6="13000.00000" pt_clust_7="13000.00000" pt_clust_8="13000.00000" pt_clust_9="26.13829"></scales>
<clustering>
<clus scale="   26.138">  2  9  1 -1</clus>
<clus scale="   78.560">  5  6 -1 -1</clus>
<clus scale="   87.541">  1  5  2 -1</clus>
<clus scale="   90.715">  7  8 -1 -1</clus>
<clus scale="   26.138">  2  5  1 -1</clus>
</clustering>
</event>
<event>
 9    1  0.6014990E-005  0.9510892E+02  0.7546771E-02  0.1297581E+00
          3   -1    0    0  502    0 -0.00000000000E+00  0.00000000000E+00  0.18471192117E+03  0.18471192117E+03  0.00000000000E+00 0. -1.
         21   -1    0    0  501  502  0.00000000000E+00 -0.00000000000E+00 -0.72929423960E+02  0.72929423960E+02  0.00000000000E+00 0. -1.
         23    2    1    2    0    0  0.70972485507E+01 -0.31180312999E+02  0.10334428266E+03  0.14135409917E+03  0.90985480905E+02 0.  0.
        -24    2    1    2    0    0  0.14311178625E+02  0.21987606313E+02  0.25541051025E+02  0.87385107188E+02  0.79344483146E+02 0.  0.
         11    1    4    4    0    0  0.16373060676E+02 -0.19339479958E+02 -0.15008088107E+02  0.29450557033E+02  0.00000000000E+00 0. -1.
        -12    1    4    4    0    0 -0.20618820508E+01  0.41327086271E+02  0.40549139131E+02  0.57934550154E+02  0.00000000000E+00 0.  1.
        -11    1    3    3    0    0  0.89699468046E+01  0.30724605452E+02  0.20852152422E+02  0.38200439611E+02  0.00000000000E+00 0.  1.
         11    1    3    3    0    0 -0.18726982539E+01 -0.61904918452E+02  0.82492130243E+02  0.10315365955E+03  0.00000000000E+00 0. -1.
          4    1    1    2  501    0 -0.21408427176E+02  0.91927066860E+01 -0.17102836478E+02  0.28902138778E+02  0.00000000000E+00 0. -1.
<scales pt_clust_5="13000.00000" pt_clust_6="13000.00000" pt_clust_7="13000.00000" pt_clust_8="13000.00000" pt_clust_9="23.29864"></scales>
<clustering>
<clus scale="   23.299">  2  9  1 -1</clus>
<clus scale="   79.344">  5  6 -1 -1</clus>
<clus scale="   84.041">  2  5  1 -1</clus>
<clus scale="   90.985">  7  8 -1 -1</clus>
<clus scale="   23.299">  2  5  1 -1</clus>
</clustering>
</event>
<event>
 9    1  0.6014990E-005  0.9649266E+02  0.7546771E-02  0.1293529E+00
         -2   -1    0    0    0  501 -0.00000000000E+00  0.00000000000E+00  0.26356201895E+03  0.26356201895E+03  0.00000000000E+00 0.  1.
         21   -1    0    0  501  502  0.00000000000E+00 -0.00000000000E+00 -0.11452719258E+03  0.11452719258E+03  0.00000000000E+00 0.  1.
        -24    2    1    2    0    0 -0.25022450550E+02 -0.10812843944E+02  0.15486936256E+03  0.17679775680E+03  0.80807714515E+02 0.  0.
         23    2    1    2    0    0  0.47112454304E+02 -0.10456493651E+02  0.66493417343E+02  0.12273137677E+03  0.91173980299E+02 0.  0.
         11    1    3    3    0    0  0.21499179936E+02 -0.19398300166E+02  0.10116977526E+03  0.10523227743E+03  0.00000000000E+00 0. -1.
        -12    1    3    3    0    0 -0.46521630486E+02  0.85854562215E+01  0.53699587302E+02  0.71565479374E+02  0.00000000000E+00 0.  1.
        -13    1    4    4    0    0 -0.49832602719E+01  0.24649304724E+02 -0.69455033617E+01  0.26089483001E+02  0.00000000000E+00 0. -1.
         13    1    4    4    0    0  0.52095714576E+02 -0.35105798375E+02  0.73438920705E+02  0.96641893768E+02  0.00000000000E+00 0.  1.
         -1    1    1    2    0  502 -0.22090003755E+02  0.21269337596E+02 -0.72327953529E+02  0.78560077962E+02  0.00000000000E+00 0.  1.
<scales pt_clust_5="13000.00000" pt_clust_6="13000.00000" pt_clust_7="13000.00000" pt_clust_8="13000.00000" pt_clust_9="30.66518"></scales>
<clustering>
<clus scale="   30.665">  2  9  1 -1</clus>
<clus scale="   80.808">  5  6 -1 -1</clus>
<clus scale="   86.764">  1  5  2 -1</clus>
<clus scale="   91.174">  7  8 -1 -1</clus>
<clus scale="   30.665">  2  5  1 -1</clus>
</clustering>
</event>
<event>
 9    1  0.6014990E-005  0.1121604E+03  0.7546771E-02  0.1263457E+00
         21   -1    0    0  501  502  0.00000000000E+00  0.00000000000E+00  0.12326880477E+03  0.12326880477E+03  0.00000000000E+00 0. -1.
          1   -1    0    0  502    0 -0.00000000000E+00 -0.00000000000E+00 -0.59612414344E+03  0.59612414344E+03  0.00000000000E+00 0. -1.
        -24    2    1    2    0    0 -0.16029556112E+02  0.43045323647E+02 -0.31301254635E+03  0.32627742686E+03  0.79813899486E+02 0.  0.
         23    2    1    2    0    0  0.14455674251E+02 -0.80951995671E+02 -0.25820399312E+03  0.28769105213E+03  0.96615978460E+02 0.  0.
         13    1    3    3    0    0 -0.44818755239E+02  0.81153063093E+01 -0.12992778890E+03  0.13768009786E+03  0.00000000000E+00 0. -1.
        -14    1    3    3    0    0  0.28789199127E+02  0.34930017338E+02 -0.18308475745E+03  0.18859732900E+03  0.00000000000E+00 0.  1.
        -11    1    4    4    0    0 -0.14504950232E+02 -0.93075286978E+02 -0.17466283058E+03  0.19844522421E+03  0.00000000000E+00 0.  1.
         11    1    4    4    0    0  0.28960624483E+02  0.12123291307E+02 -0.83541162541E+02  0.89245827921E+02  0.00000000000E+00 0. -1.
          2    1    1    2  501    0  0.15738818610E+01  0.37906672023E+02  0.98361200791E+02  0.10542446921E+03  0.00000000000E+00 0. -1.
<scales pt_clust_5="13000.00000" pt_clust_6="13000.00000" pt_clust_7="13000.00000" pt_clust_8="13000.00000" pt_clust_9="37.93933"></scales>
<clustering>
<clus scale="   37.939">  1  9  2 -1</clus>
<clus scale="   79.814">  5  6 -1 -1</clus>
<clus scale="   96.616">  7  8 -1 -1</clus>
<clus scale="   98.059">  2  5  1 -1</clus>
<clus scale="   37.939">  1  5  2 -1</clus>
</clustering>
</event>
<event>
 9    1  0.6014990E-005  0.9408861E+02  0.7546771E-02  0.1296421E+00
         21   -1    0    0  501  502  0.00000000000E+00  0.00000000000E+00  0.13874220684E+02  0.13874220684E+02  0.00000000000E+00 0. -1.
          1   -1    0    0  502    0 -0.00000000000E+00 -0.00000000000E+00 -0.10061258406E+04  0.10061258406E+04  0.00000000000E+00 0. -1.
         23    2    1    2    0    0 -0.34349586180E+01 -0.16272129595E+02 -0.43513365899E+03  0.44490272652E+03  0.91217069311E+02 0.  0.
        -24    2    1    2    0    0  0.38039351434E+02  0.15523543035E+02 -0.27664265602E+03  0.29249439592E+03  0.85637841329E+02 0.  0.
         11    1    4    4    0    0  0.99035992155E+00  0.43801835241E+02 -0.89685072351E+02  0.99814797429E+02  0.00000000000E+00 0. -1.
        -12    1    4    4    0    0  0.37048991513E+02 -0.28278292206E+02 -0.18695758367E+03  0.19267959849E+03  0.00000000000E+00 0.  1.
        -13    1    3    3    0    0  0.19245776340E+02  0.32262134773E+02 -0.14034897231E+03  0.14528963926E+03  0.00000000000E+00 0. -1.
         13    1    3    3    0    0 -0.22680734958E+02 -0.48534264369E+02 -0.29478468669E+03  0.29961308727E+03  0.00000000000E+00 0.  1.
          2    1    1    2  501    0 -0.34604392816E+02  0.74858656005E+00 -0.28047530493E+03  0.28260293887E+03  0.00000000000E+00 0. -1.
<scales pt_clust_5="13000.00000" pt_clust_6="13000.00000" pt_clust_7="13000.00000" pt_clust_8="13000.00000" pt_clust_9="34.61251"></scales>
<clustering>
<clus scale="   34.613">  1  9  2 -1</clus>
<clus scale="   85.638">  5  6 -1 -1</clus>
<clus scale="   88.690">  1  5  2 -1</clus>
<clus scale="   91.217">  7  8 -1 -1</clus>
<clus scale="   34.613">  1  5  2 -1</clus>
</clustering>
</event>
<event>
 9    1  0.6014990E-005  0.1968697E+03  0.7546771E-02  0.1171654E+00
         21   -1    0    0  501  502  0.00000000000E+00  0.00000000000E+00  0.26839215836E+03  0.26839215836E+03  0.00000000000E+00 0. -1.
          1   -1    0    0  502    0 -0.00000000000E+00 -0.00000000000E+00 -0.30890609267E+03  0.30890609267E+03  0.00000000000E+00 0. -1.
        -24    2    1    2    0    0  0.83892517215E+02 -0.80426670106E+01  0.89654566868E+02  0.15462069507E+03  0.93632147501E+02 0.  0.
         23    2    1    2    0    0  0.10403921683E+03  0.11406105792E+03 -0.20084551536E+02  0.18044479219E+03  0.91229656604E+02 0.  0.
         11    1    3    3    0    0  0.33492915570E+02  0.38038907232E+02  0.64074582154E+02  0.81696303068E+02  0.00000000000E+00 0. -1.
        -12    1    3    3    0    0  0.50399601645E+02 -0.46081574242E+02  0.25579984714E+02  0.72924392000E+02  0.00000000000E+00 0.  1.
        -11    1    4    4    0    0  0.21641719751E+02  0.91262865396E+02 -0.12324155090E+02  0.94599997002E+02  0.00000000000E+00 0.  1.
         11    1    4    4    0    0  0.82397497083E+02  0.22798192529E+02 -0.77603964452E+01  0.85844795189E+02  0.00000000000E+00 0. -1.
          2    1    1    2  501    0 -0.18793173405E+03 -0.10601839091E+03 -0.11008394965E+03  0.24223276377E+03  0.00000000000E+00 0. -1.
<scales pt_clust_5="13000.00000" pt_clust_6="13000.00000" pt_clust_7="13000.00000" pt_clust_8="13000.00000" pt_clust_9="174.45587"></scales>
<clustering>
<clus scale="   91.230">  7  8 -1 -1</clus>
<clus scale="   93.632">  5  6 -1 -1</clus>
<clus scale="  125.975">  2  5  1 -1</clus>
<clus scale="  174.456">  1  9  2 -1</clus>
<clus scale="  174.456">  1  5  2 -1</clus>
</clustering>
</event>
<event>
 9    1  0.6014990E-005  0.1142517E+03  0.7546771E-02  0.1255683E+00
         -2   -1    0    0    0  501 -0.00000000000E+00  0.00000000000E+00  0.18881451507E+03  0.18881451507E+03  0.00000000000E+00 0.  1.
         21   -1    0    0  501  502  0.00000000000E+00 -0.00000000000E+00 -0.18310110594E+03  0.18310110594E+03  0.00000000000E+00 0.  1.
        -24    2    1    2    0    0  0.59019948855E+02 -0.41666499337E+02  0.13000912975E+03  0.16953057817E+03  0.81355956061E+02 0.  0.
         23    2    1    2    0    0 -0.63022497770E+02  0.18930394263E+02 -0.13677889745E+03  0.17614041337E+03  0.89368805426E+02 0.  0.
         11    1    3    3    0    0  0.53943212335E+02  0.46169091991E+01  0.10121545639E+03  0.11478568996E+03  0.00000000000E+00 0. -1.
        -12    1    3    3    0    0  0.50767365197E+01 -0.46283408536E+02  0.28793673357E+02  0.54744888207E+02  0.00000000000E+00 0.  1.
        -13    1    4    4    0    0 -0.68827163275E+02 -0.19777935209E+02 -0.93756577059E+02  0.11797728963E+03  0.00000000000E+00 0.  1.
         13    1    4    4    0    0  0.58046655053E+01  0.38708329472E+02 -0.43022320393E+02  0.58163123748E+02  0.00000000000E+00 0. -1.
         -1    1    1    2    0  502  0.40025489150E+01  0.22736105074E+02  0.12483176837E+02  0.26244629464E+02  0.00000000000E+00 0.  1.
<scales pt_clust_5="13000.00000" pt_clust_6="13000.00000" pt_clust_7="13000.00000" pt_clust_8="13000.00000" pt_clust_9="23.08574"></scales>
<clustering>
<clus scale="   23.086">  2  9  1 -1</clus>
<clus scale="   81.356">  5  6 -1 -1</clus>
<clus scale="   89.369">  7  8 -1 -1</clus>
<clus scale="  108.099">  1  5  2 -1</clus>
<clus scale="   23.086">  2  5  1 -1</clus>
</clustering>
</event>
<event>
 9    1  0.6014990E-005  0.1856817E+03  0.7546771E-02  0.1163574E+00
         21   -1    0    0  501  502  0.00000000000E+00  0.00000000000E+00  0.22609349130E+03  0.22609349130E+03  0.00000000000E+00 0. -1.
          1   -1    0    0  502    0 -0.00000000000E+00 -0.00000000000E+00 -0.28108074868E+03  0.28108074868E+03  0.00000000000E+00 0. -1.
         23    2    1    2    0    0 -0.81690499265E+02 -0.14911416750E+03 -0.14571243817E+03  0.24170437096E+03  0.90997338897E+02 0.  0.
        -24    2    1    2    0    0  0.81812397191E+02  0.12343788747E+03 -0.27102077014E+01  0.16857065314E+03  0.80489374929E+02 0.  0.
         13    1    4    4    0    0  0.69941962962E+02  0.34318750989E+02 -0.91000359364E+01  0.78437653627E+02  0.00000000000E+00 0. -1.
        -14    1    4    4    0    0  0.11870434229E+02  0.89119136484E+02  0.63898282350E+01  0.90132999513E+02  0.00000000000E+00 0.  1.
        -13    1    3    3    0    0 -0.35708912604E+02 -0.20657677134E+01 -0.12073959019E+02  0.37751481057E+02  0.00000000000E+00 0.  1.
         13    1    3    3    0    0 -0.45981586660E+02 -0.14704839979E+03 -0.13363847915E+03  0.20395288990E+03  0.00000000000E+00 0. -1.
          2    1    1    2  501    0 -0.12189792644E+00  0.25676280027E+02  0.93435388491E+02  0.96899215877E+02  0.00000000000E+00 0. -1.
<scales pt_clust_5="13000.00000" pt_clust_6="13000.00000" pt_clust_7="13000.00000" pt_clust_8="13000.00000" pt_clust_9="25.67657"></scales>
<clustering>
<clus scale="   25.677">  1  9  2 -1</clus>
<clus scale="   80.489">  5  6 -1 -1</clus>
<clus scale="   90.997">  7  8 -1 -1</clus>
<clus scale="  180.764">  1  5  2 -1</clus>
<clus scale="   25.677">  1  5  2 -1</clus>
</clustering>
</event>
<event>
 9    1  0.6014990E-005  0.9668576E+02  0.7546771E-02  0.1294055E+00
         -2   -1    0    0    0  501 -0.00000000000E+00  0.00000000000E+00  0.10083825996E+03  0.10083825996E+03  0.00000000000E+00 0.  1.
         21   -1    0    0  501  502  0.00000000000E+00 -0.00000000000E+00 -0.13482235463E+03  0.13482235463E+03  0.00000000000E+00 0.  1.
        -24    2    1    2    0    0  0.16669262987E+02 -0.71181219691E+01 -0.13284108687E+02  0.83752156304E+02  0.80681002430E+02 0.  0.
         23    2    1    2    0    0 -0.36494631447E+02 -0.33698099322E+02 -0.12075870041E+02  0.10571988253E+03  0.92538894001E+02 0.  0.
         13    1    3    3    0    0 -0.26842304322E+02  0.17887605708E+02 -0.20271239898E+01  0.32320039774E+02  0.00000000000E+00 0. -1.
        -14    1    3    3    0    0  0.43511567309E+02 -0.25005727677E+02 -0.11256984697E+02  0.51432116531E+02  0.00000000000E+00 0.  1.
        -13    1    4    4    0    0  0.28233364107E+02 -0.25827331465E+02  0.42571545352E+01  0.38500613815E+02  0.00000000000E+00 0. -1.
         13    1    4    4    0    0 -0.64727995554E+02 -0.78707678567E+01 -0.16333024577E+02  0.67219268717E+02  0.00000000000E+00 0.  1.
         -1    1    1    2    0  502  0.19825368460E+02  0.40816221291E+02 -0.86241159435E+01  0.46188575761E+02  0.00000000000E+00 0.  1.
<scales pt_clust_5="13000.00000" pt_clust_6="13000.00000" pt_clust_7="13000.00000" pt_clust_8="13000.00000" pt_clust_9="45.37631"></scales>
<clustering>
<clus scale="   45.376">  2  9  1 -1</clus>
<clus scale="   80.681">  5  6 -1 -1</clus>
<clus scale="   85.406">  1  5  2 -1</clus>
<clus scale="   92.539">  7  8 -1 -1</clus>
<clus scale="   45.376">  2  5  1 -1</clus>
</clustering>
</event>
<event>
 9    1  0.6014990E-005  0.9164516E+02  0.7546771E-02  0.1305410E+00
         -2   -1    0    0    0  501 -0.00000000000E+00  0.00000000000E+00  0.39485260932E+02  0.39485260932E+02  0.00000000000E+00 0.  1.
         21   -1    0    0  501  502  0.00000000000E+00 -0.00000000000E+00 -0.46199177801E+03  0.46199177801E+03  0.00000000000E+00 0. -1.
         23    2    1    2    0    0 -0.12870705858E+02  0.12641093252E+02 -0.37978393970E+02  0.99889265317E+02  0.90609351665E+02 0.  0.
        -24    2    1    2    0    0  0.91861778152E+01  0.11960337701E+02 -0.20985261905E+03  0.22514985857E+03  0.80167958377E+02 0.  0.
         13    1    4    4    0    0  0.34890051612E+02  0.67631111976E+00 -0.18301861628E+03  0.18631582596E+03  0.00000000000E+00 0. -1.
        -14    1    4    4    0    0 -0.25703873796E+02  0.11284026581E+02 -0.26834002774E+02  0.38834032612E+02  0.00000000000E+00 0.  1.
        -11    1    3    3    0    0 -0.69737342843E+01 -0.39382114908E+02 -0.15055458632E+02  0.42734655481E+02  0.00000000000E+00 0. -1.
         11    1    3    3    0    0 -0.58969715741E+01  0.52023208160E+02 -0.22922935338E+02  0.57154609836E+02  0.00000000000E+00 0.  1.
         -1    1    1    2    0  502  0.36845280431E+01 -0.24601430953E+02 -0.17467550406E+03  0.17643791506E+03  0.00000000000E+00 0.  1.
<scales pt_clust_5="13000.00000" pt_clust_6="13000.00000" pt_clust_7="13000.00000" pt_clust_8="13000.00000" pt_clust_9="24.87581"></scales>
<clustering>
<clus scale="   24.876">  2  9  1 -1</clus>
<clus scale="   80.168">  5  6 -1 -1</clus>
<clus scale="   81.337">  2  5  1 -1</clus>
<clus scale="   90.609">  7  8 -1 -1</clus>
<clus scale="   24.876">  2  5  1 -1</clus>
</clustering>
</event>
<event>
 9    1  0.6014990E-005  0.1241849E+03  0.7546771E-02  0.1241009E+00
          1   -1    0    0  502    0 -0.00000000000E+00  0.00000000000E+00  0.63512055971E+03  0.63512055971E+03  0.00000000000E+00 0. -1.
         21   -1    0    0  501  502  0.00000000000E+00 -0.00000000000E+00 -0.58338090792E+02  0.58338090792E+02  0.00000000000E+00 0. -1.
         23    2    1    2    0    0 -0.70031629427E+02 -0.44983952712E+02  0.30796282886E+03  0.33285591227E+03  0.94994574860E+02 0.  0.
        -24    2    1    2    0    0  0.32505928394E+02  0.71605713884E+02  0.28020736041E+02  0.11544766775E+03  0.79743267423E+02 0.  0.
         13    1    4    4    0    0  0.12120963795E+02  0.78763535823E+02  0.41634298077E+02  0.89911217960E+02  0.00000000000E+00 0. -1.
        -14    1    4    4    0    0  0.20384964599E+02 -0.71578219393E+01 -0.13613562036E+02  0.25536449791E+02  0.00000000000E+00 0.  1.
        -13    1    3    3    0    0 -0.48185184161E+01  0.22579258500E+02  0.22079660860E+02  0.31946086738E+02  0.00000000000E+00 0.  1.
         13    1    3    3    0    0 -0.65213111011E+02 -0.67563211213E+02  0.28588316800E+03  0.30090982554E+03  0.00000000000E+00 0. -1.
          2    1    1    2  501    0  0.37525701033E+02 -0.26621761172E+02  0.24079890401E+03  0.24515507048E+03  0.00000000000E+00 0. -1.
<scales pt_clust_5="13000.00000" pt_clust_6="13000.00000" pt_clust_7="13000.00000" pt_clust_8="13000.00000" pt_clust_9="46.00977"></scales>
<clustering>
<clus scale="   46.010">  2  9  1 -1</clus>
<clus scale="   79.743">  5  6 -1 -1</clus>
<clus scale="   94.995">  7  8 -1 -1</clus>
<clus scale="  112.946">  2  5  1 -1</clus>
<clus scale="   46.010">  2  5  1 -1</clus>
</clustering>
</event>
<event>
 9    1  0.6014990E-005  0.1367372E+03  0.7546771E-02  0.1220054E+00
         21   -1    0    0  501  502  0.00000000000E+00  0.00000000000E+00  0.37571659793E+03  0.37571659793E+03  0.00000000000E+00 0.  1.
         -2   -1    0    0    0  501 -0.00000000000E+00 -0.00000000000E+00 -0.82331964855E+02  0.82331964855E+02  0.00000000000E+00 0.  1.
         23    2    1    2    0    0 -0.99733084767E+02  0.47763832293E+02  0.17856654857E+02  0.14224816196E+03  0.87679003114E+02 0.  0.
        -24    2    1    2    0    0  0.76596665199E+02 -0.37825353562E+02  0.26408247266E+03  0.28814055868E+03  0.77379730532E+02 0.  0.
         13    1    4    4    0    0  0.34109802056E+02 -0.43298734959E+02  0.68508206078E+02  0.87929706842E+02  0.00000000000E+00 0. -1.
        -14    1    4    4    0    0  0.42486863143E+02  0.54733813964E+01  0.19557426658E+03  0.20021085184E+03  0.00000000000E+00 0.  1.
        -11    1    3    3    0    0 -0.45336231417E+02  0.21091492111E+02 -0.35657310158E+02  0.61413912807E+02  0.00000000000E+00 0.  1.
         11    1    3    3    0    0 -0.54396853350E+02  0.26672340183E+02  0.53513965015E+02  0.80834249157E+02  0.00000000000E+00 0. -1.
         -1    1    1    2    0  502  0.23136419568E+02 -0.99384787313E+01  0.11445505560E+02  0.27659842144E+02  0.00000000000E+00 0.  1.
<scales pt_clust_5="13000.00000" pt_clust_6="13000.00000" pt_clust_7="13000.00000" pt_clust_8="13000.00000" pt_clust_9="25.18070"></scales>
<clustering>
<clus scale="   25.181">  1  9  2 -1</clus>
<clus scale="   77.380">  5  6 -1 -1</clus>
<clus scale="   87.679">  7  8 -1 -1</clus>
<clus scale="  130.373">  1  5  2 -1</clus>
<clus scale="   25.181">  1  5  2 -1</clus>
</clustering>
</event>
<event>
 9    1  0.6014990E-005  0.1199980E+03  0.7546771E-02  0.1244451E+00
         21   -1    0    0  501  502  0.00000000000E+00  0.00000000000E+00  0.15147029388E+03  0.15147029388E+03  0.00000000000E+00 0.  1.
          1   -1    0    0  502    0 -0.00000000000E+00 -0.00000000000E+00 -0.33324821464E+03  0.33324821464E+03  0.00000000000E+00 0. -1.
         23    2    1    2    0    0 -0.71836860215E+02  0.35971975963E+02 -0.27634891722E+03  0.30074636560E+03  0.87322018026E+02 0.  0.
        -24    2    1    2    0    0  0.96270495641E+02 -0.35867326885E+02  0.88172809263E+02  0.15871446506E+03  0.82833348711E+02 0.  0.
         13    1    4    4    0    0  0.75411836308E+02  0.12526051777E+02  0.67920047775E+02  0.10225937570E+03  0.00000000000E+00 0. -1.
        -14    1    4    4    0    0  0.20858659333E+02 -0.48393378662E+02  0.20252761488E+02  0.56455089367E+02  0.00000000000E+00 0.  1.
        -11    1    3    3    0    0  0.70663513908E+01  0.38115009334E+02 -0.73807978114E+02  0.83368488602E+02  0.00000000000E+00 0.  1.
         11    1    3    3    0    0 -0.78903211606E+02 -0.21430333715E+01 -0.20254093911E+03  0.21737787700E+03  0.00000000000E+00 0. -1.
          2    1    1    2  501    0 -0.24433635426E+02 -0.10464907760E+00  0.63981871988E+01  0.25257677862E+02  0.00000000000E+00 0. -1.
<scales pt_clust_5="13000.00000" pt_clust_6="13000.00000" pt_clust_7="13000.00000" pt_clust_8="13000.00000" pt_clust_9="24.43386"></scales>
<clustering>
<clus scale="   24.434">  1  9  2 -1</clus>
<clus scale="   82.833">  5  6 -1 -1</clus>
<clus scale="   87.322">  7  8 -1 -1</clus>
<clus scale="  116.772">  1  5  2 -1</clus>
<clus scale="   24.434">  1  5  2 -1</clus>
</clustering>
</event>
<event>
 9    1  0.6014990E-005  0.9576427E+02  0.7546771E-02  0.1296876E+00
         -2   -1    0    0    0  501 -0.00000000000E+00  0.00000000000E+00  0.10534906370E+03  0.10534906370E+03  0.00000000000E+00 0.  1.
         21   -1    0    0  501  502  0.00000000000E+00 -0.00000000000E+00 -0.12194297036E+03  0.12194297036E+03  0.00000000000E+00 0.  1.
         23    2    1    2    0    0  0.18797735162E+02  0.67081436466E+01  0.20416686745E+00  0.95631724962E+02  0.93525563868E+02 0.  0.
        -24    2    1    2    0    0  0.12475889386E+02 -0.33708604278E+02 -0.45962422140E+01  0.88579580758E+02  0.80828824478E+02 0.  0.
         11    1    4    4    0    0  0.33250763083E+02  0.12462318978E+02  0.80155165476E+01  0.36402900234E+02  0.00000000000E+00 0. -1.
        -12    1    4    4    0    0 -0.20774873697E+02 -0.46170923257E+02 -0.12611758762E+02  0.52176680525E+02  0.00000000000E+00 0.  1.
        -13    1    3    3    0    0 -0.20860016681E+02 -0.20532015109E+02  0.27630881191E+02  0.40251329615E+02  0.00000000000E+00 0. -1.
         13    1    3    3    0    0  0.39657751843E+02  0.27240158756E+02 -0.27426714324E+02  0.55380395348E+02  0.00000000000E+00 0.  1.
         -1    1    1    2    0  502 -0.31273624548E+02  0.27000460632E+02 -0.12201831317E+02  0.43080728339E+02  0.00000000000E+00 0.  1.
<scales pt_clust_5="13000.00000" pt_clust_6="13000.00000" pt_clust_7="13000.00000" pt_clust_8="13000.00000" pt_clust_9="41.31664"></scales>
<clustering>
<clus scale="   41.317">  2  9  1 -1</clus>
<clus scale="   80.829">  5  6 -1 -1</clus>
<clus scale="   83.409">  2  5  1 -1</clus>
<clus scale="   93.526">  7  8 -1 -1</clus>
<clus scale="   41.317">  2  5  1 -1</clus>
</clustering>
</event>
<event>
 9    1  0.6014990E-005  0.9159475E+02  0.7546771E-02  0.1305418E+00
         21   -1    0    0  501  502  0.00000000000E+00  0.00000000000E+00  0.35506022122E+02  0.35506022122E+02  0.00000000000E+00 0.  1.
          1   -1    0    0  502    0 -0.00000000000E+00 -0.00000000000E+00 -0.36967922121E+03  0.36967922121E+03  0.00000000000E+00 0. -1.
         23    2    1    2    0    0 -0.26030871532E+01  0.26187374572E+02 -0.16105576614E+03  0.18702406377E+03  0.91359104501E+02 0.  0.
        -24    2    1    2    0    0  0.14278227716E+01  0.19615087217E+02 -0.87017856523E+02  0.12062972918E+03  0.81195036073E+02 0.  0.
         11    1    4    4    0    0 -0.23968304795E+02  0.38373163409E+02 -0.73447670870E+02  0.86264359158E+02  0.00000000000E+00 0. -1.
        -12    1    4    4    0    0  0.25396127567E+02 -0.18758076192E+02 -0.13570185653E+02  0.34365370018E+02  0.00000000000E+00 0.  1.
        -13    1    3    3    0    0  0.24669462763E+02  0.51696351262E+02 -0.88449735977E+02  0.10537765855E+03  0.00000000000E+00 0.  1.
         13    1    3    3    0    0 -0.27272549917E+02 -0.25508976691E+02 -0.72606030160E+02  0.81646405226E+02  0.00000000000E+00 0. -1.
          2    1    1    2  501    0  0.11752643815E+01 -0.45802461788E+02 -0.86099576428E+02  0.97531450380E+02  0.00000000000E+00 0. -1.
<scales pt_clust_5="13000.00000" pt_clust_6="13000.00000" pt_clust_7="13000.00000" pt_clust_8="13000.00000" pt_clust_9="45.81756"></scales>
<clustering>
<clus scale="   45.818">  1  9  2 -1</clus>
<clus scale="   81.195">  5  6 -1 -1</clus>
<clus scale="   81.460">  1  5  2 -1</clus>
<clus scale="   91.359">  7  8 -1 -1</clus>
<clus scale="   45.818">  1  5  2 -1</clus>
</clustering>
</event>
<event>
 9    1  0.6014990E-005  0.1317327E+03  0.7546771E-02  0.1228204E+00
         21   -1    0    0  501  502  0.00000000000E+00  0.00000000000E+00  0.29710577264E+03  0.29710577264E+03  0.00000000000E+00 0.  1.
          3   -1    0    0  502    0 -0.00000000000E+00 -0.00000000000E+00 -0.12671763581E+03  0.12671763581E+03  0.00000000000E+00 0. -1.
        -24    2    1    2    0    0  0.62273467793E+02  0.77339461645E+02 -0.10828482173E+02  0.12872564944E+03  0.81201352690E+02 0.  0.
         23    2    1    2    0    0  0.20638779716E+02 -0.10223607932E+03  0.78606687273E+02  0.16084769216E+03  0.93887132484E+02 0.  0.
         11    1    3    3    0    0  0.76542845043E+02  0.68570440771E+02 -0.26134873860E+02  0.10603652251E+03  0.00000000000E+00 0. -1.
        -12    1    3    3    0    0 -0.14269377250E+02  0.87690208741E+01  0.15306391687E+02  0.22689126926E+02  0.00000000000E+00 0.  1.
        -13    1    4    4    0    0  0.37905958877E+02 -0.31733377452E+01  0.33303104032E+02  0.50557180785E+02  0.00000000000E+00 0.  1.
         13    1    4    4    0    0 -0.17267179160E+02 -0.99062741579E+02  0.45303583241E+02  0.11029051138E+03  0.00000000000E+00 0. -1.
          4    1    1    2  501    0 -0.82912247509E+02  0.24896617680E+02  0.10260993173E+03  0.13425006685E+03  0.00000000000E+00 0. -1.
<scales pt_clust_5="13000.00000" pt_clust_6="13000.00000" pt_clust_7="13000.00000" pt_clust_8="13000.00000" pt_clust_9="86.56952"></scales>
<clustering>
<clus scale="   81.201">  5  6 -1 -1</clus>
<clus scale="   86.570">  1  9  2 -1</clus>
<clus scale="   93.887">  7  8 -1 -1</clus>
<clus scale="  123.014">  2  5  1 -1</clus>
<clus scale="   86.570">  1  5  2 -1</clus>
</clustering>
</event>
<event>
 9    1  0.7601795E-005  0.9002671E+02  0.7546771E-02  0.1307617E+00
          3   -1    0    0  502    0 -0.00000000000E+00  0.00000000000E+00  0.17444619404E+03  0.17444619404E+03  0.00000000000E+00 0. -1.
         21   -1    0    0  501  502  0.00000000000E+00 -0.00000000000E+00 -0.11480713948E+03  0.11480713948E+03  0.00000000000E+00 0.  1.
         23    2    1    2    0    0 -0.89695917809E+01 -0.19141109521E+02  0.12686319391E+03  0.15508328114E+03  0.86658631830E+02 0.  0.
        -24    2    1    2    0    0  0.32055487365E+02  0.29730928974E+02 -0.46262076119E+02  0.10123813859E+03  0.78724193297E+02 0.  0.
         11    1    4    4    0    0  0.13736796704E+02  0.36140743679E+02  0.11471946187E+02  0.40329374985E+02  0.00000000000E+00 0. -1.
        -12    1    4    4    0    0  0.18318690661E+02 -0.64098147048E+01 -0.57734022306E+02  0.60908763604E+02  0.00000000000E+00 0.  1.
        -11    1    3    3    0    0  0.92864448387E+01 -0.50579980509E+02  0.60399366390E+02  0.79326262652E+02  0.00000000000E+00 0.  1.
         11    1    3    3    0    0 -0.18256036620E+02  0.31438870988E+02  0.66463827521E+02  0.75757018492E+02  0.00000000000E+00 0. -1.
          4    1    1    2  501    0 -0.23085895584E+02 -0.10589819453E+02 -0.20962063225E+02  0.32931913786E+02  0.00000000000E+00 0. -1.
<scales pt_clust_5="13000.00000" pt_clust_6="13000.00000" pt_clust_7="13000.00000" pt_clust_8="13000.00000" pt_clust_9="25.39887"></scales>
<clustering>
<clus scale="   25.399">  2  9  1 -1</clus>
<clus scale="   78.724">  5  6 -1 -1</clus>
<clus scale="   82.417">  2  5  1 -1</clus>
<clus scale="   86.659">  7  8 -1 -1</clus>
<clus scale="   25.399">  2  5  1 -1</clus>
</clustering>
</event>
<event>
 9    1  0.6014990E-005  0.2906376E+03  0.7546771E-02  0.1120236E+00
         21   -1    0    0  501  502  0.00000000000E+00  0.00000000000E+00  0.35915133731E+03  0.35915133731E+03  0.00000000000E+00 0. -1.
          1   -1    0    0  502    0 -0.00000000000E+00 -0.00000000000E+00 -0.35776830409E+03  0.35776830409E+03  0.00000000000E+00 0. -1.
        -24    2    1    2    0    0  0.52457167258E+02  0.77820188735E+02  0.16005236496E+02  0.13460631963E+03  0.95157540522E+02 0.  0.
         23    2    1    2    0    0  0.23568710136E+03 -0.97895637413E+02 -0.80594657489E+02  0.28603219194E+03  0.10093042375E+03 0.  0.
         13    1    3    3    0    0  0.47593251790E+02  0.60067325036E+02 -0.32108854563E+02  0.83091393624E+02  0.00000000000E+00 0. -1.
        -14    1    3    3    0    0  0.48639154672E+01  0.17752863698E+02  0.48114091059E+02  0.51514926008E+02  0.00000000000E+00 0.  1.
        -13    1    4    4    0    0  0.11958159344E+03 -0.98854908051E+02 -0.24470183591E+02  0.15706953944E+03  0.00000000000E+00 0. -1.
         13    1    4    4    0    0  0.11610550791E+03  0.95927063789E+00 -0.56124473898E+02  0.12896265250E+03  0.00000000000E+00 0.  1.
          2    1    1    2  501    0 -0.28814426862E+03  0.20075448678E+02  0.65972454214E+02  0.29628112982E+03  0.00000000000E+00 0. -1.
<scales pt_clust_5="13000.00000" pt_clust_6="13000.00000" pt_clust_7="13000.00000" pt_clust_8="13000.00000" pt_clust_9="272.54957"></scales>
<clustering>
<clus scale="   95.158">  5  6 -1 -1</clus>
<clus scale="  100.930">  7  8 -1 -1</clus>
<clus scale="  133.651">  2  5  1 -1</clus>
<clus scale="  272.550">  1  9  2 -1</clus>
<clus scale="  272.550">  1  5  2 -1</clus>
</clustering>
</event>
<event>
 9    1  0.6014990E-005  0.9868892E+02  0.7546771E-02  0.1299687E+00
         -2   -1    0    0    0  501 -0.00000000000E+00  0.00000000000E+00  0.26334121842E+03  0.26334121842E+03  0.00000000000E+00 0.  1.
         21   -1    0    0  501  502  0.00000000000E+00 -0.00000000000E+00 -0.11423102367E+03  0.11423102367E+03  0.00000000000E+00 0. -1.
        -24    2    1    2    0    0 -0.17992746975E+02  0.40515778478E+02  0.20791567755E+03  0.22012231450E+03  0.57093231832E+02 0.  0.
         23    2    1    2    0    0  0.53714696783E+02 -0.24799589461E+02 -0.35101746859E+02  0.11178896622E+03  0.88115560765E+02 0.  0.
         13    1    3    3    0    0 -0.23980091909E+02  0.59833022621E+01  0.30396258507E+02  0.39176233167E+02  0.00000000000E+00 0. -1.
        -14    1    3    3    0    0  0.59873449338E+01  0.34532476216E+02  0.17751941904E+03  0.18094608133E+03  0.00000000000E+00 0.  1.
        -13    1    4    4    0    0  0.20146679079E+02 -0.36140365648E+02  0.20251579797E+02  0.46066703717E+02  0.00000000000E+00 0.  1.
         13    1    4    4    0    0  0.33568017704E+02  0.11340776187E+02 -0.55353326656E+02  0.65722262507E+02  0.00000000000E+00 0. -1.
         -1    1    1    2    0  502 -0.35721949808E+02 -0.15716189017E+02 -0.23703735937E+02  0.45660961364E+02  0.00000000000E+00 0.  1.
<scales pt_clust_5="13000.00000" pt_clust_6="13000.00000" pt_clust_7="13000.00000" pt_clust_8="13000.00000" pt_clust_9="39.02635"></scales>
<clustering>
<clus scale="   39.026">  2  9  1 -1</clus>
<clus scale="   57.093">  5  6 -1 -1</clus>
<clus scale="   72.352">  1  5  2 -1</clus>
<clus scale="   88.116">  7  8 -1 -1</clus>
<clus scale="   39.026">  2  5  1 -1</clus>
</clustering>
</event>
<event>
 9    1  0.6014990E-005  0.9477483E+02  0.7546771E-02  0.1296787E+00
         -2   -1    0    0    0  501 -0.00000000000E+00  0.00000000000E+00  0.13994895267E+03  0.13994895267E+03  0.00000000000E+00 0.  1.
         21   -1    0    0  501  502  0.00000000000E+00 -0.00000000000E+00 -0.18181077323E+03  0.18181077323E+03  0.00000000000E+00 0.  1.
        -24    2    1    2    0    0  0.10294380205E+02  0.29727622217E+02  0.56319178130E+02  0.10401088416E+03  0.81588653694E+02 0.  0.
         23    2    1    2    0    0  0.58785884271E+02 -0.17661114411E+02 -0.99060490681E+02  0.14761712954E+03  0.90609828209E+02 0.  0.
         13    1    3    3    0    0 -0.27327563397E+02  0.19550851597E+01 -0.40005253719E+01  0.27687944713E+02  0.00000000000E+00 0. -1.
        -14    1    3    3    0    0  0.37621943601E+02  0.27772537057E+02  0.60319703502E+02  0.76322939445E+02  0.00000000000E+00 0.  1.
        -13    1    4    4    0    0 -0.24477945802E+02 -0.20978048467E+01 -0.18922512256E+02  0.31010193258E+02  0.00000000000E+00 0. -1.
         13    1    4    4    0    0  0.83263830073E+02 -0.15563309565E+02 -0.80137978426E+02  0.11660693628E+03  0.00000000000E+00 0.  1.
         -1    1    1    2    0  502 -0.69080264476E+02 -0.12066507806E+02  0.87949199384E+00  0.70131712206E+02  0.00000000000E+00 0.  1.
<scales pt_clust_5="13000.00000" pt_clust_6="13000.00000" pt_clust_7="13000.00000" pt_clust_8="13000.00000" pt_clust_9="70.12623"></scales>
<clustering>
<clus scale="   70.126">  2  9  1 -1</clus>
<clus scale="   81.589">  5  6 -1 -1</clus>
<clus scale="   86.191">  1  5  2 -1</clus>
<clus scale="   90.610">  7  8 -1 -1</clus>
<clus scale="   70.126">  2  5  1 -1</clus>
</clustering>
</event>
<event>
 9    1  0.6014990E-005  0.1035354E+03  0.7546771E-02  0.1278194E+00
         21   -1    0    0  501  502  0.00000000000E+00  0.00000000000E+00  0.85386536821E+02  0.85386536821E+02  0.00000000000E+00 0.  1.
         -2   -1    0    0    0  501 -0.00000000000E+00 -0.00000000000E+00 -0.26250991716E+03  0.26250991716E+03  0.00000000000E+00 0.  1.
        -24    2    1    2    0    0  0.12992145993E+02 -0.41953666192E+02 -0.13749232292E+03  0.16526126872E+03  0.80487527695E+02 0.  0.
         23    2    1    2    0    0  0.34801330234E+02  0.71098235319E+02 -0.17196742686E+02  0.12232829712E+03  0.91664566032E+02 0.  0.
         11    1    3    3    0    0  0.24831882297E+02  0.17602928520E+02 -0.54547331499E+02  0.62465165049E+02  0.00000000000E+00 0. -1.
        -12    1    3    3    0    0 -0.11839736304E+02 -0.59556594712E+02 -0.82944991418E+02  0.10279610367E+03  0.00000000000E+00 0.  1.
        -11    1    4    4    0    0 -0.14549134781E+02 -0.13934665536E+02  0.65521123433E+01  0.21184484951E+02  0.00000000000E+00 0. -1.
         11    1    4    4    0    0  0.49350465015E+02  0.85032900855E+02 -0.23748855029E+02  0.10114381217E+03  0.00000000000E+00 0.  1.
         -1    1    1    2    0  502 -0.47793476227E+02 -0.29144569127E+02 -0.22434314740E+02  0.60306888142E+02  0.00000000000E+00 0.  1.
<scales pt_clust_5="13000.00000" pt_clust_6="13000.00000" pt_clust_7="13000.00000" pt_clust_8="13000.00000" pt_clust_9="55.97877"></scales>
<clustering>
<clus scale="   55.979">  1  9  2 -1</clus>
<clus scale="   80.488">  5  6 -1 -1</clus>
<clus scale="   91.665">  7  8 -1 -1</clus>
<clus scale="   93.784">  2  5  1 -1</clus>
<clus scale="   55.979">  1  5  2 -1</clus>
</clustering>
</event>
<event>
 9    1  0.6014990E-005  0.9470010E+02  0.7546771E-02  0.1299729E+00
         21   -1    0    0  501  502  0.00000000000E+00  0.00000000000E+00  0.38381963956E+03  0.38381963956E+03  0.00000000000E+00 0. -1.
         -2   -1    0    0    0  501 -0.00000000000E+00 -0.00000000000E+00 -0.42851556436E+02  0.42851556436E+02  0.00000000000E+00 0.  1.
         23    2    1    2    0    0  0.12542574883E+02 -0.34520817616E+02  0.85866814229E+02  0.13240338490E+03  0.93853841236E+02 0.  0.
        -24    2    1    2    0    0 -0.46506747725E+01 -0.25888631690E+02  0.13372582214E+03  0.15846065838E+03  0.80841417109E+02 0.  0.
         11    1    4    4    0    0 -0.26875095600E+02 -0.46209243209E+02  0.98885884572E+02  0.11240988875E+03  0.00000000000E+00 0. -1.
        -12    1    4    4    0    0  0.22224420827E+02  0.20320611519E+02  0.34839937573E+02  0.46050769632E+02  0.00000000000E+00 0.  1.
        -11    1    3    3    0    0 -0.23657293891E+02 -0.40865761880E+02  0.10236447194E+02  0.48316279859E+02  0.00000000000E+00 0.  1.
         11    1    3    3    0    0  0.36199868774E+02  0.63449442640E+01  0.75630367036E+02  0.84087105045E+02  0.00000000000E+00 0. -1.
         -1    1    1    2    0  502 -0.78919001105E+01  0.60409449306E+02  0.12137544675E+03  0.13580715270E+03  0.00000000000E+00 0.  1.
<scales pt_clust_5="13000.00000" pt_clust_6="13000.00000" pt_clust_7="13000.00000" pt_clust_8="13000.00000" pt_clust_9="60.92277"></scales>
<clustering>
<clus scale="   60.923">  1  9  2 -1</clus>
<clus scale="   80.841">  5  6 -1 -1</clus>
<clus scale="   81.822">  1  5  2 -1</clus>
<clus scale="   93.854">  7  8 -1 -1</clus>
<clus scale="   60.923">  1  5  2 -1</clus>
</clustering>
</event>
<event>
 9    1  0.6014990E-005  0.9350078E+02  0.7546771E-02  0.1303911E+00
          1   -1    0    0  502    0 -0.00000000000E+00  0.00000000000E+00  0.24761552543E+03  0.24761552543E+03  0.00000000000E+00 0. -1.
         21   -1    0    0  501  502  0.00000000000E+00 -0.00000000000E+00 -0.10299526937E+03  0.10299526937E+03  0.00000000000E+00 0. -1.
         23    2    1    2    0    0  0.23332344216E+02  0.21323966465E+02  0.18009580507E+03  0.20439708427E+03  0.91348558937E+02 0.  0.
        -24    2    1    2    0    0  0.21575325726E+02 -0.77716612141E+00  0.91160782164E+01  0.79675878861E+02  0.76151455159E+02 0.  0.
         13    1    4    4    0    0  0.48729046385E+02  0.10281810454E+02  0.68194995167E+01  0.50266700324E+02  0.00000000000E+00 0. -1.
        -14    1    4    4    0    0 -0.27153720659E+02 -0.11058976575E+02  0.22965786997E+01  0.29409178537E+02  0.00000000000E+00 0.  1.
        -11    1    3    3    0    0 -0.65583085293E+01  0.51328514950E+02  0.12184028439E+03  0.13237327056E+03  0.00000000000E+00 0. -1.
         11    1    3    3    0    0  0.29890652746E+02 -0.30004548485E+02  0.58255520677E+02  0.72023813705E+02  0.00000000000E+00 0.  1.
          2    1    1    2  501    0 -0.44907669942E+02 -0.20546800344E+02 -0.44591627230E+02  0.66537831668E+02  0.00000000000E+00 0. -1.
<scales pt_clust_5="13000.00000" pt_clust_6="13000.00000" pt_clust_7="13000.00000" pt_clust_8="13000.00000" pt_clust_9="49.38491"></scales>
<clustering>
<clus scale="   49.385">  2  9  1 -1</clus>
<clus scale="   76.151">  5  6 -1 -1</clus>
<clus scale="   78.720">  2  5  1 -1</clus>
<clus scale="   91.349">  7  8 -1 -1</clus>
<clus scale="   49.385">  2  5  1 -1</clus>
</clustering>
</event>
<event>
 9    1  0.6014990E-005  0.1147100E+03  0.7546771E-02  0.1257222E+00
         -2   -1    0    0    0  501 -0.00000000000E+00  0.00000000000E+00  0.17972211589E+03  0.17972211589E+03  0.00000000000E+00 0.  1.
         21   -1    0    0  501  502  0.00000000000E+00 -0.00000000000E+00 -0.19900569196E+03  0.19900569196E+03  0.00000000000E+00 0. -1.
        -24    2    1    2    0    0  0.45570245397E+02 -0.35298756970E+02  0.12148817121E+03  0.15865517155E+03  0.84198801680E+02 0.  0.
         23    2    1    2    0    0 -0.50808018889E+02  0.56732681668E+02 -0.62272091361E+02  0.13853096979E+03  0.97534426099E+02 0.  0.
         13    1    3    3    0    0  0.44830840983E+02 -0.50618915043E+01  0.14370303232E+02  0.47349051351E+02  0.00000000000E+00 0. -1.
        -14    1    3    3    0    0  0.73940441328E+00 -0.30236865466E+02  0.10711786798E+03  0.11130612019E+03  0.00000000000E+00 0.  1.
        -11    1    4    4    0    0  0.20053595113E+02  0.33715238109E+02  0.31821889681E+01  0.39357213880E+02  0.00000000000E+00 0.  1.
         11    1    4    4    0    0 -0.70861614002E+02  0.23017443558E+02 -0.65454280329E+02  0.99173755906E+02  0.00000000000E+00 0. -1.
         -1    1    1    2    0  502  0.52377734923E+01 -0.21433924698E+02 -0.78499655922E+02  0.81541666521E+02  0.00000000000E+00 0.  1.
<scales pt_clust_5="13000.00000" pt_clust_6="13000.00000" pt_clust_7="13000.00000" pt_clust_8="13000.00000" pt_clust_9="22.06462"></scales>
<clustering>
<clus scale="   22.065">  2  9  1 -1</clus>
<clus scale="   84.199">  5  6 -1 -1</clus>
<clus scale="   97.534">  7  8 -1 -1</clus>
<clus scale="  103.609">  1  5  2 -1</clus>
<clus scale="   22.065">  2  5  1 -1</clus>
</clustering>
</event>
<event>
 9    1  0.6014990E-005  0.1101763E+03  0.7546771E-02  0.1263934E+00
         21   -1    0    0  501  502  0.00000000000E+00  0.00000000000E+00  0.24724895752E+02  0.24724895752E+02  0.00000000000E+00 0. -1.
         -2   -1    0    0    0  501 -0.00000000000E+00 -0.00000000000E+00 -0.72917055444E+03  0.72917055444E+03  0.00000000000E+00 0.  1.
        -24    2    1    2    0    0 -0.53615539298E+02 -0.32669508120E+02 -0.43940704857E+03  0.45109777257E+03  0.80428373535E+02 0.  0.
         23    2    1    2    0    0  0.70224143416E+02  0.68729129844E+01 -0.19058466855E+03  0.22227004592E+03  0.90015499657E+02 0.  0.
         13    1    3    3    0    0  0.82869484620E+01 -0.36027400130E+02 -0.11419724778E+03  0.12003190607E+03  0.00000000000E+00 0. -1.
        -14    1    3    3    0    0 -0.61902487760E+02  0.33578920096E+01 -0.32520980080E+03  0.33106586650E+03  0.00000000000E+00 0.  1.
        -13    1    4    4    0    0  0.43554090353E+02  0.43198407204E+02 -0.14824483093E+03  0.16043562905E+03  0.00000000000E+00 0.  1.
         13    1    4    4    0    0  0.26670053064E+02 -0.36325494220E+02 -0.42339837620E+02  0.61834416876E+02  0.00000000000E+00 0. -1.
         -1    1    1    2    0  502 -0.16608604119E+02  0.25796595136E+02 -0.74453941565E+02  0.80527631692E+02  0.00000000000E+00 0.  1.
<scales pt_clust_5="13000.00000" pt_clust_6="13000.00000" pt_clust_7="13000.00000" pt_clust_8="13000.00000" pt_clust_9="30.68078"></scales>
<clustering>
<clus scale="   30.681">  1  9  2 -1</clus>
<clus scale="   80.428">  5  6 -1 -1</clus>
<clus scale="   90.015">  7  8 -1 -1</clus>
<clus scale="  102.493">  2  5  1 -1</clus>
<clus scale="   30.681">  1  5  2 -1</clus>
</clustering>
</event>
<event>
 9    1  0.6014990E-005  0.1199312E+03  0.7546771E-02  0.1246720E+00
         -2   -1    0    0    0  501 -0.00000000000E+00  0.00000000000E+00  0.73333837015E+02  0.73333837015E+02  0.00000000000E+00 0.  1.
         21   -1    0    0  501  502  0.00000000000E+00 -0.00000000000E+00 -0.32867309368E+03  0.32867309368E+03  0.00000000000E+00 0.  1.
        -24    2    1    2    0    0  0.35386192894E+02 -0.61389709476E+02 -0.37388300584E+02  0.11292733902E+03  0.79585298899E+02 0.  0.
         23    2    1    2    0    0 -0.51798826620E+02  0.74273856678E+02 -0.83406677950E+02  0.15292696198E+03  0.90720766908E+02 0.  0.
         13    1    3    3    0    0  0.34903710455E+02 -0.10013325093E+02 -0.48275900553E+02  0.60407766530E+02  0.00000000000E+00 0. -1.
        -14    1    3    3    0    0  0.48248243842E+00 -0.51376384383E+02  0.10887599970E+02  0.52519572491E+02  0.00000000000E+00 0.  1.
        -11    1    4    4    0    0 -0.77075647377E+02  0.45549633690E+02 -0.52881283603E+02  0.10398006878E+03  0.00000000000E+00 0. -1.
         11    1    4    4    0    0  0.25276820757E+02  0.28724222988E+02 -0.30525394347E+02  0.48946893199E+02  0.00000000000E+00 0.  1.
         -1    1    1    2    0  502  0.16412633726E+02 -0.12884147202E+02 -0.13454427813E+03  0.13615262969E+03  0.00000000000E+00 0.  1.
<scales pt_clust_5="13000.00000" pt_clust_6="13000.00000" pt_clust_7="13000.00000" pt_clust_8="13000.00000" pt_clust_9="20.86566"></scales>
<clustering>
<clus scale="   20.866">  2  9  1 -1</clus>
<clus scale="   79.585">  5  6 -1 -1</clus>
<clus scale="   90.721">  7  8 -1 -1</clus>
<clus scale="  111.746">  1  5  2 -1</clus>
<clus scale="   20.866">  2  5  1 -1</clus>
</clustering>
</event>
<event>
 9    1  0.6014990E-005  0.1824002E+03  0.7546771E-02  0.1166185E+00
         -2   -1    0    0    0  501 -0.00000000000E+00  0.00000000000E+00  0.11273915162E+03  0.11273915162E+03  0.00000000000E+00 0.  1.
         21   -1    0    0  501  502  0.00000000000E+00 -0.00000000000E+00 -0.49279419133E+03  0.49279419133E+03  0.00000000000E+00 0.  1.
        -24    2    1    2    0    0  0.17152399131E+03  0.58788624294E+02 -0.43890869522E+02  0.20294018168E+03  0.79885711952E+02 0.  0.
         23    2    1    2    0    0 -0.12485522589E+03 -0.10391209186E+02 -0.20519599270E+03  0.25537581525E+03  0.86108111907E+02 0.  0.
         13    1    3    3    0    0  0.27493167902E+02 -0.19646916601E+02 -0.12042388725E+02  0.35873315144E+02  0.00000000000E+00 0. -1.
        -14    1    3    3    0    0  0.14403082341E+03  0.78435540895E+02 -0.31848480798E+02  0.16706686654E+03  0.00000000000E+00 0.  1.
        -11    1    4    4    0    0 -0.26808259727E+02 -0.33147093168E+02 -0.10513260346E+03  0.11344724274E+03  0.00000000000E+00 0.  1.
         11    1    4    4    0    0 -0.98046966159E+02  0.22755883982E+02 -0.10006338924E+03  0.14192857251E+03  0.00000000000E+00 0. -1.
         -1    1    1    2    0  502 -0.46668765422E+02 -0.48397415108E+02 -0.13096817748E+03  0.14721734601E+03  0.00000000000E+00 0.  1.
<scales pt_clust_5="13000.00000" pt_clust_6="13000.00000" pt_clust_7="13000.00000" pt_clust_8="13000.00000" pt_clust_9="67.23305"></scales>
<clustering>
<clus scale="   67.233">  2  9  1 -1</clus>
<clus scale="   79.886">  5  6 -1 -1</clus>
<clus scale="   86.108">  7  8 -1 -1</clus>
<clus scale="  179.546">  1  5  2 -1</clus>
<clus scale="   67.233">  2  5  1 -1</clus>
</clustering>
</event>
<event>
 9    1  0.6014990E-005  0.9642077E+02  0.7546771E-02  0.1294664E+00
         -4   -1    0    0    0  501 -0.00000000000E+00  0.00000000000E+00  0.58268398013E+03  0.58268398013E+03  0.00000000000E+00 0.  1.
         21   -1    0    0  501  502  0.00000000000E+00 -0.00000000000E+00 -0.37255738116E+02  0.37255738116E+02  0.00000000000E+00 0. -1.
        -24    2    1    2    0    0 -0.30837743585E+02 -0.90546071603E+01  0.44236815165E+03  0.45060320540E+03  0.79502923077E+02 0.  0.
         23    2    1    2    0    0  0.22336429439E+02 -0.14773011888E+02  0.43796595646E+02  0.10489902704E+03  0.91479539368E+02 0.  0.
         11    1    3    3    0    0  0.20072382662E+02  0.18962870298E+02  0.14810784808E+03  0.15065996700E+03  0.00000000000E+00 0. -1.
        -12    1    3    3    0    0 -0.50910126246E+02 -0.28017477458E+02  0.29426030357E+03  0.29994323839E+03  0.00000000000E+00 0.  1.
        -13    1    4    4    0    0 -0.34683463637E+02 -0.14453387400E+02  0.11150471463E+02  0.39194082092E+02  0.00000000000E+00 0. -1.
         13    1    4    4    0    0  0.57019893076E+02 -0.31962448808E+00  0.32646124183E+02  0.65704944946E+02  0.00000000000E+00 0.  1.
         -3    1    1    2    0  502  0.85013141453E+01  0.23827619049E+02  0.59263494716E+02  0.64437485811E+02  0.00000000000E+00 0.  1.
<scales pt_clust_5="13000.00000" pt_clust_6="13000.00000" pt_clust_7="13000.00000" pt_clust_8="13000.00000" pt_clust_9="25.29878"></scales>
<clustering>
<clus scale="   25.299">  2  9  1 -1</clus>
<clus scale="   79.503">  5  6 -1 -1</clus>
<clus scale="   85.142">  1  5  2 -1</clus>
<clus scale="   91.480">  7  8 -1 -1</clus>
<clus scale="   25.299">  2  5  1 -1</clus>
</clustering>
</event>
<event>
 9    1  0.6014990E-005  0.2715944E+03  0.7546771E-02  0.1101012E+00
          1   -1    0    0  502    0 -0.00000000000E+00  0.00000000000E+00  0.34014447992E+03  0.34014447992E+03  0.00000000000E+00 0. -1.
         21   -1    0    0  501  502  0.00000000000E+00 -0.00000000000E+00 -0.34431312538E+03  0.34431312538E+03  0.00000000000E+00 0. -1.
        -24    2    1    2    0    0 -0.28299168951E+03  0.23637732186E+02  0.97364430461E+02  0.30997622375E+03  0.77216502472E+02 0.  0.
         23    2    1    2    0    0  0.19569747761E+03 -0.43931529186E+02 -0.15557847037E+03  0.26982469381E+03  0.91505316507E+02 0.  0.
         11    1    3    3    0    0 -0.28674157032E+03  0.22410601775E+02  0.10077608599E+03  0.30476020529E+03  0.00000000000E+00 0. -1.
        -12    1    3    3    0    0  0.37498808058E+01  0.12271304105E+01 -0.34116555299E+01  0.52160184583E+01  0.00000000000E+00 0.  1.
        -11    1    4    4    0    0  0.39419415523E+02 -0.43825874451E+02 -0.18044334253E+02  0.61645726455E+02  0.00000000000E+00 0.  1.
         11    1    4    4    0    0  0.15627806209E+03 -0.10565473466E+00 -0.13753413611E+03  0.20817896736E+03  0.00000000000E+00 0. -1.
          2    1    1    2  501    0  0.87294211900E+02  0.20293797000E+02  0.54045394453E+02  0.10465668774E+03  0.00000000000E+00 0. -1.
<scales pt_clust_5="13000.00000" pt_clust_6="13000.00000" pt_clust_7="13000.00000" pt_clust_8="13000.00000" pt_clust_9="89.62213"></scales>
<clustering>
<clus scale="   77.217">  5  6 -1 -1</clus>
<clus scale="   89.622">  2  9  1 -1</clus>
<clus scale="   91.505">  7  8 -1 -1</clus>
<clus scale="  267.119">  1  5  2 -1</clus>
<clus scale="   89.622">  2  5  1 -1</clus>
</clustering>
</event>
<event>
 9    1  0.6014990E-005  0.9185793E+02  0.7546771E-02  0.1305427E+00
          1   -1    0    0  502    0 -0.00000000000E+00  0.00000000000E+00  0.19902680709E+03  0.19902680709E+03  0.00000000000E+00 0. -1.
         21   -1    0    0  501  502  0.00000000000E+00 -0.00000000000E+00 -0.79875182561E+02  0.79875182561E+02  0.00000000000E+00 0. -1.
        -24    2    1    2    0    0  0.24621616510E+02 -0.54280830899E+01  0.10893947413E+03  0.13630478014E+03  0.77945467988E+02 0.  0.
         23    2    1    2    0    0  0.35065745505E+01  0.20807473051E+02 -0.24776356564E+02  0.95142848411E+02  0.89403840853E+02 0.  0.
         13    1    3    3    0    0  0.32775710526E+02  0.26295748964E+02  0.32432337007E+02  0.53080788406E+02  0.00000000000E+00 0. -1.
        -14    1    3    3    0    0 -0.81540940162E+01 -0.31723832054E+02  0.76507137127E+02  0.83223991738E+02  0.00000000000E+00 0.  1.
        -13    1    4    4    0    0  0.22521280891E+02 -0.19839418307E+02 -0.37941118458E+02  0.48377051187E+02  0.00000000000E+00 0. -1.
         13    1    4    4    0    0 -0.19014706341E+02  0.40646891357E+02  0.13164761894E+02  0.46765797224E+02  0.00000000000E+00 0.  1.
          2    1    1    2  501    0 -0.28128191060E+02 -0.15379389961E+02  0.34988506958E+02  0.47454361096E+02  0.00000000000E+00 0. -1.
<scales pt_clust_5="13000.00000" pt_clust_6="13000.00000" pt_clust_7="13000.00000" pt_clust_8="13000.00000" pt_clust_9="32.05810"></scales>
<clustering>
<clus scale="   32.058">  2  9  1 -1</clus>
<clus scale="   77.945">  5  6 -1 -1</clus>
<clus scale="   80.749">  1  5  2 -1</clus>
<clus scale="   89.404">  7  8 -1 -1</clus>
<clus scale="   32.058">  2  5  1 -1</clus>
</clustering>
</event>
<event>
 9    1  0.6014990E-005  0.9272594E+02  0.7546771E-02  0.1303706E+00
         21   -1    0    0  501  502  0.00000000000E+00  0.00000000000E+00  0.12506737703E+03  0.12506737703E+03  0.00000000000E+00 0. -1.
          1   -1    0    0  502    0 -0.00000000000E+00 -0.00000000000E+00 -0.21275119754E+03  0.21275119754E+03  0.00000000000E+00 0. -1.
         23    2    1    2    0    0  0.40515805161E+01  0.31255811852E+01 -0.15359000992E+03  0.17947774287E+03  0.92715610752E+02 0.  0.
        -24    2    1    2    0    0  0.15714784862E+02  0.52361350248E+01 -0.63902767454E+01  0.82925935854E+02  0.81003108750E+02 0.  0.
         13    1    4    4    0    0  0.56285913988E+01 -0.21344651206E+02  0.29686021494E+02  0.36993716336E+02  0.00000000000E+00 0. -1.
        -14    1    4    4    0    0  0.10086193463E+02  0.26580786231E+02 -0.36076298239E+02  0.45932219518E+02  0.00000000000E+00 0.  1.
        -11    1    3    3    0    0  0.36438649101E+02 -0.20416290274E+02 -0.12050283632E+03  0.12753640115E+03  0.00000000000E+00 0. -1.
         11    1    3    3    0    0 -0.32387068585E+02  0.23541871459E+02 -0.33087173601E+02  0.51941341725E+02  0.00000000000E+00 0.  1.
          2    1    1    2  501    0 -0.19766365378E+02 -0.83617162100E+01  0.72296466153E+02  0.75414895852E+02  0.00000000000E+00 0. -1.
<scales pt_clust_5="13000.00000" pt_clust_6="13000.00000" pt_clust_7="13000.00000" pt_clust_8="13000.00000" pt_clust_9="21.46223"></scales>
<clustering>
<clus scale="   21.462">  1  9  2 -1</clus>
<clus scale="   81.003">  5  6 -1 -1</clus>
<clus scale="   81.015">  1  5  2 -1</clus>
<clus scale="   92.716">  7  8 -1 -1</clus>
<clus scale="   21.462">  1  5  2 -1</clus>
</clustering>
</event>
<event>
 9    1  0.6014990E-005  0.9938237E+02  0.7546771E-02  0.1284508E+00
         -2   -1    0    0    0  501 -0.00000000000E+00  0.00000000000E+00  0.21442097260E+03  0.21442097260E+03  0.00000000000E+00 0.  1.
         21   -1    0    0  501  502  0.00000000000E+00 -0.00000000000E+00 -0.10903445566E+03  0.10903445566E+03  0.00000000000E+00 0.  1.
        -24    2    1    2    0    0 -0.46872931008E+02  0.28266386045E+02  0.13526051180E+03  0.16667839628E+03  0.80561910921E+02 0.  0.
         23    2    1    2    0    0  0.31998888180E+02 -0.13736230990E+02  0.26132095212E+02  0.97035549898E+02  0.86720232110E+02 0.  0.
         11    1    3    3    0    0  0.12486910332E+02  0.16978345746E+02  0.30248142751E+01  0.21291703908E+02  0.00000000000E+00 0. -1.
        -12    1    3    3    0    0 -0.59359841340E+02  0.11288040299E+02  0.13223569753E+03  0.14538669237E+03  0.00000000000E+00 0.  1.
        -13    1    4    4    0    0 -0.24439222299E-01  0.31502491686E+02  0.27168820644E+02  0.41599908593E+02  0.00000000000E+00 0.  1.
         13    1    4    4    0    0  0.32023327402E+02 -0.45238722676E+02 -0.10367254324E+01  0.55435641305E+02  0.00000000000E+00 0. -1.
         -1    1    1    2    0  502  0.14874042828E+02 -0.14530155055E+02 -0.56006090070E+02  0.59741482078E+02  0.00000000000E+00 0.  1.
<scales pt_clust_5="13000.00000" pt_clust_6="13000.00000" pt_clust_7="13000.00000" pt_clust_8="13000.00000" pt_clust_9="20.79333"></scales>
<clustering>
<clus scale="   20.793">  2  9  1 -1</clus>
<clus scale="   80.562">  5  6 -1 -1</clus>
<clus scale="   86.720">  7  8 -1 -1</clus>
<clus scale="   94.057">  1  5  2 -1</clus>
<clus scale="   20.793">  2  5  1 -1</clus>
</clustering>
</event>
<event>
 9    1  0.6014990E-005  0.9887240E+02  0.7546771E-02  0.1290610E+00
          1   -1    0    0  502    0 -0.00000000000E+00  0.00000000000E+00  0.27841838006E+03  0.27841838006E+03  0.00000000000E+00 0. -1.
         21   -1    0    0  501  502  0.00000000000E+00 -0.00000000000E+00 -0.50549874026E+02  0.50549874026E+02  0.00000000000E+00 0. -1.
        -24    2    1    2    0    0  0.93696177205E+01  0.18566493439E+02  0.79608494161E+02  0.11492751130E+03  0.80239118242E+02 0.  0.
         23    2    1    2    0    0  0.33792567359E+02 -0.37331090316E+02  0.10640891201E+03  0.15105980221E+03  0.94660759422E+02 0.  0.
         13    1    3    3    0    0 -0.22020247409E+02  0.14098431696E+02 -0.31190111705E+01  0.26332210369E+02  0.00000000000E+00 0. -1.
        -14    1    3    3    0    0  0.31389865130E+02  0.44680617429E+01  0.82727505332E+02  0.88595300931E+02  0.00000000000E+00 0.  1.
        -11    1    4    4    0    0 -0.19687736075E+02 -0.12285962103E+02  0.85213658859E+02  0.88317152766E+02  0.00000000000E+00 0.  1.
         11    1    4    4    0    0  0.53480303434E+02 -0.25045128214E+02  0.21195253152E+02  0.62742649440E+02  0.00000000000E+00 0. -1.
          2    1    1    2  501    0 -0.43162185080E+02  0.18764596878E+02  0.41851099864E+02  0.62980940583E+02  0.00000000000E+00 0. -1.
<scales pt_clust_5="13000.00000" pt_clust_6="13000.00000" pt_clust_7="13000.00000" pt_clust_8="13000.00000" pt_clust_9="47.06468"></scales>
<clustering>
<clus scale="   47.065">  2  9  1 -1</clus>
<clus scale="   80.239">  5  6 -1 -1</clus>
<clus scale="   85.167">  1  5  2 -1</clus>
<clus scale="   94.661">  7  8 -1 -1</clus>
<clus scale="   47.065">  2  5  1 -1</clus>
</clustering>
</event>
<event>
 9    1  0.6014990E-005  0.1818232E+03  0.7546771E-02  0.1167382E+00
         21   -1    0    0  501  502  0.00000000000E+00  0.00000000000E+00  0.41642493588E+03  0.41642493588E+03  0.00000000000E+00 0.  1.
         -4   -1    0    0    0  501 -0.00000000000E+00 -0.00000000000E+00 -0.16517425811E+03  0.16517425811E+03  0.00000000000E+00 0.  1.
        -24    2    1    2    0    0 -0.22558113935E+02 -0.15236085894E+03 -0.62545888176E+02  0.18433429115E+03  0.79652011440E+02 0.  0.
         23    2    1    2    0    0  0.74946863383E+01  0.17638208035E+03  0.31062769733E+03  0.36873478441E+03  0.91153531424E+02 0.  0.
         13    1    3    3    0    0 -0.20459979798E+02 -0.45374975760E+02  0.15225832559E+02  0.52051178427E+02  0.00000000000E+00 0. -1.
        -14    1    3    3    0    0 -0.20981341376E+01 -0.10698588318E+03 -0.77771720735E+02  0.13228311272E+03  0.00000000000E+00 0.  1.
        -13    1    4    4    0    0  0.49065841761E+02  0.10581686987E+03  0.17549022028E+03  0.21071659686E+03  0.00000000000E+00 0. -1.
         13    1    4    4    0    0 -0.41571155423E+02  0.70565210480E+02  0.13513747705E+03  0.15801818755E+03  0.00000000000E+00 0.  1.
         -3    1    1    2    0  502  0.15063427597E+02 -0.24021221415E+02  0.31688686187E+01  0.28530118428E+02  0.00000000000E+00 0.  1.
<scales pt_clust_5="13000.00000" pt_clust_6="13000.00000" pt_clust_7="13000.00000" pt_clust_8="13000.00000" pt_clust_9="28.35360"></scales>
<clustering>
<clus scale="   28.354">  1  9  2 -1</clus>
<clus scale="   79.652">  5  6 -1 -1</clus>
<clus scale="   91.154">  7  8 -1 -1</clus>
<clus scale="  176.338">  2  5  1 -1</clus>
<clus scale="   28.354">  1  5  2 -1</clus>
</clustering>
</event>
<event>
 9    1  0.6014990E-005  0.1088927E+03  0.7546771E-02  0.1269012E+00
         -4   -1    0    0    0  501 -0.00000000000E+00  0.00000000000E+00  0.54657494462E+02  0.54657494462E+02  0.00000000000E+00 0.  1.
         21   -1    0    0  501  502  0.00000000000E+00 -0.00000000000E+00 -0.32897940462E+03  0.32897940462E+03  0.00000000000E+00 0. -1.
        -24    2    1    2    0    0  0.11072323397E+02  0.60819676508E+02 -0.44098305081E+02  0.10853001674E+03  0.77540148478E+02 0.  0.
         23    2    1    2    0    0  0.12279212404E+02 -0.43875507613E+02 -0.22231130382E+03  0.24519027166E+03  0.92844570573E+02 0.  0.
         13    1    3    3    0    0  0.17292046718E+02 -0.11840697616E+02  0.37743557262E+01  0.21294665080E+02  0.00000000000E+00 0. -1.
        -14    1    3    3    0    0 -0.62197233206E+01  0.72660374124E+02 -0.47872660808E+02  0.87235351658E+02  0.00000000000E+00 0.  1.
        -11    1    4    4    0    0  0.47450056726E+02 -0.19007529853E+02 -0.68550686892E+02  0.85510179206E+02  0.00000000000E+00 0.  1.
         11    1    4    4    0    0 -0.35170844322E+02 -0.24867977760E+02 -0.15376061692E+03  0.15968009245E+03  0.00000000000E+00 0. -1.
         -3    1    1    2    0  502 -0.23351535801E+02 -0.16944168895E+02 -0.79123012599E+01  0.29916610688E+02  0.00000000000E+00 0.  1.
<scales pt_clust_5="13000.00000" pt_clust_6="13000.00000" pt_clust_7="13000.00000" pt_clust_8="13000.00000" pt_clust_9="28.85134"></scales>
<clustering>
<clus scale="   28.851">  2  9  1 -1</clus>
<clus scale="   77.540">  5  6 -1 -1</clus>
<clus scale="   92.845">  7  8 -1 -1</clus>
<clus scale="   96.177">  1  5  2 -1</clus>
<clus scale="   28.851">  2  5  1 -1</clus>
</clustering>
</event>
<event>
 9    1  0.6014990E-005  0.1220247E+03  0.7546771E-02  0.1256974E+00
         -2   -1    0    0    0  501 -0.00000000000E+00  0.00000000000E+00  0.16109364846E+03  0.16109364846E+03  0.00000000000E+00 0.  1.
         21   -1    0    0  501  502  0.00000000000E+00 -0.00000000000E+00 -0.22424605514E+03  0.22424605514E+03  0.00000000000E+00 0.  1.
        -24    2    1    2    0    0  0.16251879687E+02  0.15876965904E+02  0.90679366593E+02  0.12531526962E+03  0.83456381627E+02 0.  0.
         23    2    1    2    0    0  0.41269479754E+02  0.59949096524E+02 -0.67587220900E+02  0.13158603883E+03  0.86312160513E+02 0.  0.
         13    1    3    3    0    0  0.27926413216E+02 -0.86942376665E+01 -0.14193578596E+01  0.29282911407E+02  0.00000000000E+00 0. -1.
        -14    1    3    3    0    0 -0.11674533529E+02  0.24571203570E+02  0.92098724453E+02  0.96032358213E+02  0.00000000000E+00 0.  1.
        -11    1    4    4    0    0 -0.21676917504E+02  0.70135869197E+00  0.27004653790E+00  0.21689941946E+02  0.00000000000E+00 0. -1.
         11    1    4    4    0    0  0.62946397258E+02  0.59247737832E+02 -0.67857267438E+02  0.10989609688E+03  0.00000000000E+00 0.  1.
         -1    1    1    2    0  502 -0.57521359441E+02 -0.75826062428E+02 -0.86244552367E+02  0.12843839515E+03  0.00000000000E+00 0.  1.
<scales pt_clust_5="13000.00000" pt_clust_6="13000.00000" pt_clust_7="13000.00000" pt_clust_8="13000.00000" pt_clust_9="86.25675"></scales>
<clustering>
<clus scale="   83.456">  5  6 -1 -1</clus>
<clus scale="   86.312">  7  8 -1 -1</clus>
<clus scale="   86.494">  1  5  2 -1</clus>
<clus scale="   86.257">  2  9  1 -1</clus>
<clus scale="   86.257">  2  5  1 -1</clus>
</clustering>
</event>
<event>
 9    1  0.6014990E-005  0.2405655E+03  0.7546771E-02  0.1120082E+00
         21   -1    0    0  501  502  0.00000000000E+00  0.00000000000E+00  0.15272380070E+03  0.15272380070E+03  0.00000000000E+00 0. -1.
          1   -1    0    0  502    0 -0.00000000000E+00 -0.00000000000E+00 -0.11699687349E+04  0.11699687349E+04  0.00000000000E+00 0. -1.
         23    2    1    2    0    0 -0.22688983394E+03  0.38067710122E+02 -0.10440652282E+04  0.10729773643E+04  0.90994924841E+02 0.  0.
        -24    2    1    2    0    0  0.16709724591E+03 -0.32936440901E+02  0.16862952885E+02  0.18888234994E+03  0.79911727608E+02 0.  0.
         11    1    4    4    0    0  0.37261479005E+02  0.71257386253E+00  0.37857870087E+02  0.53123854403E+02  0.00000000000E+00 0. -1.
        -12    1    4    4    0    0  0.12983576690E+03 -0.33649014763E+02 -0.20994917201E+02  0.13575849554E+03  0.00000000000E+00 0.  1.
        -13    1    3    3    0    0 -0.12862041936E+03 -0.21105710139E+02 -0.48104075023E+03  0.49838626251E+03  0.00000000000E+00 0. -1.
         13    1    3    3    0    0 -0.98269414582E+02  0.59173420261E+02 -0.56302447794E+03  0.57459110180E+03  0.00000000000E+00 0.  1.
          2    1    1    2  501    0  0.59792588033E+02 -0.51312692212E+01  0.99573411185E+01  0.60832821319E+02  0.00000000000E+00 0. -1.
<scales pt_clust_5="13000.00000" pt_clust_6="13000.00000" pt_clust_7="13000.00000" pt_clust_8="13000.00000" pt_clust_9="60.01236"></scales>
<clustering>
<clus scale="   60.012">  1  9  2 -1</clus>
<clus scale="   79.912">  5  6 -1 -1</clus>
<clus scale="   90.995">  7  8 -1 -1</clus>
<clus scale="  236.596">  1  5  2 -1</clus>
<clus scale="   60.012">  1  5  2 -1</clus>
</clustering>
</event>
<event>
 9    1  0.6014990E-005  0.8870396E+02  0.7546771E-02  0.1312770E+00
         -4   -1    0    0    0  501 -0.00000000000E+00  0.00000000000E+00  0.16487654141E+03  0.16487654141E+03  0.00000000000E+00 0.  1.
         21   -1    0    0  501  502  0.00000000000E+00 -0.00000000000E+00 -0.12349641822E+03  0.12349641822E+03  0.00000000000E+00 0. -1.
        -24    2    1    2    0    0  0.15674902396E+02  0.82326054691E+01  0.11215544491E+03  0.13749005152E+03  0.77531877865E+02 0.  0.
         23    2    1    2    0    0  0.88022791429E+01  0.10174588527E+02 -0.19276805815E+02  0.90965845879E+02  0.87875977971E+02 0.  0.
         11    1    3    3    0    0  0.28926872753E+02 -0.28338645948E+02  0.61198999267E+02  0.73383651672E+02  0.00000000000E+00 0. -1.
        -12    1    3    3    0    0 -0.13251970357E+02  0.36571251417E+02  0.50956445645E+02  0.64106399847E+02  0.00000000000E+00 0.  1.
        -11    1    4    4    0    0  0.16726278817E+02 -0.25664498334E+02 -0.38765257384E+02  0.49408299484E+02  0.00000000000E+00 0. -1.
         11    1    4    4    0    0 -0.79239996740E+01  0.35839086861E+02  0.19488451569E+02  0.41557546396E+02  0.00000000000E+00 0.  1.
         -3    1    1    2    0  502 -0.24477181539E+02 -0.18407193996E+02 -0.51498515899E+02  0.59917062233E+02  0.00000000000E+00 0.  1.
<scales pt_clust_5="13000.00000" pt_clust_6="13000.00000" pt_clust_7="13000.00000" pt_clust_8="13000.00000" pt_clust_9="30.62609"></scales>
<clustering>
<clus scale="   30.626">  2  9  1 -1</clus>
<clus scale="   77.532">  5  6 -1 -1</clus>
<clus scale="   78.469">  1  5  2 -1</clus>
<clus scale="   87.876">  7  8 -1 -1</clus>
<clus scale="   30.626">  2  5  1 -1</clus>
</clustering>
</event>
<event>
 9    1  0.6014990E-005  0.1061124E+03  0.7546771E-02  0.1270687E+00
         -4   -1    0    0    0  501 -0.00000000000E+00  0.00000000000E+00  0.13360189514E+03  0.13360189514E+03  0.00000000000E+00 0.  1.
         21   -1    0    0  501  502  0.00000000000E+00 -0.00000000000E+00 -0.12530103984E+03  0.12530103984E+03  0.00000000000E+00 0.  1.
         23    2    1    2    0    0  0.42259770917E+02 -0.11884835127E+02  0.94703913771E+01  0.10131659916E+03  0.90819752302E+02 0.  0.
        -24    2    1    2    0    0 -0.71683551514E+02  0.11749975915E+02 -0.31143073530E+02  0.11558407399E+03  0.84339751238E+02 0.  0.
         11    1    4    4    0    0 -0.69659916926E+01 -0.22227587102E+02  0.16310786195E+02  0.28436462771E+02  0.00000000000E+00 0. -1.
        -12    1    4    4    0    0 -0.64717559821E+02  0.33977563016E+02 -0.47453859725E+02  0.87147611216E+02  0.00000000000E+00 0.  1.
        -11    1    3    3    0    0  0.33700828615E+02 -0.45378344748E+02 -0.15571860955E+02  0.58629539270E+02  0.00000000000E+00 0. -1.
         11    1    3    3    0    0  0.85589423025E+01  0.33493509621E+02  0.25042252332E+02  0.42687059889E+02  0.00000000000E+00 0.  1.
         -3    1    1    2    0  502  0.29423780597E+02  0.13485921226E+00  0.29973537451E+02  0.42002261831E+02  0.00000000000E+00 0.  1.
<scales pt_clust_5="13000.00000" pt_clust_6="13000.00000" pt_clust_7="13000.00000" pt_clust_8="13000.00000" pt_clust_9="29.42410"></scales>
<clustering>
<clus scale="   29.424">  2  9  1 -1</clus>
<clus scale="   84.340">  5  6 -1 -1</clus>
<clus scale="   90.820">  7  8 -1 -1</clus>
<clus scale="  100.622">  2  5  1 -1</clus>
<clus scale="   29.424">  2  5  1 -1</clus>
</clustering>
</event>
<event>
 9    1  0.6014990E-005  0.1850536E+03  0.7546771E-02  0.1164222E+00
         21   -1    0    0  501  502  0.00000000000E+00  0.00000000000E+00  0.30299615764E+03  0.30299615764E+03  0.00000000000E+00 0.  1.
          1   -1    0    0  502    0 -0.00000000000E+00 -0.00000000000E+00 -0.25797713985E+03  0.25797713985E+03  0.00000000000E+00 0. -1.
         23    2    1    2    0    0 -0.80127754918E+02  0.14752551905E+03 -0.77154735451E+02  0.20597484287E+03  0.91041456561E+02 0.  0.
        -24    2    1    2    0    0  0.48652224210E+02 -0.12855705468E+03  0.20787712073E+03  0.26174836682E+03  0.80033461637E+02 0.  0.
         11    1    4    4    0    0  0.12418465231E+02 -0.30770636636E+02  0.48899743546E+01  0.33540456271E+02  0.00000000000E+00 0. -1.
        -12    1    4    4    0    0  0.36233758979E+02 -0.97786418045E+02  0.20298714638E+03  0.22820791055E+03  0.00000000000E+00 0.  1.
        -13    1    3    3    0    0 -0.54010334959E+02  0.15088664034E+03 -0.80650084773E+02  0.17941106624E+03  0.00000000000E+00 0.  1.
         13    1    3    3    0    0 -0.26117419958E+02 -0.33611212940E+01  0.34953493229E+01  0.26563776624E+02  0.00000000000E+00 0. -1.
          2    1    1    2  501    0  0.31475530707E+02 -0.18968464368E+02 -0.85703367494E+02  0.93250087794E+02  0.00000000000E+00 0. -1.
<scales pt_clust_5="13000.00000" pt_clust_6="13000.00000" pt_clust_7="13000.00000" pt_clust_8="13000.00000" pt_clust_9="36.74933"></scales>
<clustering>
<clus scale="   36.749">  1  9  2 -1</clus>
<clus scale="   80.033">  5  6 -1 -1</clus>
<clus scale="   91.041">  7  8 -1 -1</clus>
<clus scale="  179.893">  1  5  2 -1</clus>
<clus scale="   36.749">  1  5  2 -1</clus>
</clustering>
</event>
<event>
 9    1  0.1104501E-004  0.9435538E+02  0.7546771E-02  0.1300597E+00
         21   -1    0    0  501  502  0.00000000000E+00  0.00000000000E+00  0.22582590269E+03  0.22582590269E+03  0.00000000000E+00 0.  1.
         -2   -1    0    0    0  501 -0.00000000000E+00 -0.00000000000E+00 -0.43826576766E+03  0.43826576766E+03  0.00000000000E+00 0.  1.
        -24    2    1    2    0    0  0.11100644634E+02 -0.18435524838E+02 -0.39405670036E+03  0.40248845848E+03  0.79077071402E+02 0.  0.
         23    2    1    2    0    0 -0.21739346236E+02 -0.40298342828E+02  0.44918002045E+02  0.11244081641E+03  0.92351257040E+02 0.  0.
         13    1    3    3    0    0 -0.14832861345E+02  0.21912467360E+02 -0.68776700022E+02  0.73691278096E+02  0.00000000000E+00 0. -1.
        -14    1    3    3    0    0  0.25933505980E+02 -0.40347992198E+02 -0.32528000034E+03  0.32879718039E+03  0.00000000000E+00 0.  1.
        -11    1    4    4    0    0 -0.24325638513E+02 -0.69350560553E+02  0.27506111037E+02  0.78471798007E+02  0.00000000000E+00 0.  1.
         11    1    4    4    0    0  0.25862922763E+01  0.29052217725E+02  0.17411891008E+02  0.33969018399E+02  0.00000000000E+00 0. -1.
         -1    1    1    2    0  502  0.10638701602E+02  0.58733867666E+02  0.13669883334E+03  0.14916239546E+03  0.00000000000E+00 0.  1.
<scales pt_clust_5="13000.00000" pt_clust_6="13000.00000" pt_clust_7="13000.00000" pt_clust_8="13000.00000" pt_clust_9="59.68961"></scales>
<clustering>
<clus scale="   59.690">  1  9  2 -1</clus>
<clus scale="   79.077">  5  6 -1 -1</clus>
<clus scale="   81.409">  2  5  1 -1</clus>
<clus scale="   92.351">  7  8 -1 -1</clus>
<clus scale="   59.690">  1  5  2 -1</clus>
</clustering>
</event>
<event>
 9    1  0.6014990E-005  0.1336041E+03  0.7546771E-02  0.1238890E+00
         21   -1    0    0  501  502  0.00000000000E+00  0.00000000000E+00  0.43754567446E+02  0.43754567446E+02  0.00000000000E+00 0. -1.
          1   -1    0    0  502    0 -0.00000000000E+00 -0.00000000000E+00 -0.98118216367E+03  0.98118216367E+03  0.00000000000E+00 0. -1.
        -24    2    1    2    0    0 -0.38998037090E+02 -0.40180362224E+02 -0.24322356593E+03  0.26100646828E+03  0.76363375097E+02 0.  0.
         23    2    1    2    0    0 -0.87789845248E+02  0.24738912373E+02 -0.12241004405E+03  0.17804463561E+03  0.91632978079E+02 0.  0.
         13    1    3    3    0    0  0.18325930603E+02 -0.11087844415E+02 -0.22300243446E+02  0.30920557627E+02  0.00000000000E+00 0. -1.
        -14    1    3    3    0    0 -0.57323967693E+02 -0.29092517809E+02 -0.22092332248E+03  0.23008591066E+03  0.00000000000E+00 0.  1.
        -13    1    4    4    0    0 -0.13634335251E+02  0.25844027412E+02  0.59312688748E+01  0.29815915231E+02  0.00000000000E+00 0. -1.
         13    1    4    4    0    0 -0.74155509997E+02 -0.11051150394E+01 -0.12834131293E+03  0.14822872038E+03  0.00000000000E+00 0.  1.
          2    1    1    2  501    0  0.12678788234E+03  0.15441449851E+02 -0.57179398624E+03  0.58588562722E+03  0.00000000000E+00 0. -1.
<scales pt_clust_5="13000.00000" pt_clust_6="13000.00000" pt_clust_7="13000.00000" pt_clust_8="13000.00000" pt_clust_9="97.22893"></scales>
<clustering>
<clus scale="   76.363">  5  6 -1 -1</clus>
<clus scale="   91.633">  7  8 -1 -1</clus>
<clus scale="   94.693">  2  5  1 -1</clus>
<clus scale="   97.229">  1  9  2 -1</clus>
<clus scale="   97.229">  1  5  2 -1</clus>
</clustering>
</event>
<event>
 9    1  0.6014990E-005  0.1192272E+03  0.7546771E-02  0.1257730E+00
          1   -1    0    0  502    0 -0.00000000000E+00  0.00000000000E+00  0.56370795821E+03  0.56370795821E+03  0.00000000000E+00 0. -1.
         21   -1    0    0  501  502  0.00000000000E+00 -0.00000000000E+00 -0.31508094531E+02  0.31508094531E+02  0.00000000000E+00 0. -1.
         23    2    1    2    0    0  0.44707267641E+02  0.18107281821E+02  0.23606206631E+03  0.26305725913E+03  0.10558034381E+03 0.  0.
        -24    2    1    2    0    0 -0.66593218716E+02 -0.29379305392E+00  0.12735191332E+03  0.16103021653E+03  0.72646250530E+02 0.  0.
         11    1    4    4    0    0 -0.60537599887E+02  0.21323593679E+02  0.12214989906E+03  0.13798584887E+03  0.00000000000E+00 0. -1.
        -12    1    4    4    0    0 -0.60556188288E+01 -0.21617386733E+02  0.52020142592E+01  0.23044367661E+02  0.00000000000E+00 0.  1.
        -13    1    3    3    0    0 -0.28000604744E+02  0.28227634039E+02  0.56671088557E+02  0.69227490694E+02  0.00000000000E+00 0.  1.
         13    1    3    3    0    0  0.72707872385E+02 -0.10120352218E+02  0.17939097775E+03  0.19382976844E+03  0.00000000000E+00 0. -1.
          2    1    1    2  501    0  0.21885951075E+02 -0.17813488767E+02  0.16878588405E+03  0.17112857708E+03  0.00000000000E+00 0. -1.
<scales pt_clust_5="13000.00000" pt_clust_6="13000.00000" pt_clust_7="13000.00000" pt_clust_8="13000.00000" pt_clust_9="28.21907"></scales>
<clustering>
<clus scale="   28.219">  2  9  1 -1</clus>
<clus scale="   72.646">  5  6 -1 -1</clus>
<clus scale="   91.353">  2  5  1 -1</clus>
<clus scale="  105.580">  7  8 -1 -1</clus>
<clus scale="   28.219">  2  5  1 -1</clus>
</clustering>
</event>
<event>
 9    1  0.6014990E-005  0.9674225E+02  0.7546771E-02  0.1295278E+00
         21   -1    0    0  501  502  0.00000000000E+00  0.00000000000E+00  0.17309643293E+03  0.17309643293E+03  0.00000000000E+00 0. -1.
         -4   -1    0    0    0  501 -0.00000000000E+00 -0.00000000000E+00 -0.16103838898E+03  0.16103838898E+03  0.00000000000E+00 0.  1.
        -24    2    1    2    0    0 -0.11032754928E+02 -0.24602054588E+02 -0.10525506313E+03  0.13418199244E+03  0.78734973235E+02 0.  0.
         23    2    1    2    0    0 -0.85123398894E+01  0.36961613812E+02  0.13687398568E+03  0.16966426055E+03  0.92805455250E+02 0.  0.
         13    1    3    3    0    0  0.86144383780E+01  0.26768270872E+02 -0.38826564889E+02  0.47940077337E+02  0.00000000000E+00 0. -1.
        -14    1    3    3    0    0 -0.19647193306E+02 -0.51370325459E+02 -0.66428498242E+02  0.86241915107E+02  0.00000000000E+00 0.  1.
        -13    1    4    4    0    0  0.39375330895E+02  0.29904002684E+02  0.87610815457E+02  0.10059980638E+03  0.00000000000E+00 0. -1.
         13    1    4    4    0    0 -0.47887670784E+02  0.70576111283E+01  0.49263170224E+02  0.69064454161E+02  0.00000000000E+00 0.  1.
         -3    1    1    2    0  502  0.19545094818E+02 -0.12359559225E+02 -0.19560878594E+02  0.30288568917E+02  0.00000000000E+00 0.  1.
<scales pt_clust_5="13000.00000" pt_clust_6="13000.00000" pt_clust_7="13000.00000" pt_clust_8="13000.00000" pt_clust_9="23.12509"></scales>
<clustering>
<clus scale="   23.125">  1  9  2 -1</clus>
<clus scale="   78.735">  5  6 -1 -1</clus>
<clus scale="   83.339">  2  5  1 -1</clus>
<clus scale="   92.805">  7  8 -1 -1</clus>
<clus scale="   23.125">  1  5  2 -1</clus>
</clustering>
</event>
<event>
 9    1  0.6014990E-005  0.1238294E+03  0.7546771E-02  0.1249214E+00
         21   -1    0    0  501  502  0.00000000000E+00  0.00000000000E+00  0.10530494541E+03  0.10530494541E+03  0.00000000000E+00 0.  1.
          3   -1    0    0  502    0 -0.00000000000E+00 -0.00000000000E+00 -0.23483320949E+03  0.23483320949E+03  0.00000000000E+00 0. -1.
        -24    2    1    2    0    0  0.84658003282E+02  0.23543888647E+02 -0.14479501396E+03  0.17918040823E+03  0.58469910328E+02 0.  0.
         23    2    1    2    0    0 -0.46724081233E+02  0.76234677954E+01 -0.43073155234E+01  0.10810388603E+03  0.97090886179E+02 0.  0.
         11    1    3    3    0    0  0.81183873100E+02  0.43634755045E+01 -0.13443175693E+03  0.15710429161E+03  0.00000000000E+00 0. -1.
        -12    1    3    3    0    0  0.34741301821E+01  0.19180413143E+02 -0.10363257025E+02  0.22076116620E+02  0.00000000000E+00 0.  1.
        -13    1    4    4    0    0 -0.62292285420E+02  0.25597352288E+02  0.23671430436E+02  0.71385501930E+02  0.00000000000E+00 0.  1.
         13    1    4    4    0    0  0.15568204186E+02 -0.17973884492E+02 -0.27978745959E+02  0.36718384098E+02  0.00000000000E+00 0. -1.
          4    1    1    2  501    0 -0.37933922049E+02 -0.31167356443E+02  0.19574065399E+02  0.52853860653E+02  0.00000000000E+00 0. -1.
<scales pt_clust_5="13000.00000" pt_clust_6="13000.00000" pt_clust_7="13000.00000" pt_clust_8="13000.00000" pt_clust_9="49.09569"></scales>
<clustering>
<clus scale="   49.096">  1  9  2 -1</clus>
<clus scale="   58.470">  5  6 -1 -1</clus>
<clus scale="   96.570">  2  5  1 -1</clus>
<clus scale="   97.091">  7  8 -1 -1</clus>
<clus scale="   49.096">  1  5  2 -1</clus>
</clustering>
</event>
<event>
 9    1  0.6014990E-005  0.1111752E+03  0.7546771E-02  0.1264254E+00
         21   -1    0    0  501  502  0.00000000000E+00  0.00000000000E+00  0.73824283793E+02  0.73824283793E+02  0.00000000000E+00 0. -1.
          1   -1    0    0  502    0 -0.00000000000E+00 -0.00000000000E+00 -0.27796708866E+03  0.27796708866E+03  0.00000000000E+00 0. -1.
        -24    2    1    2    0    0  0.37044592530E+02  0.79715105914E+02 -0.11484403375E+03  0.16497021235E+03  0.79367618884E+02 0.  0.
         23    2    1    2    0    0 -0.33532382208E+01 -0.23333358042E+02 -0.40576605652E+02  0.10504183353E+03  0.93976784688E+02 0.  0.
         13    1    3    3    0    0  0.40228136446E+02  0.62009920248E+02 -0.12432294583E+03  0.14463653768E+03  0.00000000000E+00 0. -1.
        -14    1    3    3    0    0 -0.31835439164E+01  0.17705185666E+02  0.94789120811E+01  0.20333674670E+02  0.00000000000E+00 0.  1.
        -11    1    4    4    0    0 -0.46264680160E+02 -0.18727641063E+02 -0.70819744346E+01  0.50411303613E+02  0.00000000000E+00 0.  1.
         11    1    4    4    0    0  0.42911441940E+02 -0.46057169793E+01 -0.33494631217E+02  0.54630529913E+02  0.00000000000E+00 0. -1.
          2    1    1    2  501    0 -0.33691354309E+02 -0.56381747872E+02 -0.48722165468E+02  0.81779326582E+02  0.00000000000E+00 0. -1.
<scales pt_clust_5="13000.00000" pt_clust_6="13000.00000" pt_clust_7="13000.00000" pt_clust_8="13000.00000" pt_clust_9="65.68115"></scales>
<clustering>
<clus scale="   65.681">  1  9  2 -1</clus>
<clus scale="   79.368">  5  6 -1 -1</clus>
<clus scale="   93.977">  7  8 -1 -1</clus>
<clus scale="   99.134">  2  5  1 -1</clus>
<clus scale="   65.681">  1  5  2 -1</clus>
</clustering>
</event>
<event>
 9    1  0.6014990E-005  0.1249310E+03  0.7546771E-02  0.1238702E+00
         -4   -1    0    0    0  501 -0.00000000000E+00  0.00000000000E+00  0.14536729618E+03  0.14536729618E+03  0.00000000000E+00 0.  1.
         21   -1    0    0  501  502  0.00000000000E+00 -0.00000000000E+00 -0.22983619103E+03  0.22983619103E+03  0.00000000000E+00 0.  1.
        -24    2    1    2    0    0 -0.96472579133E+01 -0.91738313586E+02  0.80537705242E+02  0.14552492884E+03  0.78626936755E+02 0.  0.
         23    2    1    2    0    0 -0.95097901236E+01  0.64836285548E+02 -0.77883926532E+02  0.13650628863E+03  0.90960875059E+02 0.  0.
         11    1    3    3    0    0  0.21176891467E+02 -0.27510492248E+01  0.34803219228E+02  0.40832500201E+02  0.00000000000E+00 0. -1.
        -12    1    3    3    0    0 -0.30824149380E+02 -0.88987264361E+02  0.45734486014E+02  0.10469242864E+03  0.00000000000E+00 0.  1.
        -11    1    4    4    0    0  0.21986662966E+02  0.29782427592E+02  0.86104340272E+01  0.38007182423E+02  0.00000000000E+00 0. -1.
         11    1    4    4    0    0 -0.31496453089E+02  0.35053857956E+02 -0.86494360559E+02  0.98499106206E+02  0.00000000000E+00 0.  1.
         -3    1    1    2    0  502  0.19157048037E+02  0.26902028038E+02 -0.87122673555E+02  0.93172269745E+02  0.00000000000E+00 0.  1.
<scales pt_clust_5="13000.00000" pt_clust_6="13000.00000" pt_clust_7="13000.00000" pt_clust_8="13000.00000" pt_clust_9="33.02592"></scales>
<clustering>
<clus scale="   33.026">  2  9  1 -1</clus>
<clus scale="   78.627">  5  6 -1 -1</clus>
<clus scale="   90.961">  7  8 -1 -1</clus>
<clus scale="  116.259">  1  5  2 -1</clus>
<clus scale="   33.026">  2  5  1 -1</clus>
</clustering>
</event>
<event>
 9    1  0.6014990E-005  0.1197142E+03  0.7546771E-02  0.1247923E+00
         21   -1    0    0  501  502  0.00000000000E+00  0.00000000000E+00  0.13378636767E+03  0.13378636767E+03  0.00000000000E+00 0.  1.
          1   -1    0    0  502    0 -0.00000000000E+00 -0.00000000000E+00 -0.61599763422E+03  0.61599763422E+03  0.00000000000E+00 0. -1.
        -24    2    1    2    0    0  0.18841253913E+02  0.75155127447E+02 -0.56150573841E+03  0.57247844923E+03  0.80247084249E+02 0.  0.
         23    2    1    2    0    0 -0.28067850138E+02 -0.37520536682E+02  0.20011859783E+02  0.10648238841E+03  0.93500960553E+02 0.  0.
         13    1    3    3    0    0 -0.51716664722E+01  0.84938519578E+02 -0.45242774952E+03  0.46036090926E+03  0.00000000000E+00 0. -1.
        -14    1    3    3    0    0  0.24012920385E+02 -0.97833921311E+01 -0.10907798890E+03  0.11211753997E+03  0.00000000000E+00 0.  1.
        -13    1    4    4    0    0  0.11976501491E+02 -0.17217862005E+02 -0.31693404038E+02  0.38004778903E+02  0.00000000000E+00 0. -1.
         13    1    4    4    0    0 -0.40044351629E+02 -0.20302674677E+02  0.51705263821E+02  0.68477609503E+02  0.00000000000E+00 0.  1.
          2    1    1    2  501    0  0.92265962255E+01 -0.37634590765E+02  0.59282612077E+02  0.70823164252E+02  0.00000000000E+00 0. -1.
<scales pt_clust_5="13000.00000" pt_clust_6="13000.00000" pt_clust_7="13000.00000" pt_clust_8="13000.00000" pt_clust_9="38.74910"></scales>
<clustering>
<clus scale="   38.749">  1  9  2 -1</clus>
<clus scale="   80.247">  5  6 -1 -1</clus>
<clus scale="   93.501">  7  8 -1 -1</clus>
<clus scale="  109.675">  2  5  1 -1</clus>
<clus scale="   38.749">  1  5  2 -1</clus>
</clustering>
</event>
<event>
 9    1  0.6014990E-005  0.1298729E+03  0.7546771E-02  0.1239523E+00
         21   -1    0    0  501  502  0.00000000000E+00  0.00000000000E+00  0.14216430305E+04  0.14216430305E+04  0.00000000000E+00 0.  1.
          1   -1    0    0  502    0 -0.00000000000E+00 -0.00000000000E+00 -0.26122260866E+02  0.26122260866E+02  0.00000000000E+00 0. -1.
        -24    2    1    2    0    0 -0.89773993658E+01 -0.62443696172E+02  0.84125265685E+03  0.84738611616E+03  0.79858551952E+02 0.  0.
         23    2    1    2    0    0 -0.22288699969E+02 -0.52856581102E+02  0.21738391166E+03  0.24294010645E+03  0.92051756961E+02 0.  0.
         13    1    3    3    0    0 -0.21343488299E+02 -0.45482066452E+02  0.21540416065E+03  0.22118570317E+03  0.00000000000E+00 0. -1.
        -14    1    3    3    0    0  0.12366088933E+02 -0.16961629720E+02  0.62584849620E+03  0.62620041300E+03  0.00000000000E+00 0.  1.
        -11    1    4    4    0    0 -0.40399177831E+02 -0.71457510826E+02  0.15564397932E+03  0.17596396711E+03  0.00000000000E+00 0.  1.
         11    1    4    4    0    0  0.18110477862E+02  0.18600929723E+02  0.61739932342E+02  0.66976139337E+02  0.00000000000E+00 0. -1.
          2    1    1    2  501    0  0.31266099335E+02  0.11530027727E+03  0.33688420117E+03  0.35743906880E+03  0.00000000000E+00 0. -1.
<scales pt_clust_5="13000.00000" pt_clust_6="13000.00000" pt_clust_7="13000.00000" pt_clust_8="13000.00000" pt_clust_9="91.61575"></scales>
<clustering>
<clus scale="   79.859">  5  6 -1 -1</clus>
<clus scale="   92.052">  7  8 -1 -1</clus>
<clus scale="  101.770">  2  5  1 -1</clus>
<clus scale="   91.616">  1  9  2 -1</clus>
<clus scale="   91.616">  1  5  2 -1</clus>
</clustering>
</event>
<event>
 9    1  0.6014990E-005  0.1028145E+03  0.7546771E-02  0.1279377E+00
          1   -1    0    0  502    0 -0.00000000000E+00  0.00000000000E+00  0.23314426010E+03  0.23314426010E+03  0.00000000000E+00 0. -1.
         21   -1    0    0  501  502  0.00000000000E+00 -0.00000000000E+00 -0.19810005043E+03  0.19810005043E+03  0.00000000000E+00 0. -1.
         23    2    1    2    0    0 -0.41141074943E+02 -0.98333718338E+01  0.10371195599E+03  0.14454803804E+03  0.91371123645E+02 0.  0.
        -24    2    1    2    0    0  0.34879001398E+02  0.48093651024E+02  0.82941801943E+02  0.13020819737E+03  0.80902955104E+02 0.  0.
         13    1    4    4    0    0  0.27570910019E+02  0.31264593887E+02  0.97984298456E+02  0.10648264015E+03  0.00000000000E+00 0. -1.
        -14    1    4    4    0    0  0.73080913796E+01  0.16829057137E+02 -0.15042496513E+02  0.23725557213E+02  0.00000000000E+00 0.  1.
        -13    1    3    3    0    0  0.85388865132E+01 -0.39811081028E+02  0.57049101144E+02  0.70088762986E+02  0.00000000000E+00 0. -1.
         13    1    3    3    0    0 -0.49679961456E+02  0.29977709194E+02  0.46662854846E+02  0.74459275052E+02  0.00000000000E+00 0.  1.
          2    1    1    2  501    0  0.62620735446E+01 -0.38260279190E+02 -0.15160954827E+03  0.15648807512E+03  0.00000000000E+00 0. -1.
<scales pt_clust_5="13000.00000" pt_clust_6="13000.00000" pt_clust_7="13000.00000" pt_clust_8="13000.00000" pt_clust_9="38.76935"></scales>
<clustering>
<clus scale="   38.769">  2  9  1 -1</clus>
<clus scale="   80.903">  5  6 -1 -1</clus>
<clus scale="   91.371">  7  8 -1 -1</clus>
<clus scale="   93.635">  2  5  1 -1</clus>
<clus scale="   38.769">  2  5  1 -1</clus>
</clustering>
</event>
<event>
 9    1  0.6014990E-005  0.1078437E+03  0.7546771E-02  0.1270987E+00
         21   -1    0    0  501  502  0.00000000000E+00  0.00000000000E+00  0.12719618643E+03  0.12719618643E+03  0.00000000000E+00 0.  1.
         -4   -1    0    0    0  501 -0.00000000000E+00 -0.00000000000E+00 -0.18533300460E+03  0.18533300460E+03  0.00000000000E+00 0.  1.
        -24    2    1    2    0    0  0.26067362448E+02  0.37884852012E+02 -0.81188152673E+02  0.12340184920E+03  0.80757234072E+02 0.  0.
         23    2    1    2    0    0 -0.76988341773E+02 -0.26474059960E+02  0.44146290571E+02  0.13284102482E+03  0.95235299573E+02 0.  0.
         13    1    3    3    0    0  0.39848519845E+01 -0.25113739703E+02 -0.15688347821E+02  0.29878139577E+02  0.00000000000E+00 0. -1.
        -14    1    3    3    0    0  0.22082510464E+02  0.62998591715E+02 -0.65499804851E+02  0.93523709625E+02  0.00000000000E+00 0.  1.
        -11    1    4    4    0    0 -0.55311749542E+02 -0.30640811333E+02  0.72957840350E+02  0.96545820340E+02  0.00000000000E+00 0.  1.
         11    1    4    4    0    0 -0.21676592231E+02  0.41667513730E+01 -0.28811549779E+02  0.36295204482E+02  0.00000000000E+00 0. -1.
         -3    1    1    2    0  502  0.50920979324E+02 -0.11410792053E+02 -0.21094956063E+02  0.56286317004E+02  0.00000000000E+00 0.  1.
<scales pt_clust_5="13000.00000" pt_clust_6="13000.00000" pt_clust_7="13000.00000" pt_clust_8="13000.00000" pt_clust_9="52.18386"></scales>
<clustering>
<clus scale="   52.184">  1  9  2 -1</clus>
<clus scale="   80.757">  5  6 -1 -1</clus>
<clus scale="   95.235">  7  8 -1 -1</clus>
<clus scale="   95.301">  2  5  1 -1</clus>
<clus scale="   52.184">  1  5  2 -1</clus>
</clustering>
</event>
<event>
 9    1  0.6014990E-005  0.1041996E+03  0.7546771E-02  0.1274696E+00
         -2   -1    0    0    0  501 -0.00000000000E+00  0.00000000000E+00  0.49490068701E+03  0.49490068701E+03  0.00000000000E+00 0.  1.
         21   -1    0    0  501  502  0.00000000000E+00 -0.00000000000E+00 -0.45886214309E+02  0.45886214309E+02  0.00000000000E+00 0.  1.
        -24    2    1    2    0    0 -0.36439610255E+02 -0.18335385075E+02  0.30256751504E+03  0.32137913952E+03  0.10036642175E+03 0.  0.
         23    2    1    2    0    0  0.12217928565E+02 -0.31207242274E+02  0.12525986629E+03  0.16033107749E+03  0.94301911742E+02 0.  0.
         11    1    3    3    0    0 -0.60998563129E+02  0.18323121142E+02  0.19399490415E+03  0.20418272285E+03  0.00000000000E+00 0. -1.
        -12    1    3    3    0    0  0.24558952873E+02 -0.36658506217E+02  0.10857261089E+03  0.11719641667E+03  0.00000000000E+00 0.  1.
        -11    1    4    4    0    0 -0.20436441027E+02 -0.53085747819E+02  0.94992045979E+02  0.11072142314E+03  0.00000000000E+00 0.  1.
         11    1    4    4    0    0  0.32654369592E+02  0.21878505545E+02  0.30267820307E+02  0.49609654348E+02  0.00000000000E+00 0. -1.
         -1    1    1    2    0  502  0.24221681690E+02  0.49542627349E+02  0.21187091371E+02  0.59076684312E+02  0.00000000000E+00 0.  1.
<scales pt_clust_5="13000.00000" pt_clust_6="13000.00000" pt_clust_7="13000.00000" pt_clust_8="13000.00000" pt_clust_9="55.14673"></scales>
<clustering>
<clus scale="   55.147">  2  9  1 -1</clus>
<clus scale="   94.302">  7  8 -1 -1</clus>
<clus scale="   98.372">  2  7  1 -1</clus>
<clus scale="  100.366">  5  6 -1 -1</clus>
<clus scale="   55.147">  2  5  1 -1</clus>
</clustering>
</event>
<event>
 9    1  0.6014990E-005  0.8557958E+02  0.7546771E-02  0.1317381E+00
          1   -1    0    0  502    0 -0.00000000000E+00  0.00000000000E+00  0.54478037454E+02  0.54478037454E+02  0.00000000000E+00 0. -1.
         21   -1    0    0  501  502  0.00000000000E+00 -0.00000000000E+00 -0.19331690908E+03  0.19331690908E+03  0.00000000000E+00 0. -1.
         23    2    1    2    0    0 -0.13904272214E+02  0.12556990831E+02 -0.55059194747E+02  0.10344925095E+03  0.85552473909E+02 0.  0.
        -24    2    1    2    0    0 -0.14654543742E+02  0.80943062526E+01 -0.54845135775E+02  0.98746466325E+02  0.80390311900E+02 0.  0.
         11    1    4    4    0    0 -0.44542181360E+02 -0.11785108870E+02 -0.27906106343E+02  0.53866923827E+02  0.00000000000E+00 0. -1.
        -12    1    4    4    0    0  0.29887637618E+02  0.19879415123E+02 -0.26939029433E+02  0.44879542497E+02  0.00000000000E+00 0.  1.
        -11    1    3    3    0    0  0.20182709641E+02  0.38845594602E+02 -0.20969163249E+02  0.48538930724E+02  0.00000000000E+00 0. -1.
         11    1    3    3    0    0 -0.34086981854E+02 -0.26288603771E+02 -0.34090031497E+02  0.54910320229E+02  0.00000000000E+00 0.  1.
          2    1    1    2  501    0  0.28558815955E+02 -0.20651297084E+02 -0.28934541109E+02  0.45599229261E+02  0.00000000000E+00 0. -1.
<scales pt_clust_5="13000.00000" pt_clust_6="13000.00000" pt_clust_7="13000.00000" pt_clust_8="13000.00000" pt_clust_9="35.24318"></scales>
<clustering>
<clus scale="   35.243">  2  9  1 -1</clus>
<clus scale="   80.390">  5  6 -1 -1</clus>
<clus scale="   80.419">  2  5  1 -1</clus>
<clus scale="   85.552">  7  8 -1 -1</clus>
<clus scale="   35.243">  2  5  1 -1</clus>
</clustering>
</event>
<event>
 9    1  0.6014990E-005  0.2234034E+03  0.7546771E-02  0.1167858E+00
         21   -1    0    0  501  502  0.00000000000E+00  0.00000000000E+00  0.81273781510E+02  0.81273781510E+02  0.00000000000E+00 0. -1.
          1   -1    0    0  502    0 -0.00000000000E+00 -0.00000000000E+00 -0.10158408550E+04  0.10158408550E+04  0.00000000000E+00 0. -1.
        -24    2    1    2    0    0 -0.97377541579E+01 -0.47729489161E+02 -0.95791974753E+02  0.13423046135E+03  0.80428765600E+02 0.  0.
         23    2    1    2    0    0  0.20451993070E+03  0.48950295377E+02 -0.23309695949E+03  0.32665497509E+03  0.90248250683E+02 0.  0.
         13    1    3    3    0    0  0.24563987964E+02 -0.47317099332E+02 -0.33060028804E+02  0.62731673805E+02  0.00000000000E+00 0. -1.
        -14    1    3    3    0    0 -0.34301742122E+02 -0.41238982863E+00 -0.62731945949E+02  0.71498787546E+02  0.00000000000E+00 0.  1.
        -13    1    4    4    0    0  0.32525942701E+02 -0.95643222538E+01 -0.38089550156E+01  0.34116291520E+02  0.00000000000E+00 0.  1.
         13    1    4    4    0    0  0.17199398800E+03  0.58514617631E+02 -0.22928800448E+03  0.29253868357E+03  0.00000000000E+00 0. -1.
          2    1    1    2  501    0 -0.19478217654E+03 -0.12208062163E+01 -0.60567813924E+03  0.63622920007E+03  0.00000000000E+00 0. -1.
<scales pt_clust_5="13000.00000" pt_clust_6="13000.00000" pt_clust_7="13000.00000" pt_clust_8="13000.00000" pt_clust_9="204.36330"></scales>
<clustering>
<clus scale="   80.429">  5  6 -1 -1</clus>
<clus scale="   90.248">  7  8 -1 -1</clus>
<clus scale="   94.030">  2  5  1 -1</clus>
<clus scale="  204.363">  1  9  2 -1</clus>
<clus scale="  204.363">  1  5  2 -1</clus>
</clustering>
</event>
<event>
 9    1  0.6014990E-005  0.1480104E+03  0.7546771E-02  0.1204302E+00
         21   -1    0    0  501  502  0.00000000000E+00  0.00000000000E+00  0.24906220692E+03  0.24906220692E+03  0.00000000000E+00 0.  1.
         -2   -1    0    0    0  501 -0.00000000000E+00 -0.00000000000E+00 -0.18259109398E+03  0.18259109398E+03  0.00000000000E+00 0.  1.
         23    2    1    2    0    0  0.96239909230E+02 -0.79596483513E+02 -0.30824657677E+01  0.15286518581E+03  0.88093944861E+02 0.  0.
        -24    2    1    2    0    0 -0.35365870763E+01  0.13796874562E+03  0.32444731133E+02  0.16312354190E+03  0.80676806615E+02 0.  0.
         11    1    4    4    0    0  0.25334894490E+02  0.12313086986E+02  0.17902481085E+02  0.33376156444E+02  0.00000000000E+00 0. -1.
        -12    1    4    4    0    0 -0.28871481567E+02  0.12565565864E+03  0.14542250048E+02  0.12974738545E+03  0.00000000000E+00 0.  1.
        -11    1    3    3    0    0  0.52887461872E+02 -0.92988163636E+02 -0.77248086861E+01  0.10725462633E+03  0.00000000000E+00 0.  1.
         11    1    3    3    0    0  0.43352447357E+02  0.13391680123E+02  0.46423429185E+01  0.45610559481E+02  0.00000000000E+00 0. -1.
         -1    1    1    2    0  502 -0.92703322153E+02 -0.58372262110E+02  0.37108847576E+02  0.11566457319E+03  0.00000000000E+00 0.  1.
<scales pt_clust_5="13000.00000" pt_clust_6="13000.00000" pt_clust_7="13000.00000" pt_clust_8="13000.00000" pt_clust_9="109.55011"></scales>
<clustering>
<clus scale="   80.677">  5  6 -1 -1</clus>
<clus scale="   88.094">  7  8 -1 -1</clus>
<clus scale="  109.550">  1  9  2 -1</clus>
<clus scale="  143.719">  1  5  2 -1</clus>
<clus scale="  109.550">  1  5  2 -1</clus>
</clustering>
</event>
<event>
 9    1  0.6014990E-005  0.2228083E+03  0.7546771E-02  0.1157431E+00
         21   -1    0    0  501  502  0.00000000000E+00  0.00000000000E+00  0.13485491010E+04  0.13485491010E+04  0.00000000000E+00 0. -1.
          1   -1    0    0  502    0 -0.00000000000E+00 -0.00000000000E+00 -0.67308543705E+02  0.67308543705E+02  0.00000000000E+00 0. -1.
         23    2    1    2    0    0  0.65093187235E+01 -0.77551288164E+02  0.20972940667E+03  0.24197639420E+03  0.92247372865E+02 0.  0.
        -24    2    1    2    0    0  0.19015415879E+03  0.10318961257E+03  0.82948462336E+03  0.86097441618E+03  0.80159245756E+02 0.  0.
         11    1    4    4    0    0  0.16487688627E+03  0.10736060089E+03  0.63425000196E+03  0.66406607445E+03  0.00000000000E+00 0. -1.
        -12    1    4    4    0    0  0.25277272518E+02 -0.41709883248E+01  0.19523462140E+03  0.19690834173E+03  0.00000000000E+00 0.  1.
        -11    1    3    3    0    0  0.43645337563E+02 -0.66725505603E+02  0.11786612432E+03  0.14230120116E+03  0.00000000000E+00 0.  1.
         11    1    3    3    0    0 -0.37136018839E+02 -0.10825782561E+02  0.91863282348E+02  0.99675193037E+02  0.00000000000E+00 0. -1.
          2    1    1    2  501    0 -0.19666347751E+03 -0.25638324402E+02  0.24202652723E+03  0.31290683430E+03  0.00000000000E+00 0. -1.
<scales pt_clust_5="13000.00000" pt_clust_6="13000.00000" pt_clust_7="13000.00000" pt_clust_8="13000.00000" pt_clust_9="207.88958"></scales>
<clustering>
<clus scale="   80.159">  5  6 -1 -1</clus>
<clus scale="   92.247">  7  8 -1 -1</clus>
<clus scale="  120.690">  2  7  1 -1</clus>
<clus scale="  207.890">  1  9  2 -1</clus>
<clus scale="  207.890">  1  5  2 -1</clus>
</clustering>
</event>
<event>
 9    1  0.6014990E-005  0.1092388E+03  0.7546771E-02  0.1267200E+00
          1   -1    0    0  502    0 -0.00000000000E+00  0.00000000000E+00  0.21701556295E+03  0.21701556295E+03  0.00000000000E+00 0. -1.
         21   -1    0    0  501  502  0.00000000000E+00 -0.00000000000E+00 -0.94276572178E+02  0.94276572178E+02  0.00000000000E+00 0. -1.
         23    2    1    2    0    0 -0.13189220482E+02  0.76586334159E+02  0.10857401701E+03  0.16271896560E+03  0.93003884211E+02 0.  0.
        -24    2    1    2    0    0  0.51023993202E+01 -0.19479894999E+02 -0.14646814839E+02  0.84100995440E+02  0.80330240016E+02 0.  0.
         11    1    4    4    0    0 -0.31501580467E+02 -0.30305110633E+02 -0.14086286128E+02  0.45925730906E+02  0.00000000000E+00 0. -1.
        -12    1    4    4    0    0  0.36603979787E+02  0.10825215633E+02 -0.56052871043E+00  0.38175264534E+02  0.00000000000E+00 0.  1.
        -11    1    3    3    0    0 -0.18149811654E+02  0.47667239285E+02  0.12065081734E+03  0.13098931670E+03  0.00000000000E+00 0. -1.
         11    1    3    3    0    0  0.49605911722E+01  0.28919094873E+02 -0.12076800330E+02  0.31729648899E+02  0.00000000000E+00 0.  1.
          2    1    1    2  501    0  0.80868211617E+01 -0.57106439159E+02  0.28811788606E+02  0.64472174096E+02  0.00000000000E+00 0. -1.
<scales pt_clust_5="13000.00000" pt_clust_6="13000.00000" pt_clust_7="13000.00000" pt_clust_8="13000.00000" pt_clust_9="57.67621"></scales>
<clustering>
<clus scale="   57.676">  2  9  1 -1</clus>
<clus scale="   80.330">  5  6 -1 -1</clus>
<clus scale="   93.004">  7  8 -1 -1</clus>
<clus scale="   98.673">  2  5  1 -1</clus>
<clus scale="   57.676">  2  5  1 -1</clus>
</clustering>
</event>
<event>
 9    1  0.6014990E-005  0.1790877E+03  0.7546771E-02  0.1170037E+00
         21   -1    0    0  501  502  0.00000000000E+00  0.00000000000E+00  0.46666329136E+03  0.46666329136E+03  0.00000000000E+00 0. -1.
          1   -1    0    0  502    0 -0.00000000000E+00 -0.00000000000E+00 -0.33466471037E+03  0.33466471037E+03  0.00000000000E+00 0. -1.
        -24    2    1    2    0    0  0.76566215853E+02 -0.12777317133E+03 -0.24213685850E+03  0.29539693160E+03  0.80254097927E+02 0.  0.
         23    2    1    2    0    0 -0.34946275409E+02  0.20957263835E+03  0.18678232747E+03  0.29730566222E+03  0.91438974300E+02 0.  0.
         11    1    3    3    0    0  0.41531445699E+02 -0.58838491679E+02 -0.48329345617E+02  0.86732662432E+02  0.00000000000E+00 0. -1.
        -12    1    3    3    0    0  0.35034770155E+02 -0.68934679647E+02 -0.19380751288E+03  0.20866426916E+03  0.00000000000E+00 0.  1.
        -11    1    4    4    0    0 -0.49951249940E+02  0.13385261887E+03  0.74717207061E+02  0.16122751620E+03  0.00000000000E+00 0. -1.
         11    1    4    4    0    0  0.15004974531E+02  0.75720019476E+02  0.11206512041E+03  0.13607814601E+03  0.00000000000E+00 0.  1.
          2    1    1    2  501    0 -0.41619940445E+02 -0.81799467025E+02  0.18735311201E+03  0.20862540792E+03  0.00000000000E+00 0. -1.
<scales pt_clust_5="13000.00000" pt_clust_6="13000.00000" pt_clust_7="13000.00000" pt_clust_8="13000.00000" pt_clust_9="91.77893"></scales>
<clustering>
<clus scale="   80.254">  5  6 -1 -1</clus>
<clus scale="   91.439">  7  8 -1 -1</clus>
<clus scale="   91.779">  1  9  2 -1</clus>
<clus scale="  173.643">  2  5  1 -1</clus>
<clus scale="   91.779">  1  5  2 -1</clus>
</clustering>
</event>
<event>
 9    1  0.6014990E-005  0.1486584E+03  0.7546771E-02  0.1208353E+00
         21   -1    0    0  501  502  0.00000000000E+00  0.00000000000E+00  0.29082560936E+02  0.29082560936E+02  0.00000000000E+00 0. -1.
          1   -1    0    0  502    0 -0.00000000000E+00 -0.00000000000E+00 -0.18069612013E+04  0.18069612013E+04  0.00000000000E+00 0. -1.
         23    2    1    2    0    0  0.16943907505E+02 -0.94098713921E+02 -0.42995576202E+03  0.44918589260E+03  0.88115519925E+02 0.  0.
        -24    2    1    2    0    0  0.11823160589E+03  0.57293289236E+02 -0.39118766140E+03  0.41991974646E+03  0.77740423296E+02 0.  0.
         13    1    4    4    0    0  0.32731861924E+02 -0.90834186265E+01 -0.40247599754E+02  0.52666427303E+02  0.00000000000E+00 0. -1.
        -14    1    4    4    0    0  0.85499743969E+02  0.66376707862E+02 -0.35094006165E+03  0.36725331916E+03  0.00000000000E+00 0.  1.
        -13    1    3    3    0    0 -0.31197153476E+02 -0.44947391558E+02 -0.12309019098E+03  0.13470235896E+03  0.00000000000E+00 0.  1.
         13    1    3    3    0    0  0.48141060981E+02 -0.49151322363E+02 -0.30686557103E+03  0.31448353364E+03  0.00000000000E+00 0. -1.
          2    1    1    2  501    0 -0.13517551340E+03  0.36805424685E+02 -0.95673521692E+03  0.96693812315E+03  0.00000000000E+00 0. -1.
<scales pt_clust_5="13000.00000" pt_clust_6="13000.00000" pt_clust_7="13000.00000" pt_clust_8="13000.00000" pt_clust_9="126.71131"></scales>
<clustering>
<clus scale="   77.740">  5  6 -1 -1</clus>
<clus scale="   88.116">  7  8 -1 -1</clus>
<clus scale="  130.023">  2  7  1 -1</clus>
<clus scale="  126.711">  1  9  2 -1</clus>
<clus scale="  126.711">  1  5  2 -1</clus>
</clustering>
</event>
<event>
 9    1  0.6014990E-005  0.2201539E+03  0.7546771E-02  0.1134380E+00
         21   -1    0    0  501  502  0.00000000000E+00  0.00000000000E+00  0.25281776083E+03  0.25281776083E+03  0.00000000000E+00 0.  1.
         -2   -1    0    0    0  501 -0.00000000000E+00 -0.00000000000E+00 -0.27995329661E+03  0.27995329661E+03  0.00000000000E+00 0.  1.
        -24    2    1    2    0    0  0.10875937013E+03  0.18471640185E+03 -0.40298353433E+02  0.23312671281E+03  0.82312558145E+02 0.  0.
         23    2    1    2    0    0 -0.75659839475E+02 -0.16305805885E+03  0.84327127534E+02  0.21822553998E+03  0.90548219173E+02 0.  0.
         11    1    3    3    0    0  0.76476673250E+02  0.52730381776E+02 -0.26218473301E+02  0.96522448456E+02  0.00000000000E+00 0. -1.
        -12    1    3    3    0    0  0.32282696885E+02  0.13198602008E+03 -0.14079880132E+02  0.13660426435E+03  0.00000000000E+00 0.  1.
        -13    1    4    4    0    0 -0.61210814726E+02 -0.13090657106E+03  0.21383475751E+02  0.14608404163E+03  0.00000000000E+00 0.  1.
         13    1    4    4    0    0 -0.14449024749E+02 -0.32151487794E+02  0.62943651783E+02  0.72141498344E+02  0.00000000000E+00 0. -1.
         -1    1    1    2    0  502 -0.33099530660E+02 -0.21658343004E+02 -0.71164309877E+02  0.81418804657E+02  0.00000000000E+00 0.  1.
<scales pt_clust_5="13000.00000" pt_clust_6="13000.00000" pt_clust_7="13000.00000" pt_clust_8="13000.00000" pt_clust_9="39.55584"></scales>
<clustering>
<clus scale="   39.556">  1  9  2 -1</clus>
<clus scale="   82.313">  5  6 -1 -1</clus>
<clus scale="   90.548">  7  8 -1 -1</clus>
<clus scale="  216.897">  2  5  1 -1</clus>
<clus scale="   39.556">  1  5  2 -1</clus>
</clustering>
</event>
<event>
 9    1  0.6014990E-005  0.9359389E+02  0.7546771E-02  0.1299236E+00
         -4   -1    0    0    0  501 -0.00000000000E+00  0.00000000000E+00  0.12511691110E+03  0.12511691110E+03  0.00000000000E+00 0.  1.
         21   -1    0    0  501  502  0.00000000000E+00 -0.00000000000E+00 -0.18055544628E+03  0.18055544628E+03  0.00000000000E+00 0.  1.
         23    2    1    2    0    0  0.11464742002E+02 -0.27543442619E+02  0.79703331268E+02  0.12258400732E+03  0.88227752414E+02 0.  0.
        -24    2    1    2    0    0  0.99196621828E+01  0.42825943800E+02 -0.76581040178E+02  0.11889942610E+03  0.79623844749E+02 0.  0.
         11    1    4    4    0    0  0.15500812439E+02  0.13074272348E+02 -0.85076038049E+02  0.87459385053E+02  0.00000000000E+00 0. -1.
        -12    1    4    4    0    0 -0.55811502565E+01  0.29751671452E+02  0.84949978715E+01  0.31440041050E+02  0.00000000000E+00 0.  1.
        -13    1    3    3    0    0 -0.22129873806E+02  0.23631474543E+01 -0.82999026547E+01  0.23752982226E+02  0.00000000000E+00 0. -1.
         13    1    3    3    0    0  0.33594615808E+02 -0.29906590073E+02  0.88003233922E+02  0.98831025098E+02  0.00000000000E+00 0.  1.
         -3    1    1    2    0  502 -0.21384404185E+02 -0.15282501182E+02 -0.58560826271E+02  0.64188923954E+02  0.00000000000E+00 0.  1.
<scales pt_clust_5="13000.00000" pt_clust_6="13000.00000" pt_clust_7="13000.00000" pt_clust_8="13000.00000" pt_clust_9="26.28398"></scales>
<clustering>
<clus scale="   26.284">  2  9  1 -1</clus>
<clus scale="   79.624">  5  6 -1 -1</clus>
<clus scale="   85.531">  2  5  1 -1</clus>
<clus scale="   88.228">  7  8 -1 -1</clus>
<clus scale="   26.284">  2  5  1 -1</clus>
</clustering>
</event>
<event>
 9    1  0.6014990E-005  0.1206010E+03  0.7546771E-02  0.1245729E+00
          1   -1    0    0  502    0 -0.00000000000E+00  0.00000000000E+00  0.46194416131E+03  0.46194416131E+03  0.00000000000E+00 0. -1.
         21   -1    0    0  501  502  0.00000000000E+00 -0.00000000000E+00 -0.39861537984E+02  0.39861537984E+02  0.00000000000E+00 0.  1.
        -24    2    1    2    0    0 -0.55331664952E+02 -0.72204000082E+02  0.23454325011E+03  0.26419412776E+03  0.80703099073E+02 0.  0.
         23    2    1    2    0    0  0.29851597780E+02  0.55794972519E+02  0.16716606136E+03  0.20109360547E+03  0.92140920573E+02 0.  0.
         13    1    3    3    0    0 -0.50929974382E+02 -0.45288949042E+02  0.22532352580E+03  0.23540527282E+03  0.00000000000E+00 0. -1.
        -14    1    3    3    0    0 -0.44016905698E+01 -0.26915051040E+02  0.92197243090E+01  0.28788854939E+02  0.00000000000E+00 0.  1.
        -13    1    4    4    0    0  0.35228770831E+02  0.36118598886E+01  0.12146976279E+02  0.37438761449E+02  0.00000000000E+00 0.  1.
         13    1    4    4    0    0 -0.53771730516E+01  0.52183112630E+02  0.15501908508E+03  0.16365484403E+03  0.00000000000E+00 0. -1.
          2    1    1    2  501    0  0.25480067172E+02  0.16409027563E+02  0.20373311860E+02  0.36517966055E+02  0.00000000000E+00 0. -1.
<scales pt_clust_5="13000.00000" pt_clust_6="13000.00000" pt_clust_7="13000.00000" pt_clust_8="13000.00000" pt_clust_9="30.30660"></scales>
<clustering>
<clus scale="   30.307">  2  9  1 -1</clus>
<clus scale="   80.703">  5  6 -1 -1</clus>
<clus scale="   92.141">  7  8 -1 -1</clus>
<clus scale="  112.106">  1  5  2 -1</clus>
<clus scale="   30.307">  2  5  1 -1</clus>
</clustering>
</event>
<event>
 9    1  0.6014990E-005  0.1729591E+03  0.7546771E-02  0.1196597E+00
          1   -1    0    0  502    0 -0.00000000000E+00  0.00000000000E+00  0.16591868327E+04  0.16591868327E+04  0.00000000000E+00 0. -1.
         21   -1    0    0  501  502  0.00000000000E+00 -0.00000000000E+00 -0.33862351030E+02  0.33862351030E+02  0.00000000000E+00 0.  1.
        -24    2    1    2    0    0  0.65262472081E+02  0.23901416661E+02  0.32674798885E+03  0.34365409780E+03  0.80643801581E+02 0.  0.
         23    2    1    2    0    0 -0.59723918406E+02  0.13412575135E+03  0.38232023885E+03  0.41959468567E+03  0.91292231852E+02 0.  0.
         11    1    3    3    0    0  0.45449047277E+02  0.34073829563E+02  0.31156093287E+03  0.31669678977E+03  0.00000000000E+00 0. -1.
        -12    1    3    3    0    0  0.19813424805E+02 -0.10172412902E+02  0.15187055984E+02  0.26957308029E+02  0.00000000000E+00 0.  1.
        -13    1    4    4    0    0 -0.32884776297E+02 -0.31306867098E+01  0.72615082385E+02  0.79775684899E+02  0.00000000000E+00 0. -1.
         13    1    4    4    0    0 -0.26839142109E+02  0.13725643806E+03  0.30970515647E+03  0.33981900077E+03  0.00000000000E+00 0.  1.
          2    1    1    2  501    0 -0.55385536747E+01 -0.15802716801E+03  0.91625625400E+03  0.92980040030E+03  0.00000000000E+00 0. -1.
<scales pt_clust_5="13000.00000" pt_clust_6="13000.00000" pt_clust_7="13000.00000" pt_clust_8="13000.00000" pt_clust_9="146.90340"></scales>
<clustering>
<clus scale="   80.644">  5  6 -1 -1</clus>
<clus scale="   91.292">  7  8 -1 -1</clus>
<clus scale="  106.461">  1  5  2 -1</clus>
<clus scale="  146.903">  2  9  1 -1</clus>
<clus scale="  146.903">  2  5  1 -1</clus>
</clustering>
</event>
<event>
 9    1  0.6014990E-005  0.1309599E+03  0.7546771E-02  0.1229092E+00
         21   -1    0    0  501  502  0.00000000000E+00  0.00000000000E+00  0.90500612424E+02  0.90500612424E+02  0.00000000000E+00 0. -1.
         -2   -1    0    0    0  501 -0.00000000000E+00 -0.00000000000E+00 -0.39487581633E+03  0.39487581633E+03  0.00000000000E+00 0.  1.
        -24    2    1    2    0    0  0.60051662588E+02 -0.81600965521E+02 -0.22121608264E+03  0.25640347663E+03  0.80878104910E+02 0.  0.
         23    2    1    2    0    0 -0.40869041390E+02  0.42411249575E+02  0.24792752016E+02  0.11253664449E+03  0.92632732686E+02 0.  0.
         13    1    3    3    0    0  0.24741959162E+02 -0.44951253468E+01 -0.71394470105E+01  0.26140818630E+02  0.00000000000E+00 0. -1.
        -14    1    3    3    0    0  0.35309703427E+02 -0.77105840175E+02 -0.21407663563E+03  0.23026265800E+03  0.00000000000E+00 0.  1.
        -13    1    4    4    0    0 -0.78000217846E+01 -0.27605182474E+02  0.19971991350E+02  0.34953782023E+02  0.00000000000E+00 0.  1.
         13    1    4    4    0    0 -0.33069019605E+02  0.70016432048E+02  0.48207606656E+01  0.77582862462E+02  0.00000000000E+00 0. -1.
         -1    1    1    2    0  502 -0.19182621198E+02  0.39189715947E+02 -0.10795187328E+03  0.11643630764E+03  0.00000000000E+00 0.  1.
<scales pt_clust_5="13000.00000" pt_clust_6="13000.00000" pt_clust_7="13000.00000" pt_clust_8="13000.00000" pt_clust_9="43.63266"></scales>
<clustering>
<clus scale="   43.633">  1  9  2 -1</clus>
<clus scale="   80.878">  5  6 -1 -1</clus>
<clus scale="   92.633">  7  8 -1 -1</clus>
<clus scale="  122.927">  2  5  1 -1</clus>
<clus scale="   43.633">  1  5  2 -1</clus>
</clustering>
</event>
<event>
 9    1  0.6014990E-005  0.1369101E+03  0.7546771E-02  0.1233448E+00
         -4   -1    0    0    0  501 -0.00000000000E+00  0.00000000000E+00  0.14796161859E+03  0.14796161859E+03  0.00000000000E+00 0.  1.
         21   -1    0    0  501  502  0.00000000000E+00 -0.00000000000E+00 -0.23611221617E+03  0.23611221617E+03  0.00000000000E+00 0.  1.
         23    2    1    2    0    0  0.57661390903E+01 -0.34167364825E+02  0.11948836469E+02  0.99071608273E+02  0.92042119129E+02 0.  0.
        -24    2    1    2    0    0 -0.39657468719E+02 -0.91464566529E+02 -0.85463236850E+02  0.15405864066E+03  0.80570578714E+02 0.  0.
         13    1    4    4    0    0 -0.31570288473E+02  0.37099938181E+01 -0.29426148868E+02  0.43316802809E+02  0.00000000000E+00 0. -1.
        -14    1    4    4    0    0 -0.80871802460E+01 -0.95174560347E+02 -0.56037087982E+02  0.11074183785E+03  0.00000000000E+00 0.  1.
        -13    1    3    3    0    0  0.16764592444E+02 -0.55659628306E+02  0.33170274860E+02  0.66927669295E+02  0.00000000000E+00 0.  1.
         13    1    3    3    0    0 -0.10998453354E+02  0.21492263481E+02 -0.21221438390E+02  0.32143938978E+02  0.00000000000E+00 0. -1.
         -3    1    1    2    0  502  0.33891329629E+02  0.12563193135E+03 -0.14636197203E+02  0.13094358582E+03  0.00000000000E+00 0.  1.
<scales pt_clust_5="13000.00000" pt_clust_6="13000.00000" pt_clust_7="13000.00000" pt_clust_8="13000.00000" pt_clust_9="110.69227"></scales>
<clustering>
<clus scale="   80.571">  5  6 -1 -1</clus>
<clus scale="   92.042">  7  8 -1 -1</clus>
<clus scale="   98.348">  1  7  2 -1</clus>
<clus scale="  110.692">  2  9  1 -1</clus>
<clus scale="  110.692">  2  5  1 -1</clus>
</clustering>
</event>
<event>
 9    1  0.6014990E-005  0.9718313E+02  0.7546771E-02  0.1299255E+00
         21   -1    0    0  501  502  0.00000000000E+00  0.00000000000E+00  0.11037519407E+03  0.11037519407E+03  0.00000000000E+00 0.  1.
          1   -1    0    0  502    0 -0.00000000000E+00 -0.00000000000E+00 -0.16543107126E+03  0.16543107126E+03  0.00000000000E+00 0. -1.
        -24    2    1    2    0    0  0.21060984060E+02  0.42289722818E+01 -0.11946099636E+03  0.14216240428E+03  0.74011960409E+02 0.  0.
         23    2    1    2    0    0 -0.19962960246E+01  0.25840554377E+01  0.44537301602E+02  0.10527821544E+03  0.95337657151E+02 0.  0.
         13    1    3    3    0    0  0.40739810497E+02  0.25430339722E+02 -0.78259821199E+02  0.91820661900E+02  0.00000000000E+00 0. -1.
        -14    1    3    3    0    0 -0.19678826437E+02 -0.21201367441E+02 -0.41201175159E+02  0.50341742379E+02  0.00000000000E+00 0.  1.
        -11    1    4    4    0    0 -0.46804635024E+02 -0.44229435013E+01  0.94896180846E+01  0.47961329635E+02  0.00000000000E+00 0. -1.
         11    1    4    4    0    0  0.44808338999E+02  0.70069989390E+01  0.35047683517E+02  0.57316885801E+02  0.00000000000E+00 0.  1.
          2    1    1    2  501    0 -0.19064688035E+02 -0.68130277194E+01  0.19867817563E+02  0.28365645618E+02  0.00000000000E+00 0. -1.
<scales pt_clust_5="13000.00000" pt_clust_6="13000.00000" pt_clust_7="13000.00000" pt_clust_8="13000.00000" pt_clust_9="20.24549"></scales>
<clustering>
<clus scale="   20.245">  1  9  2 -1</clus>
<clus scale="   74.012">  5  6 -1 -1</clus>
<clus scale="   76.374">  2  5  1 -1</clus>
<clus scale="   95.338">  7  8 -1 -1</clus>
<clus scale="   20.245">  1  5  2 -1</clus>
</clustering>
</event>
<event>
 9    1  0.6014990E-005  0.9456131E+02  0.7546771E-02  0.1310808E+00
          1   -1    0    0  502    0 -0.00000000000E+00  0.00000000000E+00  0.38982343393E+03  0.38982343393E+03  0.00000000000E+00 0. -1.
         21   -1    0    0  501  502  0.00000000000E+00 -0.00000000000E+00 -0.18526768698E+03  0.18526768698E+03  0.00000000000E+00 0.  1.
        -24    2    1    2    0    0  0.30971159741E+02 -0.55695043818E+01  0.34998946837E+03  0.35654239076E+03  0.60329232753E+02 0.  0.
         23    2    1    2    0    0  0.14445815163E+02 -0.25296434717E+02 -0.46277090419E+02  0.10520215861E+03  0.89873988971E+02 0.  0.
         13    1    3    3    0    0  0.38729557936E+02  0.18370154213E+02  0.21725463427E+03  0.22144303406E+03  0.00000000000E+00 0. -1.
        -14    1    3    3    0    0 -0.77583981955E+01 -0.23939658595E+02  0.13273483410E+03  0.13509935670E+03  0.00000000000E+00 0.  1.
        -13    1    4    4    0    0  0.12641015778E+02  0.26671940343E+02  0.74400954915E+01  0.30439163959E+02  0.00000000000E+00 0. -1.
         13    1    4    4    0    0  0.18047993854E+01 -0.51968375061E+02 -0.53717185910E+02  0.74762994652E+02  0.00000000000E+00 0.  1.
          2    1    1    2  501    0 -0.45416974904E+02  0.30865939099E+02 -0.99156631002E+02  0.11334657153E+03  0.00000000000E+00 0. -1.
<scales pt_clust_5="13000.00000" pt_clust_6="13000.00000" pt_clust_7="13000.00000" pt_clust_8="13000.00000" pt_clust_9="54.91273"></scales>
<clustering>
<clus scale="   54.913">  2  9  1 -1</clus>
<clus scale="   60.329">  5  6 -1 -1</clus>
<clus scale="   67.113">  1  5  2 -1</clus>
<clus scale="   89.874">  7  8 -1 -1</clus>
<clus scale="   54.913">  2  5  1 -1</clus>
</clustering>
</event>
<event>
 9    1  0.6014990E-005  0.1252126E+03  0.7546771E-02  0.1238681E+00
          1   -1    0    0  502    0 -0.00000000000E+00  0.00000000000E+00  0.22959567954E+03  0.22959567954E+03  0.00000000000E+00 0. -1.
         21   -1    0    0  501  502  0.00000000000E+00 -0.00000000000E+00 -0.24169111328E+03  0.24169111328E+03  0.00000000000E+00 0.  1.
        -24    2    1    2    0    0 -0.31505282730E+02 -0.77859100719E+02  0.18045269737E+03  0.21399199895E+03  0.78579750721E+02 0.  0.
         23    2    1    2    0    0  0.62662322916E+02  0.74434342711E+02 -0.17772556732E+03  0.22262205938E+03  0.92234299230E+02 0.  0.
         13    1    3    3    0    0 -0.20874874020E+02 -0.70061437466E+02  0.18587673933E+03  0.19973614497E+03  0.00000000000E+00 0. -1.
        -14    1    3    3    0    0 -0.10630408710E+02 -0.77976632526E+01 -0.54240419591E+01  0.14255853980E+02  0.00000000000E+00 0.  1.
        -11    1    4    4    0    0  0.17162166710E+02  0.82870908739E+02 -0.90653559791E+02  0.12401691572E+03  0.00000000000E+00 0.  1.
         11    1    4    4    0    0  0.45500156206E+02 -0.84365660279E+01 -0.87072007527E+02  0.98605143658E+02  0.00000000000E+00 0. -1.
          2    1    1    2  501    0 -0.31157040186E+02  0.34247580079E+01 -0.14822563788E+02  0.34672734501E+02  0.00000000000E+00 0. -1.
<scales pt_clust_5="13000.00000" pt_clust_6="13000.00000" pt_clust_7="13000.00000" pt_clust_8="13000.00000" pt_clust_9="31.34470"></scales>
<clustering>
<clus scale="   31.345">  2  9  1 -1</clus>
<clus scale="   78.580">  5  6 -1 -1</clus>
<clus scale="   92.234">  7  8 -1 -1</clus>
<clus scale="  115.524">  1  5  2 -1</clus>
<clus scale="   31.345">  2  5  1 -1</clus>
</clustering>
</event>
<event>
 9    1  0.6014990E-005  0.1017657E+03  0.7546771E-02  0.1281835E+00
          1   -1    0    0  502    0 -0.00000000000E+00  0.00000000000E+00  0.19700944111E+03  0.19700944111E+03  0.00000000000E+00 0. -1.
         21   -1    0    0  501  502  0.00000000000E+00 -0.00000000000E+00 -0.12078369325E+03  0.12078369325E+03  0.00000000000E+00 0.  1.
        -24    2    1    2    0    0 -0.48926241086E+02  0.19549950735E+01  0.14575277776E+03  0.17371690813E+03  0.80846106120E+02 0.  0.
         23    2    1    2    0    0  0.20818628026E+02  0.19052602804E+01 -0.37296374965E+02  0.10113726255E+03  0.91655228992E+02 0.  0.
         11    1    3    3    0    0 -0.20709259692E+02  0.18459098503E+02  0.13713217129E+03  0.13991012886E+03  0.00000000000E+00 0. -1.
        -12    1    3    3    0    0 -0.28216981393E+02 -0.16504103429E+02  0.86206064660E+01  0.33806779273E+02  0.00000000000E+00 0.  1.
        -13    1    4    4    0    0 -0.17055380565E+02 -0.12835513177E+02  0.21084481992E+02  0.30003196256E+02  0.00000000000E+00 0. -1.
         13    1    4    4    0    0  0.37874008592E+02  0.14740773457E+02 -0.58380856956E+02  0.71134066297E+02  0.00000000000E+00 0.  1.
          2    1    1    2  501    0  0.28107613059E+02 -0.38602553539E+01 -0.32230654932E+02  0.42938963665E+02  0.00000000000E+00 0. -1.
<scales pt_clust_5="13000.00000" pt_clust_6="13000.00000" pt_clust_7="13000.00000" pt_clust_8="13000.00000" pt_clust_9="28.37146"></scales>
<clustering>
<clus scale="   28.371">  2  9  1 -1</clus>
<clus scale="   80.846">  5  6 -1 -1</clus>
<clus scale="   91.655">  7  8 -1 -1</clus>
<clus scale="   92.150">  1  5  2 -1</clus>
<clus scale="   28.371">  2  5  1 -1</clus>
</clustering>
</event>
<event>
 9    1  0.6014990E-005  0.1582428E+03  0.7546771E-02  0.1215026E+00
         21   -1    0    0  501  502  0.00000000000E+00  0.00000000000E+00  0.87797153008E+02  0.87797153008E+02  0.00000000000E+00 0. -1.
          1   -1    0    0  502    0 -0.00000000000E+00 -0.00000000000E+00 -0.57589633999E+03  0.57589633999E+03  0.00000000000E+00 0. -1.
         23    2    1    2    0    0 -0.18903389026E+02  0.11822989091E+02 -0.11532202938E+02  0.94230142461E+02  0.90825144403E+02 0.  0.
        -24    2    1    2    0    0  0.11965641266E+03  0.76102905824E+02 -0.34565784277E+03  0.38232880526E+03  0.81158250943E+02 0.  0.
         11    1    4    4    0    0  0.97649248845E+02  0.87584740750E+02 -0.23707309437E+03  0.27094301003E+03  0.00000000000E+00 0. -1.
        -12    1    4    4    0    0  0.22007163814E+02 -0.11481834926E+02 -0.10858474840E+03  0.11138579523E+03  0.00000000000E+00 0.  1.
        -13    1    3    3    0    0 -0.26870413005E+02  0.45744135886E+02 -0.22607131763E+02  0.57668253567E+02  0.00000000000E+00 0.  1.
         13    1    3    3    0    0  0.79670239786E+01 -0.33921146795E+02  0.11074928825E+02  0.36561888893E+02  0.00000000000E+00 0. -1.
          2    1    1    2  501    0 -0.10075302363E+03 -0.87925894915E+02 -0.13090914128E+03  0.18713454528E+03  0.00000000000E+00 0. -1.
<scales pt_clust_5="13000.00000" pt_clust_6="13000.00000" pt_clust_7="13000.00000" pt_clust_8="13000.00000" pt_clust_9="135.84591"></scales>
<clustering>
<clus scale="   81.158">  5  6 -1 -1</clus>
<clus scale="   90.825">  7  8 -1 -1</clus>
<clus scale="   93.522">  2  7  1 -1</clus>
<clus scale="  135.846">  1  9  2 -1</clus>
<clus scale="  135.846">  1  5  2 -1</clus>
</clustering>
</event>
<event>
 9    1  0.6014990E-005  0.1326651E+03  0.7546771E-02  0.1224935E+00
         21   -1    0    0  501  502  0.00000000000E+00  0.00000000000E+00  0.95246332819E+02  0.95246332819E+02  0.00000000000E+00 0. -1.
          1   -1    0    0  502    0 -0.00000000000E+00 -0.00000000000E+00 -0.36979880174E+03  0.36979880174E+03  0.00000000000E+00 0. -1.
        -24    2    1    2    0    0  0.40985348148E+02 -0.53457984455E+02 -0.97467876171E+02  0.14578725755E+03  0.84949294951E+02 0.  0.
         23    2    1    2    0    0 -0.50178027095E+02  0.13198142894E+03 -0.17166156731E+03  0.24001239837E+03  0.90561170980E+02 0.  0.
         11    1    3    3    0    0  0.64228809339E+02 -0.19239862873E+02 -0.59961061643E+02  0.89949103308E+02  0.00000000000E+00 0. -1.
        -12    1    3    3    0    0 -0.23243461191E+02 -0.34218121582E+02 -0.37506814528E+02  0.55838154239E+02  0.00000000000E+00 0.  1.
        -11    1    4    4    0    0  0.28803271481E+00  0.11289635508E+03 -0.12741134279E+03  0.17023313492E+03  0.00000000000E+00 0. -1.
         11    1    4    4    0    0 -0.50466059810E+02  0.19085073863E+02 -0.44250224524E+02  0.69779263449E+02  0.00000000000E+00 0.  1.
          2    1    1    2  501    0  0.91926789472E+01 -0.78523444487E+02 -0.54230254356E+01  0.79245478642E+02  0.00000000000E+00 0. -1.
<scales pt_clust_5="13000.00000" pt_clust_6="13000.00000" pt_clust_7="13000.00000" pt_clust_8="13000.00000" pt_clust_9="79.05970"></scales>
<clustering>
<clus scale="   79.060">  1  9  2 -1</clus>
<clus scale="   84.949">  5  6 -1 -1</clus>
<clus scale="   90.561">  7  8 -1 -1</clus>
<clus scale="  128.900">  2  5  1 -1</clus>
<clus scale="   79.060">  1  5  2 -1</clus>
</clustering>
</event>
<event>
 9    1  0.6014990E-005  0.9964587E+02  0.7546771E-02  0.1281156E+00
         21   -1    0    0  501  502  0.00000000000E+00  0.00000000000E+00  0.52684453269E+03  0.52684453269E+03  0.00000000000E+00 0.  1.
         -2   -1    0    0    0  501 -0.00000000000E+00 -0.00000000000E+00 -0.68246776885E+02  0.68246776885E+02  0.00000000000E+00 0.  1.
         23    2    1    2    0    0  0.26209563554E+02  0.39804740277E+02  0.92154994104E+02  0.13826481187E+03  0.91396152501E+02 0.  0.
        -24    2    1    2    0    0  0.73219882094E+02 -0.39329554322E+02  0.33032693091E+03  0.35103994990E+03  0.84883450467E+02 0.  0.
         11    1    4    4    0    0  0.41480315266E+02  0.21502773501E+02  0.94271862260E+02  0.10521487460E+03  0.00000000000E+00 0. -1.
        -12    1    4    4    0    0  0.31739566827E+02 -0.60832327823E+02  0.23605506865E+03  0.24582507530E+03  0.00000000000E+00 0.  1.
        -11    1    3    3    0    0  0.25757895948E+02  0.60477155542E+02  0.96859900988E+02  0.11705894227E+03  0.00000000000E+00 0.  1.
         11    1    3    3    0    0  0.45166760649E+00 -0.20672415265E+02 -0.47049068844E+01  0.21205869596E+02  0.00000000000E+00 0. -1.
         -1    1    1    2    0  502 -0.99429445648E+02 -0.47518595489E+00  0.36115830789E+02  0.10578654781E+03  0.00000000000E+00 0.  1.
<scales pt_clust_5="13000.00000" pt_clust_6="13000.00000" pt_clust_7="13000.00000" pt_clust_8="13000.00000" pt_clust_9="99.43063"></scales>
<clustering>
<clus scale="   84.883">  5  6 -1 -1</clus>
<clus scale="   91.396">  7  8 -1 -1</clus>
<clus scale="   99.431">  1  9  2 -1</clus>
<clus scale="   99.431">  1  5  2 -1</clus>
<clus scale="   99.431">  1  5  2 -1</clus>
</clustering>
</event>
<event>
 9    1  0.6014990E-005  0.1100614E+03  0.7546771E-02  0.1263893E+00
         21   -1    0    0  501  502  0.00000000000E+00  0.00000000000E+00  0.38564846741E+03  0.38564846741E+03  0.00000000000E+00 0.  1.
         -2   -1    0    0    0  501 -0.00000000000E+00 -0.00000000000E+00 -0.13759890200E+03  0.13759890200E+03  0.00000000000E+00 0.  1.
        -24    2    1    2    0    0 -0.28926948737E+02  0.56989733610E+02 -0.68490632759E+02  0.12415903924E+03  0.81485594738E+02 0.  0.
         23    2    1    2    0    0  0.78782403397E+02 -0.18576985414E+02  0.60763510658E+02  0.13568214296E+03  0.90364086992E+02 0.  0.
         13    1    3    3    0    0  0.23947894006E+02  0.86924170756E+01 -0.60532555172E+00  0.25483841173E+02  0.00000000000E+00 0. -1.
        -14    1    3    3    0    0 -0.52874842743E+02  0.48297316534E+02 -0.67885307207E+02  0.98675198069E+02  0.00000000000E+00 0.  1.
        -13    1    4    4    0    0  0.89047150132E+02 -0.39710640608E+02  0.52771063909E+02  0.11086530165E+03  0.00000000000E+00 0. -1.
         13    1    4    4    0    0 -0.10264746735E+02  0.21133655194E+02  0.79924467491E+01  0.24816841306E+02  0.00000000000E+00 0.  1.
         -1    1    1    2    0  502 -0.49855454661E+02 -0.38412748196E+02  0.25577668751E+03  0.26340618720E+03  0.00000000000E+00 0.  1.
<scales pt_clust_5="13000.00000" pt_clust_6="13000.00000" pt_clust_7="13000.00000" pt_clust_8="13000.00000" pt_clust_9="62.93731"></scales>
<clustering>
<clus scale="   62.937">  1  9  2 -1</clus>
<clus scale="   81.486">  5  6 -1 -1</clus>
<clus scale="   90.364">  7  8 -1 -1</clus>
<clus scale="  102.897">  2  5  1 -1</clus>
<clus scale="   62.937">  1  5  2 -1</clus>
</clustering>
</event>
<event>
 9    1  0.6014990E-005  0.1114294E+03  0.7546771E-02  0.1261915E+00
         21   -1    0    0  501  502  0.00000000000E+00  0.00000000000E+00  0.12240626985E+03  0.12240626985E+03  0.00000000000E+00 0. -1.
          1   -1    0    0  502    0 -0.00000000000E+00 -0.00000000000E+00 -0.27880963974E+03  0.27880963974E+03  0.00000000000E+00 0. -1.
         23    2    1    2    0    0 -0.30190807805E+02 -0.77383151919E+02 -0.18427877385E+03  0.22189972401E+03  0.91548806366E+02 0.  0.
        -24    2    1    2    0    0  0.28705778063E+02  0.22128301820E+02 -0.35062575880E+02  0.95551675913E+02  0.81160674633E+02 0.  0.
         13    1    4    4    0    0  0.27060289975E+02  0.39814547784E+00  0.21739007241E+02  0.34713142312E+02  0.00000000000E+00 0. -1.
        -14    1    4    4    0    0  0.16454880886E+01  0.21730156342E+02 -0.56801583121E+02  0.60838533601E+02  0.00000000000E+00 0.  1.
        -13    1    3    3    0    0 -0.62690683503E+02 -0.43511079558E+02 -0.12221607459E+03  0.14408367267E+03  0.00000000000E+00 0. -1.
         13    1    3    3    0    0  0.32499875698E+02 -0.33872072362E+02 -0.62062699266E+02  0.77816051343E+02  0.00000000000E+00 0.  1.
          2    1    1    2  501    0  0.14850297413E+01  0.55254850100E+02  0.62937979840E+02  0.83764509663E+02  0.00000000000E+00 0. -1.
<scales pt_clust_5="13000.00000" pt_clust_6="13000.00000" pt_clust_7="13000.00000" pt_clust_8="13000.00000" pt_clust_9="55.27480"></scales>
<clustering>
<clus scale="   55.275">  1  9  2 -1</clus>
<clus scale="   81.161">  5  6 -1 -1</clus>
<clus scale="   91.549">  7  8 -1 -1</clus>
<clus scale="  103.065">  1  5  2 -1</clus>
<clus scale="   55.275">  1  5  2 -1</clus>
</clustering>
</event>
<event>
 9    1  0.6014990E-005  0.1326086E+03  0.7546771E-02  0.1227091E+00
         21   -1    0    0  501  502  0.00000000000E+00  0.00000000000E+00  0.20123336171E+03  0.20123336171E+03  0.00000000000E+00 0. -1.
          3   -1    0    0  502    0 -0.00000000000E+00 -0.00000000000E+00 -0.21201335512E+03  0.21201335512E+03  0.00000000000E+00 0. -1.
         23    2    1    2    0    0 -0.12040949650E+02  0.88537057325E+02 -0.40406997679E+02  0.13520878894E+03  0.93085423978E+02 0.  0.
        -24    2    1    2    0    0  0.10423780285E+03 -0.82158709019E+02  0.78539553348E+02  0.17347512128E+03  0.79432885222E+02 0.  0.
         13    1    4    4    0    0  0.11168787531E+03 -0.54647329058E+02  0.52856754558E+02  0.13510865467E+03  0.00000000000E+00 0. -1.
        -14    1    4    4    0    0 -0.74500724598E+01 -0.27511379961E+02  0.25682798790E+02  0.38366466617E+02  0.00000000000E+00 0.  1.
        -13    1    3    3    0    0 -0.30304820217E+02  0.36157877945E+02  0.21705300444E+02  0.51931631336E+02  0.00000000000E+00 0.  1.
         13    1    3    3    0    0  0.18263870567E+02  0.52379179380E+02 -0.62112298123E+02  0.83277157605E+02  0.00000000000E+00 0. -1.
          4    1    1    2  501    0 -0.92196853197E+02 -0.63783483054E+01 -0.48912549080E+02  0.10456280660E+03  0.00000000000E+00 0. -1.
<scales pt_clust_5="13000.00000" pt_clust_6="13000.00000" pt_clust_7="13000.00000" pt_clust_8="13000.00000" pt_clust_9="92.41727"></scales>
<clustering>
<clus scale="   79.433">  5  6 -1 -1</clus>
<clus scale="   92.417">  1  9  2 -1</clus>
<clus scale="   93.085">  7  8 -1 -1</clus>
<clus scale="  123.409">  1  5  2 -1</clus>
<clus scale="   92.417">  1  5  2 -1</clus>
</clustering>
</event>
<event>
 9    1  0.6014990E-005  0.1962606E+03  0.7546771E-02  0.1187435E+00
         21   -1    0    0  501  502  0.00000000000E+00  0.00000000000E+00  0.26606543413E+03  0.26606543413E+03  0.00000000000E+00 0. -1.
         -4   -1    0    0    0  501 -0.00000000000E+00 -0.00000000000E+00 -0.30825295838E+03  0.30825295838E+03  0.00000000000E+00 0.  1.
        -24    2    1    2    0    0  0.18697201972E+02 -0.33719957969E+02 -0.14610250309E+03  0.17115462510E+03  0.80382481649E+02 0.  0.
         23    2    1    2    0    0 -0.52717480293E+02 -0.15488398483E+03  0.98017529688E+02  0.21142538710E+03  0.91241858280E+02 0.  0.
         13    1    3    3    0    0  0.19540683846E+02  0.15486799570E+02 -0.10785895043E+02  0.27166428142E+02  0.00000000000E+00 0. -1.
        -14    1    3    3    0    0 -0.84348187403E+00 -0.49206757539E+02 -0.13531660805E+03  0.14398819696E+03  0.00000000000E+00 0.  1.
        -13    1    4    4    0    0 -0.58280190552E+02 -0.36429810987E+02  0.37378327936E+02  0.78235868620E+02  0.00000000000E+00 0.  1.
         13    1    4    4    0    0  0.55627102597E+01 -0.11845417384E+03  0.60639201752E+02  0.13318951848E+03  0.00000000000E+00 0. -1.
         -3    1    1    2    0  502  0.34020278321E+02  0.18860394279E+03  0.58974491605E+01  0.19173838030E+03  0.00000000000E+00 0.  1.
<scales pt_clust_5="13000.00000" pt_clust_6="13000.00000" pt_clust_7="13000.00000" pt_clust_8="13000.00000" pt_clust_9="173.76181"></scales>
<clustering>
<clus scale="   80.382">  5  6 -1 -1</clus>
<clus scale="   89.151">  2  5  1 -1</clus>
<clus scale="   91.242">  7  8 -1 -1</clus>
<clus scale="  173.762">  1  9  2 -1</clus>
<clus scale="  173.762">  1  5  2 -1</clus>
</clustering>
</event>
<event>
 9    1  0.6014990E-005  0.1339856E+03  0.7546771E-02  0.1223255E+00
         -4   -1    0    0    0  501 -0.00000000000E+00  0.00000000000E+00  0.53082734159E+03  0.53082734159E+03  0.00000000000E+00 0.  1.
         21   -1    0    0  501  502  0.00000000000E+00 -0.00000000000E+00 -0.57505642656E+02  0.57505642656E+02  0.00000000000E+00 0.  1.
        -24    2    1    2    0    0 -0.66572106645E+02  0.78264929207E+02  0.31803405443E+03  0.34555531322E+03  0.87781377228E+02 0.  0.
         23    2    1    2    0    0  0.12669867604E+02 -0.89133434522E+02  0.12213442988E+03  0.17856932717E+03  0.94153549849E+02 0.  0.
         11    1    3    3    0    0  0.42436244656E+01  0.21298545004E+02  0.91291089161E+01  0.23557949773E+02  0.00000000000E+00 0. -1.
        -12    1    3    3    0    0 -0.70815731111E+02  0.56966384203E+02  0.30890494551E+03  0.32199736344E+03  0.00000000000E+00 0.  1.
        -13    1    4    4    0    0  0.33726158036E+02  0.44089669756E+01  0.38093292276E+02  0.51068499509E+02  0.00000000000E+00 0. -1.
         13    1    4    4    0    0 -0.21056290431E+02 -0.93542401497E+02  0.84041137605E+02  0.12750082766E+03  0.00000000000E+00 0.  1.
         -3    1    1    2    0  502  0.53902239041E+02  0.10868505315E+02  0.33153214627E+02  0.64208343862E+02  0.00000000000E+00 0.  1.
<scales pt_clust_5="13000.00000" pt_clust_6="13000.00000" pt_clust_7="13000.00000" pt_clust_8="13000.00000" pt_clust_9="54.98705"></scales>
<clustering>
<clus scale="   54.987">  2  9  1 -1</clus>
<clus scale="   87.781">  5  6 -1 -1</clus>
<clus scale="   94.154">  7  8 -1 -1</clus>
<clus scale="  129.587">  1  5  2 -1</clus>
<clus scale="   54.987">  2  5  1 -1</clus>
</clustering>
</event>
<event>
 9    1  0.6014990E-005  0.9326243E+02  0.7546771E-02  0.1311154E+00
         21   -1    0    0  501  502  0.00000000000E+00  0.00000000000E+00  0.52934844969E+02  0.52934844969E+02  0.00000000000E+00 0.  1.
         -4   -1    0    0    0  501 -0.00000000000E+00 -0.00000000000E+00 -0.25910199205E+03  0.25910199205E+03  0.00000000000E+00 0.  1.
         23    2    1    2    0    0  0.21406490604E+01  0.11434858461E+02 -0.19285363200E+03  0.21433717826E+03  0.92803902088E+02 0.  0.
        -24    2    1    2    0    0 -0.17947974630E+02  0.62222390385E+01 -0.17616847583E+02  0.73613079413E+02  0.68903454848E+02 0.  0.
         13    1    4    4    0    0 -0.40407106852E+01 -0.25100102595E+02 -0.27984311937E+02  0.37808255814E+02  0.00000000000E+00 0. -1.
        -14    1    4    4    0    0 -0.13907263945E+02  0.31322341633E+02  0.10367464355E+02  0.35804823599E+02  0.00000000000E+00 0.  1.
        -13    1    3    3    0    0  0.21863967784E+02 -0.34817023847E+02 -0.10985173937E+03  0.11729306407E+03  0.00000000000E+00 0. -1.
         13    1    3    3    0    0 -0.19723318724E+02  0.46251882308E+02 -0.83001892632E+02  0.97044114190E+02  0.00000000000E+00 0.  1.
         -3    1    1    2    0  502  0.15807325569E+02 -0.17657097499E+02  0.43033325040E+01  0.24086579342E+02  0.00000000000E+00 0.  1.
<scales pt_clust_5="13000.00000" pt_clust_6="13000.00000" pt_clust_7="13000.00000" pt_clust_8="13000.00000" pt_clust_9="23.69904"></scales>
<clustering>
<clus scale="   23.699">  1  9  2 -1</clus>
<clus scale="   68.903">  5  6 -1 -1</clus>
<clus scale="   69.520">  1  5  2 -1</clus>
<clus scale="   92.804">  7  8 -1 -1</clus>
<clus scale="   23.699">  1  5  2 -1</clus>
</clustering>
</event>
<event>
 9    1  0.6014990E-005  0.1066027E+03  0.7546771E-02  0.1272609E+00
         21   -1    0    0  501  502  0.00000000000E+00  0.00000000000E+00  0.46887904438E+02  0.46887904438E+02  0.00000000000E+00 0. -1.
          1   -1    0    0  502    0 -0.00000000000E+00 -0.00000000000E+00 -0.70261293753E+03  0.70261293753E+03  0.00000000000E+00 0. -1.
         23    2    1    2    0    0  0.19368762395E+02  0.55242561156E+02 -0.52471214329E+03  0.53583992790E+03  0.91513417026E+02 0.  0.
        -24    2    1    2    0    0 -0.34493675084E+02 -0.17078471471E+02 -0.12550648191E+02  0.88287219009E+02  0.78457800516E+02 0.  0.
         13    1    4    4    0    0 -0.39463542015E+02 -0.43115605499E+02  0.11249017057E+01  0.58460174391E+02  0.00000000000E+00 0. -1.
        -14    1    4    4    0    0  0.49698669309E+01  0.26037134028E+02 -0.13675549896E+02  0.29827044618E+02  0.00000000000E+00 0.  1.
        -13    1    3    3    0    0  0.11543606043E+02 -0.24987951391E+02 -0.15710755351E+03  0.15950058284E+03  0.00000000000E+00 0.  1.
         13    1    3    3    0    0  0.78251563516E+01  0.80230512547E+02 -0.36760458978E+03  0.37633934506E+03  0.00000000000E+00 0. -1.
          2    1    1    2  501    0  0.15124912689E+02 -0.38164089685E+02 -0.11846224161E+03  0.12537369506E+03  0.00000000000E+00 0. -1.
<scales pt_clust_5="13000.00000" pt_clust_6="13000.00000" pt_clust_7="13000.00000" pt_clust_8="13000.00000" pt_clust_9="41.05195"></scales>
<clustering>
<clus scale="   41.052">  1  9  2 -1</clus>
<clus scale="   78.458">  5  6 -1 -1</clus>
<clus scale="   91.513">  7  8 -1 -1</clus>
<clus scale="   95.630">  1  5  2 -1</clus>
<clus scale="   41.052">  1  5  2 -1</clus>
</clustering>
</event>
<event>
 9    1  0.6014990E-005  0.9873542E+02  0.7546771E-02  0.1288150E+00
         21   -1    0    0  501  502  0.00000000000E+00  0.00000000000E+00  0.42157041551E+02  0.42157041551E+02  0.00000000000E+00 0.  1.
          1   -1    0    0  502    0 -0.00000000000E+00 -0.00000000000E+00 -0.57056011506E+03  0.57056011506E+03  0.00000000000E+00 0. -1.
         23    2    1    2    0    0  0.22642821730E+02 -0.43387071812E+02 -0.37158445651E+03  0.38553383559E+03  0.90366999968E+02 0.  0.
        -24    2    1    2    0    0 -0.40060514327E+02 -0.19742849264E+02 -0.57929978427E+02  0.10857587696E+03  0.80238480488E+02 0.  0.
         13    1    4    4    0    0 -0.37188574236E+02 -0.42740154416E+02 -0.63129743257E+02  0.84823789923E+02  0.00000000000E+00 0. -1.
        -14    1    4    4    0    0 -0.28719400907E+01  0.22997305152E+02  0.51997648297E+01  0.23752087033E+02  0.00000000000E+00 0.  1.
        -11    1    3    3    0    0  0.59168548547E+01  0.28060477015E+02 -0.12592775366E+03  0.12915184351E+03  0.00000000000E+00 0.  1.
         11    1    3    3    0    0  0.16725966875E+02 -0.71447548827E+02 -0.24565670286E+03  0.25638199207E+03  0.00000000000E+00 0. -1.
          2    1    1    2  501    0  0.17417692597E+02  0.63129921077E+02 -0.98888638573E+02  0.11860744407E+03  0.00000000000E+00 0. -1.
<scales pt_clust_5="13000.00000" pt_clust_6="13000.00000" pt_clust_7="13000.00000" pt_clust_8="13000.00000" pt_clust_9="65.48865"></scales>
<clustering>
<clus scale="   65.489">  1  9  2 -1</clus>
<clus scale="   80.238">  5  6 -1 -1</clus>
<clus scale="   89.558">  1  5  2 -1</clus>
<clus scale="   90.367">  7  8 -1 -1</clus>
<clus scale="   65.489">  1  5  2 -1</clus>
</clustering>
</event>
<event>
 9    1  0.6014990E-005  0.1584708E+03  0.7546771E-02  0.1192593E+00
         -2   -1    0    0    0  501 -0.00000000000E+00  0.00000000000E+00  0.95803425990E+03  0.95803425990E+03  0.00000000000E+00 0.  1.
         21   -1    0    0  501  502  0.00000000000E+00 -0.00000000000E+00 -0.75757631299E+02  0.75757631299E+02  0.00000000000E+00 0. -1.
        -24    2    1    2    0    0  0.12854825700E+03  0.33416575270E+02  0.68940267593E+03  0.70637164273E+03  0.77740119646E+02 0.  0.
         23    2    1    2    0    0 -0.99402078425E+02 -0.82046736639E+02  0.21482951463E+03  0.26662190127E+03  0.91230903170E+02 0.  0.
         13    1    3    3    0    0  0.13663305699E+03  0.32174496455E+02  0.58322301116E+03  0.59987738016E+03  0.00000000000E+00 0. -1.
        -14    1    3    3    0    0 -0.80847999876E+01  0.12420788148E+01  0.10617966477E+03  0.10649426257E+03  0.00000000000E+00 0.  1.
        -13    1    4    4    0    0 -0.66978479414E+02 -0.45943358835E+02  0.51349673636E+02  0.96092132395E+02  0.00000000000E+00 0.  1.
         13    1    4    4    0    0 -0.32423599011E+02 -0.36103377804E+02  0.16347984100E+03  0.17052976888E+03  0.00000000000E+00 0. -1.
         -1    1    1    2    0  502 -0.29146178573E+02  0.48630161369E+02 -0.21955561959E+02  0.60798347191E+02  0.00000000000E+00 0.  1.
<scales pt_clust_5="13000.00000" pt_clust_6="13000.00000" pt_clust_7="13000.00000" pt_clust_8="13000.00000" pt_clust_9="56.69561"></scales>
<clustering>
<clus scale="   56.696">  2  9  1 -1</clus>
<clus scale="   77.740">  5  6 -1 -1</clus>
<clus scale="   91.231">  7  8 -1 -1</clus>
<clus scale="  151.107">  1  5  2 -1</clus>
<clus scale="   56.696">  2  5  1 -1</clus>
</clustering>
</event>
<event>
 9    1  0.6014990E-005  0.1087401E+03  0.7546771E-02  0.1266502E+00
         21   -1    0    0  501  502  0.00000000000E+00  0.00000000000E+00  0.38247794605E+02  0.38247794605E+02  0.00000000000E+00 0. -1.
          1   -1    0    0  502    0 -0.00000000000E+00 -0.00000000000E+00 -0.42863096399E+03  0.42863096399E+03  0.00000000000E+00 0. -1.
         23    2    1    2    0    0  0.26015347293E+02 -0.50590218989E+02 -0.12116336069E+03  0.15026014379E+03  0.68274316447E+02 0.  0.
        -24    2    1    2    0    0 -0.48439977198E+02  0.84886455853E+02 -0.19724829729E+03  0.23379956902E+03  0.78760433694E+02 0.  0.
         11    1    4    4    0    0 -0.54957196247E+02  0.97072498494E+02 -0.17891972871E+03  0.21084504430E+03  0.00000000000E+00 0. -1.
        -12    1    4    4    0    0  0.65172190493E+01 -0.12186042641E+02 -0.18328568572E+02  0.22954524724E+02  0.00000000000E+00 0.  1.
        -13    1    3    3    0    0  0.42985551925E+02 -0.22847759674E+02 -0.40629186457E+02  0.63407480541E+02  0.00000000000E+00 0. -1.
         13    1    3    3    0    0 -0.16970204632E+02 -0.27742459315E+02 -0.80534174236E+02  0.86852663252E+02  0.00000000000E+00 0.  1.
          2    1    1    2  501    0  0.22424629905E+02 -0.34296236864E+02 -0.71971511405E+02  0.82819045777E+02  0.00000000000E+00 0. -1.
<scales pt_clust_5="13000.00000" pt_clust_6="13000.00000" pt_clust_7="13000.00000" pt_clust_8="13000.00000" pt_clust_9="40.97679"></scales>
<clustering>
<clus scale="   40.977">  1  9  2 -1</clus>
<clus scale="   68.274">  7  8 -1 -1</clus>
<clus scale="   78.760">  5  6 -1 -1</clus>
<clus scale="  101.403">  2  7  1 -1</clus>
<clus scale="   40.977">  1  5  2 -1</clus>
</clustering>
</event>
<event>
 9    1  0.6014990E-005  0.1590821E+03  0.7546771E-02  0.1213615E+00
         21   -1    0    0  501  502  0.00000000000E+00  0.00000000000E+00  0.66850011415E+02  0.66850011415E+02  0.00000000000E+00 0.  1.
          3   -1    0    0  502    0 -0.00000000000E+00 -0.00000000000E+00 -0.65420282612E+03  0.65420282612E+03  0.00000000000E+00 0. -1.
         23    2    1    2    0    0  0.24122432667E+02 -0.91983706590E+01 -0.18798669185E+03  0.21055746167E+03  0.91263062458E+02 0.  0.
        -24    2    1    2    0    0  0.12269122606E+03 -0.31077924454E+02 -0.12365684327E+03  0.19554770215E+03  0.83240102040E+02 0.  0.
         13    1    4    4    0    0  0.32590452717E+02  0.22079624459E+02 -0.63951009518E+02  0.75095799103E+02  0.00000000000E+00 0. -1.
        -14    1    4    4    0    0  0.90100773339E+02 -0.53157548913E+02 -0.59705833753E+02  0.12045190304E+03  0.00000000000E+00 0.  1.
        -13    1    3    3    0    0 -0.11866493056E+02  0.25872824710E+02 -0.18914877538E+02  0.34175858559E+02  0.00000000000E+00 0.  1.
         13    1    3    3    0    0  0.35988925724E+02 -0.35071195369E+02 -0.16907181431E+03  0.17638160311E+03  0.00000000000E+00 0. -1.
          4    1    1    2  501    0 -0.14681365872E+03  0.40276295113E+02 -0.27570927958E+03  0.31494767372E+03  0.00000000000E+00 0. -1.
<scales pt_clust_5="13000.00000" pt_clust_6="13000.00000" pt_clust_7="13000.00000" pt_clust_8="13000.00000" pt_clust_9="135.56634"></scales>
<clustering>
<clus scale="   83.240">  5  6 -1 -1</clus>
<clus scale="   91.263">  7  8 -1 -1</clus>
<clus scale="   94.844">  2  7  1 -1</clus>
<clus scale="  135.566">  1  9  2 -1</clus>
<clus scale="  135.566">  1  5  2 -1</clus>
</clustering>
</event>
<event>
 9    1  0.6014990E-005  0.2576329E+03  0.7546771E-02  0.1109166E+00
          1   -1    0    0  502    0 -0.00000000000E+00  0.00000000000E+00  0.14154125502E+04  0.14154125502E+04  0.00000000000E+00 0. -1.
         21   -1    0    0  501  502  0.00000000000E+00 -0.00000000000E+00 -0.11208064760E+03  0.11208064760E+03  0.00000000000E+00 0. -1.
         23    2    1    2    0    0 -0.21702027517E+03  0.12955810748E+03  0.12016539600E+04  0.12313533605E+04  0.91519154665E+02 0.  0.
        -24    2    1    2    0    0  0.14277883085E+03 -0.12051660360E+03  0.77809839757E+02  0.21763361347E+03  0.79999826670E+02 0.  0.
         13    1    4    4    0    0  0.11521332369E+03 -0.69156896514E+02  0.20574080664E+02  0.13594145463E+03  0.00000000000E+00 0. -1.
        -14    1    4    4    0    0  0.27565507152E+02 -0.51359707085E+02  0.57235759093E+02  0.81692158836E+02  0.00000000000E+00 0.  1.
        -11    1    3    3    0    0 -0.12094152146E+03  0.89155262277E+02  0.89362133656E+03  0.90616477837E+03  0.00000000000E+00 0. -1.
         11    1    3    3    0    0 -0.96078753706E+02  0.40402845202E+02  0.30803262346E+03  0.32518858210E+03  0.00000000000E+00 0.  1.
          2    1    1    2  501    0  0.74241444319E+02 -0.90415038809E+01  0.23868102779E+02  0.78506223813E+02  0.00000000000E+00 0. -1.
<scales pt_clust_5="13000.00000" pt_clust_6="13000.00000" pt_clust_7="13000.00000" pt_clust_8="13000.00000" pt_clust_9="74.78998"></scales>
<clustering>
<clus scale="   74.790">  2  9  1 -1</clus>
<clus scale="   80.000">  5  6 -1 -1</clus>
<clus scale="   91.519">  7  8 -1 -1</clus>
<clus scale="  253.769">  2  5  1 -1</clus>
<clus scale="   74.790">  2  5  1 -1</clus>
</clustering>
</event>
<event>
 9    1  0.6014990E-005  0.1833424E+03  0.7546771E-02  0.1180072E+00
          1   -1    0    0  502    0 -0.00000000000E+00  0.00000000000E+00  0.17152966213E+03  0.17152966213E+03  0.00000000000E+00 0. -1.
         21   -1    0    0  501  502  0.00000000000E+00 -0.00000000000E+00 -0.37771840317E+03  0.37771840317E+03  0.00000000000E+00 0. -1.
        -24    2    1    2    0    0 -0.94373644774E+02  0.36413451629E+02 -0.28635173086E+02  0.13204153812E+03  0.79891616357E+02 0.  0.
         23    2    1    2    0    0  0.18857034725E+03  0.75963086172E+02 -0.64176735531E+02  0.23185332074E+03  0.91149013332E+02 0.  0.
         13    1    3    3    0    0 -0.88650292902E+02  0.75201699003E+01  0.27347764515E+01  0.89010709408E+02  0.00000000000E+00 0. -1.
        -14    1    3    3    0    0 -0.57233518711E+01  0.28893281729E+02 -0.31369949537E+02  0.43030828713E+02  0.00000000000E+00 0.  1.
        -13    1    4    4    0    0  0.15697515758E+03  0.50758043913E+02 -0.11389870924E+02  0.16537021581E+03  0.00000000000E+00 0. -1.
         13    1    4    4    0    0  0.31595189677E+02  0.25205042259E+02 -0.52786864607E+02  0.66483104929E+02  0.00000000000E+00 0.  1.
          2    1    1    2  501    0 -0.94196702481E+02 -0.11237653780E+03 -0.11337683242E+03  0.18535320644E+03  0.00000000000E+00 0. -1.
<scales pt_clust_5="13000.00000" pt_clust_6="13000.00000" pt_clust_7="13000.00000" pt_clust_8="13000.00000" pt_clust_9="159.07954"></scales>
<clustering>
<clus scale="   79.892">  5  6 -1 -1</clus>
<clus scale="   91.149">  7  8 -1 -1</clus>
<clus scale="  128.899">  1  5  2 -1</clus>
<clus scale="  159.080">  2  9  1 -1</clus>
<clus scale="  159.080">  2  5  1 -1</clus>
</clustering>
</event>
<event>
 9    1  0.6014990E-005  0.3712812E+03  0.7546771E-02  0.1054204E+00
         -2   -1    0    0    0  501 -0.00000000000E+00  0.00000000000E+00  0.20204464721E+03  0.20204464721E+03  0.00000000000E+00 0.  1.
         21   -1    0    0  501  502  0.00000000000E+00 -0.00000000000E+00 -0.66396307106E+03  0.66396307106E+03  0.00000000000E+00 0.  1.
        -24    2    1    2    0    0 -0.81557189130E+02  0.14657848277E+03 -0.18054756112E+02  0.18600189711E+03  0.78319249230E+02 0.  0.
         23    2    1    2    0    0 -0.24356449069E+02  0.15254064652E+03 -0.81601719076E+02  0.19842127852E+03  0.94075914874E+02 0.  0.
         13    1    3    3    0    0 -0.65863537409E+02  0.49588235822E+02 -0.28420106596E+02  0.87204937651E+02  0.00000000000E+00 0. -1.
        -14    1    3    3    0    0 -0.15693651721E+02  0.96990246946E+02  0.10365350484E+02  0.98796959455E+02  0.00000000000E+00 0.  1.
        -13    1    4    4    0    0  0.34458938981E+02  0.42521473227E+02 -0.36404749938E+02  0.65732792267E+02  0.00000000000E+00 0.  1.
         13    1    4    4    0    0 -0.58815388051E+02  0.11001917330E+03 -0.45196969138E+02  0.13268848625E+03  0.00000000000E+00 0. -1.
         -1    1    1    2    0  502  0.10591363820E+03 -0.29911912929E+03 -0.36226194866E+03  0.48158454264E+03  0.00000000000E+00 0.  1.
<scales pt_clust_5="13000.00000" pt_clust_6="13000.00000" pt_clust_7="13000.00000" pt_clust_8="13000.00000" pt_clust_9="317.31680"></scales>
<clustering>
<clus scale="   78.319">  5  6 -1 -1</clus>
<clus scale="   94.076">  7  8 -1 -1</clus>
<clus scale="  121.919">  5  7 -1 -1</clus>
<clus scale="  317.317">  2  9  1 -1</clus>
<clus scale="  317.317">  2  5  1 -1</clus>
</clustering>
</event>
<event>
 9    1  0.6014990E-005  0.1095835E+03  0.7546771E-02  0.1265439E+00
         -4   -1    0    0    0  501 -0.00000000000E+00  0.00000000000E+00  0.54140939811E+03  0.54140939811E+03  0.00000000000E+00 0.  1.
         21   -1    0    0  501  502  0.00000000000E+00 -0.00000000000E+00 -0.42902746454E+02  0.42902746454E+02  0.00000000000E+00 0.  1.
        -24    2    1    2    0    0 -0.25932811438E+02 -0.40797631437E+02  0.13927554805E+03  0.16836301972E+03  0.81310950578E+02 0.  0.
         23    2    1    2    0    0  0.53101800301E+02  0.63244692951E+02  0.11317481691E+03  0.16738178840E+03  0.91588380939E+02 0.  0.
         13    1    3    3    0    0  0.17938036171E+02 -0.17242187532E+02  0.53084372073E+01  0.25441023528E+02  0.00000000000E+00 0. -1.
        -14    1    3    3    0    0 -0.43870847608E+02 -0.23555443905E+02  0.13396711084E+03  0.14292199619E+03  0.00000000000E+00 0.  1.
        -13    1    4    4    0    0 -0.13957631771E+02  0.27684913631E+02  0.77579892392E+02  0.83545853463E+02  0.00000000000E+00 0. -1.
         13    1    4    4    0    0  0.67059432072E+02  0.35559779320E+02  0.35594924522E+02  0.83835934937E+02  0.00000000000E+00 0.  1.
         -3    1    1    2    0  502 -0.27168988863E+02 -0.22447061514E+02  0.24605628670E+03  0.24856733645E+03  0.00000000000E+00 0.  1.
<scales pt_clust_5="13000.00000" pt_clust_6="13000.00000" pt_clust_7="13000.00000" pt_clust_8="13000.00000" pt_clust_9="35.24239"></scales>
<clustering>
<clus scale="   35.242">  2  9  1 -1</clus>
<clus scale="   81.311">  5  6 -1 -1</clus>
<clus scale="   91.588">  7  8 -1 -1</clus>
<clus scale="  101.151">  1  5  2 -1</clus>
<clus scale="   35.242">  2  5  1 -1</clus>
</clustering>
</event>
<event>
 9    1  0.6014990E-005  0.9274574E+02  0.7546771E-02  0.1301640E+00
         21   -1    0    0  501  502  0.00000000000E+00  0.00000000000E+00  0.17723081994E+03  0.17723081994E+03  0.00000000000E+00 0. -1.
         -2   -1    0    0    0  501 -0.00000000000E+00 -0.00000000000E+00 -0.13049229376E+03  0.13049229376E+03  0.00000000000E+00 0.  1.
        -24    2    1    2    0    0  0.16417420399E+02 -0.12511782071E+02 -0.92156184939E+02  0.12467611370E+03  0.81395912198E+02 0.  0.
         23    2    1    2    0    0 -0.73523177325E+01  0.30670305575E+02  0.12864019134E+03  0.16030797543E+03  0.90308493164E+02 0.  0.
         13    1    3    3    0    0  0.21521104722E+02  0.31646835119E+02 -0.32055065386E+02  0.49922012564E+02  0.00000000000E+00 0. -1.
        -14    1    3    3    0    0 -0.51036843228E+01 -0.44158617190E+02 -0.60101119552E+02  0.74754101140E+02  0.00000000000E+00 0.  1.
        -13    1    4    4    0    0  0.41011097632E+02  0.16261273258E+02  0.48139128919E+02  0.65297127579E+02  0.00000000000E+00 0.  1.
         13    1    4    4    0    0 -0.48363415365E+02  0.14409032317E+02  0.80501062421E+02  0.95010847849E+02  0.00000000000E+00 0. -1.
         -1    1    1    2    0  502 -0.90651026664E+01 -0.18158523504E+02  0.10254519776E+02  0.22739024562E+02  0.00000000000E+00 0.  1.
<scales pt_clust_5="13000.00000" pt_clust_6="13000.00000" pt_clust_7="13000.00000" pt_clust_8="13000.00000" pt_clust_9="20.29552"></scales>
<clustering>
<clus scale="   20.296">  1  9  2 -1</clus>
<clus scale="   81.396">  5  6 -1 -1</clus>
<clus scale="   84.092">  2  5  1 -1</clus>
<clus scale="   90.308">  7  8 -1 -1</clus>
<clus scale="   20.296">  1  5  2 -1</clus>
</clustering>
</event>
<event>
 9    1  0.6014990E-005  0.9745760E+02  0.7546771E-02  0.1291285E+00
         21   -1    0    0  501  502  0.00000000000E+00  0.00000000000E+00  0.98267103727E+03  0.98267103727E+03  0.00000000000E+00 0. -1.
         -2   -1    0    0    0  501 -0.00000000000E+00 -0.00000000000E+00 -0.19558624374E+02  0.19558624374E+02  0.00000000000E+00 0.  1.
        -24    2    1    2    0    0 -0.20883516300E+02  0.25986555373E+02  0.21026237293E+03  0.22734764369E+03  0.79782600284E+02 0.  0.
         23    2    1    2    0    0 -0.35145253931E+02 -0.54252279521E+02  0.35055077557E+03  0.36771758877E+03  0.90287762924E+02 0.  0.
         13    1    3    3    0    0  0.21254244931E+02 -0.16142929110E+02  0.58217207684E+02  0.64043581711E+02  0.00000000000E+00 0. -1.
        -14    1    3    3    0    0 -0.42137761231E+02  0.42129484482E+02  0.15204516524E+03  0.16330406198E+03  0.00000000000E+00 0.  1.
        -11    1    4    4    0    0 -0.17401360450E+02  0.13960396619E+02  0.20743395510E+02  0.30462903285E+02  0.00000000000E+00 0.  1.
         11    1    4    4    0    0 -0.17743893481E+02 -0.68212676140E+02  0.32980738006E+03  0.33725468549E+03  0.00000000000E+00 0. -1.
         -1    1    1    2    0  502  0.56028770231E+02  0.28265724148E+02  0.40229926441E+03  0.40716442919E+03  0.00000000000E+00 0.  1.
<scales pt_clust_5="13000.00000" pt_clust_6="13000.00000" pt_clust_7="13000.00000" pt_clust_8="13000.00000" pt_clust_9="62.75487"></scales>
<clustering>
<clus scale="   62.755">  1  9  2 -1</clus>
<clus scale="   79.783">  5  6 -1 -1</clus>
<clus scale="   87.814">  2  5  1 -1</clus>
<clus scale="   90.288">  7  8 -1 -1</clus>
<clus scale="   62.755">  1  5  2 -1</clus>
</clustering>
</event>
<event>
 9    1  0.6014990E-005  0.1772648E+03  0.7546771E-02  0.1197508E+00
         -2   -1    0    0    0  501 -0.00000000000E+00  0.00000000000E+00  0.33027280260E+02  0.33027280260E+02  0.00000000000E+00 0.  1.
         21   -1    0    0  501  502  0.00000000000E+00 -0.00000000000E+00 -0.15577026172E+04  0.15577026172E+04  0.00000000000E+00 0.  1.
        -24    2    1    2    0    0 -0.37042985652E+02 -0.42203562491E+02 -0.58329056623E+03  0.59129163826E+03  0.79022739401E+02 0.  0.
         23    2    1    2    0    0  0.17048866187E+03  0.19255513046E+02 -0.64536943649E+03  0.67392414343E+03  0.90746255784E+02 0.  0.
         13    1    3    3    0    0  0.19735389989E+02 -0.28230775529E+02 -0.14068339283E+03  0.14483880462E+03  0.00000000000E+00 0. -1.
        -14    1    3    3    0    0 -0.56778375641E+02 -0.13972786962E+02 -0.44260717340E+03  0.44645283364E+03  0.00000000000E+00 0.  1.
        -13    1    4    4    0    0  0.99869105908E+02 -0.32790739384E+02 -0.38946159717E+03  0.40339733089E+03  0.00000000000E+00 0.  1.
         13    1    4    4    0    0  0.70619555961E+02  0.52046252430E+02 -0.25590783932E+03  0.27052681254E+03  0.00000000000E+00 0. -1.
         -1    1    1    2    0  502 -0.13344567622E+03  0.22948049445E+02 -0.29601533422E+03  0.32551411577E+03  0.00000000000E+00 0.  1.
<scales pt_clust_5="13000.00000" pt_clust_6="13000.00000" pt_clust_7="13000.00000" pt_clust_8="13000.00000" pt_clust_9="152.27586"></scales>
<clustering>
<clus scale="   79.023">  5  6 -1 -1</clus>
<clus scale="   90.746">  7  8 -1 -1</clus>
<clus scale="   96.943">  1  5  2 -1</clus>
<clus scale="  152.276">  2  9  1 -1</clus>
<clus scale="  152.276">  2  5  1 -1</clus>
</clustering>
</event>
<event>
 9    1  0.6014990E-005  0.1078136E+03  0.7546771E-02  0.1269777E+00
         21   -1    0    0  501  502  0.00000000000E+00  0.00000000000E+00  0.14619207417E+03  0.14619207417E+03  0.00000000000E+00 0.  1.
         -2   -1    0    0    0  501 -0.00000000000E+00 -0.00000000000E+00 -0.30970663847E+03  0.30970663847E+03  0.00000000000E+00 0.  1.
         23    2    1    2    0    0  0.49117238532E+02 -0.10053421219E+02 -0.23525219096E+03  0.25751790523E+03  0.91969036980E+02 0.  0.
        -24    2    1    2    0    0 -0.89538286594E+02  0.23262583007E+02  0.88838672692E+01  0.12249313943E+03  0.79795949618E+02 0.  0.
         13    1    4    4    0    0 -0.24343422552E+02 -0.28719748990E+02 -0.49457641515E+01  0.37972184380E+02  0.00000000000E+00 0. -1.
        -14    1    4    4    0    0 -0.65194864042E+02  0.51982331997E+02  0.13829631421E+02  0.84520955050E+02  0.00000000000E+00 0.  1.
        -13    1    3    3    0    0  0.55843914247E+02 -0.38838947053E+02 -0.20139212080E+03  0.21256950131E+03  0.00000000000E+00 0.  1.
         13    1    3    3    0    0 -0.67266757156E+01  0.28785525834E+02 -0.33860070160E+02  0.44948403920E+02  0.00000000000E+00 0. -1.
         -1    1    1    2    0  502  0.40421048063E+02 -0.13209161788E+02  0.62853759387E+02  0.75887667975E+02  0.00000000000E+00 0.  1.
<scales pt_clust_5="13000.00000" pt_clust_6="13000.00000" pt_clust_7="13000.00000" pt_clust_8="13000.00000" pt_clust_9="42.52462"></scales>
<clustering>
<clus scale="   42.525">  1  9  2 -1</clus>
<clus scale="   79.796">  5  6 -1 -1</clus>
<clus scale="   91.969">  7  8 -1 -1</clus>
<clus scale="   97.636">  1  5  2 -1</clus>
<clus scale="   42.525">  1  5  2 -1</clus>
</clustering>
</event>
<event>
 9    1  0.6014990E-005  0.1452991E+03  0.7546771E-02  0.1208744E+00
         21   -1    0    0  501  502  0.00000000000E+00  0.00000000000E+00  0.88169816078E+02  0.88169816078E+02  0.00000000000E+00 0.  1.
         -4   -1    0    0    0  501 -0.00000000000E+00 -0.00000000000E+00 -0.37798064602E+03  0.37798064602E+03  0.00000000000E+00 0.  1.
        -24    2    1    2    0    0  0.11108418183E+03 -0.82069535203E+02 -0.21202234940E+03  0.26493962099E+03  0.78513833591E+02 0.  0.
         23    2    1    2    0    0 -0.68401738638E+02  0.31042089335E+02 -0.37854693537E+02  0.12362025835E+03  0.90590183199E+02 0.  0.
         13    1    3    3    0    0 -0.10355582661E+02 -0.17169111303E+02 -0.17489154448E+02  0.26606145878E+02  0.00000000000E+00 0. -1.
        -14    1    3    3    0    0  0.12143976449E+03 -0.64900423901E+02 -0.19453319495E+03  0.23833347511E+03  0.00000000000E+00 0.  1.
        -11    1    4    4    0    0  0.10034839759E+02  0.35455561312E+02 -0.10438584076E+01  0.36863050298E+02  0.00000000000E+00 0. -1.
         11    1    4    4    0    0 -0.78436578397E+02 -0.44134719764E+01 -0.36810835129E+02  0.86757208049E+02  0.00000000000E+00 0.  1.
         -3    1    1    2    0  502 -0.42682443190E+02  0.51027445868E+02 -0.39933787008E+02  0.77590582762E+02  0.00000000000E+00 0.  1.
<scales pt_clust_5="13000.00000" pt_clust_6="13000.00000" pt_clust_7="13000.00000" pt_clust_8="13000.00000" pt_clust_9="66.52512"></scales>
<clustering>
<clus scale="   66.525">  1  9  2 -1</clus>
<clus scale="   78.514">  5  6 -1 -1</clus>
<clus scale="   90.590">  7  8 -1 -1</clus>
<clus scale="  138.093">  2  5  1 -1</clus>
<clus scale="   66.525">  1  5  2 -1</clus>
</clustering>
</event>
<event>
 9    1  0.6014990E-005  0.9943045E+02  0.7546771E-02  0.1284378E+00
         -4   -1    0    0    0  501 -0.00000000000E+00  0.00000000000E+00  0.77320479477E+02  0.77320479477E+02  0.00000000000E+00 0.  1.
         21   -1    0    0  501  502  0.00000000000E+00 -0.00000000000E+00 -0.40697765448E+03  0.40697765448E+03  0.00000000000E+00 0. -1.
        -24    2    1    2    0    0 -0.58376517276E+02 -0.46817853247E+02 -0.14337063590E+03  0.18196024604E+03  0.83394620621E+02 0.  0.
         23    2    1    2    0    0 -0.43773655078E+02  0.49253444954E+02 -0.16769300944E+03  0.19848073042E+03  0.83256352388E+02 0.  0.
         11    1    3    3    0    0  0.14116055787E+02 -0.35934155111E+02 -0.45283169552E+02  0.59507075036E+02  0.00000000000E+00 0. -1.
        -12    1    3    3    0    0 -0.72492573064E+02 -0.10883698135E+02 -0.98087466345E+02  0.12245317100E+03  0.00000000000E+00 0.  1.
        -13    1    4    4    0    0 -0.21973745832E+02  0.71574779327E+02 -0.11427682295E+03  0.13661986241E+03  0.00000000000E+00 0. -1.
         13    1    4    4    0    0 -0.21799909246E+02 -0.22321334373E+02 -0.53416186497E+02  0.61860868012E+02  0.00000000000E+00 0.  1.
         -3    1    1    2    0  502  0.10215017235E+03 -0.24355917075E+01 -0.18593529664E+02  0.10385715750E+03  0.00000000000E+00 0.  1.
<scales pt_clust_5="13000.00000" pt_clust_6="13000.00000" pt_clust_7="13000.00000" pt_clust_8="13000.00000" pt_clust_9="102.17926"></scales>
<clustering>
<clus scale="   83.256">  7  8 -1 -1</clus>
<clus scale="   83.395">  5  6 -1 -1</clus>
<clus scale="  102.179">  2  9  1 -1</clus>
<clus scale="  102.179">  2  7  1 -1</clus>
<clus scale="   99.430">  2  5  1 -1</clus>
</clustering>
</event>
<event>
 9    1  0.6014990E-005  0.9624340E+02  0.7546771E-02  0.1296261E+00
         21   -1    0    0  501  502  0.00000000000E+00  0.00000000000E+00  0.21426855557E+03  0.21426855557E+03  0.00000000000E+00 0. -1.
          1   -1    0    0  502    0 -0.00000000000E+00 -0.00000000000E+00 -0.23894269191E+03  0.23894269191E+03  0.00000000000E+00 0. -1.
        -24    2    1    2    0    0 -0.24062652419E+02  0.17373418770E+02 -0.20593696128E+03  0.22189346687E+03  0.77109219278E+02 0.  0.
         23    2    1    2    0    0  0.34797305116E+02 -0.49795560513E+02  0.14069468534E+03  0.17828758172E+03  0.91109917261E+02 0.  0.
         11    1    3    3    0    0 -0.36716680005E+02  0.67287179980E+01 -0.20128323993E+03  0.20471524837E+03  0.00000000000E+00 0. -1.
        -12    1    3    3    0    0  0.12654027586E+02  0.10644700772E+02 -0.46537213518E+01  0.17178218508E+02  0.00000000000E+00 0.  1.
        -11    1    4    4    0    0  0.41170147141E+02  0.15377701210E+02  0.59715780730E+02  0.74144650369E+02  0.00000000000E+00 0.  1.
         11    1    4    4    0    0 -0.63728420243E+01 -0.65173261723E+02  0.80978904613E+02  0.10414293136E+03  0.00000000000E+00 0. -1.
          2    1    1    2  501    0 -0.10734652697E+02  0.32422141742E+02  0.40568139589E+02  0.53030198881E+02  0.00000000000E+00 0. -1.
<scales pt_clust_5="13000.00000" pt_clust_6="13000.00000" pt_clust_7="13000.00000" pt_clust_8="13000.00000" pt_clust_9="34.15301"></scales>
<clustering>
<clus scale="   34.153">  1  9  2 -1</clus>
<clus scale="   77.109">  5  6 -1 -1</clus>
<clus scale="   83.112">  2  5  1 -1</clus>
<clus scale="   91.110">  7  8 -1 -1</clus>
<clus scale="   34.153">  1  5  2 -1</clus>
</clustering>
</event>
<event>
 9    1  0.6014990E-005  0.9884913E+02  0.7546771E-02  0.1286549E+00
         21   -1    0    0  501  502  0.00000000000E+00  0.00000000000E+00  0.16982077185E+03  0.16982077185E+03  0.00000000000E+00 0.  1.
         -2   -1    0    0    0  501 -0.00000000000E+00 -0.00000000000E+00 -0.26756739060E+03  0.26756739060E+03  0.00000000000E+00 0.  1.
        -24    2    1    2    0    0 -0.87340314423E+01 -0.50049648849E+02 -0.20761830966E+03  0.22806742790E+03  0.79549597803E+02 0.  0.
         23    2    1    2    0    0 -0.26139334388E+02  0.26938864160E+02  0.36895250936E+01  0.95193996448E+02  0.87403187355E+02 0.  0.
         11    1    3    3    0    0  0.27097085654E+02  0.35965655513E+01 -0.39857531639E+02  0.48330219977E+02  0.00000000000E+00 0. -1.
        -12    1    3    3    0    0 -0.35831117096E+02 -0.53646214400E+02 -0.16776077802E+03  0.17973720793E+03  0.00000000000E+00 0.  1.
        -11    1    4    4    0    0 -0.39955267148E+02  0.45862240898E+02 -0.17825707762E+02  0.63383944105E+02  0.00000000000E+00 0.  1.
         11    1    4    4    0    0  0.13815932760E+02 -0.18923376738E+02  0.21515232856E+02  0.31810052343E+02  0.00000000000E+00 0. -1.
         -1    1    1    2    0  502  0.34873365831E+02  0.23110784688E+02  0.10618216581E+03  0.11412673810E+03  0.00000000000E+00 0.  1.
<scales pt_clust_5="13000.00000" pt_clust_6="13000.00000" pt_clust_7="13000.00000" pt_clust_8="13000.00000" pt_clust_9="41.83611"></scales>
<clustering>
<clus scale="   41.836">  1  9  2 -1</clus>
<clus scale="   79.550">  5  6 -1 -1</clus>
<clus scale="   87.403">  7  8 -1 -1</clus>
<clus scale="   91.978">  2  5  1 -1</clus>
<clus scale="   41.836">  1  5  2 -1</clus>
</clustering>
</event>
<event>
 9    1  0.6014990E-005  0.1521364E+03  0.7546771E-02  0.1218996E+00
          1   -1    0    0  502    0 -0.00000000000E+00  0.00000000000E+00  0.25582179670E+03  0.25582179670E+03  0.00000000000E+00 0. -1.
         21   -1    0    0  501  502  0.00000000000E+00 -0.00000000000E+00 -0.17132896901E+03  0.17132896901E+03  0.00000000000E+00 0.  1.
        -24    2    1    2    0    0 -0.48618974929E+02  0.26313508278E+02 -0.55017666308E+02  0.11132892490E+03  0.79441679696E+02 0.  0.
         23    2    1    2    0    0  0.99801522038E+02  0.83376254737E+02  0.51862180669E+02  0.16637712170E+03  0.89887247066E+02 0.  0.
         13    1    3    3    0    0  0.92395322851E+00 -0.21316359836E+02 -0.32748987740E+02  0.39086277441E+02  0.00000000000E+00 0. -1.
        -14    1    3    3    0    0 -0.49542928157E+02  0.47629868114E+02 -0.22268678568E+02  0.72242647461E+02  0.00000000000E+00 0.  1.
        -11    1    4    4    0    0  0.10035199413E+03  0.58265991401E+02  0.69888376625E+02  0.13546155790E+03  0.00000000000E+00 0.  1.
         11    1    4    4    0    0 -0.55047209636E+00  0.25110263336E+02 -0.18026195956E+02  0.30915563799E+02  0.00000000000E+00 0. -1.
          2    1    1    2  501    0 -0.51182547109E+02 -0.10968976301E+03  0.87648313328E+02  0.14944471910E+03  0.00000000000E+00 0. -1.
<scales pt_clust_5="13000.00000" pt_clust_6="13000.00000" pt_clust_7="13000.00000" pt_clust_8="13000.00000" pt_clust_9="122.74279"></scales>
<clustering>
<clus scale="   79.442">  5  6 -1 -1</clus>
<clus scale="   89.887">  7  8 -1 -1</clus>
<clus scale="   96.784">  1  5  2 -1</clus>
<clus scale="  122.743">  2  9  1 -1</clus>
<clus scale="  122.743">  2  5  1 -1</clus>
</clustering>
</event>
<event>
 9    1  0.6014990E-005  0.2015316E+03  0.7546771E-02  0.1153990E+00
          1   -1    0    0  502    0 -0.00000000000E+00  0.00000000000E+00  0.49890126869E+03  0.49890126869E+03  0.00000000000E+00 0. -1.
         21   -1    0    0  501  502  0.00000000000E+00 -0.00000000000E+00 -0.37126359513E+03  0.37126359513E+03  0.00000000000E+00 0.  1.
         23    2    1    2    0    0  0.18829477321E+03  0.61442533456E+02 -0.10843928350E+03  0.25837845899E+03  0.12557962944E+03 0.  0.
        -24    2    1    2    0    0 -0.11876807161E+03 -0.10167474329E+02 -0.15498769607E+03  0.21129338761E+03  0.80090432295E+02 0.  0.
         13    1    4    4    0    0 -0.11683534743E+03 -0.16685855572E+02 -0.96607431031E+02  0.15251856253E+03  0.00000000000E+00 0. -1.
        -14    1    4    4    0    0 -0.19327241783E+01  0.65183812434E+01 -0.58380265039E+02  0.58774825077E+02  0.00000000000E+00 0.  1.
        -11    1    3    3    0    0  0.63096857819E+02 -0.17488131863E+02  0.13213642059E+02  0.66795572901E+02  0.00000000000E+00 0. -1.
         11    1    3    3    0    0  0.12519791539E+03  0.78930665319E+02 -0.12165292556E+03  0.19158288609E+03  0.00000000000E+00 0.  1.
          2    1    1    2  501    0 -0.69526701593E+02 -0.51275059127E+02  0.39106465313E+03  0.40049301723E+03  0.00000000000E+00 0. -1.
<scales pt_clust_5="13000.00000" pt_clust_6="13000.00000" pt_clust_7="13000.00000" pt_clust_8="13000.00000" pt_clust_9="86.38924"></scales>
<clustering>
<clus scale="   80.090">  5  6 -1 -1</clus>
<clus scale="   86.389">  2  9  1 -1</clus>
<clus scale="  125.580">  7  8 -1 -1</clus>
<clus scale="  176.803">  2  5  1 -1</clus>
<clus scale="   86.389">  2  5  1 -1</clus>
</clustering>
</event>
<event>
 9    1  0.6014990E-005  0.1630570E+03  0.7546771E-02  0.1186924E+00
         21   -1    0    0  501  502  0.00000000000E+00  0.00000000000E+00  0.37336592831E+03  0.37336592831E+03  0.00000000000E+00 0. -1.
          1   -1    0    0  502    0 -0.00000000000E+00 -0.00000000000E+00 -0.90000410655E+02  0.90000410655E+02  0.00000000000E+00 0. -1.
         23    2    1    2    0    0  0.11680094302E+03 -0.58906829334E+02  0.64474337865E+02  0.17210659730E+03  0.91385260066E+02 0.  0.
        -24    2    1    2    0    0 -0.13774828570E+03  0.43212794609E+02  0.19674047518E+03  0.25697056544E+03  0.80530249578E+02 0.  0.
         11    1    4    4    0    0 -0.10198336328E+03  0.18914074483E+02  0.75614418900E+02  0.12835843932E+03  0.00000000000E+00 0. -1.
        -12    1    4    4    0    0 -0.35764922427E+02  0.24298720125E+02  0.12112605628E+03  0.12861212612E+03  0.00000000000E+00 0.  1.
        -13    1    3    3    0    0  0.59109085943E+01  0.21170603701E+02  0.15187092358E+02  0.26716681601E+02  0.00000000000E+00 0.  1.
         13    1    3    3    0    0  0.11089003443E+03 -0.80077433035E+02  0.49287245507E+02  0.14538991570E+03  0.00000000000E+00 0. -1.
          2    1    1    2  501    0  0.20947342684E+02  0.15694034726E+02  0.22150704610E+02  0.34289176225E+02  0.00000000000E+00 0. -1.
<scales pt_clust_5="13000.00000" pt_clust_6="13000.00000" pt_clust_7="13000.00000" pt_clust_8="13000.00000" pt_clust_9="26.17430"></scales>
<clustering>
<clus scale="   26.174">  1  9  2 -1</clus>
<clus scale="   80.530">  5  6 -1 -1</clus>
<clus scale="   91.385">  7  8 -1 -1</clus>
<clus scale="  157.231">  1  5  2 -1</clus>
<clus scale="   26.174">  1  5  2 -1</clus>
</clustering>
</event>
<event>
 9    1  0.6014990E-005  0.9295686E+02  0.7546771E-02  0.1301860E+00
          3   -1    0    0  502    0 -0.00000000000E+00  0.00000000000E+00  0.24390065549E+03  0.24390065549E+03  0.00000000000E+00 0. -1.
         21   -1    0    0  501  502  0.00000000000E+00 -0.00000000000E+00 -0.79544963260E+02  0.79544963260E+02  0.00000000000E+00 0. -1.
         23    2    1    2    0    0 -0.11473521121E+02  0.23249386626E+02  0.13874432909E+03  0.16753162107E+03  0.90247878314E+02 0.  0.
        -24    2    1    2    0    0  0.33187890482E+02  0.14390180454E+02 -0.22823563391E+02  0.90843321063E+02  0.80144123725E+02 0.  0.
         11    1    4    4    0    0  0.55806018820E+02 -0.23049183636E+00 -0.41537093629E+00  0.55808040604E+02  0.00000000000E+00 0. -1.
        -12    1    4    4    0    0 -0.22618128338E+02  0.14620672290E+02 -0.22408192454E+02  0.35035280458E+02  0.00000000000E+00 0.  1.
        -11    1    3    3    0    0 -0.43701566754E+02  0.48995941395E+01  0.31602854840E+02  0.54153239917E+02  0.00000000000E+00 0.  1.
         11    1    3    3    0    0  0.32228045634E+02  0.18349792486E+02  0.10714147425E+03  0.11337838116E+03  0.00000000000E+00 0. -1.
          4    1    1    2  501    0 -0.21714369362E+02 -0.37639567079E+02  0.48434926533E+02  0.65070676614E+02  0.00000000000E+00 0. -1.
<scales pt_clust_5="13000.00000" pt_clust_6="13000.00000" pt_clust_7="13000.00000" pt_clust_8="13000.00000" pt_clust_9="43.45403"></scales>
<clustering>
<clus scale="   43.454">  2  9  1 -1</clus>
<clus scale="   80.144">  5  6 -1 -1</clus>
<clus scale="   83.183">  2  5  1 -1</clus>
<clus scale="   90.248">  7  8 -1 -1</clus>
<clus scale="   43.454">  2  5  1 -1</clus>
</clustering>
</event>
<event>
 9    1  0.6014990E-005  0.3386440E+03  0.7546771E-02  0.1121532E+00
         21   -1    0    0  501  502  0.00000000000E+00  0.00000000000E+00  0.14953852032E+04  0.14953852032E+04  0.00000000000E+00 0. -1.
          1   -1    0    0  502    0 -0.00000000000E+00 -0.00000000000E+00 -0.14579672644E+03  0.14579672644E+03  0.00000000000E+00 0. -1.
        -24    2    1    2    0    0 -0.19084713240E+02 -0.19689182860E+02  0.87503591063E+02  0.11978284615E+03  0.77065956052E+02 0.  0.
         23    2    1    2    0    0 -0.12273432743E+03  0.30347191975E+03  0.11256217713E+04  0.11760478656E+04  0.94367839513E+02 0.  0.
         11    1    3    3    0    0 -0.11319039997E+02  0.23437137720E+02  0.52011621544E+01  0.26541894784E+02  0.00000000000E+00 0. -1.
        -12    1    3    3    0    0 -0.77656732439E+01 -0.43126320580E+02  0.82302428909E+02  0.93240951368E+02  0.00000000000E+00 0.  1.
        -13    1    4    4    0    0  0.52438816305E+01  0.59205174332E+02  0.29236333960E+03  0.29834388431E+03  0.00000000000E+00 0.  1.
         13    1    4    4    0    0 -0.12797820907E+03  0.24426674542E+03  0.83325843166E+03  0.87770398134E+03  0.00000000000E+00 0. -1.
          2    1    1    2  501    0  0.14181904068E+03 -0.28378273689E+03  0.13646311440E+03  0.34535121782E+03  0.00000000000E+00 0. -1.
<scales pt_clust_5="13000.00000" pt_clust_6="13000.00000" pt_clust_7="13000.00000" pt_clust_8="13000.00000" pt_clust_9="325.23009"></scales>
<clustering>
<clus scale="   77.066">  5  6 -1 -1</clus>
<clus scale="   81.799">  2  5  1 -1</clus>
<clus scale="   94.368">  7  8 -1 -1</clus>
<clus scale="  325.230">  1  9  2 -1</clus>
<clus scale="  325.230">  1  5  2 -1</clus>
</clustering>
</event>
<event>
 9    1  0.6014990E-005  0.2626285E+03  0.7546771E-02  0.1105905E+00
          1   -1    0    0  502    0 -0.00000000000E+00  0.00000000000E+00  0.10675746380E+03  0.10675746380E+03  0.00000000000E+00 0. -1.
         21   -1    0    0  501  502  0.00000000000E+00 -0.00000000000E+00 -0.81710193868E+03  0.81710193868E+03  0.00000000000E+00 0.  1.
         23    2    1    2    0    0 -0.25173707455E+03 -0.89975481296E+02 -0.26847147638E+03  0.38978813374E+03  0.91600838640E+02 0.  0.
        -24    2    1    2    0    0  0.21093160634E+03  0.55927502929E+02 -0.40979646494E+03  0.47199667593E+03  0.85015829539E+02 0.  0.
         13    1    4    4    0    0  0.11646162760E+03  0.14070241827E+02 -0.13742576518E+03  0.18068514976E+03  0.00000000000E+00 0. -1.
        -14    1    4    4    0    0  0.94469978739E+02  0.41857261102E+02 -0.27237069976E+03  0.29131152617E+03  0.00000000000E+00 0.  1.
        -11    1    3    3    0    0 -0.39735442977E+02  0.90367120379E+01 -0.78302267436E+02  0.88271244914E+02  0.00000000000E+00 0.  1.
         11    1    3    3    0    0 -0.21200163158E+03 -0.99012193334E+02 -0.19016920894E+03  0.30151688883E+03  0.00000000000E+00 0. -1.
          2    1    1    2  501    0  0.40805468213E+02  0.34047978367E+02 -0.32076533560E+02  0.62074592807E+02  0.00000000000E+00 0. -1.
<scales pt_clust_5="13000.00000" pt_clust_6="13000.00000" pt_clust_7="13000.00000" pt_clust_8="13000.00000" pt_clust_9="53.14465"></scales>
<clustering>
<clus scale="   53.145">  2  9  1 -1</clus>
<clus scale="   85.016">  5  6 -1 -1</clus>
<clus scale="   91.601">  7  8 -1 -1</clus>
<clus scale="  260.405">  2  5  1 -1</clus>
<clus scale="   53.145">  2  5  1 -1</clus>
</clustering>
</event>
<event>
 9    1  0.6014990E-005  0.1073569E+03  0.7546771E-02  0.1269969E+00
          3   -1    0    0  502    0 -0.00000000000E+00  0.00000000000E+00  0.58211783926E+02  0.58211783926E+02  0.00000000000E+00 0. -1.
         21   -1    0    0  501  502  0.00000000000E+00 -0.00000000000E+00 -0.49993939546E+03  0.49993939546E+03  0.00000000000E+00 0. -1.
        -24    2    1    2    0    0 -0.66825066258E+02  0.32566316191E+01 -0.55293519687E+02  0.11842388720E+03  0.80564561746E+02 0.  0.
         23    2    1    2    0    0  0.14656486246E+02  0.47477882353E+02 -0.33472436667E+03  0.35045553111E+03  0.91157642261E+02 0.  0.
         13    1    3    3    0    0 -0.33854426787E+02 -0.38573230396E+02 -0.30178306877E+02  0.59537773911E+02  0.00000000000E+00 0. -1.
        -14    1    3    3    0    0 -0.32970639471E+02  0.41829862015E+02 -0.25115212809E+02  0.58886113285E+02  0.00000000000E+00 0.  1.
        -11    1    4    4    0    0  0.39233801167E+02 -0.50412074877E+01 -0.19851052739E+03  0.20241327627E+03  0.00000000000E+00 0.  1.
         11    1    4    4    0    0 -0.24577314921E+02  0.52519089840E+02 -0.13621383928E+03  0.14804225483E+03  0.00000000000E+00 0. -1.
          4    1    1    2  501    0  0.52168580012E+02 -0.50734513972E+02 -0.51709725182E+02  0.89271761083E+02  0.00000000000E+00 0. -1.
<scales pt_clust_5="13000.00000" pt_clust_6="13000.00000" pt_clust_7="13000.00000" pt_clust_8="13000.00000" pt_clust_9="72.77058"></scales>
<clustering>
<clus scale="   72.771">  2  9  1 -1</clus>
<clus scale="   80.565">  5  6 -1 -1</clus>
<clus scale="   91.158">  7  8 -1 -1</clus>
<clus scale="   98.521">  1  5  2 -1</clus>
<clus scale="   72.771">  2  5  1 -1</clus>
</clustering>
</event>
<event>
 9    1  0.6014990E-005  0.1011805E+03  0.7546771E-02  0.1283600E+00
          1   -1    0    0  502    0 -0.00000000000E+00  0.00000000000E+00  0.25606230558E+03  0.25606230558E+03  0.00000000000E+00 0. -1.
         21   -1    0    0  501  502  0.00000000000E+00 -0.00000000000E+00 -0.15363480720E+03  0.15363480720E+03  0.00000000000E+00 0. -1.
         23    2    1    2    0    0 -0.12758588779E+02  0.37769498918E+02  0.21189743965E+03  0.23439028580E+03  0.91918249060E+02 0.  0.
        -24    2    1    2    0    0  0.38945784818E+02 -0.52697787903E+02 -0.67471074527E+02  0.12361032946E+03  0.80208083429E+02 0.  0.
         13    1    4    4    0    0  0.44062423062E+02 -0.60868533400E+02 -0.23702600685E+02  0.78792694861E+02  0.00000000000E+00 0. -1.
        -14    1    4    4    0    0 -0.51166382433E+01  0.81707454962E+01 -0.43768473842E+02  0.44817634603E+02  0.00000000000E+00 0.  1.
        -11    1    3    3    0    0 -0.16403139333E+02  0.58793973384E+02  0.20171349472E+03  0.21074659722E+03  0.00000000000E+00 0. -1.
         11    1    3    3    0    0  0.36445505540E+01 -0.21024474467E+02  0.10183944928E+02  0.23643688579E+02  0.00000000000E+00 0.  1.
          2    1    1    2  501    0 -0.26187196040E+02  0.14928288986E+02 -0.41998866742E+02  0.51696497522E+02  0.00000000000E+00 0. -1.
<scales pt_clust_5="13000.00000" pt_clust_6="13000.00000" pt_clust_7="13000.00000" pt_clust_8="13000.00000" pt_clust_9="30.14337"></scales>
<clustering>
<clus scale="   30.143">  2  9  1 -1</clus>
<clus scale="   80.208">  5  6 -1 -1</clus>
<clus scale="   90.675">  2  5  1 -1</clus>
<clus scale="   91.918">  7  8 -1 -1</clus>
<clus scale="   30.143">  2  5  1 -1</clus>
</clustering>
</event>
<event>
 9    1  0.6014990E-005  0.9576893E+02  0.7546771E-02  0.1293497E+00
          1   -1    0    0  502    0 -0.00000000000E+00  0.00000000000E+00  0.15979715317E+03  0.15979715317E+03  0.00000000000E+00 0. -1.
         21   -1    0    0  501  502  0.00000000000E+00 -0.00000000000E+00 -0.15956363363E+03  0.15956363363E+03  0.00000000000E+00 0. -1.
        -24    2    1    2    0    0 -0.35397326620E+02 -0.77419489517E+01  0.76593965634E+02  0.11949940795E+03  0.84264846896E+02 0.  0.
         23    2    1    2    0    0  0.92063121786E+00 -0.55557869337E+02 -0.21441816824E+02  0.10924369095E+03  0.91580063859E+02 0.  0.
         13    1    3    3    0    0 -0.21279084077E+02  0.36117979336E+02  0.19787380713E+02  0.46355671562E+02  0.00000000000E+00 0. -1.
        -14    1    3    3    0    0 -0.14118242543E+02 -0.43859928287E+02  0.56806584920E+02  0.73143736384E+02  0.00000000000E+00 0.  1.
        -11    1    4    4    0    0 -0.22770364673E+02 -0.74822029545E+01 -0.44776783723E+02  0.50788120944E+02  0.00000000000E+00 0.  1.
         11    1    4    4    0    0  0.23690995891E+02 -0.48075666383E+02  0.23334966900E+02  0.58455570005E+02  0.00000000000E+00 0. -1.
          2    1    1    2  501    0  0.34476695402E+02  0.63299818289E+02 -0.54918629272E+02  0.90617687911E+02  0.00000000000E+00 0. -1.
<scales pt_clust_5="13000.00000" pt_clust_6="13000.00000" pt_clust_7="13000.00000" pt_clust_8="13000.00000" pt_clust_9="72.07988"></scales>
<clustering>
<clus scale="   72.080">  2  9  1 -1</clus>
<clus scale="   84.265">  5  6 -1 -1</clus>
<clus scale="   88.799">  1  5  2 -1</clus>
<clus scale="   91.580">  7  8 -1 -1</clus>
<clus scale="   72.080">  2  5  1 -1</clus>
</clustering>
</event>
<event>
 9    1  0.6014990E-005  0.2948123E+03  0.7546771E-02  0.1121364E+00
          1   -1    0    0  502    0 -0.00000000000E+00  0.00000000000E+00  0.26273870969E+03  0.26273870969E+03  0.00000000000E+00 0. -1.
         21   -1    0    0  501  502  0.00000000000E+00 -0.00000000000E+00 -0.69743787311E+03  0.69743787311E+03  0.00000000000E+00 0. -1.
        -24    2    1    2    0    0  0.50274880765E+02  0.79995384571E+02  0.74410642127E+02  0.14504124547E+03  0.81075236887E+02 0.  0.
         23    2    1    2    0    0 -0.29391925959E+03 -0.47143112662E+02 -0.47290055005E+03  0.56663389812E+03  0.93957650256E+02 0.  0.
         13    1    3    3    0    0  0.16962498322E+02  0.88505914476E+02  0.53908099240E+02  0.10501003005E+03  0.00000000000E+00 0. -1.
        -14    1    3    3    0    0  0.33312382443E+02 -0.85105299049E+01  0.20502542887E+02  0.40031215422E+02  0.00000000000E+00 0.  1.
        -11    1    4    4    0    0 -0.11333962151E+02  0.17358210162E+02 -0.47989410037E+02  0.52275707874E+02  0.00000000000E+00 0.  1.
         11    1    4    4    0    0 -0.28258529744E+03 -0.64501322823E+02 -0.42491114001E+03  0.51435819025E+03  0.00000000000E+00 0. -1.
          2    1    1    2  501    0  0.24364437882E+03 -0.32852271909E+02 -0.36209255503E+02  0.24850143920E+03  0.00000000000E+00 0. -1.
<scales pt_clust_5="13000.00000" pt_clust_6="13000.00000" pt_clust_7="13000.00000" pt_clust_8="13000.00000" pt_clust_9="279.43932"></scales>
<clustering>
<clus scale="   81.075">  5  6 -1 -1</clus>
<clus scale="   93.958">  7  8 -1 -1</clus>
<clus scale="  124.499">  1  5  2 -1</clus>
<clus scale="  279.439">  2  9  1 -1</clus>
<clus scale="  279.439">  2  5  1 -1</clus>
</clustering>
</event>
<event>
 9    1  0.6014990E-005  0.9625748E+02  0.7546771E-02  0.1294796E+00
          1   -1    0    0  502    0 -0.00000000000E+00  0.00000000000E+00  0.81466487249E+03  0.81466487249E+03  0.00000000000E+00 0. -1.
         21   -1    0    0  501  502  0.00000000000E+00 -0.00000000000E+00 -0.20772404124E+02  0.20772404124E+02  0.00000000000E+00 0.  1.
        -24    2    1    2    0    0  0.28373075813E+01 -0.19709786676E+02  0.28988008003E+03  0.30125623664E+03  0.79550822170E+02 0.  0.
         23    2    1    2    0    0  0.81393825457E+01  0.58226195772E+02  0.19975691005E+03  0.22730093707E+03  0.91139198249E+02 0.  0.
         11    1    3    3    0    0  0.30801848710E+02  0.13981120786E+02  0.17656815329E+03  0.17977913778E+03  0.00000000000E+00 0. -1.
        -12    1    3    3    0    0 -0.27964541128E+02 -0.33690907462E+02  0.11331192674E+03  0.12147709886E+03  0.00000000000E+00 0.  1.
        -13    1    4    4    0    0 -0.23085002053E+01  0.82204038832E+02  0.14812007048E+03  0.16941779261E+03  0.00000000000E+00 0.  1.
         13    1    4    4    0    0  0.10447882751E+02 -0.23977843060E+02  0.51636839575E+02  0.57883144465E+02  0.00000000000E+00 0. -1.
          2    1    1    2  501    0 -0.10976690127E+02 -0.38516409096E+02  0.30425547829E+03  0.30688010291E+03  0.00000000000E+00 0. -1.
<scales pt_clust_5="13000.00000" pt_clust_6="13000.00000" pt_clust_7="13000.00000" pt_clust_8="13000.00000" pt_clust_9="40.05001"></scales>
<clustering>
<clus scale="   40.050">  2  9  1 -1</clus>
<clus scale="   79.551">  5  6 -1 -1</clus>
<clus scale="   85.367">  1  5  2 -1</clus>
<clus scale="   91.139">  7  8 -1 -1</clus>
<clus scale="   40.050">  2  5  1 -1</clus>
</clustering>
</event>
<event>
 9    1  0.6014990E-005  0.2352702E+03  0.7546771E-02  0.1122984E+00
         21   -1    0    0  501  502  0.00000000000E+00  0.00000000000E+00  0.38852559467E+03  0.38852559467E+03  0.00000000000E+00 0. -1.
         -2   -1    0    0    0  501 -0.00000000000E+00 -0.00000000000E+00 -0.11912358988E+03  0.11912358988E+03  0.00000000000E+00 0.  1.
        -24    2    1    2    0    0  0.39310203149E+02  0.70013493297E+02  0.21455040824E+02  0.11622461118E+03  0.81244446893E+02 0.  0.
         23    2    1    2    0    0 -0.26010974264E+02  0.75720168185E+02  0.23218885246E+02  0.12324948329E+03  0.90781076481E+02 0.  0.
         13    1    3    3    0    0  0.39396612991E+02  0.84336639910E+02  0.33581765712E+01  0.93145259119E+02  0.00000000000E+00 0. -1.
        -14    1    3    3    0    0 -0.86409841635E-01 -0.14323146613E+02  0.18096864253E+02  0.23079352057E+02  0.00000000000E+00 0.  1.
        -13    1    4    4    0    0 -0.41294921841E+02  0.55826508956E+02 -0.20882776368E+02  0.72511792289E+02  0.00000000000E+00 0. -1.
         13    1    4    4    0    0  0.15283947578E+02  0.19893659228E+02  0.44101661614E+02  0.50737691001E+02  0.00000000000E+00 0.  1.
         -1    1    1    2    0  502 -0.13299228886E+02 -0.14573366148E+03  0.22472807872E+03  0.26817509009E+03  0.00000000000E+00 0.  1.
<scales pt_clust_5="13000.00000" pt_clust_6="13000.00000" pt_clust_7="13000.00000" pt_clust_8="13000.00000" pt_clust_9="146.33923"></scales>
<clustering>
<clus scale="   81.244">  5  6 -1 -1</clus>
<clus scale="   90.781">  7  8 -1 -1</clus>
<clus scale="  111.949">  5  7 -1 -1</clus>
<clus scale="  146.339">  1  9  2 -1</clus>
<clus scale="  146.339">  1  5  2 -1</clus>
</clustering>
</event>
<event>
 9    1  0.6014990E-005  0.1115220E+03  0.7546771E-02  0.1260791E+00
          1   -1    0    0  502    0 -0.00000000000E+00  0.00000000000E+00  0.15056883748E+03  0.15056883748E+03  0.00000000000E+00 0. -1.
         21   -1    0    0  501  502  0.00000000000E+00 -0.00000000000E+00 -0.20286435015E+03  0.20286435015E+03  0.00000000000E+00 0.  1.
         23    2    1    2    0    0 -0.53442279214E+02  0.49284569093E+02  0.96783010647E+02  0.15042937809E+03  0.89314056477E+02 0.  0.
        -24    2    1    2    0    0  0.27633020411E+02 -0.20117580261E+02 -0.13580815739E+03  0.16185853412E+03  0.81154350486E+02 0.  0.
         11    1    4    4    0    0  0.33853112161E+02  0.24436528248E+02 -0.79403468392E+02  0.89711135922E+02  0.00000000000E+00 0. -1.
        -12    1    4    4    0    0 -0.62200917504E+01 -0.44554108509E+02 -0.56404688996E+02  0.72147398201E+02  0.00000000000E+00 0.  1.
        -13    1    3    3    0    0 -0.44377679333E+02 -0.14589328498E+02  0.21913308175E+02  0.51598643433E+02  0.00000000000E+00 0.  1.
         13    1    3    3    0    0 -0.90645998813E+01  0.63873897591E+02  0.74869702473E+02  0.98830734657E+02  0.00000000000E+00 0. -1.
          2    1    1    2  501    0  0.25809258804E+02 -0.29166988832E+02 -0.13270365929E+02  0.41145275420E+02  0.00000000000E+00 0. -1.
<scales pt_clust_5="13000.00000" pt_clust_6="13000.00000" pt_clust_7="13000.00000" pt_clust_8="13000.00000" pt_clust_9="38.94652"></scales>
<clustering>
<clus scale="   38.947">  2  9  1 -1</clus>
<clus scale="   81.154">  5  6 -1 -1</clus>
<clus scale="   89.314">  7  8 -1 -1</clus>
<clus scale="  105.101">  2  5  1 -1</clus>
<clus scale="   38.947">  2  5  1 -1</clus>
</clustering>
</event>
<event>
 9    1  0.6014990E-005  0.1014003E+03  0.7546771E-02  0.1284684E+00
         -4   -1    0    0    0  501 -0.00000000000E+00  0.00000000000E+00  0.42035049601E+03  0.42035049601E+03  0.00000000000E+00 0.  1.
         21   -1    0    0  501  502  0.00000000000E+00 -0.00000000000E+00 -0.79980366563E+02  0.79980366563E+02  0.00000000000E+00 0. -1.
         23    2    1    2    0    0 -0.19736964763E+02  0.29734544885E+02  0.36451536099E+03  0.37849777376E+03  0.95474737036E+02 0.  0.
        -24    2    1    2    0    0 -0.50288376146E+01 -0.26491860827E+02 -0.37423965499E+02  0.93545551927E+02  0.81382487022E+02 0.  0.
         13    1    4    4    0    0 -0.20968344488E+01 -0.46615124297E+02 -0.50975884626E+02  0.69107939784E+02  0.00000000000E+00 0. -1.
        -14    1    4    4    0    0 -0.29320031658E+01  0.20123263469E+02  0.13551919126E+02  0.24437612143E+02  0.00000000000E+00 0.  1.
        -13    1    3    3    0    0  0.11912089974E+02  0.56078290129E+02  0.16217710072E+03  0.17201187316E+03  0.00000000000E+00 0.  1.
         13    1    3    3    0    0 -0.31649054736E+02 -0.26343745244E+02  0.20233826027E+03  0.20648590060E+03  0.00000000000E+00 0. -1.
         -3    1    1    2    0  502  0.24765802378E+02 -0.32426840578E+01  0.13278733961E+02  0.28287536883E+02  0.00000000000E+00 0.  1.
<scales pt_clust_5="13000.00000" pt_clust_6="13000.00000" pt_clust_7="13000.00000" pt_clust_8="13000.00000" pt_clust_9="24.97719"></scales>
<clustering>
<clus scale="   24.977">  2  9  1 -1</clus>
<clus scale="   81.382">  5  6 -1 -1</clus>
<clus scale="   88.259">  2  5  1 -1</clus>
<clus scale="   95.475">  7  8 -1 -1</clus>
<clus scale="   24.977">  2  5  1 -1</clus>
</clustering>
</event>
<event>
 9    1  0.6014990E-005  0.9357437E+02  0.7546771E-02  0.1295472E+00
          1   -1    0    0  502    0 -0.00000000000E+00  0.00000000000E+00  0.35349614095E+03  0.35349614095E+03  0.00000000000E+00 0. -1.
         21   -1    0    0  501  502  0.00000000000E+00 -0.00000000000E+00 -0.63220121344E+02  0.63220121344E+02  0.00000000000E+00 0. -1.
         23    2    1    2    0    0  0.23103593199E+02  0.18875753975E+02  0.12934379219E+03  0.16176678411E+03  0.92458670521E+02 0.  0.
        -24    2    1    2    0    0  0.17566226421E+02  0.63380575952E+02  0.76992725091E+02  0.13058719254E+03  0.82458871080E+02 0.  0.
         13    1    4    4    0    0 -0.26913538273E+02  0.37598848693E+02  0.61399507308E+02  0.76862939464E+02  0.00000000000E+00 0. -1.
        -14    1    4    4    0    0  0.44479764694E+02  0.25781727259E+02  0.15593217783E+02  0.53724253076E+02  0.00000000000E+00 0.  1.
        -11    1    3    3    0    0 -0.26040044384E+02  0.33710080755E+01  0.44132703036E+01  0.26625637302E+02  0.00000000000E+00 0.  1.
         11    1    3    3    0    0  0.49143637583E+02  0.15504745900E+02  0.12493052189E+03  0.13514114680E+03  0.00000000000E+00 0. -1.
          2    1    1    2  501    0 -0.40669819620E+02 -0.82256329927E+02  0.83939502322E+02  0.12436228565E+03  0.00000000000E+00 0. -1.
<scales pt_clust_5="13000.00000" pt_clust_6="13000.00000" pt_clust_7="13000.00000" pt_clust_8="13000.00000" pt_clust_9="91.76131"></scales>
<clustering>
<clus scale="   82.459">  5  6 -1 -1</clus>
<clus scale="   91.761">  2  9  1 -1</clus>
<clus scale="   91.761">  2  5  1 -1</clus>
<clus scale="   92.459">  7  8 -1 -1</clus>
<clus scale="   91.761">  2  5  1 -1</clus>
</clustering>
</event>
<event>
 9    1  0.6014990E-005  0.1434674E+03  0.7546771E-02  0.1224948E+00
         -2   -1    0    0    0  501 -0.00000000000E+00  0.00000000000E+00  0.30129707881E+03  0.30129707881E+03  0.00000000000E+00 0.  1.
         21   -1    0    0  501  502  0.00000000000E+00 -0.00000000000E+00 -0.13085367682E+03  0.13085367682E+03  0.00000000000E+00 0.  1.
        -24    2    1    2    0    0  0.48408448783E+02 -0.35514802700E+02  0.13062066669E+03  0.16566251262E+03  0.82326365136E+02 0.  0.
         23    2    1    2    0    0  0.18351071410E+02  0.12090104782E+03  0.30794015564E+01  0.15204298550E+03  0.90298181266E+02 0.  0.
         11    1    3    3    0    0  0.96184570769E+01  0.26558245539E+02  0.29641588583E+02  0.40944827468E+02  0.00000000000E+00 0. -1.
        -12    1    3    3    0    0  0.38789991706E+02 -0.62073048239E+02  0.10097907810E+03  0.12471768515E+03  0.00000000000E+00 0.  1.
        -13    1    4    4    0    0  0.24786553598E+02  0.10002586398E+03  0.38848792295E+02  0.11013071946E+03  0.00000000000E+00 0.  1.
         13    1    4    4    0    0 -0.64354821884E+01  0.20875183835E+02 -0.35769390738E+02  0.41912266044E+02  0.00000000000E+00 0. -1.
         -1    1    1    2    0  502 -0.66759520193E+02 -0.85386245119E+02  0.36743333744E+02  0.11444525751E+03  0.00000000000E+00 0.  1.
<scales pt_clust_5="13000.00000" pt_clust_6="13000.00000" pt_clust_7="13000.00000" pt_clust_8="13000.00000" pt_clust_9="111.48605"></scales>
<clustering>
<clus scale="   82.326">  5  6 -1 -1</clus>
<clus scale="   90.298">  7  8 -1 -1</clus>
<clus scale="  101.894">  1  5  2 -1</clus>
<clus scale="  111.486">  2  9  1 -1</clus>
<clus scale="  111.486">  2  5  1 -1</clus>
</clustering>
</event>
<event>
 9    1  0.6014990E-005  0.1011879E+03  0.7546771E-02  0.1280753E+00
         -4   -1    0    0    0  501 -0.00000000000E+00  0.00000000000E+00  0.19561245021E+03  0.19561245021E+03  0.00000000000E+00 0.  1.
         21   -1    0    0  501  502  0.00000000000E+00 -0.00000000000E+00 -0.39273685260E+03  0.39273685260E+03  0.00000000000E+00 0.  1.
        -24    2    1    2    0    0 -0.37999801819E+02 -0.17910425459E+02  0.15596424902E+03  0.18307634413E+03  0.86181973341E+02 0.  0.
         23    2    1    2    0    0  0.47481055769E+02 -0.15136427319E+02 -0.84973373394E+02  0.13496241327E+03  0.92254087834E+02 0.  0.
         13    1    3    3    0    0 -0.42472759812E+02 -0.26227443906E+02  0.33202294296E+02  0.59951701280E+02  0.00000000000E+00 0. -1.
        -14    1    3    3    0    0  0.44729579930E+01  0.83170184470E+01  0.12276195472E+03  0.12312464285E+03  0.00000000000E+00 0.  1.
        -11    1    4    4    0    0  0.20236308793E+02  0.29468997902E+02 -0.65032339896E+00  0.35754062027E+02  0.00000000000E+00 0.  1.
         11    1    4    4    0    0  0.27244746976E+02 -0.44605425221E+02 -0.84323049995E+02  0.99208351248E+02  0.00000000000E+00 0. -1.
         -3    1    1    2    0  502 -0.94812539495E+01  0.33046852778E+02 -0.26811527801E+03  0.27031054540E+03  0.00000000000E+00 0.  1.
<scales pt_clust_5="13000.00000" pt_clust_6="13000.00000" pt_clust_7="13000.00000" pt_clust_8="13000.00000" pt_clust_9="34.38006"></scales>
<clustering>
<clus scale="   34.380">  2  9  1 -1</clus>
<clus scale="   86.182">  5  6 -1 -1</clus>
<clus scale="   92.254">  7  8 -1 -1</clus>
<clus scale="   95.684">  1  5  2 -1</clus>
<clus scale="   34.380">  2  5  1 -1</clus>
</clustering>
</event>
<event>
 9    1  0.6014990E-005  0.9868385E+02  0.7546771E-02  0.1289057E+00
         -2   -1    0    0    0  501 -0.00000000000E+00  0.00000000000E+00  0.31637091291E+02  0.31637091291E+02  0.00000000000E+00 0.  1.
         21   -1    0    0  501  502  0.00000000000E+00 -0.00000000000E+00 -0.36761106600E+03  0.36761106600E+03  0.00000000000E+00 0. -1.
        -24    2    1    2    0    0  0.32681734045E+02  0.32141974834E+02 -0.11208812789E+03  0.14527180373E+03  0.80243044932E+02 0.  0.
         23    2    1    2    0    0 -0.12938651683E+02 -0.21110255189E+02 -0.15816051114E+03  0.18446874326E+03  0.91656523899E+02 0.  0.
         13    1    3    3    0    0  0.82350376306E+01  0.20561016969E+02 -0.11586085652E+03  0.11795893072E+03  0.00000000000E+00 0. -1.
        -14    1    3    3    0    0  0.24446696415E+02  0.11580957865E+02  0.37727286334E+01  0.27312873009E+02  0.00000000000E+00 0.  1.
        -13    1    4    4    0    0  0.10305548116E+02 -0.35555296704E+02 -0.17098808796E+02  0.40776864861E+02  0.00000000000E+00 0.  1.
         13    1    4    4    0    0 -0.23244199799E+02  0.14445041515E+02 -0.14106170234E+03  0.14369187839E+03  0.00000000000E+00 0. -1.
         -1    1    1    2    0  502 -0.19743082363E+02 -0.11031719644E+02 -0.65725335681E+02  0.69507610302E+02  0.00000000000E+00 0.  1.
<scales pt_clust_5="13000.00000" pt_clust_6="13000.00000" pt_clust_7="13000.00000" pt_clust_8="13000.00000" pt_clust_9="22.61610"></scales>
<clustering>
<clus scale="   22.616">  2  9  1 -1</clus>
<clus scale="   80.243">  5  6 -1 -1</clus>
<clus scale="   88.185">  1  5  2 -1</clus>
<clus scale="   91.657">  7  8 -1 -1</clus>
<clus scale="   22.616">  2  5  1 -1</clus>
</clustering>
</event>
<event>
 9    1  0.6014990E-005  0.1423076E+03  0.7546771E-02  0.1211684E+00
         21   -1    0    0  501  502  0.00000000000E+00  0.00000000000E+00  0.86701634600E+02  0.86701634600E+02  0.00000000000E+00 0. -1.
          1   -1    0    0  502    0 -0.00000000000E+00 -0.00000000000E+00 -0.79593679709E+03  0.79593679709E+03  0.00000000000E+00 0. -1.
        -24    2    1    2    0    0 -0.11766295266E+03 -0.76490419918E+02 -0.21127962322E+03  0.26619290132E+03  0.80772685689E+02 0.  0.
         23    2    1    2    0    0  0.77957310646E+02 -0.26992601984E+02 -0.15608711457E+02  0.12152762190E+03  0.87860048750E+02 0.  0.
         13    1    3    3    0    0 -0.16480998641E+02 -0.50877694344E+02 -0.45118588992E+02  0.69970352082E+02  0.00000000000E+00 0. -1.
        -14    1    3    3    0    0 -0.10118195402E+03 -0.25612725574E+02 -0.16616103423E+03  0.19622254923E+03  0.00000000000E+00 0.  1.
        -11    1    4    4    0    0  0.55140777461E+02 -0.49290350262E+02  0.17021353334E+02  0.75893151452E+02  0.00000000000E+00 0. -1.
         11    1    4    4    0    0  0.22816533185E+02  0.22297748278E+02 -0.32630064791E+02  0.45634470449E+02  0.00000000000E+00 0.  1.
          2    1    1    2  501    0  0.39705642015E+02  0.10348302190E+03 -0.48234682781E+03  0.49491790847E+03  0.00000000000E+00 0. -1.
<scales pt_clust_5="13000.00000" pt_clust_6="13000.00000" pt_clust_7="13000.00000" pt_clust_8="13000.00000" pt_clust_9="110.83901"></scales>
<clustering>
<clus scale="   80.773">  5  6 -1 -1</clus>
<clus scale="   87.860">  7  8 -1 -1</clus>
<clus scale="  110.839">  1  9  2 -1</clus>
<clus scale="  138.045">  2  5  1 -1</clus>
<clus scale="  110.839">  1  5  2 -1</clus>
</clustering>
</event>
<event>
 9    1  0.6014990E-005  0.1073540E+03  0.7546771E-02  0.1266180E+00
          1   -1    0    0  502    0 -0.00000000000E+00  0.00000000000E+00  0.98451404847E+03  0.98451404847E+03  0.00000000000E+00 0. -1.
         21   -1    0    0  501  502  0.00000000000E+00 -0.00000000000E+00 -0.68219276102E+02  0.68219276102E+02  0.00000000000E+00 0. -1.
         23    2    1    2    0    0 -0.52904285080E+02 -0.20288039292E+02  0.50188282033E+03  0.51322114185E+03  0.91099435700E+02 0.  0.
        -24    2    1    2    0    0  0.55552459443E+02 -0.34892323831E+02  0.45628688696E+03  0.47019122286E+03  0.92620261438E+02 0.  0.
         13    1    4    4    0    0 -0.38261182882E+01 -0.50501828528E+02  0.24418802698E+03  0.24938497626E+03  0.00000000000E+00 0. -1.
        -14    1    4    4    0    0  0.59378577731E+02  0.15609504697E+02  0.21209885998E+03  0.22080624660E+03  0.00000000000E+00 0.  1.
        -13    1    3    3    0    0  0.24063955785E+02 -0.45504571828E+00  0.68381967548E+02  0.72493961958E+02  0.00000000000E+00 0.  1.
         13    1    3    3    0    0 -0.76968240865E+02 -0.19832993574E+02  0.43350085278E+03  0.44072717990E+03  0.00000000000E+00 0. -1.
          2    1    1    2  501    0 -0.26481743630E+01  0.55180363123E+02 -0.41874934920E+02  0.69320959863E+02  0.00000000000E+00 0. -1.
<scales pt_clust_5="13000.00000" pt_clust_6="13000.00000" pt_clust_7="13000.00000" pt_clust_8="13000.00000" pt_clust_9="55.24387"></scales>
<clustering>
<clus scale="   55.244">  2  9  1 -1</clus>
<clus scale="   91.099">  7  8 -1 -1</clus>
<clus scale="   92.620">  5  6 -1 -1</clus>
<clus scale="  106.045">  1  7  2 -1</clus>
<clus scale="   55.244">  2  5  1 -1</clus>
</clustering>
</event>
<event>
 9    1  0.6014990E-005  0.1265248E+03  0.7546771E-02  0.1249017E+00
          1   -1    0    0  502    0 -0.00000000000E+00  0.00000000000E+00  0.59529728134E+03  0.59529728134E+03  0.00000000000E+00 0. -1.
         21   -1    0    0  501  502  0.00000000000E+00 -0.00000000000E+00 -0.47505047173E+02  0.47505047173E+02  0.00000000000E+00 0. -1.
         23    2    1    2    0    0 -0.52613549972E+01  0.85310364524E+01  0.27688684053E+03  0.29142168958E+03  0.90331712364E+02 0.  0.
        -24    2    1    2    0    0 -0.74464835850E+02  0.49569760980E+02  0.17760621989E+03  0.21559881397E+03  0.83286891280E+02 0.  0.
         13    1    4    4    0    0 -0.69435759438E+02  0.53625186269E+02  0.18561775670E+03  0.20530693338E+03  0.00000000000E+00 0. -1.
        -14    1    4    4    0    0 -0.50290764128E+01 -0.40554252897E+01 -0.80115368147E+01  0.10291880585E+02  0.00000000000E+00 0.  1.
        -13    1    3    3    0    0  0.36539050288E+02  0.20679209500E+02  0.86886597415E+02  0.96498770520E+02  0.00000000000E+00 0.  1.
         13    1    3    3    0    0 -0.41800405285E+02 -0.12148173047E+02  0.19000024312E+03  0.19492291906E+03  0.00000000000E+00 0. -1.
          2    1    1    2  501    0  0.79726190848E+02 -0.58100797432E+02  0.93299173748E+02  0.13578182497E+03  0.00000000000E+00 0. -1.
<scales pt_clust_5="13000.00000" pt_clust_6="13000.00000" pt_clust_7="13000.00000" pt_clust_8="13000.00000" pt_clust_9="95.24607"></scales>
<clustering>
<clus scale="   83.287">  5  6 -1 -1</clus>
<clus scale="   90.332">  7  8 -1 -1</clus>
<clus scale="   90.886">  1  7  2 -1</clus>
<clus scale="   95.246">  2  9  1 -1</clus>
<clus scale="   95.246">  2  5  1 -1</clus>
</clustering>
</event>
<event>
 9    1  0.6014990E-005  0.9039710E+02  0.7546771E-02  0.1306796E+00
         21   -1    0    0  501  502  0.00000000000E+00  0.00000000000E+00  0.42273758204E+02  0.42273758204E+02  0.00000000000E+00 0. -1.
          1   -1    0    0  502    0 -0.00000000000E+00 -0.00000000000E+00 -0.31564836215E+03  0.31564836215E+03  0.00000000000E+00 0. -1.
        -24    2    1    2    0    0  0.22145906557E+02 -0.16585266233E+02 -0.11452833277E+03  0.14315905614E+03  0.81315829420E+02 0.  0.
         23    2    1    2    0    0 -0.36175912948E+01 -0.27621493916E+02 -0.82680599497E+02  0.12477003309E+03  0.89193305413E+02 0.  0.
         13    1    3    3    0    0  0.47441993515E+02 -0.69494629183E+00 -0.37296342095E+02  0.60350996949E+02  0.00000000000E+00 0. -1.
        -14    1    3    3    0    0 -0.25296086958E+02 -0.15890319941E+02 -0.77231990672E+02  0.82808059188E+02  0.00000000000E+00 0.  1.
        -13    1    4    4    0    0  0.45028889265E+01 -0.59894783820E+02 -0.55932838174E+02  0.82074012475E+02  0.00000000000E+00 0. -1.
         13    1    4    4    0    0 -0.81204802213E+01  0.32273289905E+02 -0.26747761322E+02  0.42696020611E+02  0.00000000000E+00 0.  1.
          2    1    1    2  501    0 -0.18528315263E+02  0.44206760149E+02 -0.76165671681E+02  0.89993031130E+02  0.00000000000E+00 0. -1.
<scales pt_clust_5="13000.00000" pt_clust_6="13000.00000" pt_clust_7="13000.00000" pt_clust_8="13000.00000" pt_clust_9="47.93264"></scales>
<clustering>
<clus scale="   47.933">  1  9  2 -1</clus>
<clus scale="   81.316">  5  6 -1 -1</clus>
<clus scale="   82.634">  2  5  1 -1</clus>
<clus scale="   89.193">  7  8 -1 -1</clus>
<clus scale="   47.933">  1  5  2 -1</clus>
</clustering>
</event>
<event>
 9    1  0.6014990E-005  0.1216087E+03  0.7546771E-02  0.1245774E+00
         21   -1    0    0  501  502  0.00000000000E+00  0.00000000000E+00  0.15652720848E+03  0.15652720848E+03  0.00000000000E+00 0.  1.
         -2   -1    0    0    0  501 -0.00000000000E+00 -0.00000000000E+00 -0.20714519292E+03  0.20714519292E+03  0.00000000000E+00 0.  1.
        -24    2    1    2    0    0 -0.68477507892E+02  0.54256233445E+02 -0.11788226091E+03  0.16760017214E+03  0.80998038908E+02 0.  0.
         23    2    1    2    0    0  0.50194938012E+02  0.15811625080E+02  0.28814448637E+02  0.11408353236E+03  0.97032162788E+02 0.  0.
         11    1    3    3    0    0  0.64187609496E+01  0.42410540980E+02 -0.49429461207E+02  0.65445596594E+02  0.00000000000E+00 0. -1.
        -12    1    3    3    0    0 -0.74896268842E+02  0.11845692465E+02 -0.68452799707E+02  0.10215457554E+03  0.00000000000E+00 0.  1.
        -13    1    4    4    0    0  0.15169074071E+01 -0.35893611986E+02  0.23376741919E+02  0.42861689796E+02  0.00000000000E+00 0. -1.
         13    1    4    4    0    0  0.48678030605E+02  0.51705237065E+02  0.54377067186E+01  0.71221842562E+02  0.00000000000E+00 0.  1.
         -1    1    1    2    0  502  0.18282569880E+02 -0.70067858525E+02  0.38449827840E+02  0.81988696907E+02  0.00000000000E+00 0.  1.
<scales pt_clust_5="13000.00000" pt_clust_6="13000.00000" pt_clust_7="13000.00000" pt_clust_8="13000.00000" pt_clust_9="72.41379"></scales>
<clustering>
<clus scale="   72.414">  1  9  2 -1</clus>
<clus scale="   80.998">  5  6 -1 -1</clus>
<clus scale="   97.032">  7  8 -1 -1</clus>
<clus scale="  109.243">  2  5  1 -1</clus>
<clus scale="   72.414">  1  5  2 -1</clus>
</clustering>
</event>
<event>
 9    1  0.6014990E-005  0.1302145E+03  0.7546771E-02  0.1242043E+00
          1   -1    0    0  502    0 -0.00000000000E+00  0.00000000000E+00  0.17528690920E+03  0.17528690920E+03  0.00000000000E+00 0. -1.
         21   -1    0    0  501  502  0.00000000000E+00 -0.00000000000E+00 -0.26576034198E+03  0.26576034198E+03  0.00000000000E+00 0.  1.
         23    2    1    2    0    0  0.97007003280E+01 -0.17843032991E+02 -0.11036742066E+03  0.14623898317E+03  0.93767772938E+02 0.  0.
        -24    2    1    2    0    0  0.99530812181E+02 -0.49175879381E+01 -0.74818449519E+02  0.14845248579E+03  0.80683176095E+02 0.  0.
         11    1    4    4    0    0  0.44031713316E+02  0.32314974158E+02 -0.10339680056E+02  0.55587393500E+02  0.00000000000E+00 0. -1.
        -12    1    4    4    0    0  0.55499098864E+02 -0.37232562096E+02 -0.64478769462E+02  0.92865092292E+02  0.00000000000E+00 0.  1.
        -13    1    3    3    0    0  0.50026417735E+02  0.33012905353E+01 -0.52308605389E+02  0.72455028731E+02  0.00000000000E+00 0.  1.
         13    1    3    3    0    0 -0.40325717407E+02 -0.21144323526E+02 -0.58058815273E+02  0.73783954439E+02  0.00000000000E+00 0. -1.
          2    1    1    2  501    0 -0.10923151251E+03  0.22760620929E+02  0.94712437403E+02  0.14635578222E+03  0.00000000000E+00 0. -1.
<scales pt_clust_5="13000.00000" pt_clust_6="13000.00000" pt_clust_7="13000.00000" pt_clust_8="13000.00000" pt_clust_9="102.20588"></scales>
<clustering>
<clus scale="   80.683">  5  6 -1 -1</clus>
<clus scale="   93.768">  7  8 -1 -1</clus>
<clus scale="   95.942">  1  7  2 -1</clus>
<clus scale="  102.206">  2  9  1 -1</clus>
<clus scale="  102.206">  2  5  1 -1</clus>
</clustering>
</event>
<event>
 9    1  0.6014990E-005  0.1025039E+03  0.7546771E-02  0.1281134E+00
         21   -1    0    0  501  502  0.00000000000E+00  0.00000000000E+00  0.17983165807E+03  0.17983165807E+03  0.00000000000E+00 0. -1.
          1   -1    0    0  502    0 -0.00000000000E+00 -0.00000000000E+00 -0.16265558790E+03  0.16265558790E+03  0.00000000000E+00 0. -1.
        -24    2    1    2    0    0  0.24094953052E+02  0.14708787158E+02  0.42434690476E+02  0.94449391210E+02  0.79517729859E+02 0.  0.
         23    2    1    2    0    0 -0.73041871500E+02  0.40459457332E+02  0.57693106583E+02  0.13704089526E+03  0.92084905092E+02 0.  0.
         11    1    3    3    0    0  0.42417465910E+02  0.35345497932E+02  0.19465791054E+02  0.58544535694E+02  0.00000000000E+00 0. -1.
        -12    1    3    3    0    0 -0.18322512858E+02 -0.20636710774E+02  0.22968899421E+02  0.35904855516E+02  0.00000000000E+00 0.  1.
        -13    1    4    4    0    0 -0.15418765827E+02  0.48277926388E+02 -0.57193172657E+01  0.51002030410E+02  0.00000000000E+00 0.  1.
         13    1    4    4    0    0 -0.57623105673E+02 -0.78184690557E+01  0.63412423848E+02  0.86038864847E+02  0.00000000000E+00 0. -1.
          2    1    1    2  501    0  0.48946918448E+02 -0.55168244490E+02 -0.82951726882E+02  0.11099695950E+03  0.00000000000E+00 0. -1.
<scales pt_clust_5="13000.00000" pt_clust_6="13000.00000" pt_clust_7="13000.00000" pt_clust_8="13000.00000" pt_clust_9="73.75189"></scales>
<clustering>
<clus scale="   73.752">  1  9  2 -1</clus>
<clus scale="   79.518">  5  6 -1 -1</clus>
<clus scale="   91.381">  2  5  1 -1</clus>
<clus scale="   92.085">  7  8 -1 -1</clus>
<clus scale="   73.752">  1  5  2 -1</clus>
</clustering>
</event>
<event>
 9    1  0.6014990E-005  0.1078394E+03  0.7546771E-02  0.1264671E+00
         21   -1    0    0  501  502  0.00000000000E+00  0.00000000000E+00  0.52543533934E+02  0.52543533934E+02  0.00000000000E+00 0. -1.
          1   -1    0    0  502    0 -0.00000000000E+00 -0.00000000000E+00 -0.39446176599E+03  0.39446176599E+03  0.00000000000E+00 0. -1.
         23    2    1    2    0    0  0.11703954423E+02  0.85948974224E+02 -0.18576932038E+03  0.21925009688E+03  0.77692701494E+02 0.  0.
        -24    2    1    2    0    0 -0.54652491879E+02 -0.46179097644E+02 -0.11578573777E+03  0.15665382641E+03  0.77554370145E+02 0.  0.
         11    1    4    4    0    0 -0.72206840817E+02 -0.49642557041E+02 -0.96125296124E+02  0.13007030363E+03  0.00000000000E+00 0. -1.
        -12    1    4    4    0    0  0.17554348938E+02  0.34634593970E+01 -0.19660441650E+02  0.26583522782E+02  0.00000000000E+00 0.  1.
        -11    1    3    3    0    0 -0.23653002872E+02  0.51605937226E+02 -0.53145957357E+02  0.77763295232E+02  0.00000000000E+00 0.  1.
         11    1    3    3    0    0  0.35356957295E+02  0.34343036998E+02 -0.13262336303E+03  0.14148680164E+03  0.00000000000E+00 0. -1.
          2    1    1    2  501    0  0.42948537456E+02 -0.39769876580E+02 -0.40363173899E+02  0.71101376639E+02  0.00000000000E+00 0. -1.
<scales pt_clust_5="13000.00000" pt_clust_6="13000.00000" pt_clust_7="13000.00000" pt_clust_8="13000.00000" pt_clust_9="58.53392"></scales>
<clustering>
<clus scale="   58.534">  1  9  2 -1</clus>
<clus scale="   77.554">  5  6 -1 -1</clus>
<clus scale="   77.693">  7  8 -1 -1</clus>
<clus scale="  107.740">  1  5  2 -1</clus>
<clus scale="   58.534">  1  5  2 -1</clus>
</clustering>
</event>
<event>
 9    1  0.6014990E-005  0.1350225E+03  0.7546771E-02  0.1230915E+00
         -2   -1    0    0    0  501 -0.00000000000E+00  0.00000000000E+00  0.16788118804E+03  0.16788118804E+03  0.00000000000E+00 0.  1.
         21   -1    0    0  501  502  0.00000000000E+00 -0.00000000000E+00 -0.22326139715E+03  0.22326139715E+03  0.00000000000E+00 0.  1.
        -24    2    1    2    0    0  0.74262705771E+02 -0.62025824455E+01  0.51341733769E+02  0.11959764582E+03  0.78193361373E+02 0.  0.
         23    2    1    2    0    0  0.37354361072E+02 -0.63044913186E+02 -0.51065213749E+02  0.12888710832E+03  0.92920510476E+02 0.  0.
         11    1    3    3    0    0 -0.67727767722E+01 -0.21551733122E+02  0.27669005495E+00  0.22592570972E+02  0.00000000000E+00 0. -1.
        -12    1    3    3    0    0  0.81035482543E+02  0.15349150676E+02  0.51065043714E+02  0.97005074851E+02  0.00000000000E+00 0.  1.
        -11    1    4    4    0    0  0.34052774589E+02  0.11314515268E+02  0.42735799235E+01  0.36136867578E+02  0.00000000000E+00 0. -1.
         11    1    4    4    0    0  0.33015864830E+01 -0.74359428454E+02 -0.55338793672E+02  0.92750240746E+02  0.00000000000E+00 0.  1.
         -1    1    1    2    0  502 -0.11161706684E+03  0.69247495632E+02 -0.55656729125E+02  0.14265783105E+03  0.00000000000E+00 0.  1.
<scales pt_clust_5="13000.00000" pt_clust_6="13000.00000" pt_clust_7="13000.00000" pt_clust_8="13000.00000" pt_clust_9="97.96352"></scales>
<clustering>
<clus scale="   78.193">  5  6 -1 -1</clus>
<clus scale="   92.921">  7  8 -1 -1</clus>
<clus scale="  108.017">  1  5  2 -1</clus>
<clus scale="   97.964">  2  9  1 -1</clus>
<clus scale="   97.964">  2  5  1 -1</clus>
</clustering>
</event>
<event>
 9    1  0.6014990E-005  0.9346372E+02  0.7546771E-02  0.1301539E+00
         -4   -1    0    0    0  501 -0.00000000000E+00  0.00000000000E+00  0.43950341682E+03  0.43950341682E+03  0.00000000000E+00 0.  1.
         21   -1    0    0  501  502  0.00000000000E+00 -0.00000000000E+00 -0.29659709607E+03  0.29659709607E+03  0.00000000000E+00 0.  1.
        -24    2    1    2    0    0 -0.20857892675E+02 -0.17416687944E+02  0.40618859074E+03  0.41438326200E+03  0.77368752582E+02 0.  0.
         23    2    1    2    0    0  0.17191952810E+02  0.67183957408E+02 -0.99536278138E+02  0.15053614775E+03  0.89131440799E+02 0.  0.
         13    1    3    3    0    0 -0.31537311863E+02 -0.39983626972E+02  0.18814334164E+03  0.19491333835E+03  0.00000000000E+00 0. -1.
        -14    1    3    3    0    0  0.10679419188E+02  0.22566939028E+02  0.21804524910E+03  0.21946992365E+03  0.00000000000E+00 0.  1.
        -13    1    4    4    0    0 -0.30305868843E+02 -0.12034190185E+00 -0.31307741097E+02  0.43573326945E+02  0.00000000000E+00 0.  1.
         13    1    4    4    0    0  0.47497821653E+02  0.67304299310E+02 -0.68228537041E+02  0.10696282080E+03  0.00000000000E+00 0. -1.
         -3    1    1    2    0  502  0.36659398649E+01 -0.49767269464E+02 -0.16374599186E+03  0.17118110314E+03  0.00000000000E+00 0.  1.
<scales pt_clust_5="13000.00000" pt_clust_6="13000.00000" pt_clust_7="13000.00000" pt_clust_8="13000.00000" pt_clust_9="49.90211"></scales>
<clustering>
<clus scale="   49.902">  2  9  1 -1</clus>
<clus scale="   77.369">  5  6 -1 -1</clus>
<clus scale="   82.322">  1  5  2 -1</clus>
<clus scale="   89.131">  7  8 -1 -1</clus>
<clus scale="   49.902">  2  5  1 -1</clus>
</clustering>
</event>
<event>
 9    1  0.6014990E-005  0.1048638E+03  0.7546771E-02  0.1278087E+00
          1   -1    0    0  502    0 -0.00000000000E+00  0.00000000000E+00  0.20139958039E+03  0.20139958039E+03  0.00000000000E+00 0. -1.
         21   -1    0    0  501  502  0.00000000000E+00 -0.00000000000E+00 -0.10127555675E+03  0.10127555675E+03  0.00000000000E+00 0. -1.
         23    2    1    2    0    0 -0.41315573243E+02 -0.66581413252E+02  0.70654830815E+02  0.14324435746E+03  0.96885394380E+02 0.  0.
        -24    2    1    2    0    0  0.76423455116E+01 -0.67710358203E+00  0.13502853307E+02  0.82537877864E+02  0.81063618971E+02 0.  0.
         13    1    4    4    0    0 -0.21390007791E+02  0.26493889399E+02 -0.11057043635E+02  0.35801072927E+02  0.00000000000E+00 0. -1.
        -14    1    4    4    0    0  0.29032353303E+02 -0.27170992981E+02  0.24559896942E+02  0.46736804937E+02  0.00000000000E+00 0.  1.
        -13    1    3    3    0    0  0.20689078721E+02 -0.51797536202E+02  0.12946133860E+02  0.57259279745E+02  0.00000000000E+00 0.  1.
         13    1    3    3    0    0 -0.62004651964E+02 -0.14783877050E+02  0.57708696955E+02  0.85985077717E+02  0.00000000000E+00 0. -1.
          2    1    1    2  501    0  0.33673227731E+02  0.67258516834E+02  0.15966339521E+02  0.76892901820E+02  0.00000000000E+00 0. -1.
<scales pt_clust_5="13000.00000" pt_clust_6="13000.00000" pt_clust_7="13000.00000" pt_clust_8="13000.00000" pt_clust_9="75.21698"></scales>
<clustering>
<clus scale="   75.217">  2  9  1 -1</clus>
<clus scale="   81.064">  5  6 -1 -1</clus>
<clus scale="   90.449">  2  5  1 -1</clus>
<clus scale="   96.885">  7  8 -1 -1</clus>
<clus scale="   75.217">  2  5  1 -1</clus>
</clustering>
</event>
<event>
 9    1  0.6014990E-005  0.9038923E+02  0.7546771E-02  0.1307014E+00
         21   -1    0    0  501  502  0.00000000000E+00  0.00000000000E+00  0.56590633380E+02  0.56590633380E+02  0.00000000000E+00 0.  1.
         -2   -1    0    0    0  501 -0.00000000000E+00 -0.00000000000E+00 -0.22187059379E+03  0.22187059379E+03  0.00000000000E+00 0.  1.
         23    2    1    2    0    0 -0.26310084308E+01  0.26107584673E+02 -0.11232979101E+03  0.14587094011E+03  0.89285054949E+02 0.  0.
        -24    2    1    2    0    0  0.15040223791E+02  0.97620440618E+01 -0.41999463310E+02  0.93086656146E+02  0.81115132978E+02 0.  0.
         13    1    4    4    0    0  0.13046398865E+02 -0.19881392551E+02 -0.55554634640E+02  0.60430089550E+02  0.00000000000E+00 0. -1.
        -14    1    4    4    0    0  0.19938249258E+01  0.29643436612E+02  0.13555171330E+02  0.32656566595E+02  0.00000000000E+00 0.  1.
        -13    1    3    3    0    0  0.54649758777E+01  0.57153004372E+02 -0.90102326850E+02  0.10683988569E+03  0.00000000000E+00 0.  1.
         13    1    3    3    0    0 -0.80959843085E+01 -0.31045419699E+02 -0.22227464159E+02  0.39031054421E+02  0.00000000000E+00 0. -1.
         -1    1    1    2    0  502 -0.12409215360E+02 -0.35869628734E+02 -0.10950706086E+02  0.39503630911E+02  0.00000000000E+00 0.  1.
<scales pt_clust_5="13000.00000" pt_clust_6="13000.00000" pt_clust_7="13000.00000" pt_clust_8="13000.00000" pt_clust_9="37.95549"></scales>
<clustering>
<clus scale="   37.955">  1  9  2 -1</clus>
<clus scale="   81.115">  5  6 -1 -1</clus>
<clus scale="   82.329">  1  5  2 -1</clus>
<clus scale="   89.285">  7  8 -1 -1</clus>
<clus scale="   37.955">  1  5  2 -1</clus>
</clustering>
</event>
<event>
 9    1  0.6014990E-005  0.8696228E+02  0.7546771E-02  0.1317603E+00
         21   -1    0    0  501  502  0.00000000000E+00  0.00000000000E+00  0.15303282011E+03  0.15303282011E+03  0.00000000000E+00 0. -1.
          1   -1    0    0  502    0 -0.00000000000E+00 -0.00000000000E+00 -0.10459380337E+03  0.10459380337E+03  0.00000000000E+00 0. -1.
        -24    2    1    2    0    0 -0.17102031227E+02 -0.36129599678E+02  0.48377682797E+01  0.83568426326E+02  0.73228754132E+02 0.  0.
         23    2    1    2    0    0  0.23537265731E+02 -0.34855546919E+02  0.41097037233E+02  0.10273797313E+03  0.84244956076E+02 0.  0.
         11    1    3    3    0    0 -0.17607875682E+01 -0.56335426211E+02  0.11080533750E+02  0.57441786596E+02  0.00000000000E+00 0. -1.
        -12    1    3    3    0    0 -0.15341243659E+02  0.20205826532E+02 -0.62427654703E+01  0.26126639730E+02  0.00000000000E+00 0.  1.
        -13    1    4    4    0    0 -0.91101410022E+01 -0.24859445483E+02  0.58648309530E+02  0.64347578894E+02  0.00000000000E+00 0. -1.
         13    1    4    4    0    0  0.32647406734E+02 -0.99961014355E+01 -0.17551272296E+02  0.38390394235E+02  0.00000000000E+00 0.  1.
          2    1    1    2  501    0 -0.64352345043E+01  0.70985146597E+02  0.25042112238E+01  0.71320224021E+02  0.00000000000E+00 0. -1.
<scales pt_clust_5="13000.00000" pt_clust_6="13000.00000" pt_clust_7="13000.00000" pt_clust_8="13000.00000" pt_clust_9="71.27628"></scales>
<clustering>
<clus scale="   71.276">  1  9  2 -1</clus>
<clus scale="   73.229">  5  6 -1 -1</clus>
<clus scale="   76.339">  2  5  1 -1</clus>
<clus scale="   84.245">  7  8 -1 -1</clus>
<clus scale="   71.276">  1  5  2 -1</clus>
</clustering>
</event>
<event>
 9    1  0.6014990E-005  0.9859392E+02  0.7546771E-02  0.1289191E+00
         -4   -1    0    0    0  501 -0.00000000000E+00  0.00000000000E+00  0.48284690963E+03  0.48284690963E+03  0.00000000000E+00 0.  1.
         21   -1    0    0  501  502  0.00000000000E+00 -0.00000000000E+00 -0.81744815934E+02  0.81744815934E+02  0.00000000000E+00 0.  1.
        -24    2    1    2    0    0  0.42837957302E+02  0.48581696549E+01  0.32450310741E+03  0.33733092898E+03  0.81432159073E+02 0.  0.
         23    2    1    2    0    0  0.24077676895E+02 -0.59244997997E+02  0.84426930066E+02  0.14067612184E+03  0.92585962343E+02 0.  0.
         11    1    3    3    0    0  0.60179229189E+00 -0.32811566153E+02  0.82254807119E+02  0.88559665320E+02  0.00000000000E+00 0. -1.
        -12    1    3    3    0    0  0.42236165010E+02  0.37669735807E+02  0.24224830029E+03  0.24877126366E+03  0.00000000000E+00 0.  1.
        -11    1    4    4    0    0  0.48674697510E+02 -0.69955632250E+02  0.58516386166E+02  0.10337883783E+03  0.00000000000E+00 0.  1.
         11    1    4    4    0    0 -0.24597020615E+02  0.10710634253E+02  0.25910543901E+02  0.37297284009E+02  0.00000000000E+00 0. -1.
         -3    1    1    2    0  502 -0.66915634197E+02  0.54386828342E+02 -0.78279437777E+01  0.86584674746E+02  0.00000000000E+00 0.  1.
<scales pt_clust_5="13000.00000" pt_clust_6="13000.00000" pt_clust_7="13000.00000" pt_clust_8="13000.00000" pt_clust_9="86.23009"></scales>
<clustering>
<clus scale="   81.432">  5  6 -1 -1</clus>
<clus scale="   86.230">  2  9  1 -1</clus>
<clus scale="   88.203">  1  5  2 -1</clus>
<clus scale="   92.586">  7  8 -1 -1</clus>
<clus scale="   86.230">  2  5  1 -1</clus>
</clustering>
</event>
<event>
 9    1  0.6014990E-005  0.9190152E+02  0.7546771E-02  0.1304922E+00
          3   -1    0    0  502    0 -0.00000000000E+00  0.00000000000E+00  0.15843042763E+03  0.15843042763E+03  0.00000000000E+00 0. -1.
         21   -1    0    0  501  502  0.00000000000E+00 -0.00000000000E+00 -0.77721577815E+02  0.77721577815E+02  0.00000000000E+00 0. -1.
        -24    2    1    2    0    0  0.13098056444E+02 -0.25083406618E+01  0.47966722709E+02  0.94674480045E+02  0.80527013038E+02 0.  0.
         23    2    1    2    0    0  0.19595137336E+02  0.26064741009E+02  0.28761397567E+02  0.10098561109E+03  0.91145682978E+02 0.  0.
         11    1    3    3    0    0 -0.19788272253E+02  0.29602903870E+02  0.22628776115E+02  0.42189680548E+02  0.00000000000E+00 0. -1.
        -12    1    3    3    0    0  0.32886328697E+02 -0.32111244532E+02  0.25337946594E+02  0.52484799496E+02  0.00000000000E+00 0.  1.
        -11    1    4    4    0    0 -0.46346237337E+01 -0.31769712394E+02  0.25959405898E+00  0.32107035861E+02  0.00000000000E+00 0.  1.
         11    1    4    4    0    0  0.24229761070E+02  0.57834453403E+02  0.28501803508E+02  0.68878575226E+02  0.00000000000E+00 0. -1.
          4    1    1    2  501    0 -0.32693193780E+02 -0.23556400347E+02  0.39807295378E+01  0.40491914311E+02  0.00000000000E+00 0. -1.
<scales pt_clust_5="13000.00000" pt_clust_6="13000.00000" pt_clust_7="13000.00000" pt_clust_8="13000.00000" pt_clust_9="40.29577"></scales>
<clustering>
<clus scale="   40.296">  2  9  1 -1</clus>
<clus scale="   80.527">  5  6 -1 -1</clus>
<clus scale="   81.382">  1  5  2 -1</clus>
<clus scale="   91.146">  7  8 -1 -1</clus>
<clus scale="   40.296">  2  5  1 -1</clus>
</clustering>
</event>
<event>
 9    1  0.6014990E-005  0.1747140E+03  0.7546771E-02  0.1174586E+00
          3   -1    0    0  502    0 -0.00000000000E+00  0.00000000000E+00  0.73497075508E+03  0.73497075508E+03  0.00000000000E+00 0. -1.
         21   -1    0    0  501  502  0.00000000000E+00 -0.00000000000E+00 -0.12800620074E+03  0.12800620074E+03  0.00000000000E+00 0. -1.
         23    2    1    2    0    0 -0.10648484301E+03 -0.10536139669E+03  0.58113220286E+03  0.60706953092E+03  0.91535416470E+02 0.  0.
        -24    2    1    2    0    0  0.15258064275E+03  0.45262130638E+02  0.28780118497E+02  0.18010878465E+03  0.79255069719E+02 0.  0.
         13    1    4    4    0    0  0.13991053989E+03  0.54472936221E+02  0.45806509401E+02  0.15697291568E+03  0.00000000000E+00 0. -1.
        -14    1    4    4    0    0  0.12670102860E+02 -0.92108055829E+01 -0.17026390904E+02  0.23135868974E+02  0.00000000000E+00 0.  1.
        -13    1    3    3    0    0 -0.11189169739E+03 -0.55393213287E+02  0.39426854693E+03  0.41356480402E+03  0.00000000000E+00 0. -1.
         13    1    3    3    0    0  0.54068543775E+01 -0.49968183405E+02  0.18686365592E+03  0.19350472690E+03  0.00000000000E+00 0.  1.
          4    1    1    2  501    0 -0.46095799737E+02  0.60099266054E+02 -0.29477670201E+01  0.75798640252E+02  0.00000000000E+00 0. -1.
<scales pt_clust_5="13000.00000" pt_clust_6="13000.00000" pt_clust_7="13000.00000" pt_clust_8="13000.00000" pt_clust_9="75.74130"></scales>
<clustering>
<clus scale="   75.741">  2  9  1 -1</clus>
<clus scale="   79.255">  5  6 -1 -1</clus>
<clus scale="   91.535">  7  8 -1 -1</clus>
<clus scale="  168.605">  2  5  1 -1</clus>
<clus scale="   75.741">  2  5  1 -1</clus>
</clustering>
</event>
<event>
 9    1  0.6014990E-005  0.9808332E+02  0.7546771E-02  0.1289476E+00
         21   -1    0    0  501  502  0.00000000000E+00  0.00000000000E+00  0.19015068860E+03  0.19015068860E+03  0.00000000000E+00 0. -1.
          1   -1    0    0  502    0 -0.00000000000E+00 -0.00000000000E+00 -0.13243699941E+03  0.13243699941E+03  0.00000000000E+00 0. -1.
         23    2    1    2    0    0 -0.24298731558E+01 -0.24476481249E+02 -0.45010166910E+02  0.10401598852E+03  0.90489824424E+02 0.  0.
        -24    2    1    2    0    0  0.62671697467E+02  0.49383218211E+02  0.23326275354E+02  0.11584196295E+03  0.80677142700E+02 0.  0.
         13    1    4    4    0    0  0.28257004416E+02 -0.14733390249E+02 -0.13112373501E+02  0.34459620219E+02  0.00000000000E+00 0. -1.
        -14    1    4    4    0    0  0.34414693051E+02  0.64116608460E+02  0.36438648855E+02  0.81382342732E+02  0.00000000000E+00 0.  1.
        -13    1    3    3    0    0  0.22189599505E+02 -0.34006801411E+02 -0.60905308394E+02  0.73200392478E+02  0.00000000000E+00 0. -1.
         13    1    3    3    0    0 -0.24619472661E+02  0.95303201622E+01  0.15895141484E+02  0.30815596040E+02  0.00000000000E+00 0.  1.
          2    1    1    2  501    0 -0.60241824311E+02 -0.24906736962E+02  0.79397580739E+02  0.10272973654E+03  0.00000000000E+00 0. -1.
<scales pt_clust_5="13000.00000" pt_clust_6="13000.00000" pt_clust_7="13000.00000" pt_clust_8="13000.00000" pt_clust_9="65.18760"></scales>
<clustering>
<clus scale="   65.188">  1  9  2 -1</clus>
<clus scale="   80.677">  5  6 -1 -1</clus>
<clus scale="   89.111">  1  5  2 -1</clus>
<clus scale="   90.490">  7  8 -1 -1</clus>
<clus scale="   65.188">  1  5  2 -1</clus>
</clustering>
</event>
<event>
 9    1  0.6014990E-005  0.1003094E+03  0.7546771E-02  0.1286554E+00
         21   -1    0    0  501  502  0.00000000000E+00  0.00000000000E+00  0.18702960589E+03  0.18702960589E+03  0.00000000000E+00 0.  1.
         -4   -1    0    0    0  501 -0.00000000000E+00 -0.00000000000E+00 -0.18401884083E+03  0.18401884083E+03  0.00000000000E+00 0.  1.
        -24    2    1    2    0    0  0.21320736585E+02  0.15170387114E+02 -0.48511532433E+02  0.95072045497E+02  0.77463608245E+02 0.  0.
         23    2    1    2    0    0 -0.65198081914E+02 -0.71939996273E+00 -0.79246085306E+02  0.13728818110E+03  0.91196464914E+02 0.  0.
         11    1    3    3    0    0  0.45681860292E+02  0.59653577414E+01 -0.77727916211E+01  0.46720810591E+02  0.00000000000E+00 0. -1.
        -12    1    3    3    0    0 -0.24361123707E+02  0.92050293728E+01 -0.40738740812E+02  0.48351234906E+02  0.00000000000E+00 0.  1.
        -11    1    4    4    0    0 -0.58633604186E+02  0.33862793203E+02 -0.24110015460E+02  0.71874064507E+02  0.00000000000E+00 0.  1.
         11    1    4    4    0    0 -0.65644777280E+01 -0.34582193166E+02 -0.55136069846E+02  0.65414116596E+02  0.00000000000E+00 0. -1.
         -3    1    1    2    0  502  0.43877345329E+02 -0.14450987152E+02  0.13076838280E+03  0.13868822013E+03  0.00000000000E+00 0.  1.
<scales pt_clust_5="13000.00000" pt_clust_6="13000.00000" pt_clust_7="13000.00000" pt_clust_8="13000.00000" pt_clust_9="46.19581"></scales>
<clustering>
<clus scale="   46.196">  1  9  2 -1</clus>
<clus scale="   77.464">  5  6 -1 -1</clus>
<clus scale="   88.010">  2  5  1 -1</clus>
<clus scale="   91.196">  7  8 -1 -1</clus>
<clus scale="   46.196">  1  5  2 -1</clus>
</clustering>
</event>
<event>
 9    1  0.6014990E-005  0.9812449E+02  0.7546771E-02  0.1288296E+00
         -4   -1    0    0    0  501 -0.00000000000E+00  0.00000000000E+00  0.51169619699E+02  0.51169619699E+02  0.00000000000E+00 0.  1.
         21   -1    0    0  501  502  0.00000000000E+00 -0.00000000000E+00 -0.49999882076E+03  0.49999882076E+03  0.00000000000E+00 0.  1.
        -24    2    1    2    0    0 -0.14067981839E+02  0.16891846754E+02 -0.22952194176E+02  0.10091930525E+03  0.95784447351E+02 0.  0.
         23    2    1    2    0    0 -0.19330963494E+02 -0.31937402319E+02 -0.20520905998E+03  0.22656140403E+03  0.88462577850E+02 0.  0.
         11    1    3    3    0    0  0.23652261820E+02 -0.12668862651E+02 -0.41594366828E+02  0.49497686025E+02  0.00000000000E+00 0. -1.
        -12    1    3    3    0    0 -0.37720243659E+02  0.29560709405E+02  0.18642172652E+02  0.51421619222E+02  0.00000000000E+00 0.  1.
        -13    1    4    4    0    0  0.12810340702E+02 -0.54945265918E+02 -0.12492499991E+03  0.13707422325E+03  0.00000000000E+00 0. -1.
         13    1    4    4    0    0 -0.32141304196E+02  0.23007863599E+02 -0.80284060072E+02  0.89487180783E+02  0.00000000000E+00 0.  1.
         -3    1    1    2    0  502  0.33398945333E+02  0.15045555565E+02 -0.22066794690E+03  0.22368773118E+03  0.00000000000E+00 0.  1.
<scales pt_clust_5="13000.00000" pt_clust_6="13000.00000" pt_clust_7="13000.00000" pt_clust_8="13000.00000" pt_clust_9="36.63138"></scales>
<clustering>
<clus scale="   36.631">  2  9  1 -1</clus>
<clus scale="   88.463">  7  8 -1 -1</clus>
<clus scale="   90.991">  2  7  1 -1</clus>
<clus scale="   95.784">  5  6 -1 -1</clus>
<clus scale="   36.631">  2  5  1 -1</clus>
</clustering>
</event>
<event>
 9    1  0.6014990E-005  0.1593270E+03  0.7546771E-02  0.1191878E+00
         21   -1    0    0  501  502  0.00000000000E+00  0.00000000000E+00  0.13875651911E+04  0.13875651911E+04  0.00000000000E+00 0.  1.
          3   -1    0    0  502    0 -0.00000000000E+00 -0.00000000000E+00 -0.31172959114E+02  0.31172959114E+02  0.00000000000E+00 0. -1.
         23    2    1    2    0    0  0.91424800474E+02 -0.11802608710E+03  0.32076121567E+03  0.36575034843E+03  0.92719515315E+02 0.  0.
        -24    2    1    2    0    0 -0.36230588447E+02  0.78604610772E+02  0.77514907764E+03  0.78382002100E+03  0.77629842077E+02 0.  0.
         13    1    4    4    0    0  0.38539106340E+01  0.23426110177E+02  0.48722354723E+02  0.54198737209E+02  0.00000000000E+00 0. -1.
        -14    1    4    4    0    0 -0.40084499081E+02  0.55178500595E+02  0.72642672292E+03  0.72962128379E+03  0.00000000000E+00 0.  1.
        -11    1    3    3    0    0  0.52600847753E+02 -0.21912478825E+01  0.11451320303E+03  0.12603540939E+03  0.00000000000E+00 0. -1.
         11    1    3    3    0    0  0.38823952721E+02 -0.11583483922E+03  0.20624801264E+03  0.23971493904E+03  0.00000000000E+00 0.  1.
          4    1    1    2  501    0 -0.55194212027E+02  0.39421476326E+02  0.26048193870E+03  0.26916778081E+03  0.00000000000E+00 0. -1.
<scales pt_clust_5="13000.00000" pt_clust_6="13000.00000" pt_clust_7="13000.00000" pt_clust_8="13000.00000" pt_clust_9="67.82665"></scales>
<clustering>
<clus scale="   67.827">  1  9  2 -1</clus>
<clus scale="   77.630">  5  6 -1 -1</clus>
<clus scale="   92.720">  7  8 -1 -1</clus>
<clus scale="  151.045">  1  5  2 -1</clus>
<clus scale="   67.827">  1  5  2 -1</clus>
</clustering>
</event>
<event>
 9    1  0.6014990E-005  0.9926304E+02  0.7546771E-02  0.1287673E+00
         21   -1    0    0  501  502  0.00000000000E+00  0.00000000000E+00  0.46785413045E+03  0.46785413045E+03  0.00000000000E+00 0.  1.
         -2   -1    0    0    0  501 -0.00000000000E+00 -0.00000000000E+00 -0.51313122510E+02  0.51313122510E+02  0.00000000000E+00 0.  1.
         23    2    1    2    0    0 -0.24415827798E+01  0.34031685473E+02  0.97121236737E+02  0.13797487037E+03  0.91871721904E+02 0.  0.
        -24    2    1    2    0    0  0.77966466483E+02 -0.13317961749E+02  0.25811692993E+03  0.28173834920E+03  0.80597828109E+02 0.  0.
         11    1    4    4    0    0 -0.51830751436E+01  0.20228596842E+02  0.29285555408E+02  0.35968099111E+02  0.00000000000E+00 0. -1.
        -12    1    4    4    0    0  0.83149541627E+02 -0.33546558591E+02  0.22883137452E+03  0.24577025009E+03  0.00000000000E+00 0.  1.
        -11    1    3    3    0    0  0.24430156574E+02  0.42261945426E+02  0.14831517641E+02  0.51018413313E+02  0.00000000000E+00 0.  1.
         11    1    3    3    0    0 -0.26871739354E+02 -0.82302599539E+01  0.82289719096E+02  0.86956457056E+02  0.00000000000E+00 0. -1.
         -1    1    1    2    0  502 -0.75524883703E+02 -0.20713723724E+02  0.61302841278E+02  0.99454033391E+02  0.00000000000E+00 0.  1.
<scales pt_clust_5="13000.00000" pt_clust_6="13000.00000" pt_clust_7="13000.00000" pt_clust_8="13000.00000" pt_clust_9="78.31394"></scales>
<clustering>
<clus scale="   78.314">  1  9  2 -1</clus>
<clus scale="   80.598">  5  6 -1 -1</clus>
<clus scale="   88.931">  1  5  2 -1</clus>
<clus scale="   91.872">  7  8 -1 -1</clus>
<clus scale="   78.314">  1  5  2 -1</clus>
</clustering>
</event>
<event>
 9    1  0.6014990E-005  0.9580302E+02  0.7546771E-02  0.1294107E+00
          1   -1    0    0  502    0 -0.00000000000E+00  0.00000000000E+00  0.59777024626E+03  0.59777024626E+03  0.00000000000E+00 0. -1.
         21   -1    0    0  501  502  0.00000000000E+00 -0.00000000000E+00 -0.24531650828E+02  0.24531650828E+02  0.00000000000E+00 0.  1.
         23    2    1    2    0    0  0.29531182256E+02 -0.20046705172E+02  0.33061968909E+03  0.34532469840E+03  0.93090318487E+02 0.  0.
        -24    2    1    2    0    0  0.45377053825E+01  0.16162661577E+02  0.21878086145E+03  0.23521564599E+03  0.84732003299E+02 0.  0.
         11    1    4    4    0    0  0.21852328754E+02  0.31026880242E+02  0.20515898371E+03  0.20863940223E+03  0.00000000000E+00 0. -1.
        -12    1    4    4    0    0 -0.17314623371E+02 -0.14864218666E+02  0.13621877747E+02  0.26576243760E+02  0.00000000000E+00 0.  1.
        -13    1    3    3    0    0  0.18019255170E+02  0.37171294940E+02  0.14086338600E+03  0.14679540947E+03  0.00000000000E+00 0.  1.
         13    1    3    3    0    0  0.11511927086E+02 -0.57218000113E+02  0.18975630309E+03  0.19852928893E+03  0.00000000000E+00 0. -1.
          2    1    1    2  501    0 -0.34068887638E+02  0.38840435958E+01  0.23838044891E+02  0.41761552698E+02  0.00000000000E+00 0. -1.
<scales pt_clust_5="13000.00000" pt_clust_6="13000.00000" pt_clust_7="13000.00000" pt_clust_8="13000.00000" pt_clust_9="34.28957"></scales>
<clustering>
<clus scale="   34.290">  2  9  1 -1</clus>
<clus scale="   84.732">  5  6 -1 -1</clus>
<clus scale="   87.704">  2  5  1 -1</clus>
<clus scale="   93.090">  7  8 -1 -1</clus>
<clus scale="   34.290">  2  5  1 -1</clus>
</clustering>
</event>
<event>
 9    1  0.6014990E-005  0.2085990E+03  0.7546771E-02  0.1144994E+00
         21   -1    0    0  501  502  0.00000000000E+00  0.00000000000E+00  0.15726481593E+03  0.15726481593E+03  0.00000000000E+00 0. -1.
          1   -1    0    0  502    0 -0.00000000000E+00 -0.00000000000E+00 -0.46286700906E+03  0.46286700906E+03  0.00000000000E+00 0. -1.
         23    2    1    2    0    0  0.11159010565E+02  0.19327231328E+03 -0.28406442822E+03  0.35554595840E+03  0.90783360585E+02 0.  0.
        -24    2    1    2    0    0  0.51387120970E+02 -0.17201077284E+03  0.13212914801E+02  0.18994217018E+03  0.60622641995E+02 0.  0.
         11    1    4    4    0    0  0.19009797069E+02 -0.14778838402E+03  0.12005378442E+02  0.14948882215E+03  0.00000000000E+00 0. -1.
        -12    1    4    4    0    0  0.32377323901E+02 -0.24222388815E+02  0.12075363592E+01  0.40453348032E+02  0.00000000000E+00 0.  1.
        -11    1    3    3    0    0 -0.31607049774E+02  0.86134344402E+02 -0.17077381060E+03  0.19386032412E+03  0.00000000000E+00 0.  1.
         11    1    3    3    0    0  0.42766060340E+02  0.10713796888E+03 -0.11329061762E+03  0.16168563428E+03  0.00000000000E+00 0. -1.
          2    1    1    2  501    0 -0.62546131536E+02 -0.21261540445E+02 -0.34750679708E+02  0.74643696400E+02  0.00000000000E+00 0. -1.
<scales pt_clust_5="13000.00000" pt_clust_6="13000.00000" pt_clust_7="13000.00000" pt_clust_8="13000.00000" pt_clust_9="66.06112"></scales>
<clustering>
<clus scale="   60.623">  5  6 -1 -1</clus>
<clus scale="   66.061">  1  9  2 -1</clus>
<clus scale="   90.783">  7  8 -1 -1</clus>
<clus scale="  197.350">  1  5  2 -1</clus>
<clus scale="   66.061">  1  5  2 -1</clus>
</clustering>
</event>
<event>
 9    1  0.6014990E-005  0.1085677E+03  0.7546771E-02  0.1267605E+00
         21   -1    0    0  501  502  0.00000000000E+00  0.00000000000E+00  0.45261765234E+02  0.45261765234E+02  0.00000000000E+00 0. -1.
          1   -1    0    0  502    0 -0.00000000000E+00 -0.00000000000E+00 -0.39188341920E+03  0.39188341920E+03  0.00000000000E+00 0. -1.
         23    2    1    2    0    0  0.44606348807E+02 -0.29232330245E+02 -0.25220301255E+03  0.27343039567E+03  0.91178759892E+02 0.  0.
        -24    2    1    2    0    0 -0.62487203927E+02  0.41772892335E+02 -0.67870957324E+02  0.12933790397E+03  0.80449992949E+02 0.  0.
         13    1    4    4    0    0 -0.74701919189E+02  0.39722023809E+02 -0.76643879407E+02  0.11415997616E+03  0.00000000000E+00 0. -1.
        -14    1    4    4    0    0  0.12214715262E+02  0.20508685261E+01  0.87729220834E+01  0.15177927807E+02  0.00000000000E+00 0.  1.
        -13    1    3    3    0    0 -0.11725904135E+02  0.16272102765E+02 -0.13990894399E+02  0.24454514558E+02  0.00000000000E+00 0.  1.
         13    1    3    3    0    0  0.56332252942E+02 -0.45504433010E+02 -0.23821211815E+03  0.24897588111E+03  0.00000000000E+00 0. -1.
          2    1    1    2  501    0  0.17880855121E+02 -0.12540562090E+02 -0.26547684099E+02  0.34376884798E+02  0.00000000000E+00 0. -1.
<scales pt_clust_5="13000.00000" pt_clust_6="13000.00000" pt_clust_7="13000.00000" pt_clust_8="13000.00000" pt_clust_9="21.84012"></scales>
<clustering>
<clus scale="   21.840">  1  9  2 -1</clus>
<clus scale="   80.450">  5  6 -1 -1</clus>
<clus scale="   91.179">  7  8 -1 -1</clus>
<clus scale="   99.728">  1  5  2 -1</clus>
<clus scale="   21.840">  1  5  2 -1</clus>
</clustering>
</event>
<event>
 9    1  0.6014990E-005  0.9282626E+02  0.7546771E-02  0.1302624E+00
         -4   -1    0    0    0  501 -0.00000000000E+00  0.00000000000E+00  0.70191248702E+03  0.70191248702E+03  0.00000000000E+00 0.  1.
         21   -1    0    0  501  502  0.00000000000E+00 -0.00000000000E+00 -0.18556199978E+02  0.18556199978E+02  0.00000000000E+00 0. -1.
        -24    2    1    2    0    0 -0.30564339703E+01  0.22092511210E+02  0.33156953947E+03  0.34185352238E+03  0.80175123426E+02 0.  0.
         23    2    1    2    0    0 -0.26737704989E+02 -0.83937627409E+01  0.31633466839E+03  0.33032234586E+03  0.90883824885E+02 0.  0.
         11    1    3    3    0    0 -0.41498263993E+02  0.86323146387E+01  0.16059688232E+03  0.16609630153E+03  0.00000000000E+00 0. -1.
        -12    1    3    3    0    0  0.38441830023E+02  0.13460196572E+02  0.17097265714E+03  0.17575722084E+03  0.00000000000E+00 0.  1.
        -13    1    4    4    0    0 -0.27105224803E+02 -0.44071337958E+02  0.24683356196E+03  0.25219790513E+03  0.00000000000E+00 0.  1.
         13    1    4    4    0    0  0.36751981416E+00  0.35677575218E+02  0.69501106434E+02  0.78124440732E+02  0.00000000000E+00 0. -1.
         -3    1    1    2    0  502  0.29794138959E+02 -0.13698748470E+02  0.35452079180E+02  0.48292818764E+02  0.00000000000E+00 0.  1.
<scales pt_clust_5="13000.00000" pt_clust_6="13000.00000" pt_clust_7="13000.00000" pt_clust_8="13000.00000" pt_clust_9="32.79248"></scales>
<clustering>
<clus scale="   32.792">  2  9  1 -1</clus>
<clus scale="   80.175">  5  6 -1 -1</clus>
<clus scale="   82.370">  1  5  2 -1</clus>
<clus scale="   90.884">  7  8 -1 -1</clus>
<clus scale="   32.792">  2  5  1 -1</clus>
</clustering>
</event>
<event>
 9    1  0.6014990E-005  0.1103562E+03  0.7546771E-02  0.1265267E+00
          3   -1    0    0  502    0 -0.00000000000E+00  0.00000000000E+00  0.32851008057E+03  0.32851008057E+03  0.00000000000E+00 0. -1.
         21   -1    0    0  501  502  0.00000000000E+00 -0.00000000000E+00 -0.64593695378E+02  0.64593695378E+02  0.00000000000E+00 0.  1.
         23    2    1    2    0    0  0.59673315408E+02  0.40709787771E+02  0.10054657802E+03  0.15382373139E+03  0.91290386116E+02 0.  0.
        -24    2    1    2    0    0 -0.31203061203E+02 -0.38204074801E+02  0.21392886923E+02  0.94455047208E+02  0.77658985136E+02 0.  0.
         13    1    4    4    0    0  0.25552412525E+02 -0.69041946000E+01  0.92108325578E+00  0.26484751901E+02  0.00000000000E+00 0. -1.
        -14    1    4    4    0    0 -0.56755473728E+02 -0.31299880201E+02  0.20471803667E+02  0.67970295307E+02  0.00000000000E+00 0.  1.
        -11    1    3    3    0    0 -0.15024663198E+02  0.18277438968E+02 -0.33650192011E+01  0.23898297715E+02  0.00000000000E+00 0. -1.
         11    1    3    3    0    0  0.74697978605E+02  0.22432348803E+02  0.10391159722E+03  0.12992543368E+03  0.00000000000E+00 0.  1.
          4    1    1    2  501    0 -0.28470254205E+02 -0.25057129694E+01  0.14197692025E+03  0.14482499735E+03  0.00000000000E+00 0. -1.
<scales pt_clust_5="13000.00000" pt_clust_6="13000.00000" pt_clust_7="13000.00000" pt_clust_8="13000.00000" pt_clust_9="28.58032"></scales>
<clustering>
<clus scale="   28.580">  2  9  1 -1</clus>
<clus scale="   77.659">  5  6 -1 -1</clus>
<clus scale="   91.290">  7  8 -1 -1</clus>
<clus scale="   99.375">  2  5  1 -1</clus>
<clus scale="   28.580">  2  5  1 -1</clus>
</clustering>
</event>
<event>
 9    1  0.6014990E-005  0.1289968E+03  0.7546771E-02  0.1245688E+00
         21   -1    0    0  501  502  0.00000000000E+00  0.00000000000E+00  0.16130403345E+03  0.16130403345E+03  0.00000000000E+00 0. -1.
         -2   -1    0    0    0  501 -0.00000000000E+00 -0.00000000000E+00 -0.31961782910E+03  0.31961782910E+03  0.00000000000E+00 0.  1.
        -24    2    1    2    0    0 -0.46220764614E+02 -0.86018193391E+00  0.83883228272E+02  0.12426885096E+03  0.79178610357E+02 0.  0.
         23    2    1    2    0    0 -0.75775216699E+02 -0.40214127237E-01 -0.51493006241E+02  0.13026429163E+03  0.92603298532E+02 0.  0.
         13    1    3    3    0    0 -0.40481238770E+02 -0.32806709285E+02  0.73684185762E+02  0.90246163895E+02  0.00000000000E+00 0. -1.
        -14    1    3    3    0    0 -0.57395258433E+01  0.31946527351E+02  0.10199042511E+02  0.34022687061E+02  0.00000000000E+00 0.  1.
        -11    1    4    4    0    0 -0.21169911141E+02 -0.32349566055E+02 -0.54413250554E+02  0.66749242673E+02  0.00000000000E+00 0.  1.
         11    1    4    4    0    0 -0.54605305558E+02  0.32309351927E+02  0.29202443127E+01  0.63515048956E+02  0.00000000000E+00 0. -1.
         -1    1    1    2    0  502  0.12199598131E+03  0.90039606115E+00 -0.19070401768E+03  0.22638871997E+03  0.00000000000E+00 0.  1.
<scales pt_clust_5="13000.00000" pt_clust_6="13000.00000" pt_clust_7="13000.00000" pt_clust_8="13000.00000" pt_clust_9="89.80426"></scales>
<clustering>
<clus scale="   79.179">  5  6 -1 -1</clus>
<clus scale="   91.686">  2  5  1 -1</clus>
<clus scale="   89.804">  1  9  2 -1</clus>
<clus scale="   92.603">  7  8 -1 -1</clus>
<clus scale="   89.804">  1  5  2 -1</clus>
</clustering>
</event>
<event>
 9    1  0.6014990E-005  0.1116755E+03  0.7546771E-02  0.1262609E+00
         -2   -1    0    0    0  501 -0.00000000000E+00  0.00000000000E+00  0.51330232438E+03  0.51330232438E+03  0.00000000000E+00 0.  1.
         21   -1    0    0  501  502  0.00000000000E+00 -0.00000000000E+00 -0.33988258955E+02  0.33988258955E+02  0.00000000000E+00 0.  1.
         23    2    1    2    0    0 -0.49456004325E+02 -0.68901860043E+01  0.24380309417E+03  0.26602691510E+03  0.94005317956E+02 0.  0.
        -24    2    1    2    0    0  0.65026522698E+02  0.39623529092E+02  0.20763041576E+03  0.23553361065E+03  0.81038382778E+02 0.  0.
         11    1    4    4    0    0  0.98736929800E+01 -0.24053569365E+02  0.63056066343E+02  0.68206535720E+02  0.00000000000E+00 0. -1.
        -12    1    4    4    0    0  0.55152829718E+02  0.63677098457E+02  0.14457434942E+03  0.16732707493E+03  0.00000000000E+00 0.  1.
        -13    1    3    3    0    0  0.60125320888E+01  0.30763986097E+02  0.13193951027E+03  0.13561197496E+03  0.00000000000E+00 0. -1.
         13    1    3    3    0    0 -0.55468536414E+02 -0.37654172102E+02  0.11186358390E+03  0.13041494014E+03  0.00000000000E+00 0.  1.
         -1    1    1    2    0  502 -0.15570518373E+02 -0.32733343088E+02  0.27880555487E+02  0.45730057581E+02  0.00000000000E+00 0.  1.
<scales pt_clust_5="13000.00000" pt_clust_6="13000.00000" pt_clust_7="13000.00000" pt_clust_8="13000.00000" pt_clust_9="36.24794"></scales>
<clustering>
<clus scale="   36.248">  2  9  1 -1</clus>
<clus scale="   81.038">  5  6 -1 -1</clus>
<clus scale="   94.005">  7  8 -1 -1</clus>
<clus scale="  101.003">  2  5  1 -1</clus>
<clus scale="   36.248">  2  5  1 -1</clus>
</clustering>
</event>
<event>
 9    1  0.7933466E-005  0.1079793E+03  0.7546771E-02  0.1268206E+00
         -4   -1    0    0    0  501 -0.00000000000E+00  0.00000000000E+00  0.69491781682E+03  0.69491781682E+03  0.00000000000E+00 0.  1.
         21   -1    0    0  501  502  0.00000000000E+00 -0.00000000000E+00 -0.11037239536E+03  0.11037239536E+03  0.00000000000E+00 0.  1.
        -24    2    1    2    0    0 -0.27853212465E+00  0.64097350172E+02  0.56178977395E+03  0.57111545082E+03  0.80352723449E+02 0.  0.
         23    2    1    2    0    0 -0.60460055008E+01 -0.42066825941E+02  0.10747683585E+03  0.14640789103E+03  0.89876739390E+02 0.  0.
         13    1    3    3    0    0 -0.14493176506E+02 -0.15911468763E+02  0.11919251358E+03  0.12112011516E+03  0.00000000000E+00 0. -1.
        -14    1    3    3    0    0  0.14214644381E+02  0.80008818935E+02  0.44259726037E+03  0.44999533566E+03  0.00000000000E+00 0.  1.
        -11    1    4    4    0    0 -0.31983701998E+02  0.41776791367E+01  0.80910336532E+02  0.87102771219E+02  0.00000000000E+00 0.  1.
         11    1    4    4    0    0  0.25937696497E+02 -0.46244505078E+02  0.26566499320E+02  0.59305119809E+02  0.00000000000E+00 0. -1.
         -3    1    1    2    0  502  0.63245376255E+01 -0.22030524231E+02 -0.84721188342E+02  0.87766870334E+02  0.00000000000E+00 0.  1.
<scales pt_clust_5="13000.00000" pt_clust_6="13000.00000" pt_clust_7="13000.00000" pt_clust_8="13000.00000" pt_clust_9="22.92038"></scales>
<clustering>
<clus scale="   22.920">  2  9  1 -1</clus>
<clus scale="   80.353">  5  6 -1 -1</clus>
<clus scale="   89.877">  7  8 -1 -1</clus>
<clus scale="  100.191">  1  5  2 -1</clus>
<clus scale="   22.920">  2  5  1 -1</clus>
</clustering>
</event>
<event>
 9    1  0.6014990E-005  0.1277101E+03  0.7546771E-02  0.1232855E+00
         -2   -1    0    0    0  501 -0.00000000000E+00  0.00000000000E+00  0.10953712857E+04  0.10953712857E+04  0.00000000000E+00 0.  1.
         21   -1    0    0  501  502  0.00000000000E+00 -0.00000000000E+00 -0.30042059993E+02  0.30042059993E+02  0.00000000000E+00 0.  1.
         23    2    1    2    0    0  0.11937041437E+02 -0.67512953136E+02  0.38180198458E+03  0.39774268636E+03  0.87897652551E+02 0.  0.
        -24    2    1    2    0    0  0.46373794675E+02  0.13073315561E+03  0.49817946089E+03  0.52334066337E+03  0.80380270459E+02 0.  0.
         11    1    4    4    0    0  0.36762108975E+02  0.16901007101E+02  0.19946780626E+03  0.20353010203E+03  0.00000000000E+00 0. -1.
        -12    1    4    4    0    0  0.96116856999E+01  0.11383214851E+03  0.29871165463E+03  0.31981056135E+03  0.00000000000E+00 0.  1.
        -11    1    3    3    0    0  0.46423265293E+02 -0.56741814764E+02  0.21778128220E+03  0.22978999103E+03  0.00000000000E+00 0. -1.
         11    1    3    3    0    0 -0.34486223856E+02 -0.10771138372E+02  0.16402070238E+03  0.16795269532E+03  0.00000000000E+00 0.  1.
         -1    1    1    2    0  502 -0.58310836112E+02 -0.63220202474E+02  0.18534778020E+03  0.20432999593E+03  0.00000000000E+00 0.  1.
<scales pt_clust_5="13000.00000" pt_clust_6="13000.00000" pt_clust_7="13000.00000" pt_clust_8="13000.00000" pt_clust_9="86.00551"></scales>
<clustering>
<clus scale="   80.380">  5  6 -1 -1</clus>
<clus scale="   86.006">  2  9  1 -1</clus>
<clus scale="   87.898">  7  8 -1 -1</clus>
<clus scale="  122.658">  2  5  1 -1</clus>
<clus scale="   86.006">  2  5  1 -1</clus>
</clustering>
</event>
<event>
 9    1  0.6014990E-005  0.1281879E+03  0.7546771E-02  0.1230243E+00
          1   -1    0    0  502    0 -0.00000000000E+00  0.00000000000E+00  0.67868705249E+03  0.67868705249E+03  0.00000000000E+00 0. -1.
         21   -1    0    0  501  502  0.00000000000E+00 -0.00000000000E+00 -0.33735778386E+02  0.33735778386E+02  0.00000000000E+00 0. -1.
        -24    2    1    2    0    0  0.74935282429E+02  0.24659959885E+02  0.31430082588E+03  0.33655327830E+03  0.90882835642E+02 0.  0.
         23    2    1    2    0    0 -0.93610650520E+02 -0.55560886179E+02  0.27580307716E+03  0.31020471623E+03  0.91157350972E+02 0.  0.
         11    1    3    3    0    0  0.42842438261E+02 -0.16705539491E+02  0.24721771061E+03  0.25145804025E+03  0.00000000000E+00 0. -1.
        -12    1    3    3    0    0  0.32092844168E+02  0.41365499376E+02  0.67083115263E+02  0.85095238050E+02  0.00000000000E+00 0.  1.
        -11    1    4    4    0    0 -0.14115778875E+02  0.22816841666E+02  0.85098864675E+02  0.89228248026E+02  0.00000000000E+00 0.  1.
         11    1    4    4    0    0 -0.79494871644E+02 -0.78377727845E+02  0.19070421249E+03  0.22097646821E+03  0.00000000000E+00 0. -1.
          2    1    1    2  501    0  0.18675368091E+02  0.30900926294E+02  0.54847371065E+02  0.65664836343E+02  0.00000000000E+00 0. -1.
<scales pt_clust_5="13000.00000" pt_clust_6="13000.00000" pt_clust_7="13000.00000" pt_clust_8="13000.00000" pt_clust_9="36.10591"></scales>
<clustering>
<clus scale="   36.106">  2  9  1 -1</clus>
<clus scale="   90.883">  5  6 -1 -1</clus>
<clus scale="   91.157">  7  8 -1 -1</clus>
<clus scale="  127.993">  1  5  2 -1</clus>
<clus scale="   36.106">  2  5  1 -1</clus>
</clustering>
</event>
<event>
 9    1  0.6014990E-005  0.3182536E+03  0.7546771E-02  0.1076921E+00
          3   -1    0    0  502    0 -0.00000000000E+00  0.00000000000E+00  0.99824186370E+02  0.99824186370E+02  0.00000000000E+00 0. -1.
         21   -1    0    0  501  502  0.00000000000E+00 -0.00000000000E+00 -0.18420865299E+04  0.18420865299E+04  0.00000000000E+00 0. -1.
        -24    2    1    2    0    0 -0.19533471433E+03 -0.28291793209E+03 -0.32869480284E+03  0.48112223681E+03  0.72388717446E+02 0.  0.
         23    2    1    2    0    0  0.15367999042E+03  0.16171338007E+03 -0.88836977942E+03  0.92017924176E+03  0.88092083777E+02 0.  0.
         11    1    3    3    0    0 -0.77888064108E+02 -0.15539815682E+03 -0.12769950687E+03  0.21569029122E+03  0.00000000000E+00 0. -1.
        -12    1    3    3    0    0 -0.11744665022E+03 -0.12751977528E+03 -0.20099529597E+03  0.26543194559E+03  0.00000000000E+00 0.  1.
        -13    1    4    4    0    0  0.92461470060E+02  0.13215092521E+03 -0.48483012071E+03  0.51095326247E+03  0.00000000000E+00 0.  1.
         13    1    4    4    0    0  0.61218520363E+02  0.29562454857E+02 -0.40353965871E+03  0.40922597929E+03  0.00000000000E+00 0. -1.
          4    1    1    2  501    0  0.41654723904E+02  0.12120455202E+03 -0.52519776129E+03  0.54060923773E+03  0.00000000000E+00 0. -1.
<scales pt_clust_5="13000.00000" pt_clust_6="13000.00000" pt_clust_7="13000.00000" pt_clust_8="13000.00000" pt_clust_9="128.16263"></scales>
<clustering>
<clus scale="   72.389">  5  6 -1 -1</clus>
<clus scale="   88.092">  7  8 -1 -1</clus>
<clus scale="  128.163">  2  9  1 -1</clus>
<clus scale="  314.269">  1  5  2 -1</clus>
<clus scale="  128.163">  2  5  1 -1</clus>
</clustering>
</event>
<event>
 9    1  0.6014990E-005  0.1361983E+03  0.7546771E-02  0.1221544E+00
         21   -1    0    0  501  502  0.00000000000E+00  0.00000000000E+00  0.67303436783E+02  0.67303436783E+02  0.00000000000E+00 0.  1.
         -2   -1    0    0    0  501 -0.00000000000E+00 -0.00000000000E+00 -0.61430820640E+03  0.61430820640E+03  0.00000000000E+00 0.  1.
        -24    2    1    2    0    0 -0.12233046537E+03 -0.38181319017E+02 -0.33363477429E+03  0.36510164015E+03  0.74595503489E+02 0.  0.
         23    2    1    2    0    0  0.23540272618E+02  0.67486420602E+02 -0.51444218582E+02  0.12457707638E+03  0.88115713313E+02 0.  0.
         13    1    3    3    0    0 -0.14097439433E+02 -0.15278397651E+02 -0.99769280767E+01  0.23058758145E+02  0.00000000000E+00 0. -1.
        -14    1    3    3    0    0 -0.10823302594E+03 -0.22902921366E+02 -0.32365784622E+03  0.34204288200E+03  0.00000000000E+00 0.  1.
        -11    1    4    4    0    0  0.21477583497E+02 -0.15972244468E+02 -0.48730524231E+00  0.26770070090E+02  0.00000000000E+00 0. -1.
         11    1    4    4    0    0  0.20626891210E+01  0.83458665070E+02 -0.50956913340E+02  0.97807006287E+02  0.00000000000E+00 0.  1.
         -1    1    1    2    0  502  0.98790192751E+02 -0.29305101585E+02 -0.16192577674E+03  0.19193292666E+03  0.00000000000E+00 0.  1.
<scales pt_clust_5="13000.00000" pt_clust_6="13000.00000" pt_clust_7="13000.00000" pt_clust_8="13000.00000" pt_clust_9="103.04514"></scales>
<clustering>
<clus scale="   74.596">  5  6 -1 -1</clus>
<clus scale="   88.116">  7  8 -1 -1</clus>
<clus scale="  103.045">  1  9  2 -1</clus>
<clus scale="  127.867">  2  5  1 -1</clus>
<clus scale="  103.045">  1  5  2 -1</clus>
</clustering>
</event>
<event>
 9    1  0.6014990E-005  0.9667198E+02  0.7546771E-02  0.1298755E+00
         21   -1    0    0  501  502  0.00000000000E+00  0.00000000000E+00  0.54605357077E+02  0.54605357077E+02  0.00000000000E+00 0.  1.
          3   -1    0    0  502    0 -0.00000000000E+00 -0.00000000000E+00 -0.30288644491E+03  0.30288644491E+03  0.00000000000E+00 0. -1.
        -24    2    1    2    0    0 -0.28499008761E+01 -0.34896013043E+02 -0.20103619841E+03  0.21600401675E+03  0.70826044087E+02 0.  0.
         23    2    1    2    0    0  0.28221728459E+02  0.22942240463E+02 -0.55317137721E+02  0.11230245490E+03  0.90714074409E+02 0.  0.
         11    1    3    3    0    0  0.48781167483E+00 -0.56807980863E+02 -0.14178585956E+03  0.15274362383E+03  0.00000000000E+00 0. -1.
        -12    1    3    3    0    0 -0.33377125510E+01  0.21911967819E+02 -0.59250338849E+02  0.63260392921E+02  0.00000000000E+00 0.  1.
        -13    1    4    4    0    0  0.24109003932E+01 -0.23763092815E+02  0.11731422221E+02  0.26610586017E+02  0.00000000000E+00 0.  1.
         13    1    4    4    0    0  0.25810828066E+02  0.46705333278E+02 -0.67048559943E+02  0.85691868882E+02  0.00000000000E+00 0. -1.
          4    1    1    2  501    0 -0.25371827583E+02  0.11953772580E+02  0.80722483036E+01  0.29185330330E+02  0.00000000000E+00 0. -1.
<scales pt_clust_5="13000.00000" pt_clust_6="13000.00000" pt_clust_7="13000.00000" pt_clust_8="13000.00000" pt_clust_9="28.04679"></scales>
<clustering>
<clus scale="   28.047">  1  9  2 -1</clus>
<clus scale="   70.826">  5  6 -1 -1</clus>
<clus scale="   78.312">  2  5  1 -1</clus>
<clus scale="   90.714">  7  8 -1 -1</clus>
<clus scale="   28.047">  1  5  2 -1</clus>
</clustering>
</event>
<event>
 9    1  0.6014990E-005  0.1011472E+03  0.7546771E-02  0.1283347E+00
          1   -1    0    0  502    0 -0.00000000000E+00  0.00000000000E+00  0.54491246871E+03  0.54491246871E+03  0.00000000000E+00 0. -1.
         21   -1    0    0  501  502  0.00000000000E+00 -0.00000000000E+00 -0.46388617014E+02  0.46388617014E+02  0.00000000000E+00 0. -1.
         23    2    1    2    0    0  0.28214675368E+02 -0.20670299934E+02  0.27308322979E+03  0.29005763806E+03  0.91299801750E+02 0.  0.
        -24    2    1    2    0    0 -0.52022790536E+01  0.90433093258E+02  0.10498053250E+03  0.16015109898E+03  0.80138968285E+02 0.  0.
         13    1    4    4    0    0  0.11110779963E+02  0.98416550245E+02  0.10119895201E+03  0.14159976936E+03  0.00000000000E+00 0. -1.
        -14    1    4    4    0    0 -0.16313059016E+02 -0.79834569872E+01  0.37815804898E+01  0.18551329627E+02  0.00000000000E+00 0.  1.
        -11    1    3    3    0    0 -0.25708866375E+02  0.15010160214E+02  0.12459373759E+03  0.12810093741E+03  0.00000000000E+00 0. -1.
         11    1    3    3    0    0  0.53923541743E+02 -0.35680460147E+02  0.14848949220E+03  0.16195670065E+03  0.00000000000E+00 0.  1.
          2    1    1    2  501    0 -0.23012396315E+02 -0.69762793325E+02  0.12046008940E+03  0.14109234868E+03  0.00000000000E+00 0. -1.
<scales pt_clust_5="13000.00000" pt_clust_6="13000.00000" pt_clust_7="13000.00000" pt_clust_8="13000.00000" pt_clust_9="73.46035"></scales>
<clustering>
<clus scale="   73.460">  2  9  1 -1</clus>
<clus scale="   80.139">  5  6 -1 -1</clus>
<clus scale="   91.199">  2  5  1 -1</clus>
<clus scale="   91.300">  7  8 -1 -1</clus>
<clus scale="   73.460">  2  5  1 -1</clus>
</clustering>
</event>
<event>
 9    1  0.6014990E-005  0.9498141E+02  0.7546771E-02  0.1291681E+00
          1   -1    0    0  502    0 -0.00000000000E+00  0.00000000000E+00  0.22074665771E+03  0.22074665771E+03  0.00000000000E+00 0. -1.
         21   -1    0    0  501  502  0.00000000000E+00 -0.00000000000E+00 -0.67609452330E+02  0.67609452330E+02  0.00000000000E+00 0.  1.
         23    2    1    2    0    0 -0.25040695146E+02  0.10466302138E+01  0.83610531558E+02  0.12770381896E+03  0.93217018516E+02 0.  0.
        -24    2    1    2    0    0 -0.95413028270E+01 -0.20260986888E+02  0.72706968188E+02  0.12096324525E+03  0.94043922874E+02 0.  0.
         11    1    4    4    0    0  0.13958774160E+02 -0.53745955227E+02  0.37660853584E+02  0.67095565964E+02  0.00000000000E+00 0. -1.
        -12    1    4    4    0    0 -0.23500076988E+02  0.33484968339E+02  0.35046114604E+02  0.53867679288E+02  0.00000000000E+00 0.  1.
        -13    1    3    3    0    0 -0.39548565473E+02 -0.32993804611E+02  0.72757008365E+02  0.89141810840E+02  0.00000000000E+00 0.  1.
         13    1    3    3    0    0  0.14507870326E+02  0.34040434825E+02  0.10853523193E+02  0.38562008119E+02  0.00000000000E+00 0. -1.
          2    1    1    2  501    0  0.34581997973E+02  0.19214356674E+02 -0.31802943692E+01  0.39689045825E+02  0.00000000000E+00 0. -1.
<scales pt_clust_5="13000.00000" pt_clust_6="13000.00000" pt_clust_7="13000.00000" pt_clust_8="13000.00000" pt_clust_9="39.56142"></scales>
<clustering>
<clus scale="   39.561">  2  9  1 -1</clus>
<clus scale="   93.217">  7  8 -1 -1</clus>
<clus scale="   94.044">  5  6 -1 -1</clus>
<clus scale="   94.163">  1  7  2 -1</clus>
<clus scale="   39.561">  2  5  1 -1</clus>
</clustering>
</event>
<event>
 9    1  0.6014990E-005  0.9822748E+02  0.7546771E-02  0.1289894E+00
         -2   -1    0    0    0  501 -0.00000000000E+00  0.00000000000E+00  0.11009317982E+03  0.11009317982E+03  0.00000000000E+00 0.  1.
         21   -1    0    0  501  502  0.00000000000E+00 -0.00000000000E+00 -0.14290274991E+03  0.14290274991E+03  0.00000000000E+00 0. -1.
         23    2    1    2    0    0  0.38668722715E+02  0.33973616280E+01  0.17531114338E+01  0.98857989470E+02  0.90901135856E+02 0.  0.
        -24    2    1    2    0    0 -0.33912711014E+02  0.17660137186E+02 -0.69889306861E+02  0.11273735620E+03  0.79769943308E+02 0.  0.
         11    1    4    4    0    0 -0.48572273284E+02  0.35133594145E+02 -0.30594548769E+02  0.67302760596E+02  0.00000000000E+00 0. -1.
        -12    1    4    4    0    0  0.14659562270E+02 -0.17473456959E+02 -0.39294758092E+02  0.45434595602E+02  0.00000000000E+00 0.  1.
        -13    1    3    3    0    0  0.11738392540E+02 -0.25057930470E+02  0.36969572951E+02  0.46178339761E+02  0.00000000000E+00 0. -1.
         13    1    3    3    0    0  0.26930330174E+02  0.28455292098E+02 -0.35216461517E+02  0.52679649709E+02  0.00000000000E+00 0.  1.
         -1    1    1    2    0  502 -0.47560117005E+01 -0.21057498814E+02  0.35326625328E+02  0.41400584062E+02  0.00000000000E+00 0.  1.
<scales pt_clust_5="13000.00000" pt_clust_6="13000.00000" pt_clust_7="13000.00000" pt_clust_8="13000.00000" pt_clust_9="21.58792"></scales>
<clustering>
<clus scale="   21.588">  2  9  1 -1</clus>
<clus scale="   79.770">  5  6 -1 -1</clus>
<clus scale="   88.028">  2  5  1 -1</clus>
<clus scale="   90.901">  7  8 -1 -1</clus>
<clus scale="   21.588">  2  5  1 -1</clus>
</clustering>
</event>
<event>
 9    1  0.6014990E-005  0.1410516E+03  0.7546771E-02  0.1229710E+00
         21   -1    0    0  501  502  0.00000000000E+00  0.00000000000E+00  0.55174070682E+02  0.55174070682E+02  0.00000000000E+00 0. -1.
          1   -1    0    0  502    0 -0.00000000000E+00 -0.00000000000E+00 -0.57665566280E+03  0.57665566280E+03  0.00000000000E+00 0. -1.
        -24    2    1    2    0    0  0.48071536749E+02 -0.28372342230E+02 -0.16743881217E+03  0.19357391060E+03  0.79493651285E+02 0.  0.
         23    2    1    2    0    0  0.40539448054E+02 -0.72829566759E+02 -0.16994462044E+03  0.21025173225E+03  0.91526085106E+02 0.  0.
         13    1    3    3    0    0  0.60758186133E+02 -0.44247896920E+02 -0.11552281801E+03  0.13782218633E+03  0.00000000000E+00 0. -1.
        -14    1    3    3    0    0 -0.12686649384E+02  0.15875554690E+02 -0.51915994160E+02  0.55751724269E+02  0.00000000000E+00 0.  1.
        -11    1    4    4    0    0  0.69131675566E+01  0.19094178917E+02 -0.58506912572E+02  0.61930916131E+02  0.00000000000E+00 0.  1.
         11    1    4    4    0    0  0.33626280497E+02 -0.91923745676E+02 -0.11143770786E+03  0.14832081612E+03  0.00000000000E+00 0. -1.
          2    1    1    2  501    0 -0.88610984803E+02  0.10120190899E+03 -0.18409815951E+03  0.22800409063E+03  0.00000000000E+00 0. -1.
<scales pt_clust_5="13000.00000" pt_clust_6="13000.00000" pt_clust_7="13000.00000" pt_clust_8="13000.00000" pt_clust_9="107.32448"></scales>
<clustering>
<clus scale="   79.494">  5  6 -1 -1</clus>
<clus scale="   91.526">  7  8 -1 -1</clus>
<clus scale="   97.134">  2  5  1 -1</clus>
<clus scale="  107.324">  1  9  2 -1</clus>
<clus scale="  107.324">  1  5  2 -1</clus>
</clustering>
</event>
<event>
 9    1  0.6014990E-005  0.1163311E+03  0.7546771E-02  0.1253036E+00
          1   -1    0    0  502    0 -0.00000000000E+00  0.00000000000E+00  0.59769577899E+03  0.59769577899E+03  0.00000000000E+00 0. -1.
         21   -1    0    0  501  502  0.00000000000E+00 -0.00000000000E+00 -0.38726081315E+02  0.38726081315E+02  0.00000000000E+00 0.  1.
         23    2    1    2    0    0  0.77595017714E+02  0.45347706019E+01  0.44155503064E+03  0.45745055732E+03  0.90821893767E+02 0.  0.
        -24    2    1    2    0    0 -0.56546434707E+02  0.18846758492E+02  0.68696851128E+02  0.12097850743E+03  0.79773694427E+02 0.  0.
         13    1    4    4    0    0 -0.35546398186E+02 -0.45781590408E+01 -0.91716949633E+01  0.36994944962E+02  0.00000000000E+00 0. -1.
        -14    1    4    4    0    0 -0.21000036521E+02  0.23424917533E+02  0.77868546091E+02  0.83983562473E+02  0.00000000000E+00 0.  1.
        -11    1    3    3    0    0  0.23281162980E+02  0.45751980799E+02  0.18510822149E+03  0.19209453392E+03  0.00000000000E+00 0.  1.
         11    1    3    3    0    0  0.54313854735E+02 -0.41217210197E+02  0.25644680915E+03  0.26535602340E+03  0.00000000000E+00 0. -1.
          2    1    1    2  501    0 -0.21048583007E+02 -0.23381529094E+02  0.48717815908E+02  0.57992795555E+02  0.00000000000E+00 0. -1.
<scales pt_clust_5="13000.00000" pt_clust_6="13000.00000" pt_clust_7="13000.00000" pt_clust_8="13000.00000" pt_clust_9="31.46011"></scales>
<clustering>
<clus scale="   31.460">  2  9  1 -1</clus>
<clus scale="   79.774">  5  6 -1 -1</clus>
<clus scale="   90.822">  7  8 -1 -1</clus>
<clus scale="  107.927">  2  5  1 -1</clus>
<clus scale="   31.460">  2  5  1 -1</clus>
</clustering>
</event>
<event>
 9    1  0.6014990E-005  0.2700816E+03  0.7546771E-02  0.1101736E+00
         21   -1    0    0  501  502  0.00000000000E+00  0.00000000000E+00  0.92458072495E+02  0.92458072495E+02  0.00000000000E+00 0. -1.
          1   -1    0    0  502    0 -0.00000000000E+00 -0.00000000000E+00 -0.17844809934E+04  0.17844809934E+04  0.00000000000E+00 0. -1.
         23    2    1    2    0    0 -0.69722738855E+02  0.20389648823E+03 -0.36974139876E+03  0.43752380282E+03  0.91012844437E+02 0.  0.
        -24    2    1    2    0    0  0.23025886277E+03 -0.23383644848E+03 -0.51582655582E+03  0.61659215876E+03  0.80063887146E+02 0.  0.
         11    1    4    4    0    0  0.22554398730E+03 -0.19639310308E+03 -0.47183533247E+03  0.55863129353E+03  0.00000000000E+00 0. -1.
        -12    1    4    4    0    0  0.47148754647E+01 -0.37443345397E+02 -0.43991223354E+02  0.57960865223E+02  0.00000000000E+00 0.  1.
        -13    1    3    3    0    0 -0.38610199804E+02  0.19476983614E+02 -0.42649192815E+02  0.60737583648E+02  0.00000000000E+00 0.  1.
         13    1    3    3    0    0 -0.31112539050E+02  0.18441950461E+03 -0.32709220595E+03  0.37678621918E+03  0.00000000000E+00 0. -1.
          2    1    1    2  501    0 -0.16053612391E+03  0.29939960250E+02 -0.80645496632E+03  0.82282310432E+03  0.00000000000E+00 0. -1.
<scales pt_clust_5="13000.00000" pt_clust_6="13000.00000" pt_clust_7="13000.00000" pt_clust_8="13000.00000" pt_clust_9="163.30424"></scales>
<clustering>
<clus scale="   80.064">  5  6 -1 -1</clus>
<clus scale="   91.013">  7  8 -1 -1</clus>
<clus scale="  163.304">  1  9  2 -1</clus>
<clus scale="  266.591">  1  5  2 -1</clus>
<clus scale="  163.304">  1  5  2 -1</clus>
</clustering>
</event>
<event>
 9    1  0.6014990E-005  0.1735456E+03  0.7546771E-02  0.1175608E+00
          1   -1    0    0  502    0 -0.00000000000E+00  0.00000000000E+00  0.80075226529E+02  0.80075226529E+02  0.00000000000E+00 0. -1.
         21   -1    0    0  501  502  0.00000000000E+00 -0.00000000000E+00 -0.60194751682E+03  0.60194751682E+03  0.00000000000E+00 0.  1.
         23    2    1    2    0    0  0.13428368626E+03  0.73580355686E+02 -0.72811435581E+02  0.19228580592E+03  0.90698119441E+02 0.  0.
        -24    2    1    2    0    0 -0.11414648188E+03 -0.73809954759E+02 -0.29588032349E+03  0.33523828093E+03  0.79763465463E+02 0.  0.
         11    1    4    4    0    0 -0.36799380990E+02  0.14979014744E+02 -0.80446361309E+02  0.89722808537E+02  0.00000000000E+00 0. -1.
        -12    1    4    4    0    0 -0.77347100893E+02 -0.88788969502E+02 -0.21543396218E+03  0.24551547239E+03  0.00000000000E+00 0.  1.
        -11    1    3    3    0    0  0.91131139908E+01 -0.19784765469E+02 -0.10049072121E+02  0.23988948326E+02  0.00000000000E+00 0.  1.
         11    1    3    3    0    0  0.12517057227E+03  0.93365121155E+02 -0.62762363460E+02  0.16829685760E+03  0.00000000000E+00 0. -1.
          2    1    1    2  501    0 -0.20137204373E+02  0.22959907254E+00 -0.15318053122E+03  0.15449865650E+03  0.00000000000E+00 0. -1.
<scales pt_clust_5="13000.00000" pt_clust_6="13000.00000" pt_clust_7="13000.00000" pt_clust_8="13000.00000" pt_clust_9="20.13851"></scales>
<clustering>
<clus scale="   20.139">  2  9  1 -1</clus>
<clus scale="   79.763">  5  6 -1 -1</clus>
<clus scale="   90.698">  7  8 -1 -1</clus>
<clus scale="  168.090">  2  5  1 -1</clus>
<clus scale="   20.139">  2  5  1 -1</clus>
</clustering>
</event>
<event>
 9    1  0.6014990E-005  0.1405698E+03  0.7546771E-02  0.1218663E+00
         21   -1    0    0  501  502  0.00000000000E+00  0.00000000000E+00  0.68557526636E+02  0.68557526636E+02  0.00000000000E+00 0.  1.
         -2   -1    0    0    0  501 -0.00000000000E+00 -0.00000000000E+00 -0.63400678944E+03  0.63400678944E+03  0.00000000000E+00 0.  1.
         23    2    1    2    0    0  0.63434083640E+02 -0.51687635654E+02 -0.26972923563E+03  0.29668188402E+03  0.92578534795E+02 0.  0.
        -24    2    1    2    0    0  0.86386020448E+02  0.32361725290E+02 -0.11146451500E+03  0.16761861154E+03  0.84627625740E+02 0.  0.
         13    1    4    4    0    0  0.36426288234E+02 -0.18874814810E+02 -0.79040435142E+02  0.89053486714E+02  0.00000000000E+00 0. -1.
        -14    1    4    4    0    0  0.49959732214E+02  0.51236540100E+02 -0.32424079856E+02  0.78565124825E+02  0.00000000000E+00 0.  1.
        -13    1    3    3    0    0  0.14901760823E+02 -0.23517799685E+02 -0.79479779377E+01  0.28953751587E+02  0.00000000000E+00 0.  1.
         13    1    3    3    0    0  0.48532322817E+02 -0.28169835969E+02 -0.26178125769E+03  0.26772813243E+03  0.00000000000E+00 0. -1.
         -1    1    1    2    0  502 -0.14982010409E+03  0.19325910364E+02 -0.18425551218E+03  0.23826382052E+03  0.00000000000E+00 0.  1.
<scales pt_clust_5="13000.00000" pt_clust_6="13000.00000" pt_clust_7="13000.00000" pt_clust_8="13000.00000" pt_clust_9="112.24101"></scales>
<clustering>
<clus scale="   84.628">  5  6 -1 -1</clus>
<clus scale="   92.579">  7  8 -1 -1</clus>
<clus scale="  123.557">  2  7  1 -1</clus>
<clus scale="  112.241">  1  9  2 -1</clus>
<clus scale="  112.241">  1  5  2 -1</clus>
</clustering>
</event>
<event>
 9    1  0.6014990E-005  0.9181947E+02  0.7546771E-02  0.1304688E+00
         -4   -1    0    0    0  501 -0.00000000000E+00  0.00000000000E+00  0.17770009173E+03  0.17770009173E+03  0.00000000000E+00 0.  1.
         21   -1    0    0  501  502  0.00000000000E+00 -0.00000000000E+00 -0.16063432605E+03  0.16063432605E+03  0.00000000000E+00 0.  1.
        -24    2    1    2    0    0 -0.18078615688E+02  0.41134367809E+01  0.11774953374E+03  0.14397474683E+03  0.80746630401E+02 0.  0.
         23    2    1    2    0    0 -0.37164624201E+01 -0.65787659629E+01  0.25931456288E+00  0.91061030067E+02  0.90746634639E+02 0.  0.
         13    1    3    3    0    0 -0.74517802021E+01 -0.23436807276E+02  0.11099032250E+03  0.11368229700E+03  0.00000000000E+00 0. -1.
        -14    1    3    3    0    0 -0.10626835486E+02  0.27550244057E+02  0.67592112458E+01  0.30292449830E+02  0.00000000000E+00 0.  1.
        -11    1    4    4    0    0 -0.69436785838E+01 -0.27805930528E+02  0.38026481700E+02  0.47617200204E+02  0.00000000000E+00 0.  1.
         11    1    4    4    0    0  0.32272161636E+01  0.21227164565E+02 -0.37767167137E+02  0.43443829863E+02  0.00000000000E+00 0. -1.
         -3    1    1    2    0  502  0.21795078108E+02  0.24653291820E+01 -0.10094308263E+03  0.10329864088E+03  0.00000000000E+00 0.  1.
<scales pt_clust_5="13000.00000" pt_clust_6="13000.00000" pt_clust_7="13000.00000" pt_clust_8="13000.00000" pt_clust_9="21.93407"></scales>
<clustering>
<clus scale="   21.934">  2  9  1 -1</clus>
<clus scale="   80.747">  5  6 -1 -1</clus>
<clus scale="   81.950">  1  5  2 -1</clus>
<clus scale="   90.747">  7  8 -1 -1</clus>
<clus scale="   21.934">  2  5  1 -1</clus>
</clustering>
</event>
<event>
 9    1  0.6014990E-005  0.9662134E+02  0.7546771E-02  0.1293320E+00
         21   -1    0    0  501  502  0.00000000000E+00  0.00000000000E+00  0.90669170001E+02  0.90669170001E+02  0.00000000000E+00 0.  1.
         -2   -1    0    0    0  501 -0.00000000000E+00 -0.00000000000E+00 -0.16832138216E+03  0.16832138216E+03  0.00000000000E+00 0.  1.
         23    2    1    2    0    0  0.36005734343E+02 -0.22548565083E+02 -0.67949273789E+02  0.12089513268E+03  0.90518940580E+02 0.  0.
        -24    2    1    2    0    0  0.71658529477E+01  0.33567191569E+02  0.13263684621E+02  0.87968960898E+02  0.79903109786E+02 0.  0.
         11    1    4    4    0    0 -0.23534111619E+02  0.29787798333E+02 -0.19696154385E+02  0.42768046914E+02  0.00000000000E+00 0. -1.
        -12    1    4    4    0    0  0.30699964567E+02  0.37793932354E+01  0.32959839006E+02  0.45200913984E+02  0.00000000000E+00 0.  1.
        -13    1    3    3    0    0  0.30093205098E+02 -0.50207782326E+02 -0.71482284456E+02  0.92391230050E+02  0.00000000000E+00 0.  1.
         13    1    3    3    0    0  0.59125292451E+01  0.27659217243E+02  0.35330106679E+01  0.28503902627E+02  0.00000000000E+00 0. -1.
         -1    1    1    2    0  502 -0.43171587290E+02 -0.11018626486E+02 -0.22966622991E+02  0.50126458587E+02  0.00000000000E+00 0.  1.
<scales pt_clust_5="13000.00000" pt_clust_6="13000.00000" pt_clust_7="13000.00000" pt_clust_8="13000.00000" pt_clust_9="44.55556"></scales>
<clustering>
<clus scale="   44.556">  1  9  2 -1</clus>
<clus scale="   79.903">  5  6 -1 -1</clus>
<clus scale="   86.755">  1  5  2 -1</clus>
<clus scale="   90.519">  7  8 -1 -1</clus>
<clus scale="   44.556">  1  5  2 -1</clus>
</clustering>
</event>
<event>
 9    1  0.6014990E-005  0.1292160E+03  0.7546771E-02  0.1238803E+00
         -2   -1    0    0    0  501 -0.00000000000E+00  0.00000000000E+00  0.17737143150E+03  0.17737143150E+03  0.00000000000E+00 0.  1.
         21   -1    0    0  501  502  0.00000000000E+00 -0.00000000000E+00 -0.19139562045E+03  0.19139562045E+03  0.00000000000E+00 0. -1.
         23    2    1    2    0    0  0.49042012673E+02 -0.15952883315E+02 -0.69893652485E+02  0.12601590082E+03  0.91297705931E+02 0.  0.
        -24    2    1    2    0    0  0.48086718384E+02 -0.57923452167E+02  0.49248674768E+02  0.12054011159E+03  0.80231089611E+02 0.  0.
         13    1    4    4    0    0 -0.12929012406E+02 -0.46064476028E+02  0.20328495903E+02  0.51984065435E+02  0.00000000000E+00 0. -1.
        -14    1    4    4    0    0  0.61015730790E+02 -0.11858976139E+02  0.28920178865E+02  0.68556046156E+02  0.00000000000E+00 0.  1.
        -11    1    3    3    0    0  0.59893163650E+02 -0.43143493114E+02 -0.39114931924E+02  0.83537596025E+02  0.00000000000E+00 0.  1.
         11    1    3    3    0    0 -0.10851150977E+02  0.27190609799E+02 -0.30778720561E+02  0.42478304794E+02  0.00000000000E+00 0. -1.
         -1    1    1    2    0  502 -0.97128731057E+02  0.73876335482E+02  0.66207887643E+01  0.12221103954E+03  0.00000000000E+00 0.  1.
<scales pt_clust_5="13000.00000" pt_clust_6="13000.00000" pt_clust_7="13000.00000" pt_clust_8="13000.00000" pt_clust_9="101.29045"></scales>
<clustering>
<clus scale="   80.231">  5  6 -1 -1</clus>
<clus scale="   91.298">  7  8 -1 -1</clus>
<clus scale="  104.857">  1  7  2 -1</clus>
<clus scale="  101.290">  2  9  1 -1</clus>
<clus scale="  101.290">  2  5  1 -1</clus>
</clustering>
</event>
